<event>
 7    1  0.1375918E-013  0.7246193E+02  0.7816164E-02  0.1226707E+00
        -11   -1    0    0    0    0  0.00000000000E+00  0.00000000000E+00  0.45593999997E+02  0.45594000000E+02  0.51100000000E-03 0.  1.
         11   -1    0    0    0    0 -0.00000000000E+00 -0.00000000000E+00 -0.45593999997E+02  0.45594000000E+02  0.51100000000E-03 0. -1.
    9900012    2    1    2    0    0  0.15184134756E+02  0.10921533794E+02 -0.90988340024E+00  0.72461928963E+02  0.70000467231E+02 0.  0.
         12    1    1    2    0    0 -0.15184134756E+02 -0.10921533794E+02  0.90988340024E+00  0.18726071037E+02  0.00000000000E+00 0. -1.
         11    1    3    3    0    0 -0.23519221902E+02  0.13271693898E+02  0.10587475583E+02  0.29006659534E+02  0.51100000000E-03 0. -1.
        -11    1    3    3    0    0  0.27371962695E+02  0.35203975791E+01 -0.22375841824E+01  0.27687981582E+02  0.51100000000E-03 0.  1.
         12    1    3    3    0    0  0.11331393964E+02 -0.58705576839E+01 -0.92597748010E+01  0.15767287847E+02  0.00000000000E+00 0. -1.
</event>
<event>
 7    1  0.1375918E-013  0.7246163E+02  0.7816164E-02  0.1226708E+00
        -11   -1    0    0    0    0  0.00000000000E+00  0.00000000000E+00  0.45593999997E+02  0.45594000000E+02  0.51100000000E-03 0.  1.
         11   -1    0    0    0    0 -0.00000000000E+00 -0.00000000000E+00 -0.45593999997E+02  0.45594000000E+02  0.51100000000E-03 0. -1.
    9900012    2    1    2    0    0 -0.53007279398E+01 -0.17616466891E+02  0.34984469566E+01  0.72461634802E+02  0.70000084033E+02 0.  0.
         12    1    1    2    0    0  0.53007279398E+01  0.17616466891E+02 -0.34984469566E+01  0.18726365198E+02  0.00000000000E+00 0. -1.
         11    1    3    3    0    0  0.13395268808E+02 -0.79910038936E+00 -0.20639320640E+02  0.24618150715E+02  0.51100000000E-03 0. -1.
        -11    1    3    3    0    0 -0.21486547859E+02 -0.12282763942E+02  0.17278766921E+01  0.24809747824E+02  0.51100000000E-03 0.  1.
        -12    1    3    3    0    0  0.27905511117E+01 -0.45346025604E+01  0.22409890905E+02  0.23033736263E+02  0.00000000000E+00 0.  1.
</event>
<event>
 7    1  0.1375918E-013  0.7246156E+02  0.7816164E-02  0.1226708E+00
        -11   -1    0    0    0    0  0.00000000000E+00  0.00000000000E+00  0.45593999997E+02  0.45594000000E+02  0.51100000000E-03 0.  1.
         11   -1    0    0    0    0 -0.00000000000E+00 -0.00000000000E+00 -0.45593999997E+02  0.45594000000E+02  0.51100000000E-03 0. -1.
    9900012    2    1    2    0    0  0.72492572628E+01 -0.64122397452E+00  0.17254472101E+02  0.72461555956E+02  0.69999981322E+02 0.  0.
         12    1    1    2    0    0 -0.72492572628E+01  0.64122397452E+00 -0.17254472101E+02  0.18726444044E+02  0.00000000000E+00 0. -1.
         11    1    3    3    0    0  0.16775531632E+02  0.63113027959E+01 -0.22458258062E+02  0.28733679889E+02  0.51100000000E-03 0. -1.
        -11    1    3    3    0    0 -0.11368624830E+02 -0.52578231417E+01  0.18340541632E+02  0.22209588072E+02  0.51100000000E-03 0.  1.
         12    1    3    3    0    0  0.18423504606E+01 -0.16947036288E+01  0.21372188532E+02  0.21518287995E+02  0.00000000000E+00 0. -1.
</event>
<event>
 7    1  0.1375918E-013  0.7246158E+02  0.7816164E-02  0.1226708E+00
        -11   -1    0    0    0    0  0.00000000000E+00  0.00000000000E+00  0.45593999997E+02  0.45594000000E+02  0.51100000000E-03 0.  1.
         11   -1    0    0    0    0 -0.00000000000E+00 -0.00000000000E+00 -0.45593999997E+02  0.45594000000E+02  0.51100000000E-03 0. -1.
    9900012    2    1    2    0    0 -0.11613775518E+02 -0.13855234874E+02  0.48817499975E+01  0.72461580208E+02  0.70000012914E+02 0.  0.
         12    1    1    2    0    0  0.11613775518E+02  0.13855234874E+02 -0.48817499975E+01  0.18726419792E+02  0.00000000000E+00 0. -1.
         11    1    3    3    0    0  0.23527419398E+01 -0.25903133682E+02 -0.97399110438E+01  0.27773613316E+02  0.51100000000E-03 0. -1.
        -11    1    3    3    0    0 -0.12993518211E+02  0.25021053103E+02  0.14441461728E+02  0.31677127885E+02  0.51100000000E-03 0.  1.
        -12    1    3    3    0    0 -0.97299924623E+00 -0.12973154295E+02  0.18019931284E+00  0.13010839008E+02  0.00000000000E+00 0.  1.
</event>
<event>
 7    1  0.1375918E-013  0.7246158E+02  0.7816164E-02  0.1226708E+00
        -11   -1    0    0    0    0  0.00000000000E+00  0.00000000000E+00  0.45593999997E+02  0.45594000000E+02  0.51100000000E-03 0. -1.
         11   -1    0    0    0    0 -0.00000000000E+00 -0.00000000000E+00 -0.45593999997E+02  0.45594000000E+02  0.51100000000E-03 0.  1.
    9900012    2    1    2    0    0 -0.41254397250E+01 -0.15658408596E+02 -0.94060524991E+01  0.72461579192E+02  0.70000011591E+02 0.  0.
         12    1    1    2    0    0  0.41254397250E+01  0.15658408596E+02  0.94060524991E+01  0.18726420808E+02  0.00000000000E+00 0. -1.
         11    1    3    3    0    0  0.15816653671E+02 -0.32486041879E+02 -0.15090724582E+02  0.39156601218E+02  0.51100000000E-03 0. -1.
        -11    1    3    3    0    0  0.27988503598E+01  0.54061230236E+01  0.49503340554E+01  0.78463709448E+01  0.51100000000E-03 0.  1.
         12    1    3    3    0    0 -0.22740943756E+02  0.11421510260E+02  0.73433802703E+00  0.25458607029E+02  0.00000000000E+00 0. -1.
</event>
<event>
 7    1  0.1375918E-013  0.7246158E+02  0.7816164E-02  0.1226708E+00
        -11   -1    0    0    0    0  0.00000000000E+00  0.00000000000E+00  0.45593999997E+02  0.45594000000E+02  0.51100000000E-03 0.  1.
         11   -1    0    0    0    0 -0.00000000000E+00 -0.00000000000E+00 -0.45593999997E+02  0.45594000000E+02  0.51100000000E-03 0. -1.
    9900012    2    1    2    0    0  0.16532939529E+02 -0.18601109531E+00  0.87923952893E+01  0.72461577370E+02  0.70000009217E+02 0.  0.
         12    1    1    2    0    0 -0.16532939529E+02  0.18601109531E+00 -0.87923952893E+01  0.18726422630E+02  0.00000000000E+00 0. -1.
         11    1    3    3    0    0 -0.22050444174E+02 -0.50179297836E+01  0.79743745030E+01  0.23978998240E+02  0.51100000000E-03 0. -1.
        -11    1    3    3    0    0  0.41365479550E+02  0.10031705271E+02  0.10978276921E+01  0.42578671127E+02  0.51100000000E-03 0.  1.
        -12    1    3    3    0    0 -0.27820958465E+01 -0.51997865824E+01 -0.27980690575E+00  0.59039080029E+01  0.00000000000E+00 0.  1.
</event>
<event>
 7    1  0.1375918E-013  0.7246154E+02  0.7816164E-02  0.1226708E+00
        -11   -1    0    0    0    0  0.00000000000E+00  0.00000000000E+00  0.45593999997E+02  0.45594000000E+02  0.51100000000E-03 0.  1.
         11   -1    0    0    0    0 -0.00000000000E+00 -0.00000000000E+00 -0.45593999997E+02  0.45594000000E+02  0.51100000000E-03 0. -1.
    9900012    2    1    2    0    0 -0.69924785513E+01 -0.17113340337E+02 -0.29864838312E+01  0.72461541193E+02  0.69999962090E+02 0.  0.
         12    1    1    2    0    0  0.69924785513E+01  0.17113340337E+02  0.29864838312E+01  0.18726458807E+02  0.00000000000E+00 0. -1.
         11    1    3    3    0    0 -0.77416660332E+01 -0.24965447352E+02 -0.52090646896E+01  0.26652228981E+02  0.51100000000E-03 0. -1.
        -11    1    3    3    0    0  0.28415527036E+01  0.25520277092E+02 -0.57486399100E+01  0.26313605335E+02  0.51100000000E-03 0.  1.
        -12    1    3    3    0    0 -0.20923652217E+01 -0.17668170077E+02  0.79712207684E+01  0.19495706877E+02  0.00000000000E+00 0.  1.
</event>
<event>
 7    1  0.1375918E-013  0.7246152E+02  0.7816164E-02  0.1226708E+00
        -11   -1    0    0    0    0  0.00000000000E+00  0.00000000000E+00  0.45593999997E+02  0.45594000000E+02  0.51100000000E-03 0. -1.
         11   -1    0    0    0    0 -0.00000000000E+00 -0.00000000000E+00 -0.45593999997E+02  0.45594000000E+02  0.51100000000E-03 0.  1.
    9900012    2    1    2    0    0 -0.10904381481E+02  0.15214522799E+02  0.54189529271E+00  0.72461524357E+02  0.69999940158E+02 0.  0.
         12    1    1    2    0    0  0.10904381481E+02 -0.15214522799E+02 -0.54189529271E+00  0.18726475643E+02  0.00000000000E+00 0. -1.
         11    1    3    3    0    0 -0.85243339306E+01  0.14364182063E+02 -0.30749246546E+02  0.34993001568E+02  0.51100000000E-03 0. -1.
        -11    1    3    3    0    0  0.15196908040E+01 -0.48287300117E+01 -0.36125605537E+00  0.50750960449E+01  0.51100000000E-03 0.  1.
         12    1    3    3    0    0 -0.38997383547E+01  0.56790707481E+01  0.31652397894E+02  0.32393426744E+02  0.00000000000E+00 0. -1.
</event>
<event>
 7    1  0.1375918E-013  0.7246163E+02  0.7816164E-02  0.1226708E+00
        -11   -1    0    0    0    0  0.00000000000E+00  0.00000000000E+00  0.45593999997E+02  0.45594000000E+02  0.51100000000E-03 0.  1.
         11   -1    0    0    0    0 -0.00000000000E+00 -0.00000000000E+00 -0.45593999997E+02  0.45594000000E+02  0.51100000000E-03 0. -1.
    9900012    2    1    2    0    0 -0.30154259565E+01  0.67400350491E+01  0.17209190611E+02  0.72461625347E+02  0.70000071716E+02 0.  0.
         12    1    1    2    0    0  0.30154259565E+01 -0.67400350491E+01 -0.17209190611E+02  0.18726374653E+02  0.00000000000E+00 0. -1.
         11    1    3    3    0    0  0.53374109573E+00  0.16763532007E+01 -0.63474377949E+01  0.65867295703E+01  0.51100000000E-03 0. -1.
        -11    1    3    3    0    0 -0.22531486580E+02  0.19684319461E+02  0.28600041553E+02  0.41389644807E+02  0.51100000000E-03 0.  1.
        -12    1    3    3    0    0  0.18982319528E+02 -0.14620637612E+02 -0.50434131473E+01  0.24485250969E+02  0.00000000000E+00 0.  1.
</event>
<event>
 7    1  0.1375918E-013  0.7246145E+02  0.7816164E-02  0.1226708E+00
        -11   -1    0    0    0    0  0.00000000000E+00  0.00000000000E+00  0.45593999997E+02  0.45594000000E+02  0.51100000000E-03 0.  1.
         11   -1    0    0    0    0 -0.00000000000E+00 -0.00000000000E+00 -0.45593999997E+02  0.45594000000E+02  0.51100000000E-03 0. -1.
    9900012    2    1    2    0    0  0.12047731707E+02 -0.11366600616E+02  0.87370662976E+01  0.72461447292E+02  0.69999839766E+02 0.  0.
         12    1    1    2    0    0 -0.12047731707E+02  0.11366600616E+02 -0.87370662976E+01  0.18726552708E+02  0.00000000000E+00 0. -1.
         11    1    3    3    0    0 -0.17087884130E+02  0.93346220775E+01 -0.12405085027E+02  0.23087162844E+02  0.51100000000E-03 0. -1.
        -11    1    3    3    0    0  0.21702341289E+02 -0.27070465586E+02  0.14867759359E+02  0.37747211726E+02  0.51100000000E-03 0.  1.
        -12    1    3    3    0    0  0.74332745481E+01  0.63692428929E+01  0.62743919654E+01  0.11627072722E+02  0.00000000000E+00 0.  1.
</event>
<event>
 7    1  0.1375918E-013  0.7246151E+02  0.7816164E-02  0.1226708E+00
        -11   -1    0    0    0    0  0.00000000000E+00  0.00000000000E+00  0.45593999997E+02  0.45594000000E+02  0.51100000000E-03 0.  1.
         11   -1    0    0    0    0 -0.00000000000E+00 -0.00000000000E+00 -0.45593999997E+02  0.45594000000E+02  0.51100000000E-03 0. -1.
    9900012    2    1    2    0    0  0.15344645920E+02 -0.78687703460E+01  0.73010642056E+01  0.72461514913E+02  0.69999927856E+02 0.  0.
         12    1    1    2    0    0 -0.15344645920E+02  0.78687703460E+01 -0.73010642056E+01  0.18726485087E+02  0.00000000000E+00 0. -1.
         11    1    3    3    0    0 -0.15632151115E+02  0.14781663259E+02  0.66003563529E+00  0.21524343532E+02  0.51100000000E-03 0. -1.
        -11    1    3    3    0    0  0.10508801690E+02 -0.13878938224E+02  0.18753219403E+02  0.25587947894E+02  0.51100000000E-03 0.  1.
         12    1    3    3    0    0  0.20467995345E+02 -0.87714953810E+01 -0.12112190833E+02  0.25349223487E+02  0.00000000000E+00 0. -1.
</event>
<event>
 7    1  0.1375918E-013  0.7246151E+02  0.7816164E-02  0.1226708E+00
        -11   -1    0    0    0    0  0.00000000000E+00  0.00000000000E+00  0.45593999997E+02  0.45594000000E+02  0.51100000000E-03 0.  1.
         11   -1    0    0    0    0 -0.00000000000E+00 -0.00000000000E+00 -0.45593999997E+02  0.45594000000E+02  0.51100000000E-03 0. -1.
    9900012    2    1    2    0    0 -0.27591837470E+00 -0.49659365606E+01  0.18053935480E+02  0.72461514927E+02  0.69999927874E+02 0.  0.
         12    1    1    2    0    0  0.27591837470E+00  0.49659365606E+01 -0.18053935480E+02  0.18726485073E+02  0.00000000000E+00 0. -1.
         11    1    3    3    0    0  0.29705797316E+02 -0.18403463380E+02  0.15624602474E+02  0.38278584892E+02  0.51100000000E-03 0. -1.
        -11    1    3    3    0    0 -0.38534914891E+01  0.56199691520E+01  0.81083746137E+00  0.68622815139E+01  0.51100000000E-03 0.  1.
         12    1    3    3    0    0 -0.26128224202E+02  0.78175576674E+01  0.16184955443E+01  0.27320648522E+02  0.00000000000E+00 0. -1.
</event>
<event>
 7    1  0.1375918E-013  0.7246157E+02  0.7816164E-02  0.1226708E+00
        -11   -1    0    0    0    0  0.00000000000E+00  0.00000000000E+00  0.45593999997E+02  0.45594000000E+02  0.51100000000E-03 0.  1.
         11   -1    0    0    0    0 -0.00000000000E+00 -0.00000000000E+00 -0.45593999997E+02  0.45594000000E+02  0.51100000000E-03 0. -1.
    9900012    2    1    2    0    0  0.15120528160E+02 -0.10452095930E+02  0.35780697682E+01  0.72461567760E+02  0.69999996699E+02 0.  0.
         12    1    1    2    0    0 -0.15120528160E+02  0.10452095930E+02 -0.35780697682E+01  0.18726432240E+02  0.00000000000E+00 0. -1.
         11    1    3    3    0    0  0.15867388175E+02  0.11022132816E+02  0.15037320809E+02  0.24482288224E+02  0.51100000000E-03 0.  1.
        -11    1    3    3    0    0 -0.20316852469E+02 -0.17057863569E+02 -0.64244614412E+01  0.27295034509E+02  0.51100000000E-03 0. -1.
         12    1    3    3    0    0  0.19569992454E+02 -0.44163651774E+01 -0.50347895994E+01  0.20684245027E+02  0.00000000000E+00 0. -1.
</event>
<event>
 7    1  0.1375918E-013  0.7246161E+02  0.7816164E-02  0.1226708E+00
        -11   -1    0    0    0    0  0.00000000000E+00  0.00000000000E+00  0.45593999997E+02  0.45594000000E+02  0.51100000000E-03 0.  1.
         11   -1    0    0    0    0 -0.00000000000E+00 -0.00000000000E+00 -0.45593999997E+02  0.45594000000E+02  0.51100000000E-03 0. -1.
    9900012    2    1    2    0    0 -0.68014982318E+00  0.18175050177E+02  0.44589987715E+01  0.72461608923E+02  0.70000050321E+02 0.  0.
         12    1    1    2    0    0  0.68014982318E+00 -0.18175050177E+02 -0.44589987715E+01  0.18726391077E+02  0.00000000000E+00 0. -1.
         11    1    3    3    0    0  0.16691162539E+02 -0.92481174024E+01 -0.67255306864E+01  0.20232531865E+02  0.51100000000E-03 0. -1.
        -11    1    3    3    0    0 -0.21914479645E+02  0.16551690034E+02 -0.89636575427E+01  0.28888579368E+02  0.51100000000E-03 0.  1.
        -12    1    3    3    0    0  0.45431672832E+01  0.10871477546E+02  0.20148187001E+02  0.23340497690E+02  0.00000000000E+00 0.  1.
</event>
<event>
 7    1  0.1375918E-013  0.7246154E+02  0.7816164E-02  0.1226708E+00
        -11   -1    0    0    0    0  0.00000000000E+00  0.00000000000E+00  0.45593999997E+02  0.45594000000E+02  0.51100000000E-03 0. -1.
         11   -1    0    0    0    0 -0.00000000000E+00 -0.00000000000E+00 -0.45593999997E+02  0.45594000000E+02  0.51100000000E-03 0.  1.
    9900012    2    1    2    0    0  0.15639325550E+02 -0.25513778078E+01 -0.99790858346E+01  0.72461543141E+02  0.69999964628E+02 0.  0.
         12    1    1    2    0    0 -0.15639325550E+02  0.25513778078E+01  0.99790858346E+01  0.18726456859E+02  0.00000000000E+00 0. -1.
         11    1    3    3    0    0 -0.57405546806E+01  0.12235388614E+02  0.11613361439E+02  0.17819339684E+02  0.51100000000E-03 0. -1.
        -11    1    3    3    0    0  0.18292222258E+02 -0.22157918406E+02  0.29000408253E+01  0.28878867365E+02  0.51100000000E-03 0.  1.
        -12    1    3    3    0    0  0.30876579732E+01  0.73711519842E+01 -0.24492488099E+02  0.25763336092E+02  0.00000000000E+00 0.  1.
</event>
<event>
 7    1  0.1375918E-013  0.7246163E+02  0.7816164E-02  0.1226708E+00
        -11   -1    0    0    0    0  0.00000000000E+00  0.00000000000E+00  0.45593999997E+02  0.45594000000E+02  0.51100000000E-03 0.  1.
         11   -1    0    0    0    0 -0.00000000000E+00 -0.00000000000E+00 -0.45593999997E+02  0.45594000000E+02  0.51100000000E-03 0. -1.
    9900012    2    1    2    0    0 -0.32955384456E+01  0.92370567847E+01  0.15952844164E+02  0.72461627457E+02  0.70000074465E+02 0.  0.
         12    1    1    2    0    0  0.32955384456E+01 -0.92370567847E+01 -0.15952844164E+02  0.18726372543E+02  0.00000000000E+00 0. -1.
         11    1    3    3    0    0 -0.18462570713E+01  0.78131571636E+00 -0.41485085431E+01  0.46075202458E+01  0.51100000000E-03 0. -1.
        -11    1    3    3    0    0 -0.54408797850E+01  0.26329081807E+02  0.35078223545E+02  0.44196215777E+02  0.51100000000E-03 0.  1.
        -12    1    3    3    0    0  0.39915984107E+01 -0.17873340739E+02 -0.14976870838E+02  0.23657891434E+02  0.00000000000E+00 0.  1.
</event>
<event>
 7    1  0.1375918E-013  0.7246166E+02  0.7816164E-02  0.1226708E+00
        -11   -1    0    0    0    0  0.00000000000E+00  0.00000000000E+00  0.45593999997E+02  0.45594000000E+02  0.51100000000E-03 0.  1.
         11   -1    0    0    0    0 -0.00000000000E+00 -0.00000000000E+00 -0.45593999997E+02  0.45594000000E+02  0.51100000000E-03 0. -1.
    9900012    2    1    2    0    0  0.63994147265E+01  0.12198070867E+02  0.12685835847E+02  0.72461658317E+02  0.70000114665E+02 0.  0.
         12    1    1    2    0    0 -0.63994147265E+01 -0.12198070867E+02 -0.12685835847E+02  0.18726341683E+02  0.00000000000E+00 0. -1.
         11    1    3    3    0    0  0.98340389673E+01  0.14227693482E+02 -0.14533450472E+02  0.22591077157E+02  0.51100000000E-03 0. -1.
        -11    1    3    3    0    0 -0.79829623427E+01  0.57326593116E+01  0.35988992593E+02  0.37306817857E+02  0.51100000000E-03 0.  1.
        -12    1    3    3    0    0  0.45483381019E+01 -0.77622819265E+01 -0.87697062741E+01  0.12563763303E+02  0.00000000000E+00 0.  1.
</event>
<event>
 7    1  0.1375918E-013  0.7246157E+02  0.7816164E-02  0.1226708E+00
        -11   -1    0    0    0    0  0.00000000000E+00  0.00000000000E+00  0.45593999997E+02  0.45594000000E+02  0.51100000000E-03 0. -1.
         11   -1    0    0    0    0 -0.00000000000E+00 -0.00000000000E+00 -0.45593999997E+02  0.45594000000E+02  0.51100000000E-03 0.  1.
    9900012    2    1    2    0    0 -0.47583778497E+01 -0.18088329098E+02  0.92158784703E+00  0.72461571257E+02  0.70000001254E+02 0.  0.
         12    1    1    2    0    0  0.47583778497E+01  0.18088329098E+02 -0.92158784703E+00  0.18726428743E+02  0.00000000000E+00 0. -1.
         11    1    3    3    0    0 -0.22142522276E+02 -0.17246194381E+02  0.19030252073E+01  0.28130837502E+02  0.51100000000E-03 0. -1.
        -11    1    3    3    0    0  0.23789770111E+02 -0.71056212938E+01 -0.14018234131E+02  0.28512346524E+02  0.51100000000E-03 0.  1.
        -12    1    3    3    0    0 -0.64056256843E+01  0.62634865769E+01  0.13036796771E+02  0.15818387230E+02  0.00000000000E+00 0.  1.
</event>
<event>
 7    1  0.1375918E-013  0.7246156E+02  0.7816164E-02  0.1226708E+00
        -11   -1    0    0    0    0  0.00000000000E+00  0.00000000000E+00  0.45593999997E+02  0.45594000000E+02  0.51100000000E-03 0.  1.
         11   -1    0    0    0    0 -0.00000000000E+00 -0.00000000000E+00 -0.45593999997E+02  0.45594000000E+02  0.51100000000E-03 0. -1.
    9900012    2    1    2    0    0 -0.14873144383E+02  0.51620056708E+01 -0.10140163422E+02  0.72461557716E+02  0.69999983615E+02 0.  0.
         12    1    1    2    0    0  0.14873144383E+02 -0.51620056708E+01  0.10140163422E+02  0.18726442284E+02  0.00000000000E+00 0. -1.
         11    1    3    3    0    0 -0.14145543585E+02 -0.14119119261E+02  0.21849922880E+02  0.29611907438E+02  0.51100000000E-03 0. -1.
        -11    1    3    3    0    0 -0.46456995697E+01  0.13395126550E+02 -0.51347225372E+01  0.15079035632E+02  0.51100000000E-03 0.  1.
         12    1    3    3    0    0  0.39180987716E+01  0.58859983816E+01 -0.26855363764E+02  0.27770614646E+02  0.00000000000E+00 0. -1.
</event>
<event>
 7    1  0.1375918E-013  0.7246156E+02  0.7816164E-02  0.1226708E+00
        -11   -1    0    0    0    0  0.00000000000E+00  0.00000000000E+00  0.45593999997E+02  0.45594000000E+02  0.51100000000E-03 0.  1.
         11   -1    0    0    0    0 -0.00000000000E+00 -0.00000000000E+00 -0.45593999997E+02  0.45594000000E+02  0.51100000000E-03 0. -1.
    9900012    2    1    2    0    0  0.33667924277E+01  0.18419893678E+02 -0.22765453066E+00  0.72461558776E+02  0.69999984995E+02 0.  0.
         12    1    1    2    0    0 -0.33667924277E+01 -0.18419893678E+02  0.22765453066E+00  0.18726441224E+02  0.00000000000E+00 0. -1.
         11    1    3    3    0    0  0.21141960297E+02  0.13615085352E+01  0.17496925794E+01  0.21257883598E+02  0.51100000000E-03 0. -1.
        -11    1    3    3    0    0 -0.29544196232E+02  0.28572810608E+01  0.72873430862E+01  0.30563523284E+02  0.51100000000E-03 0.  1.
        -12    1    3    3    0    0  0.11769028363E+02  0.14201104082E+02 -0.92646901963E+01  0.20640151893E+02  0.00000000000E+00 0.  1.
</event>
<event>
 7    1  0.1375918E-013  0.7246156E+02  0.7816164E-02  0.1226708E+00
        -11   -1    0    0    0    0  0.00000000000E+00  0.00000000000E+00  0.45593999997E+02  0.45594000000E+02  0.51100000000E-03 0.  1.
         11   -1    0    0    0    0 -0.00000000000E+00 -0.00000000000E+00 -0.45593999997E+02  0.45594000000E+02  0.51100000000E-03 0. -1.
    9900012    2    1    2    0    0  0.11913294509E+02  0.14012754122E+02 -0.35207626385E+01  0.72461557901E+02  0.69999983855E+02 0.  0.
         12    1    1    2    0    0 -0.11913294509E+02 -0.14012754122E+02  0.35207626385E+01  0.18726442099E+02  0.00000000000E+00 0. -1.
         11    1    3    3    0    0  0.14087303943E+02 -0.11158432050E+02  0.55624571571E+00  0.17979770514E+02  0.51100000000E-03 0. -1.
        -11    1    3    3    0    0 -0.65015993464E+01  0.35520929708E+02 -0.14740970079E+02  0.39003890069E+02  0.51100000000E-03 0.  1.
        -12    1    3    3    0    0  0.43275899122E+01 -0.10349743536E+02  0.10663961724E+02  0.15477897318E+02  0.00000000000E+00 0.  1.
</event>
<event>
 7    1  0.1375918E-013  0.7246152E+02  0.7816164E-02  0.1226708E+00
        -11   -1    0    0    0    0  0.00000000000E+00  0.00000000000E+00  0.45593999997E+02  0.45594000000E+02  0.51100000000E-03 0.  1.
         11   -1    0    0    0    0 -0.00000000000E+00 -0.00000000000E+00 -0.45593999997E+02  0.45594000000E+02  0.51100000000E-03 0. -1.
    9900012    2    1    2    0    0  0.15935686392E+02 -0.34324334483E+01  0.92170174796E+01  0.72461518446E+02  0.69999932458E+02 0.  0.
         12    1    1    2    0    0 -0.15935686392E+02  0.34324334483E+01 -0.92170174796E+01  0.18726481554E+02  0.00000000000E+00 0. -1.
         11    1    3    3    0    0 -0.15290066543E+02 -0.10998890543E+02 -0.12413581037E+02  0.22557897120E+02  0.51100000000E-03 0. -1.
        -11    1    3    3    0    0  0.89423613765E+01 -0.11811678724E+01  0.24200837643E+02  0.25827147102E+02  0.51100000000E-03 0.  1.
        -12    1    3    3    0    0  0.22283391558E+02  0.87476249670E+01 -0.25702391265E+01  0.24076474224E+02  0.00000000000E+00 0.  1.
</event>
<event>
 7    1  0.1375918E-013  0.7246159E+02  0.7816164E-02  0.1226708E+00
        -11   -1    0    0    0    0  0.00000000000E+00  0.00000000000E+00  0.45593999997E+02  0.45594000000E+02  0.51100000000E-03 0. -1.
         11   -1    0    0    0    0 -0.00000000000E+00 -0.00000000000E+00 -0.45593999997E+02  0.45594000000E+02  0.51100000000E-03 0.  1.
    9900012    2    1    2    0    0 -0.82832472340E+01  0.13271547886E+02 -0.10292347102E+02  0.72461586118E+02  0.70000020613E+02 0.  0.
         12    1    1    2    0    0  0.82832472340E+01 -0.13271547886E+02  0.10292347102E+02  0.18726413882E+02  0.00000000000E+00 0. -1.
         11    1    3    3    0    0 -0.12914259724E+02 -0.11558690294E+02 -0.11381000502E+02  0.20734237344E+02  0.51100000000E-03 0.  1.
        -11    1    3    3    0    0  0.21104689347E+02  0.62439881593E+01  0.11458709192E+02  0.24813248823E+02  0.51100000000E-03 0. -1.
        -12    1    3    3    0    0 -0.16473676857E+02  0.18586250021E+02 -0.10370055792E+02  0.26914099950E+02  0.00000000000E+00 0.  1.
</event>
<event>
 7    1  0.1375918E-013  0.7246162E+02  0.7816164E-02  0.1226708E+00
        -11   -1    0    0    0    0  0.00000000000E+00  0.00000000000E+00  0.45593999997E+02  0.45594000000E+02  0.51100000000E-03 0. -1.
         11   -1    0    0    0    0 -0.00000000000E+00 -0.00000000000E+00 -0.45593999997E+02  0.45594000000E+02  0.51100000000E-03 0.  1.
    9900012    2    1    2    0    0 -0.94195491171E+01 -0.91427587661E+01 -0.13355119304E+02  0.72461624081E+02  0.70000070067E+02 0.  0.
         12    1    1    2    0    0  0.94195491171E+01  0.91427587661E+01  0.13355119304E+02  0.18726375919E+02  0.00000000000E+00 0. -1.
         11    1    3    3    0    0 -0.17576724943E+02  0.57996137727E+01  0.34936034564E+01  0.18835658868E+02  0.51100000000E-03 0. -1.
        -11    1    3    3    0    0  0.14264358685E+02  0.14748305831E+02 -0.82823228363E+01  0.22126484705E+02  0.51100000000E-03 0.  1.
        -12    1    3    3    0    0 -0.61071828595E+01 -0.29690678370E+02 -0.85663999246E+01  0.31499480507E+02  0.00000000000E+00 0.  1.
</event>
<event>
 7    1  0.1375918E-013  0.7246159E+02  0.7816164E-02  0.1226708E+00
        -11   -1    0    0    0    0  0.00000000000E+00  0.00000000000E+00  0.45593999997E+02  0.45594000000E+02  0.51100000000E-03 0.  1.
         11   -1    0    0    0    0 -0.00000000000E+00 -0.00000000000E+00 -0.45593999997E+02  0.45594000000E+02  0.51100000000E-03 0. -1.
    9900012    2    1    2    0    0 -0.55919995010E+01  0.13862990653E+01  0.17818142895E+02  0.72461588178E+02  0.70000023297E+02 0.  0.
         12    1    1    2    0    0  0.55919995010E+01 -0.13862990653E+01 -0.17818142895E+02  0.18726411822E+02  0.00000000000E+00 0. -1.
         11    1    3    3    0    0 -0.10004282073E+02 -0.26646707991E+01  0.35746755185E+02  0.37215811651E+02  0.51100000000E-03 0. -1.
        -11    1    3    3    0    0  0.85805163853E+01  0.76364949856E+01  0.43621250136E+01  0.12286962684E+02  0.51100000000E-03 0.  1.
         12    1    3    3    0    0 -0.41682338132E+01 -0.35855251212E+01 -0.22290737304E+02  0.22958813843E+02  0.00000000000E+00 0. -1.
</event>
<event>
 7    1  0.1375918E-013  0.7246159E+02  0.7816164E-02  0.1226708E+00
        -11   -1    0    0    0    0  0.00000000000E+00  0.00000000000E+00  0.45593999997E+02  0.45594000000E+02  0.51100000000E-03 0. -1.
         11   -1    0    0    0    0 -0.00000000000E+00 -0.00000000000E+00 -0.45593999997E+02  0.45594000000E+02  0.51100000000E-03 0.  1.
    9900012    2    1    2    0    0  0.13095252647E+02  0.13321309648E+02 -0.13174488057E+01  0.72461585394E+02  0.70000019670E+02 0.  0.
         12    1    1    2    0    0 -0.13095252647E+02 -0.13321309648E+02  0.13174488057E+01  0.18726414606E+02  0.00000000000E+00 0. -1.
         11    1    3    3    0    0 -0.17574842619E+02  0.15438783017E+02  0.11182665565E+02  0.25928423082E+02  0.51100000000E-03 0. -1.
        -11    1    3    3    0    0  0.32686646847E+02  0.24202360904E+01 -0.19358359063E+02  0.38066001769E+02  0.51100000000E-03 0.  1.
         12    1    3    3    0    0 -0.20165515811E+01 -0.45377094587E+01  0.68582446914E+01  0.84671605428E+01  0.00000000000E+00 0. -1.
</event>
<event>
 7    1  0.1375918E-013  0.7246170E+02  0.7816164E-02  0.1226708E+00
        -11   -1    0    0    0    0  0.00000000000E+00  0.00000000000E+00  0.45593999997E+02  0.45594000000E+02  0.51100000000E-03 0.  1.
         11   -1    0    0    0    0 -0.00000000000E+00 -0.00000000000E+00 -0.45593999997E+02  0.45594000000E+02  0.51100000000E-03 0. -1.
    9900012    2    1    2    0    0 -0.10925067818E+02 -0.78120808904E+01  0.13049461571E+02  0.72461703998E+02  0.70000174174E+02 0.  0.
         12    1    1    2    0    0  0.10925067818E+02  0.78120808904E+01 -0.13049461571E+02  0.18726296002E+02  0.00000000000E+00 0. -1.
         11    1    3    3    0    0 -0.24234294854E+02 -0.29318055506E+01  0.28430651489E+02  0.37472636352E+02  0.51100000000E-03 0. -1.
        -11    1    3    3    0    0 -0.68755709041E+01 -0.14910403857E+00 -0.12213492368E+02  0.14016600992E+02  0.51100000000E-03 0.  1.
         12    1    3    3    0    0  0.20184797941E+02 -0.47311713012E+01 -0.31676975496E+01  0.20972466654E+02  0.00000000000E+00 0. -1.
</event>
<event>
 7    1  0.1375918E-013  0.7246157E+02  0.7816164E-02  0.1226708E+00
        -11   -1    0    0    0    0  0.00000000000E+00  0.00000000000E+00  0.45593999997E+02  0.45594000000E+02  0.51100000000E-03 0. -1.
         11   -1    0    0    0    0 -0.00000000000E+00 -0.00000000000E+00 -0.45593999997E+02  0.45594000000E+02  0.51100000000E-03 0.  1.
    9900012    2    1    2    0    0 -0.13192580927E+02 -0.52394523108E+01 -0.12214050845E+02  0.72461572415E+02  0.70000002763E+02 0.  0.
         12    1    1    2    0    0  0.13192580927E+02  0.52394523108E+01  0.12214050845E+02  0.18726427585E+02  0.00000000000E+00 0. -1.
         11    1    3    3    0    0  0.22758197647E+02 -0.90431114401E+01 -0.15579709398E+02  0.29024830230E+02  0.51100000000E-03 0.  1.
        -11    1    3    3    0    0 -0.28970236867E+02  0.12942355349E+02  0.36095153056E+01  0.31934429494E+02  0.51100000000E-03 0. -1.
        -12    1    3    3    0    0 -0.69805417081E+01 -0.91386962199E+01 -0.24385675203E+00  0.11502312691E+02  0.00000000000E+00 0.  1.
</event>
<event>
 7    1  0.1375918E-013  0.7246149E+02  0.7816164E-02  0.1226708E+00
        -11   -1    0    0    0    0  0.00000000000E+00  0.00000000000E+00  0.45593999997E+02  0.45594000000E+02  0.51100000000E-03 0.  1.
         11   -1    0    0    0    0 -0.00000000000E+00 -0.00000000000E+00 -0.45593999997E+02  0.45594000000E+02  0.51100000000E-03 0. -1.
    9900012    2    1    2    0    0 -0.15739186414E+02  0.97871428626E+01  0.26780917357E+01  0.72461485916E+02  0.69999890081E+02 0.  0.
         12    1    1    2    0    0  0.15739186414E+02 -0.97871428626E+01 -0.26780917357E+01  0.18726514084E+02  0.00000000000E+00 0. -1.
         11    1    3    3    0    0 -0.34961869643E+02 -0.10221614353E+02 -0.41239594906E+01  0.36658161043E+02  0.51100000000E-03 0. -1.
        -11    1    3    3    0    0  0.17299233849E+02  0.35062472691E+01 -0.49346985924E+00  0.17657881369E+02  0.51100000000E-03 0.  1.
         12    1    3    3    0    0  0.19234493799E+01  0.16502509946E+02  0.72955210855E+01  0.18145443504E+02  0.00000000000E+00 0. -1.
</event>
<event>
 7    1  0.1375918E-013  0.7246165E+02  0.7816164E-02  0.1226708E+00
        -11   -1    0    0    0    0  0.00000000000E+00  0.00000000000E+00  0.45593999997E+02  0.45594000000E+02  0.51100000000E-03 0.  1.
         11   -1    0    0    0    0 -0.00000000000E+00 -0.00000000000E+00 -0.45593999997E+02  0.45594000000E+02  0.51100000000E-03 0. -1.
    9900012    2    1    2    0    0 -0.96940069253E+00  0.13679768746E+02  0.12751488027E+02  0.72461648045E+02  0.70000101285E+02 0.  0.
         12    1    1    2    0    0  0.96940069253E+00 -0.13679768746E+02 -0.12751488027E+02  0.18726351955E+02  0.00000000000E+00 0. -1.
         11    1    3    3    0    0  0.82343763934E+01 -0.33368319763E+00 -0.15816051963E+02  0.17834343246E+02  0.51100000000E-03 0. -1.
        -11    1    3    3    0    0 -0.21568608308E+02  0.17837972379E+02  0.30662443864E+02  0.41516064203E+02  0.51100000000E-03 0.  1.
        -12    1    3    3    0    0  0.12364831222E+02 -0.38245204356E+01 -0.20949038737E+01  0.13111240596E+02  0.00000000000E+00 0.  1.
</event>
<event>
 7    1  0.1375918E-013  0.7246159E+02  0.7816164E-02  0.1226708E+00
        -11   -1    0    0    0    0  0.00000000000E+00  0.00000000000E+00  0.45593999997E+02  0.45594000000E+02  0.51100000000E-03 0.  1.
         11   -1    0    0    0    0 -0.00000000000E+00 -0.00000000000E+00 -0.45593999997E+02  0.45594000000E+02  0.51100000000E-03 0. -1.
    9900012    2    1    2    0    0 -0.49367441325E+01 -0.12809595253E+02  0.12736607157E+02  0.72461592575E+02  0.70000029024E+02 0.  0.
         12    1    1    2    0    0  0.49367441325E+01  0.12809595253E+02 -0.12736607157E+02  0.18726407425E+02  0.00000000000E+00 0. -1.
         11    1    3    3    0    0  0.26724659456E+02 -0.27876756124E+01  0.69549895213E+01  0.27755187584E+02  0.51100000000E-03 0. -1.
        -11    1    3    3    0    0 -0.15499006888E+02  0.34518744791E+01 -0.96780922735E+01  0.18595701715E+02  0.51100000000E-03 0.  1.
        -12    1    3    3    0    0 -0.16162396700E+02 -0.13473794120E+02  0.15459709910E+02  0.26110703276E+02  0.00000000000E+00 0.  1.
</event>
<event>
 7    1  0.1375918E-013  0.7246159E+02  0.7816164E-02  0.1226708E+00
        -11   -1    0    0    0    0  0.00000000000E+00  0.00000000000E+00  0.45593999997E+02  0.45594000000E+02  0.51100000000E-03 0.  1.
         11   -1    0    0    0    0 -0.00000000000E+00 -0.00000000000E+00 -0.45593999997E+02  0.45594000000E+02  0.51100000000E-03 0. -1.
    9900012    2    1    2    0    0 -0.64028111046E+01  0.17562706085E+02  0.11107167846E+01  0.72461592794E+02  0.70000029310E+02 0.  0.
         12    1    1    2    0    0  0.64028111046E+01 -0.17562706085E+02 -0.11107167846E+01  0.18726407206E+02  0.00000000000E+00 0. -1.
         11    1    3    3    0    0 -0.20722349642E+02  0.27440813460E+02  0.28044428538E+00  0.34387391109E+02  0.51100000000E-03 0. -1.
        -11    1    3    3    0    0  0.19157300316E+02  0.55620295384E+01 -0.55110436498E+01  0.20695650035E+02  0.51100000000E-03 0.  1.
         12    1    3    3    0    0 -0.48377617786E+01 -0.15440136913E+02  0.63413161490E+01  0.17378551649E+02  0.00000000000E+00 0. -1.
</event>
<event>
 7    1  0.1375918E-013  0.7246154E+02  0.7816164E-02  0.1226708E+00
        -11   -1    0    0    0    0  0.00000000000E+00  0.00000000000E+00  0.45593999997E+02  0.45594000000E+02  0.51100000000E-03 0.  1.
         11   -1    0    0    0    0 -0.00000000000E+00 -0.00000000000E+00 -0.45593999997E+02  0.45594000000E+02  0.51100000000E-03 0. -1.
    9900012    2    1    2    0    0  0.15405705346E+02 -0.10130667222E+02 -0.32732720296E+01  0.72461535161E+02  0.69999954233E+02 0.  0.
         12    1    1    2    0    0 -0.15405705346E+02  0.10130667222E+02  0.32732720296E+01  0.18726464839E+02  0.00000000000E+00 0. -1.
         11    1    3    3    0    0 -0.36136172291E+01 -0.47222573956E+00  0.26124754754E+02  0.26377718587E+02  0.51100000000E-03 0. -1.
        -11    1    3    3    0    0  0.11872645254E+02  0.52409202942E+01 -0.26220358479E+02  0.29256352300E+02  0.51100000000E-03 0.  1.
        -12    1    3    3    0    0  0.71466773215E+01 -0.14899361776E+02 -0.31776683043E+01  0.16827464275E+02  0.00000000000E+00 0.  1.
</event>
<event>
 7    1  0.1375918E-013  0.7246159E+02  0.7816164E-02  0.1226708E+00
        -11   -1    0    0    0    0  0.00000000000E+00  0.00000000000E+00  0.45593999997E+02  0.45594000000E+02  0.51100000000E-03 0.  1.
         11   -1    0    0    0    0 -0.00000000000E+00 -0.00000000000E+00 -0.45593999997E+02  0.45594000000E+02  0.51100000000E-03 0. -1.
    9900012    2    1    2    0    0  0.17138604962E+02  0.79046517344E+00  0.75047940522E+01  0.72461586863E+02  0.70000021583E+02 0.  0.
         12    1    1    2    0    0 -0.17138604962E+02 -0.79046517344E+00 -0.75047940522E+01  0.18726413137E+02  0.00000000000E+00 0. -1.
         11    1    3    3    0    0 -0.12626317508E+02 -0.25849977007E+02  0.12106811874E+02  0.31212499084E+02  0.51100000000E-03 0. -1.
        -11    1    3    3    0    0  0.61938539373E+01  0.41853588055E+01  0.25859903906E+01  0.79100190574E+01  0.51100000000E-03 0.  1.
         12    1    3    3    0    0  0.23571068533E+02  0.22455083375E+02 -0.71880082121E+01  0.33339068721E+02  0.00000000000E+00 0. -1.
</event>
<event>
 7    1  0.1375918E-013  0.7246150E+02  0.7816164E-02  0.1226708E+00
        -11   -1    0    0    0    0  0.00000000000E+00  0.00000000000E+00  0.45593999997E+02  0.45594000000E+02  0.51100000000E-03 0.  1.
         11   -1    0    0    0    0 -0.00000000000E+00 -0.00000000000E+00 -0.45593999997E+02  0.45594000000E+02  0.51100000000E-03 0. -1.
    9900012    2    1    2    0    0 -0.17588486076E+02 -0.32844817818E+01  0.55262222975E+01  0.72461500169E+02  0.69999908649E+02 0.  0.
         12    1    1    2    0    0  0.17588486076E+02  0.32844817818E+01 -0.55262222975E+01  0.18726499831E+02  0.00000000000E+00 0. -1.
         11    1    3    3    0    0 -0.95265955637E+01 -0.25686733907E+02 -0.10924411638E+02  0.29494187423E+02  0.51100000000E-03 0. -1.
        -11    1    3    3    0    0 -0.18171320605E+02  0.14119038976E+02  0.18766918346E+02  0.29694130372E+02  0.51100000000E-03 0.  1.
         12    1    3    3    0    0  0.10109430092E+02  0.82832131495E+01 -0.23162844100E+01  0.13273182374E+02  0.00000000000E+00 0. -1.
</event>
<event>
 7    1  0.1375918E-013  0.7246158E+02  0.7816164E-02  0.1226708E+00
        -11   -1    0    0    0    0  0.00000000000E+00  0.00000000000E+00  0.45593999997E+02  0.45594000000E+02  0.51100000000E-03 0.  1.
         11   -1    0    0    0    0 -0.00000000000E+00 -0.00000000000E+00 -0.45593999997E+02  0.45594000000E+02  0.51100000000E-03 0. -1.
    9900012    2    1    2    0    0 -0.39022036897E+01  0.18308987624E+02  0.48244740468E+00  0.72461575436E+02  0.70000006698E+02 0.  0.
         12    1    1    2    0    0  0.39022036897E+01 -0.18308987624E+02 -0.48244740468E+00  0.18726424564E+02  0.00000000000E+00 0. -1.
         11    1    3    3    0    0 -0.19143390948E+02  0.61709146677E+01 -0.25553242281E+02  0.32519498707E+02  0.51100000000E-03 0. -1.
        -11    1    3    3    0    0  0.35140501191E+01  0.15833066647E+02  0.79225576725E+01  0.18049971413E+02  0.51100000000E-03 0.  1.
         12    1    3    3    0    0  0.11727137139E+02 -0.36949936909E+01  0.18113132013E+02  0.21892105316E+02  0.00000000000E+00 0. -1.
</event>
<event>
 7    1  0.1375918E-013  0.7246156E+02  0.7816164E-02  0.1226708E+00
        -11   -1    0    0    0    0  0.00000000000E+00  0.00000000000E+00  0.45593999997E+02  0.45594000000E+02  0.51100000000E-03 0.  1.
         11   -1    0    0    0    0 -0.00000000000E+00 -0.00000000000E+00 -0.45593999997E+02  0.45594000000E+02  0.51100000000E-03 0. -1.
    9900012    2    1    2    0    0 -0.96169237513E+01 -0.92041599329E+01  0.13171098268E+02  0.72461558477E+02  0.69999984606E+02 0.  0.
         12    1    1    2    0    0  0.96169237513E+01  0.92041599329E+01 -0.13171098268E+02  0.18726441523E+02  0.00000000000E+00 0. -1.
         11    1    3    3    0    0 -0.10408986411E+02 -0.40870785344E+01  0.58523894907E+01  0.12621476619E+02  0.51100000000E-03 0. -1.
        -11    1    3    3    0    0  0.28764617714E+02 -0.10552292947E+02  0.65642839228E+01  0.31334389133E+02  0.51100000000E-03 0.  1.
        -12    1    3    3    0    0 -0.27972555055E+02  0.54352115488E+01  0.75442485479E+00  0.28505692725E+02  0.00000000000E+00 0.  1.
</event>
<event>
 7    1  0.1375918E-013  0.7246155E+02  0.7816164E-02  0.1226708E+00
        -11   -1    0    0    0    0  0.00000000000E+00  0.00000000000E+00  0.45593999997E+02  0.45594000000E+02  0.51100000000E-03 0. -1.
         11   -1    0    0    0    0 -0.00000000000E+00 -0.00000000000E+00 -0.45593999997E+02  0.45594000000E+02  0.51100000000E-03 0.  1.
    9900012    2    1    2    0    0 -0.69702910620E+01 -0.29061598008E+01 -0.17136190394E+02  0.72461554969E+02  0.69999980036E+02 0.  0.
         12    1    1    2    0    0  0.69702910620E+01  0.29061598008E+01  0.17136190394E+02  0.18726445031E+02  0.00000000000E+00 0. -1.
         11    1    3    3    0    0 -0.20861338710E+02 -0.74090163220E+01  0.87106522637E+01  0.23790007119E+02  0.51100000000E-03 0.  1.
        -11    1    3    3    0    0  0.21652211472E+02  0.15313606239E+02 -0.10938947476E+02  0.28687721587E+02  0.51100000000E-03 0. -1.
         12    1    3    3    0    0 -0.77611638246E+01 -0.10810749718E+02 -0.14907895181E+02  0.19983826263E+02  0.00000000000E+00 0. -1.
</event>
<event>
 7    1  0.1375918E-013  0.7246162E+02  0.7816164E-02  0.1226708E+00
        -11   -1    0    0    0    0  0.00000000000E+00  0.00000000000E+00  0.45593999997E+02  0.45594000000E+02  0.51100000000E-03 0.  1.
         11   -1    0    0    0    0 -0.00000000000E+00 -0.00000000000E+00 -0.45593999997E+02  0.45594000000E+02  0.51100000000E-03 0. -1.
    9900012    2    1    2    0    0 -0.16539241280E+02 -0.48867878187E+01  0.72972610826E+01  0.72461622438E+02  0.70000067926E+02 0.  0.
         12    1    1    2    0    0  0.16539241280E+02  0.48867878187E+01 -0.72972610826E+01  0.18726377562E+02  0.00000000000E+00 0. -1.
         11    1    3    3    0    0  0.18894984122E+02  0.30677723055E+01  0.90033239079E+01  0.21153994742E+02  0.51100000000E-03 0. -1.
        -11    1    3    3    0    0 -0.22491153310E+02  0.85474651698E+01 -0.13146395586E+02  0.27417856503E+02  0.51100000000E-03 0.  1.
         12    1    3    3    0    0 -0.12943072092E+02 -0.16502025294E+02  0.11440332761E+02  0.23889771193E+02  0.00000000000E+00 0. -1.
</event>
<event>
 7    1  0.1375918E-013  0.7246153E+02  0.7816164E-02  0.1226708E+00
        -11   -1    0    0    0    0  0.00000000000E+00  0.00000000000E+00  0.45593999997E+02  0.45594000000E+02  0.51100000000E-03 0. -1.
         11   -1    0    0    0    0 -0.00000000000E+00 -0.00000000000E+00 -0.45593999997E+02  0.45594000000E+02  0.51100000000E-03 0.  1.
    9900012    2    1    2    0    0 -0.39697177544E+01 -0.18056488266E+02  0.29807859669E+01  0.72461534436E+02  0.69999953288E+02 0.  0.
         12    1    1    2    0    0  0.39697177544E+01  0.18056488266E+02 -0.29807859669E+01  0.18726465564E+02  0.00000000000E+00 0. -1.
         11    1    3    3    0    0  0.65838480923E+01  0.14485598207E+02  0.21710304116E+02  0.26916851900E+02  0.51100000000E-03 0. -1.
        -11    1    3    3    0    0 -0.18388137706E+01 -0.83980356777E+01 -0.17905908288E+02  0.19862774006E+02  0.51100000000E-03 0.  1.
        -12    1    3    3    0    0 -0.87147520761E+01 -0.24144050795E+02 -0.82360986116E+00  0.25681908530E+02  0.00000000000E+00 0.  1.
</event>
<event>
 7    1  0.1375918E-013  0.7246154E+02  0.7816164E-02  0.1226708E+00
        -11   -1    0    0    0    0  0.00000000000E+00  0.00000000000E+00  0.45593999997E+02  0.45594000000E+02  0.51100000000E-03 0. -1.
         11   -1    0    0    0    0 -0.00000000000E+00 -0.00000000000E+00 -0.45593999997E+02  0.45594000000E+02  0.51100000000E-03 0.  1.
    9900012    2    1    2    0    0  0.15930178654E+02 -0.98254533385E+01  0.60842278901E+00  0.72461540015E+02  0.69999960556E+02 0.  0.
         12    1    1    2    0    0 -0.15930178654E+02  0.98254533385E+01 -0.60842278901E+00  0.18726459985E+02  0.00000000000E+00 0. -1.
         11    1    3    3    0    0 -0.14240665520E+02 -0.28969841748E+02 -0.83692335652E+01  0.33348048760E+02  0.51100000000E-03 0.  1.
        -11    1    3    3    0    0  0.27547420079E+02  0.16557937158E+02  0.32517189453E+01  0.32304787761E+02  0.51100000000E-03 0. -1.
         12    1    3    3    0    0  0.26234240950E+01  0.25864512518E+01  0.57259374089E+01  0.68087034941E+01  0.00000000000E+00 0. -1.
</event>
<event>
 7    1  0.1375918E-013  0.7246162E+02  0.7816164E-02  0.1226708E+00
        -11   -1    0    0    0    0  0.00000000000E+00  0.00000000000E+00  0.45593999997E+02  0.45594000000E+02  0.51100000000E-03 0.  1.
         11   -1    0    0    0    0 -0.00000000000E+00 -0.00000000000E+00 -0.45593999997E+02  0.45594000000E+02  0.51100000000E-03 0. -1.
    9900012    2    1    2    0    0  0.86481119149E+01  0.13660556516E+02 -0.94486421099E+01  0.72461615359E+02  0.70000058704E+02 0.  0.
         12    1    1    2    0    0 -0.86481119149E+01 -0.13660556516E+02  0.94486421099E+01  0.18726384641E+02  0.00000000000E+00 0. -1.
         11    1    3    3    0    0 -0.28165188841E+02  0.22060949386E+01 -0.16037560165E+02  0.32486120939E+02  0.51100000000E-03 0. -1.
        -11    1    3    3    0    0  0.28206110306E+02  0.49818272322E+01  0.42683485343E+01  0.28958972024E+02  0.51100000000E-03 0.  1.
         12    1    3    3    0    0  0.86071904498E+01  0.64726343451E+01  0.23205695207E+01  0.11016522396E+02  0.00000000000E+00 0. -1.
</event>
<event>
 7    1  0.1375918E-013  0.7246158E+02  0.7816164E-02  0.1226708E+00
        -11   -1    0    0    0    0  0.00000000000E+00  0.00000000000E+00  0.45593999997E+02  0.45594000000E+02  0.51100000000E-03 0.  1.
         11   -1    0    0    0    0 -0.00000000000E+00 -0.00000000000E+00 -0.45593999997E+02  0.45594000000E+02  0.51100000000E-03 0. -1.
    9900012    2    1    2    0    0 -0.14213276528E+02 -0.12161312645E+02 -0.87419095719E+00  0.72461575762E+02  0.70000007122E+02 0.  0.
         12    1    1    2    0    0  0.14213276528E+02  0.12161312645E+02  0.87419095719E+00  0.18726424238E+02  0.00000000000E+00 0. -1.
         11    1    3    3    0    0 -0.15031943534E+00 -0.30746572721E+02 -0.84677150813E+01  0.31891637289E+02  0.51100000000E-03 0. -1.
        -11    1    3    3    0    0  0.26055169905E+01  0.13066224643E+02  0.16233434495E+02  0.21000936669E+02  0.51100000000E-03 0.  1.
         12    1    3    3    0    0 -0.16668474083E+02  0.55190354323E+01 -0.86399103712E+01  0.19569001804E+02  0.00000000000E+00 0. -1.
</event>
<event>
 7    1  0.1375918E-013  0.7246158E+02  0.7816164E-02  0.1226708E+00
        -11   -1    0    0    0    0  0.00000000000E+00  0.00000000000E+00  0.45593999997E+02  0.45594000000E+02  0.51100000000E-03 0.  1.
         11   -1    0    0    0    0 -0.00000000000E+00 -0.00000000000E+00 -0.45593999997E+02  0.45594000000E+02  0.51100000000E-03 0. -1.
    9900012    2    1    2    0    0  0.16618076144E+02 -0.68368374103E+01  0.52702968000E+01  0.72461579390E+02  0.70000011848E+02 0.  0.
         12    1    1    2    0    0 -0.16618076144E+02  0.68368374103E+01 -0.52702968000E+01  0.18726420610E+02  0.00000000000E+00 0. -1.
         11    1    3    3    0    0  0.23469073979E+01 -0.24136790277E+01 -0.26401862845E+02  0.26615637935E+02  0.51100000000E-03 0. -1.
        -11    1    3    3    0    0  0.13376155045E+02  0.11095840702E+02  0.14056445982E+02  0.22352245493E+02  0.51100000000E-03 0.  1.
        -12    1    3    3    0    0  0.89501370170E+00 -0.15518999084E+02  0.17615713663E+02  0.23493695962E+02  0.00000000000E+00 0.  1.
</event>
<event>
 7    1  0.1375918E-013  0.7246159E+02  0.7816164E-02  0.1226708E+00
        -11   -1    0    0    0    0  0.00000000000E+00  0.00000000000E+00  0.45593999997E+02  0.45594000000E+02  0.51100000000E-03 0.  1.
         11   -1    0    0    0    0 -0.00000000000E+00 -0.00000000000E+00 -0.45593999997E+02  0.45594000000E+02  0.51100000000E-03 0. -1.
    9900012    2    1    2    0    0 -0.11962123460E+02 -0.41251266088E+01 -0.13804685647E+02  0.72461590493E+02  0.70000026313E+02 0.  0.
         12    1    1    2    0    0  0.11962123460E+02  0.41251266088E+01  0.13804685647E+02  0.18726409507E+02  0.00000000000E+00 0. -1.
         11    1    3    3    0    0  0.36361408798E+01 -0.32994580634E+02 -0.25128099283E+01  0.33289308880E+02  0.51100000000E-03 0.  1.
        -11    1    3    3    0    0 -0.14202816893E+02  0.28292858932E+02 -0.15100970295E+02  0.35074851081E+02  0.51100000000E-03 0. -1.
         12    1    3    3    0    0 -0.13954474462E+01  0.57659509320E+00  0.38090945767E+01  0.40974305328E+01  0.00000000000E+00 0. -1.
</event>
<event>
 7    1  0.1375918E-013  0.7246159E+02  0.7816164E-02  0.1226708E+00
        -11   -1    0    0    0    0  0.00000000000E+00  0.00000000000E+00  0.45593999997E+02  0.45594000000E+02  0.51100000000E-03 0.  1.
         11   -1    0    0    0    0 -0.00000000000E+00 -0.00000000000E+00 -0.45593999997E+02  0.45594000000E+02  0.51100000000E-03 0. -1.
    9900012    2    1    2    0    0 -0.12227754927E+02  0.13248864887E+02  0.50624235976E+01  0.72461586995E+02  0.70000021755E+02 0.  0.
         12    1    1    2    0    0  0.12227754927E+02 -0.13248864887E+02 -0.50624235976E+01  0.18726413005E+02  0.00000000000E+00 0. -1.
         11    1    3    3    0    0 -0.28865600489E+02  0.21779562007E+02 -0.14317388911E+02  0.38891642268E+02  0.51100000000E-03 0. -1.
        -11    1    3    3    0    0  0.13947341707E+02  0.25269831070E+01  0.16650935474E+02  0.21867044536E+02  0.51100000000E-03 0.  1.
         12    1    3    3    0    0  0.26905038544E+01 -0.11057680227E+02  0.27288770355E+01  0.11702900190E+02  0.00000000000E+00 0. -1.
</event>
<event>
 7    1  0.1395803E-013  0.7246158E+02  0.7816164E-02  0.1226708E+00
        -11   -1    0    0    0    0  0.00000000000E+00  0.00000000000E+00  0.45593999997E+02  0.45594000000E+02  0.51100000000E-03 0. -1.
         11   -1    0    0    0    0 -0.00000000000E+00 -0.00000000000E+00 -0.45593999997E+02  0.45594000000E+02  0.51100000000E-03 0.  1.
    9900012    2    1    2    0    0 -0.78592412084E+01 -0.16762517014E+02 -0.28158779658E+01  0.72461579687E+02  0.70000012236E+02 0.  0.
         12    1    1    2    0    0  0.78592412084E+01  0.16762517014E+02  0.28158779658E+01  0.18726420313E+02  0.00000000000E+00 0. -1.
         11    1    3    3    0    0  0.73127680038E+01 -0.39274723996E+01  0.21090167844E+02  0.22664880217E+02  0.51100000000E-03 0. -1.
        -11    1    3    3    0    0 -0.15130136657E+02 -0.24982668575E+02 -0.89889173095E+01  0.30559047745E+02  0.51100000000E-03 0.  1.
         12    1    3    3    0    0 -0.41872554775E-01  0.12147623961E+02 -0.14917128500E+02  0.19237651725E+02  0.00000000000E+00 0. -1.
</event>
<event>
 7    1  0.1375918E-013  0.7246163E+02  0.7816164E-02  0.1226708E+00
        -11   -1    0    0    0    0  0.00000000000E+00  0.00000000000E+00  0.45593999997E+02  0.45594000000E+02  0.51100000000E-03 0.  1.
         11   -1    0    0    0    0 -0.00000000000E+00 -0.00000000000E+00 -0.45593999997E+02  0.45594000000E+02  0.51100000000E-03 0. -1.
    9900012    2    1    2    0    0  0.10723121306E+02  0.63454225489E+01  0.13979528379E+02  0.72461630049E+02  0.70000077841E+02 0.  0.
         12    1    1    2    0    0 -0.10723121306E+02 -0.63454225489E+01 -0.13979528379E+02  0.18726369951E+02  0.00000000000E+00 0. -1.
         11    1    3    3    0    0 -0.87455617122E+01 -0.14311356274E+02 -0.19045701218E+02  0.25377913689E+02  0.51100000000E-03 0. -1.
        -11    1    3    3    0    0  0.14970982339E+02  0.22469714650E+02  0.21284498843E+02  0.34380929014E+02  0.51100000000E-03 0.  1.
         12    1    3    3    0    0  0.44977006789E+01 -0.18129358270E+01  0.11740730754E+02  0.12702787345E+02  0.00000000000E+00 0. -1.
</event>
<event>
 7    1  0.1375918E-013  0.7246158E+02  0.7816164E-02  0.1226708E+00
        -11   -1    0    0    0    0  0.00000000000E+00  0.00000000000E+00  0.45593999997E+02  0.45594000000E+02  0.51100000000E-03 0.  1.
         11   -1    0    0    0    0 -0.00000000000E+00 -0.00000000000E+00 -0.45593999997E+02  0.45594000000E+02  0.51100000000E-03 0. -1.
    9900012    2    1    2    0    0 -0.10752748755E+02  0.15130903307E+02 -0.24724187984E+01  0.72461582953E+02  0.70000016491E+02 0.  0.
         12    1    1    2    0    0  0.10752748755E+02 -0.15130903307E+02  0.24724187984E+01  0.18726417047E+02  0.00000000000E+00 0. -1.
         11    1    3    3    0    0  0.22615308686E+02  0.87176836864E+01  0.12528634366E+02  0.27284004016E+02  0.51100000000E-03 0. -1.
        -11    1    3    3    0    0 -0.24906527677E+02  0.76827878278E+01  0.20037937868E+01  0.26141452514E+02  0.51100000000E-03 0.  1.
         12    1    3    3    0    0 -0.84615297646E+01 -0.12695682070E+01 -0.17004846951E+02  0.19036126424E+02  0.00000000000E+00 0. -1.
</event>
<event>
 7    1  0.1375918E-013  0.7246154E+02  0.7816164E-02  0.1226708E+00
        -11   -1    0    0    0    0  0.00000000000E+00  0.00000000000E+00  0.45593999997E+02  0.45594000000E+02  0.51100000000E-03 0.  1.
         11   -1    0    0    0    0 -0.00000000000E+00 -0.00000000000E+00 -0.45593999997E+02  0.45594000000E+02  0.51100000000E-03 0. -1.
    9900012    2    1    2    0    0  0.10429009230E+02 -0.13865231396E+02  0.70478062662E+01  0.72461536150E+02  0.69999955520E+02 0.  0.
         12    1    1    2    0    0 -0.10429009230E+02  0.13865231396E+02 -0.70478062662E+01  0.18726463850E+02  0.00000000000E+00 0. -1.
         11    1    3    3    0    0  0.12251474171E+02  0.80907344398E-01 -0.25347380314E+02  0.28153061190E+02  0.51100000000E-03 0. -1.
        -11    1    3    3    0    0  0.93203178809E+01 -0.16020324339E+02  0.23322888874E+02  0.29790539824E+02  0.51100000000E-03 0.  1.
         12    1    3    3    0    0 -0.11142782822E+02  0.20741855990E+01  0.90722977058E+01  0.14517935135E+02  0.00000000000E+00 0. -1.
</event>
<event>
 7    1  0.1375918E-013  0.7246144E+02  0.7816164E-02  0.1226708E+00
        -11   -1    0    0    0    0  0.00000000000E+00  0.00000000000E+00  0.45593999997E+02  0.45594000000E+02  0.51100000000E-03 0. -1.
         11   -1    0    0    0    0 -0.00000000000E+00 -0.00000000000E+00 -0.45593999997E+02  0.45594000000E+02  0.51100000000E-03 0.  1.
    9900012    2    1    2    0    0 -0.20399804581E+01 -0.16553462281E+02 -0.85150182209E+01  0.72461436806E+02  0.69999826107E+02 0.  0.
         12    1    1    2    0    0  0.20399804581E+01  0.16553462281E+02  0.85150182209E+01  0.18726563194E+02  0.00000000000E+00 0. -1.
         11    1    3    3    0    0  0.67799409722E-01  0.86687418894E+01 -0.29511972908E+01  0.91575787419E+01  0.51100000000E-03 0. -1.
        -11    1    3    3    0    0 -0.89704799952E+01 -0.18419592210E+02  0.24376522713E+02  0.31842828837E+02  0.51100000000E-03 0.  1.
        -12    1    3    3    0    0  0.68627001274E+01 -0.68026119606E+01 -0.29940343643E+02  0.31461029227E+02  0.00000000000E+00 0.  1.
</event>
<event>
 7    1  0.1375918E-013  0.7246159E+02  0.7816164E-02  0.1226708E+00
        -11   -1    0    0    0    0  0.00000000000E+00  0.00000000000E+00  0.45593999997E+02  0.45594000000E+02  0.51100000000E-03 0. -1.
         11   -1    0    0    0    0 -0.00000000000E+00 -0.00000000000E+00 -0.45593999997E+02  0.45594000000E+02  0.51100000000E-03 0.  1.
    9900012    2    1    2    0    0  0.17312178579E+02 -0.71390226275E+01 -0.35556220189E-01  0.72461589894E+02  0.70000025532E+02 0.  0.
         12    1    1    2    0    0 -0.17312178579E+02  0.71390226275E+01  0.35556220189E-01  0.18726410106E+02  0.00000000000E+00 0. -1.
         11    1    3    3    0    0  0.12181028086E+02  0.85935026189E+01 -0.17954304190E+02  0.23336297300E+02  0.51100000000E-03 0.  1.
        -11    1    3    3    0    0 -0.17729911636E+02 -0.18334817421E+01  0.12649128432E+02  0.21856620788E+02  0.51100000000E-03 0. -1.
        -12    1    3    3    0    0  0.22861062128E+02 -0.13899043504E+02  0.52696195368E+01  0.27268671805E+02  0.00000000000E+00 0.  1.
</event>
<event>
 7    1  0.1375918E-013  0.7246158E+02  0.7816164E-02  0.1226708E+00
        -11   -1    0    0    0    0  0.00000000000E+00  0.00000000000E+00  0.45593999997E+02  0.45594000000E+02  0.51100000000E-03 0.  1.
         11   -1    0    0    0    0 -0.00000000000E+00 -0.00000000000E+00 -0.45593999997E+02  0.45594000000E+02  0.51100000000E-03 0. -1.
    9900012    2    1    2    0    0  0.11347943563E+02  0.97113942056E+01  0.11295654326E+02  0.72461579969E+02  0.70000012603E+02 0.  0.
         12    1    1    2    0    0 -0.11347943563E+02 -0.97113942056E+01 -0.11295654326E+02  0.18726420031E+02  0.00000000000E+00 0. -1.
         11    1    3    3    0    0  0.16157650360E+01 -0.22598458002E+02 -0.13012921816E+02  0.26127325450E+02  0.51100000000E-03 0. -1.
        -11    1    3    3    0    0 -0.63065430637E+01  0.11627365559E+02  0.71199883902E+01  0.15022062116E+02  0.51100000000E-03 0.  1.
         12    1    3    3    0    0  0.16038721590E+02  0.20682486648E+02  0.17188587752E+02  0.31312192403E+02  0.00000000000E+00 0. -1.
</event>
<event>
 7    1  0.1375918E-013  0.7246170E+02  0.7816164E-02  0.1226708E+00
        -11   -1    0    0    0    0  0.00000000000E+00  0.00000000000E+00  0.45593999997E+02  0.45594000000E+02  0.51100000000E-03 0. -1.
         11   -1    0    0    0    0 -0.00000000000E+00 -0.00000000000E+00 -0.45593999997E+02  0.45594000000E+02  0.51100000000E-03 0.  1.
    9900012    2    1    2    0    0  0.10825972575E+02 -0.55322538382E+01 -0.14243134983E+02  0.72461697406E+02  0.70000165586E+02 0.  0.
         12    1    1    2    0    0 -0.10825972575E+02  0.55322538382E+01  0.14243134983E+02  0.18726302594E+02  0.00000000000E+00 0. -1.
         11    1    3    3    0    0  0.30107885060E+01 -0.18736646277E+01  0.17555257145E+02  0.17909844227E+02  0.51100000000E-03 0. -1.
        -11    1    3    3    0    0 -0.13553101473E+02 -0.56641153339E+01 -0.29515389686E+02  0.32968575806E+02  0.51100000000E-03 0.  1.
         12    1    3    3    0    0  0.21368285542E+02  0.20055261235E+01 -0.22830024408E+01  0.21583277373E+02  0.00000000000E+00 0. -1.
</event>
<event>
 7    1  0.1375918E-013  0.7246174E+02  0.7816164E-02  0.1226708E+00
        -11   -1    0    0    0    0  0.00000000000E+00  0.00000000000E+00  0.45593999997E+02  0.45594000000E+02  0.51100000000E-03 0. -1.
         11   -1    0    0    0    0 -0.00000000000E+00 -0.00000000000E+00 -0.45593999997E+02  0.45594000000E+02  0.51100000000E-03 0.  1.
    9900012    2    1    2    0    0 -0.72092978306E+01 -0.14952462438E+02 -0.86673429644E+01  0.72461736566E+02  0.70000216599E+02 0.  0.
         12    1    1    2    0    0  0.72092978306E+01  0.14952462438E+02  0.86673429644E+01  0.18726263434E+02  0.00000000000E+00 0. -1.
         11    1    3    3    0    0 -0.23262652157E+01 -0.27749670282E+02  0.60803517457E+01  0.28503094362E+02  0.51100000000E-03 0. -1.
        -11    1    3    3    0    0  0.86448809535E+01  0.11467425860E+02  0.87470169231E+01  0.16815056583E+02  0.51100000000E-03 0.  1.
         12    1    3    3    0    0 -0.13527913568E+02  0.13297819837E+01 -0.23494711633E+02  0.27143585621E+02  0.00000000000E+00 0. -1.
</event>
<event>
 7    1  0.1375918E-013  0.7246156E+02  0.7816164E-02  0.1226708E+00
        -11   -1    0    0    0    0  0.00000000000E+00  0.00000000000E+00  0.45593999997E+02  0.45594000000E+02  0.51100000000E-03 0.  1.
         11   -1    0    0    0    0 -0.00000000000E+00 -0.00000000000E+00 -0.45593999997E+02  0.45594000000E+02  0.51100000000E-03 0. -1.
    9900012    2    1    2    0    0  0.11741251753E+02 -0.14559403352E+02  0.91999444272E+00  0.72461558574E+02  0.69999984732E+02 0.  0.
         12    1    1    2    0    0 -0.11741251753E+02  0.14559403352E+02 -0.91999444272E+00  0.18726441426E+02  0.00000000000E+00 0. -1.
         11    1    3    3    0    0  0.56529921991E+01 -0.18344364985E+02  0.24168004505E+02  0.30863643490E+02  0.51100000000E-03 0.  1.
        -11    1    3    3    0    0 -0.35892834638E+01  0.14335073041E+02 -0.22928330913E+02  0.27277933089E+02  0.51100000000E-03 0. -1.
         12    1    3    3    0    0  0.96775430180E+01 -0.10550111408E+02 -0.31967914867E+00  0.14319981995E+02  0.00000000000E+00 0. -1.
</event>
<event>
 7    1  0.1375918E-013  0.7246149E+02  0.7816164E-02  0.1226708E+00
        -11   -1    0    0    0    0  0.00000000000E+00  0.00000000000E+00  0.45593999997E+02  0.45594000000E+02  0.51100000000E-03 0. -1.
         11   -1    0    0    0    0 -0.00000000000E+00 -0.00000000000E+00 -0.45593999997E+02  0.45594000000E+02  0.51100000000E-03 0.  1.
    9900012    2    1    2    0    0  0.18376986431E+01 -0.18360044534E+02 -0.31958783277E+01  0.72461494456E+02  0.69999901207E+02 0.  0.
         12    1    1    2    0    0 -0.18376986431E+01  0.18360044534E+02  0.31958783277E+01  0.18726505544E+02  0.00000000000E+00 0. -1.
         11    1    3    3    0    0 -0.20673344576E+02 -0.82741136538E+01  0.16762985469E+02  0.27871953911E+02  0.51100000000E-03 0. -1.
        -11    1    3    3    0    0  0.95769297038E+01 -0.16638648379E+02 -0.22808809531E+02  0.29812815951E+02  0.51100000000E-03 0.  1.
         12    1    3    3    0    0  0.12934113516E+02  0.65527174993E+01  0.28499457334E+01  0.14776724594E+02  0.00000000000E+00 0. -1.
</event>
<event>
 7    1  0.1375918E-013  0.7246166E+02  0.7816164E-02  0.1226708E+00
        -11   -1    0    0    0    0  0.00000000000E+00  0.00000000000E+00  0.45593999997E+02  0.45594000000E+02  0.51100000000E-03 0. -1.
         11   -1    0    0    0    0 -0.00000000000E+00 -0.00000000000E+00 -0.45593999997E+02  0.45594000000E+02  0.51100000000E-03 0.  1.
    9900012    2    1    2    0    0  0.62823495265E+01 -0.14795294717E+02 -0.96076705265E+01  0.72461655074E+02  0.70000110441E+02 0.  0.
         12    1    1    2    0    0 -0.62823495265E+01  0.14795294717E+02  0.96076705265E+01  0.18726344926E+02  0.00000000000E+00 0. -1.
         11    1    3    3    0    0  0.67217175828E+01 -0.15695775930E+02  0.21746073362E+02  0.27648337676E+02  0.51100000000E-03 0. -1.
        -11    1    3    3    0    0 -0.15627180100E+02  0.43253358095E+01 -0.13284478461E+02  0.20961742675E+02  0.51100000000E-03 0.  1.
        -12    1    3    3    0    0  0.15187812044E+02 -0.34248545963E+01 -0.18069265427E+02  0.23851574723E+02  0.00000000000E+00 0.  1.
</event>
<event>
 7    1  0.1375918E-013  0.7246159E+02  0.7816164E-02  0.1226708E+00
        -11   -1    0    0    0    0  0.00000000000E+00  0.00000000000E+00  0.45593999997E+02  0.45594000000E+02  0.51100000000E-03 0.  1.
         11   -1    0    0    0    0 -0.00000000000E+00 -0.00000000000E+00 -0.45593999997E+02  0.45594000000E+02  0.51100000000E-03 0. -1.
    9900012    2    1    2    0    0 -0.85019788114E+01 -0.16531742082E+02  0.22575042699E+01  0.72461589092E+02  0.70000024488E+02 0.  0.
         12    1    1    2    0    0  0.85019788114E+01  0.16531742082E+02 -0.22575042699E+01  0.18726410908E+02  0.00000000000E+00 0. -1.
         11    1    3    3    0    0  0.58086082719E+01 -0.29546092885E+02  0.11437408651E+02  0.32210648111E+02  0.51100000000E-03 0. -1.
        -11    1    3    3    0    0  0.36635341155E+01  0.19622513955E+02 -0.34143317253E+01  0.20251473959E+02  0.51100000000E-03 0.  1.
        -12    1    3    3    0    0 -0.17974121199E+02 -0.66081631511E+01 -0.57655726561E+01  0.19999467022E+02  0.00000000000E+00 0.  1.
</event>
<event>
 7    1  0.1375918E-013  0.7246162E+02  0.7816164E-02  0.1226708E+00
        -11   -1    0    0    0    0  0.00000000000E+00  0.00000000000E+00  0.45593999997E+02  0.45594000000E+02  0.51100000000E-03 0.  1.
         11   -1    0    0    0    0 -0.00000000000E+00 -0.00000000000E+00 -0.45593999997E+02  0.45594000000E+02  0.51100000000E-03 0. -1.
    9900012    2    1    2    0    0  0.14752752622E+02  0.99844114212E+01  0.57745203405E+01  0.72461621105E+02  0.70000066190E+02 0.  0.
         12    1    1    2    0    0 -0.14752752622E+02 -0.99844114212E+01 -0.57745203405E+01  0.18726378895E+02  0.00000000000E+00 0. -1.
         11    1    3    3    0    0  0.18430709052E+02  0.94270930733E+01 -0.13964071376E+02  0.24971111502E+02  0.51100000000E-03 0. -1.
        -11    1    3    3    0    0 -0.92199206545E+01 -0.89202114796E+01  0.29896823220E+02  0.32533016285E+02  0.51100000000E-03 0.  1.
         12    1    3    3    0    0  0.55419642243E+01  0.94775298276E+01 -0.10158231503E+02  0.14957493318E+02  0.00000000000E+00 0. -1.
</event>
<event>
 7    1  0.1375918E-013  0.7246155E+02  0.7816164E-02  0.1226708E+00
        -11   -1    0    0    0    0  0.00000000000E+00  0.00000000000E+00  0.45593999997E+02  0.45594000000E+02  0.51100000000E-03 0. -1.
         11   -1    0    0    0    0 -0.00000000000E+00 -0.00000000000E+00 -0.45593999997E+02  0.45594000000E+02  0.51100000000E-03 0.  1.
    9900012    2    1    2    0    0  0.17038303121E+02  0.14700371374E+01 -0.76298827210E+01  0.72461550984E+02  0.69999974844E+02 0.  0.
         12    1    1    2    0    0 -0.17038303121E+02 -0.14700371374E+01  0.76298827210E+01  0.18726449016E+02  0.00000000000E+00 0. -1.
         11    1    3    3    0    0 -0.13683623715E+02  0.37487761705E+01  0.23972934004E+02  0.27856712759E+02  0.51100000000E-03 0. -1.
        -11    1    3    3    0    0  0.11514156059E+02  0.22770222730E+01 -0.11811279480E+02  0.16651334583E+02  0.51100000000E-03 0.  1.
         12    1    3    3    0    0  0.19207770777E+02 -0.45557613061E+01 -0.19791537245E+02  0.27953503641E+02  0.00000000000E+00 0. -1.
</event>
<event>
 7    1  0.1375918E-013  0.7246160E+02  0.7816164E-02  0.1226708E+00
        -11   -1    0    0    0    0  0.00000000000E+00  0.00000000000E+00  0.45593999997E+02  0.45594000000E+02  0.51100000000E-03 0.  1.
         11   -1    0    0    0    0 -0.00000000000E+00 -0.00000000000E+00 -0.45593999997E+02  0.45594000000E+02  0.51100000000E-03 0. -1.
    9900012    2    1    2    0    0 -0.13677151000E+01 -0.13357894792E+01  0.18628554589E+02  0.72461600874E+02  0.70000039836E+02 0.  0.
         12    1    1    2    0    0  0.13677151000E+01  0.13357894792E+01 -0.18628554589E+02  0.18726399126E+02  0.00000000000E+00 0. -1.
         11    1    3    3    0    0  0.87930214614E+01 -0.16846691256E+01 -0.50369451121E+01  0.10272592312E+02  0.51100000000E-03 0. -1.
        -11    1    3    3    0    0 -0.30248687809E+02  0.76120596674E+00 -0.11244818808E+01  0.30279151383E+02  0.51100000000E-03 0.  1.
        -12    1    3    3    0    0  0.20087951248E+02 -0.41232632035E+00  0.24789981582E+02  0.31909857179E+02  0.00000000000E+00 0.  1.
</event>
<event>
 7    1  0.1375918E-013  0.7246157E+02  0.7816164E-02  0.1226708E+00
        -11   -1    0    0    0    0  0.00000000000E+00  0.00000000000E+00  0.45593999997E+02  0.45594000000E+02  0.51100000000E-03 0.  1.
         11   -1    0    0    0    0 -0.00000000000E+00 -0.00000000000E+00 -0.45593999997E+02  0.45594000000E+02  0.51100000000E-03 0. -1.
    9900012    2    1    2    0    0  0.14344246848E+01  0.40669844780E+01  0.18223096604E+02  0.72461569834E+02  0.69999999401E+02 0.  0.
         12    1    1    2    0    0 -0.14344246848E+01 -0.40669844780E+01 -0.18223096604E+02  0.18726430166E+02  0.00000000000E+00 0. -1.
         11    1    3    3    0    0  0.29479789868E+02 -0.41620329631E+01 -0.73426632199E+01  0.30664233766E+02  0.51100000000E-03 0. -1.
        -11    1    3    3    0    0 -0.19211333400E+01  0.57355349648E+01  0.15972602687E+01  0.62560654783E+01  0.51100000000E-03 0.  1.
         12    1    3    3    0    0 -0.26124231843E+02  0.24934824763E+01  0.23968499555E+02  0.35541270590E+02  0.00000000000E+00 0. -1.
</event>
<event>
 7    1  0.1375918E-013  0.7246161E+02  0.7816164E-02  0.1226708E+00
        -11   -1    0    0    0    0  0.00000000000E+00  0.00000000000E+00  0.45593999997E+02  0.45594000000E+02  0.51100000000E-03 0.  1.
         11   -1    0    0    0    0 -0.00000000000E+00 -0.00000000000E+00 -0.45593999997E+02  0.45594000000E+02  0.51100000000E-03 0. -1.
    9900012    2    1    2    0    0 -0.58490828573E+01  0.75821844867E+01  0.16092738797E+02  0.72461613967E+02  0.70000056892E+02 0.  0.
         12    1    1    2    0    0  0.58490828573E+01 -0.75821844867E+01 -0.16092738797E+02  0.18726386033E+02  0.00000000000E+00 0. -1.
         11    1    3    3    0    0 -0.20923032412E+02  0.47481861056E+01 -0.84448976320E+01  0.23057208263E+02  0.51100000000E-03 0. -1.
        -11    1    3    3    0    0  0.11462954135E+02 -0.18114429624E+02  0.14618151034E+02  0.25946526126E+02  0.51100000000E-03 0.  1.
        -12    1    3    3    0    0  0.36109954197E+01  0.20948428005E+02  0.99194853952E+01  0.23457879578E+02  0.00000000000E+00 0.  1.
</event>
<event>
 7    1  0.1375918E-013  0.7246155E+02  0.7816164E-02  0.1226708E+00
        -11   -1    0    0    0    0  0.00000000000E+00  0.00000000000E+00  0.45593999997E+02  0.45594000000E+02  0.51100000000E-03 0. -1.
         11   -1    0    0    0    0 -0.00000000000E+00 -0.00000000000E+00 -0.45593999997E+02  0.45594000000E+02  0.51100000000E-03 0.  1.
    9900012    2    1    2    0    0  0.60873018797E+01 -0.63953082788E+01 -0.16514380460E+02  0.72461548811E+02  0.69999972014E+02 0.  0.
         12    1    1    2    0    0 -0.60873018797E+01  0.63953082788E+01  0.16514380460E+02  0.18726451189E+02  0.00000000000E+00 0. -1.
         11    1    3    3    0    0  0.96850223890E+01 -0.61747008116E+00  0.16477939426E+02  0.19123373551E+02  0.51100000000E-03 0. -1.
        -11    1    3    3    0    0 -0.20641339335E+01  0.87880709477E+01 -0.37054992446E+02  0.38138737595E+02  0.51100000000E-03 0.  1.
         12    1    3    3    0    0 -0.15335865757E+01 -0.14565909145E+02  0.40626725599E+01  0.15199437665E+02  0.00000000000E+00 0. -1.
</event>
<event>
 7    1  0.1375918E-013  0.7246155E+02  0.7816164E-02  0.1226708E+00
        -11   -1    0    0    0    0  0.00000000000E+00  0.00000000000E+00  0.45593999997E+02  0.45594000000E+02  0.51100000000E-03 0.  1.
         11   -1    0    0    0    0 -0.00000000000E+00 -0.00000000000E+00 -0.45593999997E+02  0.45594000000E+02  0.51100000000E-03 0. -1.
    9900012    2    1    2    0    0 -0.11342662011E+01  0.18663093732E+02 -0.10402833066E+01  0.72461553011E+02  0.69999977486E+02 0.  0.
         12    1    1    2    0    0  0.11342662011E+01 -0.18663093732E+02  0.10402833066E+01  0.18726446989E+02  0.00000000000E+00 0. -1.
         11    1    3    3    0    0 -0.15641242302E+00 -0.66209740193E+01 -0.24562943675E+02  0.25440125079E+02  0.51100000000E-03 0. -1.
        -11    1    3    3    0    0 -0.10531302677E+02  0.19566364892E+02  0.14114450563E+01  0.22265290220E+02  0.51100000000E-03 0.  1.
         12    1    3    3    0    0  0.95534488985E+01  0.57177028586E+01  0.22111215312E+02  0.24756137712E+02  0.00000000000E+00 0. -1.
</event>
<event>
 7    1  0.1375918E-013  0.7246153E+02  0.7816164E-02  0.1226708E+00
        -11   -1    0    0    0    0  0.00000000000E+00  0.00000000000E+00  0.45593999997E+02  0.45594000000E+02  0.51100000000E-03 0.  1.
         11   -1    0    0    0    0 -0.00000000000E+00 -0.00000000000E+00 -0.45593999997E+02  0.45594000000E+02  0.51100000000E-03 0. -1.
    9900012    2    1    2    0    0  0.47859084401E+01  0.97936488671E+01  0.15226961467E+02  0.72461525873E+02  0.69999942133E+02 0.  0.
         12    1    1    2    0    0 -0.47859084401E+01 -0.97936488671E+01 -0.15226961467E+02  0.18726474127E+02  0.00000000000E+00 0. -1.
         11    1    3    3    0    0 -0.70378545987E+01  0.26406860305E+02  0.15108873060E+02  0.31227099031E+02  0.51100000000E-03 0.  1.
        -11    1    3    3    0    0  0.22183899554E+02 -0.20462996700E+02  0.24270430866E+00  0.30181427054E+02  0.51100000000E-03 0. -1.
         12    1    3    3    0    0 -0.10360136516E+02  0.38497852619E+01 -0.12461590178E+00  0.11052999788E+02  0.00000000000E+00 0. -1.
</event>
<event>
 7    1  0.1375918E-013  0.7246162E+02  0.7816164E-02  0.1226708E+00
        -11   -1    0    0    0    0  0.00000000000E+00  0.00000000000E+00  0.45593999997E+02  0.45594000000E+02  0.51100000000E-03 0. -1.
         11   -1    0    0    0    0 -0.00000000000E+00 -0.00000000000E+00 -0.45593999997E+02  0.45594000000E+02  0.51100000000E-03 0.  1.
    9900012    2    1    2    0    0  0.95580936210E+01  0.14481148641E+02  0.70438883361E+01  0.72461623348E+02  0.70000069112E+02 0.  0.
         12    1    1    2    0    0 -0.95580936210E+01 -0.14481148641E+02 -0.70438883361E+01  0.18726376652E+02  0.00000000000E+00 0. -1.
         11    1    3    3    0    0 -0.21290522722E+02 -0.70485207623E+01  0.18095189099E+02  0.28816729021E+02  0.51100000000E-03 0. -1.
        -11    1    3    3    0    0  0.11153135143E+02  0.14672368143E+02 -0.13214315403E+02  0.22677939550E+02  0.51100000000E-03 0.  1.
         12    1    3    3    0    0  0.19695481200E+02  0.68573012602E+01  0.21630146395E+01  0.20966954776E+02  0.00000000000E+00 0. -1.
</event>
<event>
 7    1  0.1375918E-013  0.7246156E+02  0.7816164E-02  0.1226708E+00
        -11   -1    0    0    0    0  0.00000000000E+00  0.00000000000E+00  0.45593999997E+02  0.45594000000E+02  0.51100000000E-03 0. -1.
         11   -1    0    0    0    0 -0.00000000000E+00 -0.00000000000E+00 -0.45593999997E+02  0.45594000000E+02  0.51100000000E-03 0.  1.
    9900012    2    1    2    0    0 -0.87403340009E+01 -0.13039432340E+02  0.10210753358E+02  0.72461555640E+02  0.69999980911E+02 0.  0.
         12    1    1    2    0    0  0.87403340009E+01  0.13039432340E+02 -0.10210753358E+02  0.18726444360E+02  0.00000000000E+00 0. -1.
         11    1    3    3    0    0  0.38950521873E+01 -0.25918360272E+02 -0.21999455687E+01  0.26301570134E+02  0.51100000000E-03 0.  1.
        -11    1    3    3    0    0  0.11919766820E+02  0.10441314692E+02  0.14389844620E+02  0.21404894814E+02  0.51100000000E-03 0. -1.
        -12    1    3    3    0    0 -0.24555153008E+02  0.24376132392E+01 -0.19791456929E+01  0.24755090693E+02  0.00000000000E+00 0.  1.
</event>
<event>
 7    1  0.1375918E-013  0.7246215E+02  0.7816164E-02  0.1226706E+00
        -11   -1    0    0    0    0  0.00000000000E+00  0.00000000000E+00  0.45593999997E+02  0.45594000000E+02  0.51100000000E-03 0.  1.
         11   -1    0    0    0    0 -0.00000000000E+00 -0.00000000000E+00 -0.45593999997E+02  0.45594000000E+02  0.51100000000E-03 0. -1.
    9900012    2    1    2    0    0  0.13449177706E+02 -0.86365195267E+01  0.97564112484E+01  0.72462151262E+02  0.70000756815E+02 0.  0.
         12    1    1    2    0    0 -0.13449177706E+02  0.86365195267E+01 -0.97564112484E+01  0.18725848738E+02  0.00000000000E+00 0. -1.
         11    1    3    3    0    0  0.26330662089E+02 -0.25249470117E+02 -0.57128581346E+01  0.36925279357E+02  0.51100000000E-03 0. -1.
        -11    1    3    3    0    0 -0.23682592995E+01 -0.52470107545E+01  0.85594440359E+01  0.10315224497E+02  0.51100000000E-03 0.  1.
         12    1    3    3    0    0 -0.10513225084E+02  0.21859961345E+02  0.69098253472E+01  0.25221647408E+02  0.00000000000E+00 0. -1.
</event>
<event>
 7    1  0.1375918E-013  0.7246154E+02  0.7816164E-02  0.1226708E+00
        -11   -1    0    0    0    0  0.00000000000E+00  0.00000000000E+00  0.45593999997E+02  0.45594000000E+02  0.51100000000E-03 0. -1.
         11   -1    0    0    0    0 -0.00000000000E+00 -0.00000000000E+00 -0.45593999997E+02  0.45594000000E+02  0.51100000000E-03 0.  1.
    9900012    2    1    2    0    0  0.14635683842E+02 -0.11653737708E+02 -0.81688546710E+00  0.72461544224E+02  0.69999966038E+02 0.  0.
         12    1    1    2    0    0 -0.14635683842E+02  0.11653737708E+02  0.81688546710E+00  0.18726455776E+02  0.00000000000E+00 0. -1.
         11    1    3    3    0    0  0.31411775783E+01 -0.31798409476E+02 -0.11796756516E+01  0.31974950769E+02  0.51100000000E-03 0. -1.
        -11    1    3    3    0    0 -0.58380980246E+01  0.21833157729E+02  0.32549450290E+01  0.22833414820E+02  0.51100000000E-03 0.  1.
         12    1    3    3    0    0  0.17332604288E+02 -0.16884859603E+01 -0.28921548445E+01  0.17653178634E+02  0.00000000000E+00 0. -1.
</event>
<event>
 7    1  0.1375918E-013  0.7246153E+02  0.7816164E-02  0.1226708E+00
        -11   -1    0    0    0    0  0.00000000000E+00  0.00000000000E+00  0.45593999997E+02  0.45594000000E+02  0.51100000000E-03 0.  1.
         11   -1    0    0    0    0 -0.00000000000E+00 -0.00000000000E+00 -0.45593999997E+02  0.45594000000E+02  0.51100000000E-03 0. -1.
    9900012    2    1    2    0    0  0.14157531487E+02 -0.73688977475E+01  0.97951247261E+01  0.72461526220E+02  0.69999942585E+02 0.  0.
         12    1    1    2    0    0 -0.14157531487E+02  0.73688977475E+01 -0.97951247261E+01  0.18726473780E+02  0.00000000000E+00 0. -1.
         11    1    3    3    0    0 -0.84312788444E+01 -0.42630442754E+01  0.30341595757E+02  0.31778490253E+02  0.51100000000E-03 0. -1.
        -11    1    3    3    0    0  0.66091239795E+01 -0.11348058537E+02  0.32303772254E+00  0.13136335332E+02  0.51100000000E-03 0.  1.
         12    1    3    3    0    0  0.15979686352E+02  0.82422050647E+01 -0.20869508753E+02  0.27546700635E+02  0.00000000000E+00 0. -1.
</event>
<event>
 7    1  0.1375918E-013  0.7246158E+02  0.7816164E-02  0.1226708E+00
        -11   -1    0    0    0    0  0.00000000000E+00  0.00000000000E+00  0.45593999997E+02  0.45594000000E+02  0.51100000000E-03 0.  1.
         11   -1    0    0    0    0 -0.00000000000E+00 -0.00000000000E+00 -0.45593999997E+02  0.45594000000E+02  0.51100000000E-03 0. -1.
    9900012    2    1    2    0    0 -0.78867584741E+01 -0.29109240367E+01  0.16733332768E+02  0.72461578466E+02  0.70000010645E+02 0.  0.
         12    1    1    2    0    0  0.78867584741E+01  0.29109240367E+01 -0.16733332768E+02  0.18726421534E+02  0.00000000000E+00 0. -1.
         11    1    3    3    0    0  0.14878905857E+02  0.13811163801E+01  0.11974742837E+02  0.19148989222E+02  0.51100000000E-03 0. -1.
        -11    1    3    3    0    0 -0.26062692607E+02 -0.77274324705E+01  0.22284880777E+02  0.35151003827E+02  0.51100000000E-03 0.  1.
        -12    1    3    3    0    0  0.32970282753E+01  0.34353920537E+01 -0.17526290846E+02  0.18161585417E+02  0.00000000000E+00 0.  1.
</event>
<event>
 7    1  0.1375918E-013  0.7246157E+02  0.7816164E-02  0.1226708E+00
        -11   -1    0    0    0    0  0.00000000000E+00  0.00000000000E+00  0.45593999997E+02  0.45594000000E+02  0.51100000000E-03 0. -1.
         11   -1    0    0    0    0 -0.00000000000E+00 -0.00000000000E+00 -0.45593999997E+02  0.45594000000E+02  0.51100000000E-03 0.  1.
    9900012    2    1    2    0    0 -0.37836014958E+01  0.15057480888E+02 -0.10470718944E+02  0.72461566112E+02  0.69999994552E+02 0.  0.
         12    1    1    2    0    0  0.37836014958E+01 -0.15057480888E+02  0.10470718944E+02  0.18726433888E+02  0.00000000000E+00 0. -1.
         11    1    3    3    0    0  0.47270487796E+01 -0.12524898853E+02 -0.13461438660E+02  0.18984952265E+02  0.51100000000E-03 0.  1.
        -11    1    3    3    0    0  0.67288879146E-01 -0.35325368754E+00  0.19773867776E+02  0.19777137382E+02  0.51100000000E-03 0. -1.
        -12    1    3    3    0    0 -0.85779391545E+01  0.27935633428E+02 -0.16783148059E+02  0.33699476464E+02  0.00000000000E+00 0.  1.
</event>
<event>
 7    1  0.1375918E-013  0.7246160E+02  0.7816164E-02  0.1226708E+00
        -11   -1    0    0    0    0  0.00000000000E+00  0.00000000000E+00  0.45593999997E+02  0.45594000000E+02  0.51100000000E-03 0. -1.
         11   -1    0    0    0    0 -0.00000000000E+00 -0.00000000000E+00 -0.45593999997E+02  0.45594000000E+02  0.51100000000E-03 0.  1.
    9900012    2    1    2    0    0 -0.46111141551E+01  0.74005161046E+00 -0.18134717881E+02  0.72461600379E+02  0.70000039191E+02 0.  0.
         12    1    1    2    0    0  0.46111141551E+01 -0.74005161046E+00  0.18134717881E+02  0.18726399621E+02  0.00000000000E+00 0. -1.
         11    1    3    3    0    0 -0.10272035584E+02  0.12013855718E+02 -0.31557178803E+02  0.35294517683E+02  0.51100000000E-03 0. -1.
        -11    1    3    3    0    0  0.18152854327E+02 -0.36964726028E+01  0.20226371680E+01  0.18635479368E+02  0.51100000000E-03 0.  1.
         12    1    3    3    0    0 -0.12491932898E+02 -0.75773315051E+01  0.11399823753E+02  0.18531603327E+02  0.00000000000E+00 0. -1.
</event>
<event>
 7    1  0.1375918E-013  0.7246160E+02  0.7816164E-02  0.1226708E+00
        -11   -1    0    0    0    0  0.00000000000E+00  0.00000000000E+00  0.45593999997E+02  0.45594000000E+02  0.51100000000E-03 0. -1.
         11   -1    0    0    0    0 -0.00000000000E+00 -0.00000000000E+00 -0.45593999997E+02  0.45594000000E+02  0.51100000000E-03 0.  1.
    9900012    2    1    2    0    0 -0.14298450267E+02  0.67569590448E+00  0.12073769703E+02  0.72461597253E+02  0.70000035119E+02 0.  0.
         12    1    1    2    0    0  0.14298450267E+02 -0.67569590448E+00 -0.12073769703E+02  0.18726402747E+02  0.00000000000E+00 0. -1.
         11    1    3    3    0    0  0.69945592158E+01  0.56997521132E+01 -0.10285238565E+02  0.13682001512E+02  0.51100000000E-03 0. -1.
        -11    1    3    3    0    0 -0.15698185780E+02  0.65802122350E+01  0.36119835982E+02  0.39929622857E+02  0.51100000000E-03 0.  1.
        -12    1    3    3    0    0 -0.55948237023E+01 -0.11604268444E+02 -0.13760827714E+02  0.18849972885E+02  0.00000000000E+00 0.  1.
</event>
<event>
 7    1  0.1375918E-013  0.7246164E+02  0.7816164E-02  0.1226708E+00
        -11   -1    0    0    0    0  0.00000000000E+00  0.00000000000E+00  0.45593999997E+02  0.45594000000E+02  0.51100000000E-03 0. -1.
         11   -1    0    0    0    0 -0.00000000000E+00 -0.00000000000E+00 -0.45593999997E+02  0.45594000000E+02  0.51100000000E-03 0.  1.
    9900012    2    1    2    0    0 -0.14402513521E+01  0.80927803662E+01 -0.16825842056E+02  0.72461644805E+02  0.70000097064E+02 0.  0.
         12    1    1    2    0    0  0.14402513521E+01 -0.80927803662E+01  0.16825842056E+02  0.18726355195E+02  0.00000000000E+00 0. -1.
         11    1    3    3    0    0  0.16836192202E+02 -0.22975999739E+02  0.45956178511E+01  0.28852619215E+02  0.51100000000E-03 0. -1.
        -11    1    3    3    0    0  0.89771234738E-02  0.91898181992E+01 -0.75826798023E+01  0.11914271793E+02  0.51100000000E-03 0.  1.
         12    1    3    3    0    0 -0.18285420678E+02  0.21878961906E+02 -0.13838780104E+02  0.31694753796E+02  0.00000000000E+00 0. -1.
</event>
<event>
 7    1  0.1375918E-013  0.7246165E+02  0.7816164E-02  0.1226708E+00
        -11   -1    0    0    0    0  0.00000000000E+00  0.00000000000E+00  0.45593999997E+02  0.45594000000E+02  0.51100000000E-03 0.  1.
         11   -1    0    0    0    0 -0.00000000000E+00 -0.00000000000E+00 -0.45593999997E+02  0.45594000000E+02  0.51100000000E-03 0. -1.
    9900012    2    1    2    0    0 -0.15889124099E+02 -0.68654525620E+01  0.71468494789E+01  0.72461650623E+02  0.70000104643E+02 0.  0.
         12    1    1    2    0    0  0.15889124099E+02  0.68654525620E+01 -0.71468494789E+01  0.18726349377E+02  0.00000000000E+00 0. -1.
         11    1    3    3    0    0 -0.13289466533E+02  0.11894731856E+02  0.53491682485E+01  0.18620101178E+02  0.51100000000E-03 0. -1.
        -11    1    3    3    0    0 -0.14182032923E+02 -0.32559191896E+02  0.37927086961E+01  0.35715762266E+02  0.51100000000E-03 0.  1.
        -12    1    3    3    0    0  0.11582375357E+02  0.13799007477E+02 -0.19950274657E+01  0.18125787179E+02  0.00000000000E+00 0.  1.
</event>
<event>
 7    1  0.1375918E-013  0.7246158E+02  0.7816164E-02  0.1226708E+00
        -11   -1    0    0    0    0  0.00000000000E+00  0.00000000000E+00  0.45593999997E+02  0.45594000000E+02  0.51100000000E-03 0.  1.
         11   -1    0    0    0    0 -0.00000000000E+00 -0.00000000000E+00 -0.45593999997E+02  0.45594000000E+02  0.51100000000E-03 0. -1.
    9900012    2    1    2    0    0  0.87362146051E+01 -0.73862742862E+01  0.14825664442E+02  0.72461579637E+02  0.70000012170E+02 0.  0.
         12    1    1    2    0    0 -0.87362146051E+01  0.73862742862E+01 -0.14825664442E+02  0.18726420363E+02  0.00000000000E+00 0. -1.
         11    1    3    3    0    0  0.22442512653E+02 -0.32857095291E+02  0.72420254481E+01  0.40443813099E+02  0.51100000000E-03 0.  1.
        -11    1    3    3    0    0 -0.11866834603E+02  0.24591297206E+02  0.97962559344E+01  0.29008969171E+02  0.51100000000E-03 0. -1.
         12    1    3    3    0    0 -0.18394634443E+01  0.87952379873E+00 -0.22126169401E+01  0.30087973676E+01  0.00000000000E+00 0. -1.
</event>
<event>
 7    1  0.1375918E-013  0.7246178E+02  0.7816164E-02  0.1226707E+00
        -11   -1    0    0    0    0  0.00000000000E+00  0.00000000000E+00  0.45593999997E+02  0.45594000000E+02  0.51100000000E-03 0. -1.
         11   -1    0    0    0    0 -0.00000000000E+00 -0.00000000000E+00 -0.45593999997E+02  0.45594000000E+02  0.51100000000E-03 0.  1.
    9900012    2    1    2    0    0 -0.13039836566E+02  0.12827762364E+02 -0.40103086788E+01  0.72461777726E+02  0.70000270218E+02 0.  0.
         12    1    1    2    0    0  0.13039836566E+02 -0.12827762364E+02  0.40103086788E+01  0.18726222274E+02  0.00000000000E+00 0. -1.
         11    1    3    3    0    0 -0.13521994216E+02 -0.20869349743E+02  0.12522806993E+02  0.27842319973E+02  0.51100000000E-03 0. -1.
        -11    1    3    3    0    0  0.37332355033E+00 -0.12304823866E+01 -0.87383982827E+01  0.88325003359E+01  0.51100000000E-03 0.  1.
         12    1    3    3    0    0  0.10883409932E+00  0.34927594493E+02 -0.77947173892E+01  0.35786957417E+02  0.00000000000E+00 0. -1.
</event>
<event>
 7    1  0.1375918E-013  0.7246160E+02  0.7816164E-02  0.1226708E+00
        -11   -1    0    0    0    0  0.00000000000E+00  0.00000000000E+00  0.45593999997E+02  0.45594000000E+02  0.51100000000E-03 0.  1.
         11   -1    0    0    0    0 -0.00000000000E+00 -0.00000000000E+00 -0.45593999997E+02  0.45594000000E+02  0.51100000000E-03 0. -1.
    9900012    2    1    2    0    0 -0.75141923493E+01  0.43572515715E+01  0.16590041234E+02  0.72461596286E+02  0.70000033859E+02 0.  0.
         12    1    1    2    0    0  0.75141923493E+01 -0.43572515715E+01 -0.16590041234E+02  0.18726403714E+02  0.00000000000E+00 0. -1.
         11    1    3    3    0    0 -0.11358337489E+02  0.20877934359E+02  0.17592898068E+02  0.29570425027E+02  0.51100000000E-03 0.  1.
        -11    1    3    3    0    0  0.20936417191E+02 -0.10194743393E+02 -0.58939498670E+01  0.24020928437E+02  0.51100000000E-03 0. -1.
        -12    1    3    3    0    0 -0.17092272052E+02 -0.63259393939E+01  0.48910930336E+01  0.18870242822E+02  0.00000000000E+00 0.  1.
</event>
<event>
 7    1  0.1375918E-013  0.7246157E+02  0.7816164E-02  0.1226708E+00
        -11   -1    0    0    0    0  0.00000000000E+00  0.00000000000E+00  0.45593999997E+02  0.45594000000E+02  0.51100000000E-03 0. -1.
         11   -1    0    0    0    0 -0.00000000000E+00 -0.00000000000E+00 -0.45593999997E+02  0.45594000000E+02  0.51100000000E-03 0.  1.
    9900012    2    1    2    0    0  0.15081311459E+02  0.82884655582E+01 -0.73847509876E+01  0.72461570447E+02  0.70000000199E+02 0.  0.
         12    1    1    2    0    0 -0.15081311459E+02 -0.82884655582E+01  0.73847509876E+01  0.18726429553E+02  0.00000000000E+00 0. -1.
         11    1    3    3    0    0 -0.15187153104E+02  0.14926295359E+01  0.40389350312E+01  0.15785770770E+02  0.51100000000E-03 0. -1.
        -11    1    3    3    0    0  0.27255434392E+02 -0.15942786743E+02 -0.12969474899E+01  0.31602424370E+02  0.51100000000E-03 0.  1.
        -12    1    3    3    0    0  0.30130301716E+01  0.22738622765E+02 -0.10126738529E+02  0.25073375307E+02  0.00000000000E+00 0.  1.
</event>
<event>
 7    1  0.1375918E-013  0.7246156E+02  0.7816164E-02  0.1226708E+00
        -11   -1    0    0    0    0  0.00000000000E+00  0.00000000000E+00  0.45593999997E+02  0.45594000000E+02  0.51100000000E-03 0. -1.
         11   -1    0    0    0    0 -0.00000000000E+00 -0.00000000000E+00 -0.45593999997E+02  0.45594000000E+02  0.51100000000E-03 0.  1.
    9900012    2    1    2    0    0  0.71191160685E+01 -0.12002865170E+02 -0.12487154642E+02  0.72461558348E+02  0.69999984438E+02 0.  0.
         12    1    1    2    0    0 -0.71191160685E+01  0.12002865170E+02  0.12487154642E+02  0.18726441652E+02  0.00000000000E+00 0. -1.
         11    1    3    3    0    0  0.17957437134E+02  0.28599242721E+01  0.11258592541E+02  0.21387019931E+02  0.51100000000E-03 0. -1.
        -11    1    3    3    0    0 -0.51650373199E+01 -0.28435540619E+02 -0.21873576637E+02  0.36245150517E+02  0.51100000000E-03 0.  1.
         12    1    3    3    0    0 -0.56732837453E+01  0.13572751177E+02 -0.18721705460E+01  0.14829387901E+02  0.00000000000E+00 0. -1.
</event>
<event>
 7    1  0.1375918E-013  0.7246153E+02  0.7816164E-02  0.1226708E+00
        -11   -1    0    0    0    0  0.00000000000E+00  0.00000000000E+00  0.45593999997E+02  0.45594000000E+02  0.51100000000E-03 0.  1.
         11   -1    0    0    0    0 -0.00000000000E+00 -0.00000000000E+00 -0.45593999997E+02  0.45594000000E+02  0.51100000000E-03 0. -1.
    9900012    2    1    2    0    0  0.77883818729E+01 -0.13263329293E+02 -0.10682033992E+02  0.72461530863E+02  0.69999948633E+02 0.  0.
         12    1    1    2    0    0 -0.77883818729E+01  0.13263329293E+02  0.10682033992E+02  0.18726469137E+02  0.00000000000E+00 0. -1.
         11    1    3    3    0    0  0.25745301806E+01  0.18570492164E+02 -0.83812885083E+01  0.20536245572E+02  0.51100000000E-03 0. -1.
        -11    1    3    3    0    0 -0.15294467171E+02 -0.15547544799E+02 -0.10873186710E+02  0.24369510968E+02  0.51100000000E-03 0.  1.
        -12    1    3    3    0    0  0.20508318863E+02 -0.16286276658E+02  0.85724412265E+01  0.27555774323E+02  0.00000000000E+00 0.  1.
</event>
<event>
 7    1  0.1375918E-013  0.7246156E+02  0.7816164E-02  0.1226708E+00
        -11   -1    0    0    0    0  0.00000000000E+00  0.00000000000E+00  0.45593999997E+02  0.45594000000E+02  0.51100000000E-03 0. -1.
         11   -1    0    0    0    0 -0.00000000000E+00 -0.00000000000E+00 -0.45593999997E+02  0.45594000000E+02  0.51100000000E-03 0.  1.
    9900012    2    1    2    0    0 -0.44284041879E+01 -0.98966736294E+01 -0.15268414659E+02  0.72461564173E+02  0.69999992026E+02 0.  0.
         12    1    1    2    0    0  0.44284041879E+01  0.98966736294E+01  0.15268414659E+02  0.18726435827E+02  0.00000000000E+00 0. -1.
         11    1    3    3    0    0  0.23591736704E+01  0.82580852713E+01 -0.51705668100E+01  0.10024790978E+02  0.51100000000E-03 0. -1.
        -11    1    3    3    0    0  0.13059826527E+02 -0.33845786047E+02 -0.69980905013E+01  0.36946847944E+02  0.51100000000E-03 0.  1.
        -12    1    3    3    0    0 -0.19847404385E+02  0.15691027146E+02 -0.30997573476E+01  0.25489925252E+02  0.00000000000E+00 0.  1.
</event>
<event>
 7    1  0.1375918E-013  0.7246158E+02  0.7816164E-02  0.1226708E+00
        -11   -1    0    0    0    0  0.00000000000E+00  0.00000000000E+00  0.45593999997E+02  0.45594000000E+02  0.51100000000E-03 0.  1.
         11   -1    0    0    0    0 -0.00000000000E+00 -0.00000000000E+00 -0.45593999997E+02  0.45594000000E+02  0.51100000000E-03 0. -1.
    9900012    2    1    2    0    0 -0.10487608970E+02 -0.72747301921E+01  0.13702812170E+02  0.72461582760E+02  0.70000016238E+02 0.  0.
         12    1    1    2    0    0  0.10487608970E+02  0.72747301921E+01 -0.13702812170E+02  0.18726417240E+02  0.00000000000E+00 0. -1.
         11    1    3    3    0    0 -0.54489632104E+01  0.54577778612E+01 -0.94630456672E+01  0.12207693181E+02  0.51100000000E-03 0. -1.
        -11    1    3    3    0    0 -0.18878958052E+02 -0.19366493091E+02  0.32506829280E+02  0.42286759888E+02  0.51100000000E-03 0.  1.
        -12    1    3    3    0    0  0.13840312291E+02  0.66339850381E+01 -0.93409714420E+01  0.17967129690E+02  0.00000000000E+00 0.  1.
</event>
<event>
 7    1  0.1375918E-013  0.7246160E+02  0.7816164E-02  0.1226708E+00
        -11   -1    0    0    0    0  0.00000000000E+00  0.00000000000E+00  0.45593999997E+02  0.45594000000E+02  0.51100000000E-03 0. -1.
         11   -1    0    0    0    0 -0.00000000000E+00 -0.00000000000E+00 -0.45593999997E+02  0.45594000000E+02  0.51100000000E-03 0.  1.
    9900012    2    1    2    0    0 -0.92225259489E+01  0.15601481967E+02 -0.47134627852E+01  0.72461602699E+02  0.70000042213E+02 0.  0.
         12    1    1    2    0    0  0.92225259489E+01 -0.15601481967E+02  0.47134627852E+01  0.18726397301E+02  0.00000000000E+00 0. -1.
         11    1    3    3    0    0  0.15970673582E+02  0.22020307562E+02  0.15141134834E+01  0.27244245258E+02  0.51100000000E-03 0. -1.
        -11    1    3    3    0    0 -0.76525547614E+01 -0.10293513340E+02 -0.19178307824E+02  0.23072180272E+02  0.51100000000E-03 0.  1.
         12    1    3    3    0    0 -0.17540644769E+02  0.38746877455E+01  0.12950731555E+02  0.22145177169E+02  0.00000000000E+00 0. -1.
</event>
<event>
 7    1  0.1375918E-013  0.7246155E+02  0.7816164E-02  0.1226708E+00
        -11   -1    0    0    0    0  0.00000000000E+00  0.00000000000E+00  0.45593999997E+02  0.45594000000E+02  0.51100000000E-03 0.  1.
         11   -1    0    0    0    0 -0.00000000000E+00 -0.00000000000E+00 -0.45593999997E+02  0.45594000000E+02  0.51100000000E-03 0. -1.
    9900012    2    1    2    0    0 -0.37542122312E+00  0.64082211045E+00  0.18711712694E+02  0.72461553834E+02  0.69999978557E+02 0.  0.
         12    1    1    2    0    0  0.37542122312E+00 -0.64082211045E+00 -0.18711712694E+02  0.18726446166E+02  0.00000000000E+00 0. -1.
         11    1    3    3    0    0 -0.30703156484E+02  0.10051823281E+01  0.13159436580E+02  0.33419529933E+02  0.51100000000E-03 0. -1.
        -11    1    3    3    0    0  0.87664316393E+01 -0.84518426901E+00  0.13448178319E+02  0.16075389902E+02  0.51100000000E-03 0.  1.
         12    1    3    3    0    0  0.21561303621E+02  0.48082405131E+00 -0.78959022050E+01  0.22966633999E+02  0.00000000000E+00 0. -1.
</event>
<event>
 7    1  0.1375918E-013  0.7246155E+02  0.7816164E-02  0.1226708E+00
        -11   -1    0    0    0    0  0.00000000000E+00  0.00000000000E+00  0.45593999997E+02  0.45594000000E+02  0.51100000000E-03 0. -1.
         11   -1    0    0    0    0 -0.00000000000E+00 -0.00000000000E+00 -0.45593999997E+02  0.45594000000E+02  0.51100000000E-03 0.  1.
    9900012    2    1    2    0    0  0.13847289262E+02 -0.40814789370E+01 -0.11927872857E+02  0.72461547023E+02  0.69999969685E+02 0.  0.
         12    1    1    2    0    0 -0.13847289262E+02  0.40814789370E+01  0.11927872857E+02  0.18726452977E+02  0.00000000000E+00 0. -1.
         11    1    3    3    0    0  0.76869180337E+00 -0.42815900763E+01 -0.33794001139E+02  0.34072825154E+02  0.51100000000E-03 0.  1.
        -11    1    3    3    0    0 -0.38482592033E+00  0.10669276084E+02  0.17957922490E+02  0.20891829110E+02  0.51100000000E-03 0. -1.
        -12    1    3    3    0    0  0.13463423379E+02 -0.10469164945E+02  0.39082057922E+01  0.17496892759E+02  0.00000000000E+00 0.  1.
</event>
<event>
 7    1  0.1375918E-013  0.7246156E+02  0.7816164E-02  0.1226708E+00
        -11   -1    0    0    0    0  0.00000000000E+00  0.00000000000E+00  0.45593999997E+02  0.45594000000E+02  0.51100000000E-03 0. -1.
         11   -1    0    0    0    0 -0.00000000000E+00 -0.00000000000E+00 -0.45593999997E+02  0.45594000000E+02  0.51100000000E-03 0.  1.
    9900012    2    1    2    0    0 -0.16894778004E+02 -0.52870121287E+01  0.61068282926E+01  0.72461564866E+02  0.69999992928E+02 0.  0.
         12    1    1    2    0    0  0.16894778004E+02  0.52870121287E+01 -0.61068282926E+01  0.18726435134E+02  0.00000000000E+00 0. -1.
         11    1    3    3    0    0 -0.19577931413E+02 -0.16831087735E+02  0.28185337213E+02  0.38222953141E+02  0.51100000000E-03 0. -1.
        -11    1    3    3    0    0  0.83068530018E+00 -0.27936559035E+01 -0.19297868996E+02  0.19516718459E+02  0.51100000000E-03 0.  1.
         12    1    3    3    0    0  0.18524681087E+01  0.14337731510E+02 -0.27806399248E+01  0.14721893266E+02  0.00000000000E+00 0. -1.
</event>
<event>
 7    1  0.1375918E-013  0.7246158E+02  0.7816164E-02  0.1226708E+00
        -11   -1    0    0    0    0  0.00000000000E+00  0.00000000000E+00  0.45593999997E+02  0.45594000000E+02  0.51100000000E-03 0. -1.
         11   -1    0    0    0    0 -0.00000000000E+00 -0.00000000000E+00 -0.45593999997E+02  0.45594000000E+02  0.51100000000E-03 0.  1.
    9900012    2    1    2    0    0  0.14574712234E+02 -0.49772840384E+00 -0.11747717166E+02  0.72461579389E+02  0.70000011848E+02 0.  0.
         12    1    1    2    0    0 -0.14574712234E+02  0.49772840384E+00  0.11747717166E+02  0.18726420611E+02  0.00000000000E+00 0. -1.
         11    1    3    3    0    0  0.11353737536E+02  0.25910560374E+02 -0.16045684842E+02  0.32522738158E+02  0.51100000000E-03 0. -1.
        -11    1    3    3    0    0  0.70128626468E+01 -0.24974305115E+02  0.13961948746E+02  0.29458991353E+02  0.51100000000E-03 0.  1.
        -12    1    3    3    0    0 -0.37918879486E+01 -0.14339836627E+01 -0.96639810697E+01  0.10479849878E+02  0.00000000000E+00 0.  1.
</event>
<event>
 7    1  0.1375918E-013  0.7246160E+02  0.7816164E-02  0.1226708E+00
        -11   -1    0    0    0    0  0.00000000000E+00  0.00000000000E+00  0.45593999997E+02  0.45594000000E+02  0.51100000000E-03 0.  1.
         11   -1    0    0    0    0 -0.00000000000E+00 -0.00000000000E+00 -0.45593999997E+02  0.45594000000E+02  0.51100000000E-03 0. -1.
    9900012    2    1    2    0    0  0.11371613376E+02  0.10458219658E+02  0.10582532466E+02  0.72461603054E+02  0.70000042675E+02 0.  0.
         12    1    1    2    0    0 -0.11371613376E+02 -0.10458219658E+02 -0.10582532466E+02  0.18726396946E+02  0.00000000000E+00 0. -1.
         11    1    3    3    0    0 -0.76749619472E+01  0.22862599896E+02 -0.14601819928E+02  0.28192492979E+02  0.51100000000E-03 0.  1.
        -11    1    3    3    0    0  0.13245338898E+02 -0.18626535443E+02  0.65359031360E+01  0.23771934192E+02  0.51100000000E-03 0. -1.
        -12    1    3    3    0    0  0.58012364256E+01  0.62221552052E+01  0.18648449258E+02  0.20497175883E+02  0.00000000000E+00 0.  1.
</event>
<event>
 7    1  0.1375918E-013  0.7246157E+02  0.7816164E-02  0.1226708E+00
        -11   -1    0    0    0    0  0.00000000000E+00  0.00000000000E+00  0.45593999997E+02  0.45594000000E+02  0.51100000000E-03 0.  1.
         11   -1    0    0    0    0 -0.00000000000E+00 -0.00000000000E+00 -0.45593999997E+02  0.45594000000E+02  0.51100000000E-03 0. -1.
    9900012    2    1    2    0    0  0.15194935218E+02 -0.30120254815E+01  0.10522397986E+02  0.72461569129E+02  0.69999998482E+02 0.  0.
         12    1    1    2    0    0 -0.15194935218E+02  0.30120254815E+01 -0.10522397986E+02  0.18726430871E+02  0.00000000000E+00 0. -1.
         11    1    3    3    0    0 -0.11206713705E+02 -0.93427308919E+01 -0.16793440211E+02  0.22246273553E+02  0.51100000000E-03 0. -1.
        -11    1    3    3    0    0  0.24145436073E+02  0.17750376106E+02  0.15958516105E+02  0.33952204223E+02  0.51100000000E-03 0.  1.
        -12    1    3    3    0    0  0.22562128499E+01 -0.11419670696E+02  0.11357322093E+02  0.16263091353E+02  0.00000000000E+00 0.  1.
</event>
<event>
 8    1  0.1375918E-013  0.7246159E+02  0.7816164E-02  0.1226708E+00
        -11   -1    0    0    0    0  0.00000000000E+00  0.00000000000E+00  0.45593999997E+02  0.45594000000E+02  0.51100000000E-03 0.  1.
         11   -1    0    0    0    0 -0.00000000000E+00 -0.00000000000E+00 -0.45593999997E+02  0.45594000000E+02  0.51100000000E-03 0. -1.
    9900012    2    1    2    0    0  0.15191312006E+02 -0.33330726241E+01 -0.10430388516E+02  0.72461592491E+02  0.70000028915E+02 0.  0.
        -24    2    3    3    0    0  0.24137468617E+01  0.93399435911E+01 -0.14328181751E+02  0.54047893694E+02  0.51213448432E+02 0.  0.
         12    1    1    2    0    0 -0.15191312006E+02  0.33330726241E+01  0.10430388516E+02  0.18726407509E+02  0.00000000000E+00 0. -1.
         11    1    4    4    0    0  0.19409955893E+02  0.13660137780E+02 -0.24222312474E+02  0.33912625581E+02  0.51100000000E-03 0. -1.
        -11    1    3    3    0    0  0.12777565145E+02 -0.12673016215E+02  0.38977932347E+01  0.18413698797E+02  0.51100000000E-03 0.  1.
        -12    1    4    4    0    0 -0.16996209031E+02 -0.43201941891E+01  0.98941307228E+01  0.20135268114E+02  0.00000000000E+00 0.  1.
</event>
<event>
 7    1  0.1375918E-013  0.7246156E+02  0.7816164E-02  0.1226708E+00
        -11   -1    0    0    0    0  0.00000000000E+00  0.00000000000E+00  0.45593999997E+02  0.45594000000E+02  0.51100000000E-03 0.  1.
         11   -1    0    0    0    0 -0.00000000000E+00 -0.00000000000E+00 -0.45593999997E+02  0.45594000000E+02  0.51100000000E-03 0. -1.
    9900012    2    1    2    0    0  0.98258713273E+00 -0.68860943957E+01  0.17386659617E+02  0.72461555967E+02  0.69999981336E+02 0.  0.
         12    1    1    2    0    0 -0.98258713273E+00  0.68860943957E+01 -0.17386659617E+02  0.18726444033E+02  0.00000000000E+00 0. -1.
         11    1    3    3    0    0  0.22438880451E+01  0.11643446552E+02  0.62128114680E+00  0.11873957710E+02  0.51100000000E-03 0. -1.
        -11    1    3    3    0    0  0.85035471305E+01 -0.19354537000E+02  0.34421119841E+02  0.40394577701E+02  0.51100000000E-03 0.  1.
        -12    1    3    3    0    0 -0.97648480428E+01  0.82499605219E+00 -0.17655741371E+02  0.20193020555E+02  0.00000000000E+00 0.  1.
</event>
<event>
 7    1  0.1375918E-013  0.7246154E+02  0.7816164E-02  0.1226708E+00
        -11   -1    0    0    0    0  0.00000000000E+00  0.00000000000E+00  0.45593999997E+02  0.45594000000E+02  0.51100000000E-03 0.  1.
         11   -1    0    0    0    0 -0.00000000000E+00 -0.00000000000E+00 -0.45593999997E+02  0.45594000000E+02  0.51100000000E-03 0. -1.
    9900012    2    1    2    0    0  0.14203185975E+02  0.33531512793E+01  0.11734828183E+02  0.72461539901E+02  0.69999960408E+02 0.  0.
         12    1    1    2    0    0 -0.14203185975E+02 -0.33531512793E+01 -0.11734828183E+02  0.18726460099E+02  0.00000000000E+00 0. -1.
         11    1    3    3    0    0  0.77355946377E+01 -0.56216900653E+01 -0.22677072287E+02  0.24610819397E+02  0.51100000000E-03 0. -1.
        -11    1    3    3    0    0 -0.41928236072E+01  0.17498667442E+02  0.26628858635E+02  0.32138438738E+02  0.51100000000E-03 0.  1.
         12    1    3    3    0    0  0.10660414944E+02 -0.85238260972E+01  0.77830418356E+01  0.15712281767E+02  0.00000000000E+00 0. -1.
</event>
<event>
 7    1  0.1375918E-013  0.7246165E+02  0.7816164E-02  0.1226708E+00
        -11   -1    0    0    0    0  0.00000000000E+00  0.00000000000E+00  0.45593999997E+02  0.45594000000E+02  0.51100000000E-03 0. -1.
         11   -1    0    0    0    0 -0.00000000000E+00 -0.00000000000E+00 -0.45593999997E+02  0.45594000000E+02  0.51100000000E-03 0.  1.
    9900012    2    1    2    0    0 -0.13485955241E+02  0.66300101293E+01 -0.11173540875E+02  0.72461653886E+02  0.70000108894E+02 0.  0.
         12    1    1    2    0    0  0.13485955241E+02 -0.66300101293E+01  0.11173540875E+02  0.18726346114E+02  0.00000000000E+00 0. -1.
         11    1    3    3    0    0 -0.87318978182E+01  0.21078907559E+02  0.10705536008E+02  0.25202676145E+02  0.51100000000E-03 0. -1.
        -11    1    3    3    0    0  0.93344741941E+01 -0.46910717706E+01 -0.27343429604E+02  0.29271175337E+02  0.51100000000E-03 0.  1.
        -12    1    3    3    0    0 -0.14088531617E+02 -0.97578256591E+01  0.54643527205E+01  0.17987802405E+02  0.00000000000E+00 0.  1.
</event>
<event>
 7    1  0.1375918E-013  0.7246160E+02  0.7816164E-02  0.1226708E+00
        -11   -1    0    0    0    0  0.00000000000E+00  0.00000000000E+00  0.45593999997E+02  0.45594000000E+02  0.51100000000E-03 0.  1.
         11   -1    0    0    0    0 -0.00000000000E+00 -0.00000000000E+00 -0.45593999997E+02  0.45594000000E+02  0.51100000000E-03 0. -1.
    9900012    2    1    2    0    0  0.18145574473E+02  0.38673662836E+01  0.25415602764E+01  0.72461603561E+02  0.70000043337E+02 0.  0.
         12    1    1    2    0    0 -0.18145574473E+02 -0.38673662836E+01 -0.25415602764E+01  0.18726396439E+02  0.00000000000E+00 0. -1.
         11    1    3    3    0    0  0.34523190355E+02 -0.78629405594E+01 -0.95523471906E+01  0.36673203346E+02  0.51100000000E-03 0. -1.
        -11    1    3    3    0    0 -0.10305348656E+02  0.38496049187E+01  0.20169565563E+02  0.22974573864E+02  0.51100000000E-03 0.  1.
        -12    1    3    3    0    0 -0.60722672257E+01  0.78807019244E+01 -0.80756580964E+01  0.12813826352E+02  0.00000000000E+00 0.  1.
</event>
<event>
 7    1  0.1375918E-013  0.7246120E+02  0.7816164E-02  0.1226709E+00
        -11   -1    0    0    0    0  0.00000000000E+00  0.00000000000E+00  0.45593999997E+02  0.45594000000E+02  0.51100000000E-03 0. -1.
         11   -1    0    0    0    0 -0.00000000000E+00 -0.00000000000E+00 -0.45593999997E+02  0.45594000000E+02  0.51100000000E-03 0.  1.
    9900012    2    1    2    0    0 -0.74055084452E+01  0.69509909455E+01 -0.15733250509E+02  0.72461200966E+02  0.69999518880E+02 0.  0.
         12    1    1    2    0    0  0.74055084452E+01 -0.69509909455E+01  0.15733250509E+02  0.18726799034E+02  0.00000000000E+00 0. -1.
         11    1    3    3    0    0 -0.27917353644E+02  0.13901292892E+02 -0.22447457970E+02  0.38425420598E+02  0.51100000000E-03 0. -1.
        -11    1    3    3    0    0  0.12544786807E+02 -0.28460121220E+01 -0.91701578015E+01  0.15797571187E+02  0.51100000000E-03 0.  1.
         12    1    3    3    0    0  0.79670583914E+01 -0.41042898246E+01  0.15884365262E+02  0.18238209182E+02  0.00000000000E+00 0. -1.
</event>
<event>
 7    1  0.1375918E-013  0.7246154E+02  0.7816164E-02  0.1226708E+00
        -11   -1    0    0    0    0  0.00000000000E+00  0.00000000000E+00  0.45593999997E+02  0.45594000000E+02  0.51100000000E-03 0.  1.
         11   -1    0    0    0    0 -0.00000000000E+00 -0.00000000000E+00 -0.45593999997E+02  0.45594000000E+02  0.51100000000E-03 0. -1.
    9900012    2    1    2    0    0  0.13130965248E+02 -0.12623406668E+02  0.43483029138E+01  0.72461537909E+02  0.69999957811E+02 0.  0.
         12    1    1    2    0    0 -0.13130965248E+02  0.12623406668E+02 -0.43483029138E+01  0.18726462091E+02  0.00000000000E+00 0. -1.
         11    1    3    3    0    0 -0.63444104534E+00  0.12120151551E+02 -0.25573632241E+02  0.28307441695E+02  0.51100000000E-03 0. -1.
        -11    1    3    3    0    0 -0.89189187318E+00 -0.12294237431E+02  0.16946233710E+02  0.20955156462E+02  0.51100000000E-03 0.  1.
         12    1    3    3    0    0  0.14657298166E+02 -0.12449320788E+02  0.12975701445E+02  0.23198939751E+02  0.00000000000E+00 0. -1.
</event>
<event>
 7    1  0.1375918E-013  0.7246158E+02  0.7816164E-02  0.1226708E+00
        -11   -1    0    0    0    0  0.00000000000E+00  0.00000000000E+00  0.45593999997E+02  0.45594000000E+02  0.51100000000E-03 0. -1.
         11   -1    0    0    0    0 -0.00000000000E+00 -0.00000000000E+00 -0.45593999997E+02  0.45594000000E+02  0.51100000000E-03 0.  1.
    9900012    2    1    2    0    0 -0.41269514162E+00  0.18324402543E+02  0.38372793880E+01  0.72461581257E+02  0.70000014281E+02 0.  0.
         12    1    1    2    0    0  0.41269514162E+00 -0.18324402543E+02 -0.38372793880E+01  0.18726418743E+02  0.00000000000E+00 0. -1.
         11    1    3    3    0    0  0.96904700826E+01  0.33567420173E+02  0.21488103076E+02  0.41017258338E+02  0.51100000000E-03 0. -1.
        -11    1    3    3    0    0 -0.77259604149E+01 -0.96870355300E+01 -0.21112477894E+02  0.24479906960E+02  0.51100000000E-03 0.  1.
        -12    1    3    3    0    0 -0.23772048092E+01 -0.55559820999E+01  0.34616542063E+01  0.69644159586E+01  0.00000000000E+00 0.  1.
</event>
<event>
 7    1  0.1375918E-013  0.7246158E+02  0.7816164E-02  0.1226708E+00
        -11   -1    0    0    0    0  0.00000000000E+00  0.00000000000E+00  0.45593999997E+02  0.45594000000E+02  0.51100000000E-03 0.  1.
         11   -1    0    0    0    0 -0.00000000000E+00 -0.00000000000E+00 -0.45593999997E+02  0.45594000000E+02  0.51100000000E-03 0. -1.
    9900012    2    1    2    0    0 -0.14662209429E+02 -0.11266058421E+02  0.29621698455E+01  0.72461577280E+02  0.70000009100E+02 0.  0.
         12    1    1    2    0    0  0.14662209429E+02  0.11266058421E+02 -0.29621698455E+01  0.18726422720E+02  0.00000000000E+00 0. -1.
         11    1    3    3    0    0 -0.58871118968E+01  0.29324575436E+00  0.94183676850E+01  0.11110793386E+02  0.51100000000E-03 0.  1.
        -11    1    3    3    0    0 -0.22798657700E+01  0.20355839503E+02 -0.17519685891E+02  0.26953615413E+02  0.51100000000E-03 0. -1.
        -12    1    3    3    0    0 -0.64952317622E+01 -0.31915143679E+02  0.11063488052E+02  0.34397168482E+02  0.00000000000E+00 0.  1.
</event>
<event>
 7    1  0.1375918E-013  0.7246146E+02  0.7816164E-02  0.1226708E+00
        -11   -1    0    0    0    0  0.00000000000E+00  0.00000000000E+00  0.45593999997E+02  0.45594000000E+02  0.51100000000E-03 0. -1.
         11   -1    0    0    0    0 -0.00000000000E+00 -0.00000000000E+00 -0.45593999997E+02  0.45594000000E+02  0.51100000000E-03 0.  1.
    9900012    2    1    2    0    0 -0.16642552416E+02  0.81413488713E+01 -0.27253050264E+01  0.72461457344E+02  0.69999852861E+02 0.  0.
         12    1    1    2    0    0  0.16642552416E+02 -0.81413488713E+01  0.27253050264E+01  0.18726542656E+02  0.00000000000E+00 0. -1.
         11    1    3    3    0    0 -0.11463979891E+01  0.11340863972E+02  0.30217769400E+02  0.32296176427E+02  0.51100000000E-03 0. -1.
        -11    1    3    3    0    0 -0.28144239140E+01 -0.60642837796E+01 -0.22550906663E+02  0.23521052512E+02  0.51100000000E-03 0.  1.
         12    1    3    3    0    0 -0.12681730512E+02  0.28647686787E+01 -0.10392167764E+02  0.16644228405E+02  0.00000000000E+00 0. -1.
</event>
<event>
 7    1  0.1375918E-013  0.7246158E+02  0.7816164E-02  0.1226708E+00
        -11   -1    0    0    0    0  0.00000000000E+00  0.00000000000E+00  0.45593999997E+02  0.45594000000E+02  0.51100000000E-03 0.  1.
         11   -1    0    0    0    0 -0.00000000000E+00 -0.00000000000E+00 -0.45593999997E+02  0.45594000000E+02  0.51100000000E-03 0. -1.
    9900012    2    1    2    0    0 -0.45864795873E+01  0.21795157110E+01  0.18024783265E+02  0.72461577611E+02  0.70000009531E+02 0.  0.
         12    1    1    2    0    0  0.45864795873E+01 -0.21795157110E+01 -0.18024783265E+02  0.18726422389E+02  0.00000000000E+00 0. -1.
         11    1    3    3    0    0  0.12396517804E+02 -0.22311119144E+02  0.27773750763E+02  0.37720563660E+02  0.51100000000E-03 0.  1.
        -11    1    3    3    0    0 -0.16742208092E+02  0.13282315095E+02 -0.98450585959E+01  0.23529696239E+02  0.51100000000E-03 0. -1.
        -12    1    3    3    0    0 -0.24078929935E+00  0.11208319760E+02  0.96091098375E-01  0.11211317712E+02  0.00000000000E+00 0.  1.
</event>
<event>
 7    1  0.1375918E-013  0.7246140E+02  0.7816164E-02  0.1226708E+00
        -11   -1    0    0    0    0  0.00000000000E+00  0.00000000000E+00  0.45593999997E+02  0.45594000000E+02  0.51100000000E-03 0. -1.
         11   -1    0    0    0    0 -0.00000000000E+00 -0.00000000000E+00 -0.45593999997E+02  0.45594000000E+02  0.51100000000E-03 0.  1.
    9900012    2    1    2    0    0 -0.14524656816E+02 -0.44635992155E+01 -0.10945148764E+02  0.72461397130E+02  0.69999774421E+02 0.  0.
         12    1    1    2    0    0  0.14524656816E+02  0.44635992155E+01  0.10945148764E+02  0.18726602870E+02  0.00000000000E+00 0. -1.
         11    1    3    3    0    0 -0.46471151759E+01  0.21028238362E+02 -0.18448409915E+02  0.28357121094E+02  0.51100000000E-03 0. -1.
        -11    1    3    3    0    0 -0.21080702864E+02 -0.11830509651E+02  0.10190296256E+02  0.26233549700E+02  0.51100000000E-03 0.  1.
         12    1    3    3    0    0  0.11203161224E+02 -0.13661327927E+02 -0.26870351043E+01  0.17870726336E+02  0.00000000000E+00 0. -1.
</event>
<event>
 7    1  0.1375918E-013  0.7246154E+02  0.7816164E-02  0.1226708E+00
        -11   -1    0    0    0    0  0.00000000000E+00  0.00000000000E+00  0.45593999997E+02  0.45594000000E+02  0.51100000000E-03 0. -1.
         11   -1    0    0    0    0 -0.00000000000E+00 -0.00000000000E+00 -0.45593999997E+02  0.45594000000E+02  0.51100000000E-03 0.  1.
    9900012    2    1    2    0    0 -0.16973930143E+02  0.56057521578E+01 -0.55804734006E+01  0.72461536235E+02  0.69999955632E+02 0.  0.
         12    1    1    2    0    0  0.16973930143E+02 -0.56057521578E+01  0.55804734006E+01  0.18726463765E+02  0.00000000000E+00 0. -1.
         11    1    3    3    0    0  0.73305134736E+01  0.10382252267E+02 -0.31968693858E+02  0.34402397840E+02  0.51100000000E-03 0. -1.
        -11    1    3    3    0    0 -0.16175245066E+02 -0.10951573858E+01  0.90700632803E+01  0.18576974211E+02  0.51100000000E-03 0.  1.
         12    1    3    3    0    0 -0.81291985504E+01 -0.36813427229E+01  0.17318157177E+02  0.19482164185E+02  0.00000000000E+00 0. -1.
</event>
<event>
 7    1  0.1375918E-013  0.7246159E+02  0.7816164E-02  0.1226708E+00
        -11   -1    0    0    0    0  0.00000000000E+00  0.00000000000E+00  0.45593999997E+02  0.45594000000E+02  0.51100000000E-03 0.  1.
         11   -1    0    0    0    0 -0.00000000000E+00 -0.00000000000E+00 -0.45593999997E+02  0.45594000000E+02  0.51100000000E-03 0. -1.
    9900012    2    1    2    0    0 -0.16887470392E+02  0.66950844916E+01  0.45461809663E+01  0.72461586196E+02  0.70000020715E+02 0.  0.
         12    1    1    2    0    0  0.16887470392E+02 -0.66950844916E+01 -0.45461809663E+01  0.18726413804E+02  0.00000000000E+00 0. -1.
         11    1    3    3    0    0 -0.43493614274E+01  0.19669324975E+01 -0.31274365165E+01  0.57067177695E+01  0.51100000000E-03 0. -1.
        -11    1    3    3    0    0  0.55298818578E+01  0.14255846098E+02  0.31714482831E+02  0.35208197382E+02  0.51100000000E-03 0.  1.
        -12    1    3    3    0    0 -0.18067990822E+02 -0.95276941043E+01 -0.24040865349E+02  0.31546671045E+02  0.00000000000E+00 0.  1.
</event>
<event>
 7    1  0.1375918E-013  0.7246114E+02  0.7816164E-02  0.1226709E+00
        -11   -1    0    0    0    0  0.00000000000E+00  0.00000000000E+00  0.45593999997E+02  0.45594000000E+02  0.51100000000E-03 0. -1.
         11   -1    0    0    0    0 -0.00000000000E+00 -0.00000000000E+00 -0.45593999997E+02  0.45594000000E+02  0.51100000000E-03 0.  1.
    9900012    2    1    2    0    0  0.64666335550E+01 -0.10712364771E+02 -0.13932811798E+02  0.72461138193E+02  0.69999437106E+02 0.  0.
         12    1    1    2    0    0 -0.64666335550E+01  0.10712364771E+02  0.13932811798E+02  0.18726861807E+02  0.00000000000E+00 0. -1.
         11    1    3    3    0    0  0.14380489154E+02  0.60524145300E+01 -0.18820271337E+01  0.15715349705E+02  0.51100000000E-03 0. -1.
        -11    1    3    3    0    0  0.14330389025E+01 -0.34905580132E+02 -0.93191086058E+01  0.36156588754E+02  0.51100000000E-03 0.  1.
        -12    1    3    3    0    0 -0.93468945014E+01  0.18140800831E+02 -0.27316760589E+01  0.20589199735E+02  0.00000000000E+00 0.  1.
</event>
<event>
 7    1  0.1375918E-013  0.7246157E+02  0.7816164E-02  0.1226708E+00
        -11   -1    0    0    0    0  0.00000000000E+00  0.00000000000E+00  0.45593999997E+02  0.45594000000E+02  0.51100000000E-03 0.  1.
         11   -1    0    0    0    0 -0.00000000000E+00 -0.00000000000E+00 -0.45593999997E+02  0.45594000000E+02  0.51100000000E-03 0. -1.
    9900012    2    1    2    0    0  0.42027666629E+01  0.99916725199E+01  0.15270305594E+02  0.72461574813E+02  0.70000005886E+02 0.  0.
         12    1    1    2    0    0 -0.42027666629E+01 -0.99916725199E+01 -0.15270305594E+02  0.18726425187E+02  0.00000000000E+00 0. -1.
         11    1    3    3    0    0  0.16278128033E+02  0.23469670220E+02  0.13480488294E+01  0.28594057222E+02  0.51100000000E-03 0.  1.
        -11    1    3    3    0    0 -0.23175799903E+02 -0.15012820637E+02  0.22784809757E+01  0.27707290745E+02  0.51100000000E-03 0. -1.
        -12    1    3    3    0    0  0.11100438533E+02  0.15348229368E+01  0.11643775789E+02  0.16160226845E+02  0.00000000000E+00 0.  1.
</event>
<event>
 7    1  0.1375918E-013  0.7246157E+02  0.7816164E-02  0.1226708E+00
        -11   -1    0    0    0    0  0.00000000000E+00  0.00000000000E+00  0.45593999997E+02  0.45594000000E+02  0.51100000000E-03 0.  1.
         11   -1    0    0    0    0 -0.00000000000E+00 -0.00000000000E+00 -0.45593999997E+02  0.45594000000E+02  0.51100000000E-03 0. -1.
    9900012    2    1    2    0    0  0.16385999420E+02 -0.79839806836E+01  0.42935220619E+01  0.72461567979E+02  0.69999996983E+02 0.  0.
         12    1    1    2    0    0 -0.16385999420E+02  0.79839806836E+01 -0.42935220619E+01  0.18726432021E+02  0.00000000000E+00 0. -1.
         11    1    3    3    0    0 -0.16206418645E+02  0.13283186173E+01  0.26301932408E+02  0.30922549770E+02  0.51100000000E-03 0. -1.
        -11    1    3    3    0    0  0.13441131699E+02 -0.87852003240E+01 -0.10608193717E+02  0.19245195252E+02  0.51100000000E-03 0.  1.
         12    1    3    3    0    0  0.19151286367E+02 -0.52709897678E+00 -0.11400216629E+02  0.22293822957E+02  0.00000000000E+00 0. -1.
</event>
<event>
 7    1  0.1375918E-013  0.7246161E+02  0.7816164E-02  0.1226708E+00
        -11   -1    0    0    0    0  0.00000000000E+00  0.00000000000E+00  0.45593999997E+02  0.45594000000E+02  0.51100000000E-03 0. -1.
         11   -1    0    0    0    0 -0.00000000000E+00 -0.00000000000E+00 -0.45593999997E+02  0.45594000000E+02  0.51100000000E-03 0.  1.
    9900012    2    1    2    0    0  0.17328941497E+02  0.14667113616E+01 -0.69450732437E+01  0.72461614925E+02  0.70000058140E+02 0.  0.
         12    1    1    2    0    0 -0.17328941497E+02 -0.14667113616E+01  0.69450732437E+01  0.18726385075E+02  0.00000000000E+00 0. -1.
         11    1    3    3    0    0  0.25124741281E+01  0.52559615200E+01  0.30789041182E+02  0.31335326947E+02  0.51100000000E-03 0. -1.
        -11    1    3    3    0    0  0.77203853768E+00 -0.13856814543E+00 -0.80187559355E+01  0.80570274698E+01  0.51100000000E-03 0.  1.
         12    1    3    3    0    0  0.14044428831E+02 -0.36506820130E+01 -0.29715358490E+02  0.33069260508E+02  0.00000000000E+00 0. -1.
</event>
<event>
 7    1  0.1375918E-013  0.7246155E+02  0.7816164E-02  0.1226708E+00
        -11   -1    0    0    0    0  0.00000000000E+00  0.00000000000E+00  0.45593999997E+02  0.45594000000E+02  0.51100000000E-03 0. -1.
         11   -1    0    0    0    0 -0.00000000000E+00 -0.00000000000E+00 -0.45593999997E+02  0.45594000000E+02  0.51100000000E-03 0.  1.
    9900012    2    1    2    0    0 -0.10533976972E+02 -0.24699600156E+01 -0.15284454023E+02  0.72461550574E+02  0.69999974311E+02 0.  0.
         12    1    1    2    0    0  0.10533976972E+02  0.24699600156E+01  0.15284454023E+02  0.18726449426E+02  0.00000000000E+00 0. -1.
         11    1    3    3    0    0  0.26050801152E+02  0.13570989438E+02 -0.11333257000E+02  0.31484261298E+02  0.51100000000E-03 0.  1.
        -11    1    3    3    0    0 -0.27245632166E+02 -0.13830512085E+02  0.11257912944E+00  0.30555199410E+02  0.51100000000E-03 0. -1.
        -12    1    3    3    0    0 -0.93391459578E+01 -0.22104373685E+01 -0.40637761521E+01  0.10422089867E+02  0.00000000000E+00 0.  1.
</event>
<event>
 7    1  0.1375918E-013  0.7246163E+02  0.7816164E-02  0.1226708E+00
        -11   -1    0    0    0    0  0.00000000000E+00  0.00000000000E+00  0.45593999997E+02  0.45594000000E+02  0.51100000000E-03 0.  1.
         11   -1    0    0    0    0 -0.00000000000E+00 -0.00000000000E+00 -0.45593999997E+02  0.45594000000E+02  0.51100000000E-03 0. -1.
    9900012    2    1    2    0    0  0.94620370328E+01 -0.26474996878E+01  0.15941695686E+02  0.72461626599E+02  0.70000073348E+02 0.  0.
         12    1    1    2    0    0 -0.94620370328E+01  0.26474996878E+01 -0.15941695686E+02  0.18726373401E+02  0.00000000000E+00 0. -1.
         11    1    3    3    0    0  0.13324397094E+02 -0.26652576944E+02  0.10469239924E+02  0.31583293060E+02  0.51100000000E-03 0. -1.
        -11    1    3    3    0    0 -0.11496386360E+02  0.29090322584E+02  0.33104055153E+01  0.31454293066E+02  0.51100000000E-03 0.  1.
        -12    1    3    3    0    0  0.76340262991E+01 -0.50852453276E+01  0.21620502460E+01  0.94240404734E+01  0.00000000000E+00 0.  1.
</event>
<event>
 7    1  0.1375918E-013  0.7246156E+02  0.7816164E-02  0.1226708E+00
        -11   -1    0    0    0    0  0.00000000000E+00  0.00000000000E+00  0.45593999997E+02  0.45594000000E+02  0.51100000000E-03 0. -1.
         11   -1    0    0    0    0 -0.00000000000E+00 -0.00000000000E+00 -0.45593999997E+02  0.45594000000E+02  0.51100000000E-03 0.  1.
    9900012    2    1    2    0    0  0.14799448398E+02 -0.43406359233E+01 -0.10621431846E+02  0.72461558598E+02  0.69999984764E+02 0.  0.
         12    1    1    2    0    0 -0.14799448398E+02  0.43406359233E+01  0.10621431846E+02  0.18726441402E+02  0.00000000000E+00 0. -1.
         11    1    3    3    0    0  0.19835925889E+01  0.28887584221E+02 -0.83088883973E+01  0.30124156226E+02  0.51100000000E-03 0. -1.
        -11    1    3    3    0    0  0.53371405518E+01 -0.17911047654E+02 -0.12495691718E+02  0.22481837316E+02  0.51100000000E-03 0.  1.
         12    1    3    3    0    0  0.74787152578E+01 -0.15317172490E+02  0.10183148270E+02  0.19855565056E+02  0.00000000000E+00 0. -1.
</event>
<event>
 7    1  0.1375918E-013  0.7246132E+02  0.7816164E-02  0.1226709E+00
        -11   -1    0    0    0    0  0.00000000000E+00  0.00000000000E+00  0.45593999997E+02  0.45594000000E+02  0.51100000000E-03 0. -1.
         11   -1    0    0    0    0 -0.00000000000E+00 -0.00000000000E+00 -0.45593999997E+02  0.45594000000E+02  0.51100000000E-03 0.  1.
    9900012    2    1    2    0    0  0.81151423343E+01  0.14106637777E+02 -0.92647592404E+01  0.72461320416E+02  0.69999674486E+02 0.  0.
         12    1    1    2    0    0 -0.81151423343E+01 -0.14106637777E+02  0.92647592404E+01  0.18726679584E+02  0.00000000000E+00 0. -1.
         11    1    3    3    0    0  0.25634989084E+02  0.19945460290E+02  0.13679532720E+02  0.35243491133E+02  0.51100000000E-03 0. -1.
        -11    1    3    3    0    0 -0.20177505372E+02 -0.70663719404E+01 -0.93888117258E+01  0.23349841998E+02  0.51100000000E-03 0.  1.
        -12    1    3    3    0    0  0.26576586225E+01  0.12275494274E+01 -0.13555480234E+02  0.13867987285E+02  0.00000000000E+00 0.  1.
</event>
<event>
 7    1  0.1375918E-013  0.7246162E+02  0.7816164E-02  0.1226708E+00
        -11   -1    0    0    0    0  0.00000000000E+00  0.00000000000E+00  0.45593999997E+02  0.45594000000E+02  0.51100000000E-03 0.  1.
         11   -1    0    0    0    0 -0.00000000000E+00 -0.00000000000E+00 -0.45593999997E+02  0.45594000000E+02  0.51100000000E-03 0. -1.
    9900012    2    1    2    0    0 -0.77192940880E+01  0.49414663294E+01  0.16330086782E+02  0.72461619544E+02  0.70000064156E+02 0.  0.
         12    1    1    2    0    0  0.77192940880E+01 -0.49414663294E+01 -0.16330086782E+02  0.18726380456E+02  0.00000000000E+00 0. -1.
         11    1    3    3    0    0  0.24034410841E+02  0.10103742490E+02  0.10859913637E+02  0.28243162735E+02  0.51100000000E-03 0.  1.
        -11    1    3    3    0    0 -0.35072789640E+02 -0.65125990796E+00 -0.17003193751E+01  0.35120019915E+02  0.51100000000E-03 0. -1.
         12    1    3    3    0    0  0.33190847104E+01 -0.45110162530E+01  0.71704925193E+01  0.90984368942E+01  0.00000000000E+00 0. -1.
</event>
<event>
 7    1  0.1375918E-013  0.7246169E+02  0.7816164E-02  0.1226708E+00
        -11   -1    0    0    0    0  0.00000000000E+00  0.00000000000E+00  0.45593999997E+02  0.45594000000E+02  0.51100000000E-03 0.  1.
         11   -1    0    0    0    0 -0.00000000000E+00 -0.00000000000E+00 -0.45593999997E+02  0.45594000000E+02  0.51100000000E-03 0. -1.
    9900012    2    1    2    0    0 -0.15427180739E+02 -0.73206788770E+01  0.76866365001E+01  0.72461691622E+02  0.70000158052E+02 0.  0.
         12    1    1    2    0    0  0.15427180739E+02  0.73206788770E+01 -0.76866365001E+01  0.18726308378E+02  0.00000000000E+00 0. -1.
         11    1    3    3    0    0  0.20788206207E+01 -0.64073558008E+01 -0.43315839279E+01  0.80086405286E+01  0.51100000000E-03 0. -1.
        -11    1    3    3    0    0 -0.29889656568E+02 -0.18273456206E+02  0.21512267141E+02  0.41110684856E+02  0.51100000000E-03 0.  1.
        -12    1    3    3    0    0  0.12383655208E+02  0.17360133129E+02 -0.94940467132E+01  0.23342366238E+02  0.00000000000E+00 0.  1.
</event>
<event>
 7    1  0.1375918E-013  0.7246142E+02  0.7816164E-02  0.1226708E+00
        -11   -1    0    0    0    0  0.00000000000E+00  0.00000000000E+00  0.45593999997E+02  0.45594000000E+02  0.51100000000E-03 0.  1.
         11   -1    0    0    0    0 -0.00000000000E+00 -0.00000000000E+00 -0.45593999997E+02  0.45594000000E+02  0.51100000000E-03 0. -1.
    9900012    2    1    2    0    0 -0.11344161021E+02 -0.11635827031E+02  0.93060337232E+01  0.72461421999E+02  0.69999806817E+02 0.  0.
         12    1    1    2    0    0  0.11344161021E+02  0.11635827031E+02 -0.93060337232E+01  0.18726578001E+02  0.00000000000E+00 0. -1.
         11    1    3    3    0    0 -0.25565880169E+02  0.46110024786E+00 -0.61461256370E+01  0.26298321294E+02  0.51100000000E-03 0. -1.
        -11    1    3    3    0    0  0.42210086876E+01 -0.66777478190E+01  0.28078576466E+02  0.29168745035E+02  0.51100000000E-03 0.  1.
         12    1    3    3    0    0  0.10000710460E+02 -0.54191794597E+01 -0.12626417106E+02  0.16994355671E+02  0.00000000000E+00 0. -1.
</event>
<event>
 7    1  0.1375918E-013  0.7246155E+02  0.7816164E-02  0.1226708E+00
        -11   -1    0    0    0    0  0.00000000000E+00  0.00000000000E+00  0.45593999997E+02  0.45594000000E+02  0.51100000000E-03 0.  1.
         11   -1    0    0    0    0 -0.00000000000E+00 -0.00000000000E+00 -0.45593999997E+02  0.45594000000E+02  0.51100000000E-03 0. -1.
    9900012    2    1    2    0    0  0.18185087920E+02 -0.18951751939E+01 -0.40485460884E+01  0.72461552470E+02  0.69999976780E+02 0.  0.
         12    1    1    2    0    0 -0.18185087920E+02  0.18951751939E+01  0.40485460884E+01  0.18726447530E+02  0.00000000000E+00 0. -1.
         11    1    3    3    0    0  0.37746398071E+02 -0.44210162892E+01 -0.98071335483E+01  0.39249405359E+02  0.51100000000E-03 0. -1.
        -11    1    3    3    0    0 -0.24455024928E+02  0.55508909565E+01  0.89581415303E+01  0.26629099395E+02  0.51100000000E-03 0.  1.
        -12    1    3    3    0    0  0.48937147768E+01 -0.30250498612E+01 -0.31995540703E+01  0.65830477158E+01  0.00000000000E+00 0.  1.
</event>
<event>
 7    1  0.1375918E-013  0.7246158E+02  0.7816164E-02  0.1226708E+00
        -11   -1    0    0    0    0  0.00000000000E+00  0.00000000000E+00  0.45593999997E+02  0.45594000000E+02  0.51100000000E-03 0. -1.
         11   -1    0    0    0    0 -0.00000000000E+00 -0.00000000000E+00 -0.45593999997E+02  0.45594000000E+02  0.51100000000E-03 0.  1.
    9900012    2    1    2    0    0  0.12115446065E+02 -0.11998681028E+02 -0.77412231586E+01  0.72461577070E+02  0.70000008826E+02 0.  0.
         12    1    1    2    0    0 -0.12115446065E+02  0.11998681028E+02  0.77412231586E+01  0.18726422930E+02  0.00000000000E+00 0. -1.
         11    1    3    3    0    0 -0.44309695002E+01 -0.32885660566E+01  0.44410975910E+01  0.70831847000E+01  0.51100000000E-03 0. -1.
        -11    1    3    3    0    0  0.24194493074E+01  0.26162515081E+02 -0.17444253518E+01  0.26331994805E+02  0.51100000000E-03 0.  1.
        -12    1    3    3    0    0  0.14126966258E+02 -0.34872630053E+02 -0.10437895398E+02  0.39046397565E+02  0.00000000000E+00 0.  1.
</event>
<event>
 7    1  0.1663619E-013  0.7246163E+02  0.7816164E-02  0.1226708E+00
        -11   -1    0    0    0    0  0.00000000000E+00  0.00000000000E+00  0.45593999997E+02  0.45594000000E+02  0.51100000000E-03 0. -1.
         11   -1    0    0    0    0 -0.00000000000E+00 -0.00000000000E+00 -0.45593999997E+02  0.45594000000E+02  0.51100000000E-03 0.  1.
    9900012    2    1    2    0    0 -0.16724976191E+02  0.74590738503E+01 -0.39133339883E+01  0.72461633716E+02  0.70000082619E+02 0.  0.
         12    1    1    2    0    0  0.16724976191E+02 -0.74590738503E+01  0.39133339883E+01  0.18726366284E+02  0.00000000000E+00 0. -1.
         11    1    3    3    0    0 -0.11652175093E+02  0.19812361380E+02 -0.19281418294E+02  0.30001265632E+02  0.51100000000E-03 0. -1.
        -11    1    3    3    0    0 -0.19561247085E+02 -0.10195122658E+02  0.16820720480E+02  0.27740215415E+02  0.51100000000E-03 0.  1.
         12    1    3    3    0    0  0.14488445987E+02 -0.21581648718E+01 -0.14526361750E+01  0.14720152669E+02  0.00000000000E+00 0. -1.
</event>
<event>
 7    1  0.1375918E-013  0.7246157E+02  0.7816164E-02  0.1226708E+00
        -11   -1    0    0    0    0  0.00000000000E+00  0.00000000000E+00  0.45593999997E+02  0.45594000000E+02  0.51100000000E-03 0.  1.
         11   -1    0    0    0    0 -0.00000000000E+00 -0.00000000000E+00 -0.45593999997E+02  0.45594000000E+02  0.51100000000E-03 0. -1.
    9900012    2    1    2    0    0 -0.97061361466E+01  0.14833147995E+02 -0.60372111706E+01  0.72461567423E+02  0.69999996260E+02 0.  0.
         12    1    1    2    0    0  0.97061361466E+01 -0.14833147995E+02  0.60372111706E+01  0.18726432577E+02  0.00000000000E+00 0. -1.
         11    1    3    3    0    0 -0.10544840085E+02 -0.17013336743E+02 -0.75402576505E+01  0.21389314277E+02  0.51100000000E-03 0. -1.
        -11    1    3    3    0    0  0.19608881262E+02  0.12625065494E+02  0.53630224345E+01  0.23930368008E+02  0.51100000000E-03 0.  1.
         12    1    3    3    0    0 -0.18770177324E+02  0.19221419243E+02 -0.38599759546E+01  0.27141885138E+02  0.00000000000E+00 0. -1.
</event>
<event>
 7    1  0.1375918E-013  0.7246158E+02  0.7816164E-02  0.1226708E+00
        -11   -1    0    0    0    0  0.00000000000E+00  0.00000000000E+00  0.45593999997E+02  0.45594000000E+02  0.51100000000E-03 0. -1.
         11   -1    0    0    0    0 -0.00000000000E+00 -0.00000000000E+00 -0.45593999997E+02  0.45594000000E+02  0.51100000000E-03 0.  1.
    9900012    2    1    2    0    0 -0.79577089831E+01 -0.86097288892E+00 -0.16929626185E+02  0.72461584183E+02  0.70000018093E+02 0.  0.
         12    1    1    2    0    0  0.79577089831E+01  0.86097288892E+00  0.16929626185E+02  0.18726415817E+02  0.00000000000E+00 0. -1.
         11    1    3    3    0    0  0.85543721417E+01  0.72142772118E+01  0.64964022013E+01  0.12939332295E+02  0.51100000000E-03 0. -1.
        -11    1    3    3    0    0 -0.19049174838E+01 -0.18808593865E+02 -0.33733738943E+02  0.38669846873E+02  0.51100000000E-03 0.  1.
        -12    1    3    3    0    0 -0.14607163641E+02  0.10733343765E+02  0.10307710557E+02  0.20852405015E+02  0.00000000000E+00 0.  1.
</event>
<event>
 7    1  0.1375918E-013  0.7246162E+02  0.7816164E-02  0.1226708E+00
        -11   -1    0    0    0    0  0.00000000000E+00  0.00000000000E+00  0.45593999997E+02  0.45594000000E+02  0.51100000000E-03 0. -1.
         11   -1    0    0    0    0 -0.00000000000E+00 -0.00000000000E+00 -0.45593999997E+02  0.45594000000E+02  0.51100000000E-03 0.  1.
    9900012    2    1    2    0    0  0.16818793918E+02  0.81870333626E+01 -0.88209525973E+00  0.72461616575E+02  0.70000060289E+02 0.  0.
         12    1    1    2    0    0 -0.16818793918E+02 -0.81870333626E+01  0.88209525973E+00  0.18726383425E+02  0.00000000000E+00 0. -1.
         11    1    3    3    0    0  0.13163693587E+02 -0.14351051202E+02 -0.22529066641E+02  0.29779092388E+02  0.51100000000E-03 0. -1.
        -11    1    3    3    0    0 -0.74883902300E+00  0.21049037204E+02  0.53960157740E+00  0.21069264278E+02  0.51100000000E-03 0.  1.
         12    1    3    3    0    0  0.44039393541E+01  0.14890473608E+01  0.21107369804E+02  0.21613259909E+02  0.00000000000E+00 0. -1.
</event>
<event>
 7    1  0.1375918E-013  0.7246159E+02  0.7816164E-02  0.1226708E+00
        -11   -1    0    0    0    0  0.00000000000E+00  0.00000000000E+00  0.45593999997E+02  0.45594000000E+02  0.51100000000E-03 0.  1.
         11   -1    0    0    0    0 -0.00000000000E+00 -0.00000000000E+00 -0.45593999997E+02  0.45594000000E+02  0.51100000000E-03 0. -1.
    9900012    2    1    2    0    0 -0.12264548649E+02 -0.73550879658E+01  0.12089740637E+02  0.72461593478E+02  0.70000030201E+02 0.  0.
         12    1    1    2    0    0  0.12264548649E+02  0.73550879658E+01 -0.12089740637E+02  0.18726406522E+02  0.00000000000E+00 0. -1.
         11    1    3    3    0    0 -0.15349327987E+02 -0.15219315757E+02 -0.13745553167E+02  0.25615809062E+02  0.51100000000E-03 0. -1.
        -11    1    3    3    0    0 -0.11711382721E+02  0.17686461084E+02  0.15770546372E+02  0.26432508849E+02  0.51100000000E-03 0.  1.
        -12    1    3    3    0    0  0.14796162059E+02 -0.98222332929E+01  0.10064747433E+02  0.20413275568E+02  0.00000000000E+00 0.  1.
</event>
<event>
 7    1  0.1375918E-013  0.7246153E+02  0.7816164E-02  0.1226708E+00
        -11   -1    0    0    0    0  0.00000000000E+00  0.00000000000E+00  0.45593999997E+02  0.45594000000E+02  0.51100000000E-03 0. -1.
         11   -1    0    0    0    0 -0.00000000000E+00 -0.00000000000E+00 -0.45593999997E+02  0.45594000000E+02  0.51100000000E-03 0.  1.
    9900012    2    1    2    0    0 -0.10386976540E+02  0.13119055162E+02 -0.84072475672E+01  0.72461529386E+02  0.69999946710E+02 0.  0.
         12    1    1    2    0    0  0.10386976540E+02 -0.13119055162E+02  0.84072475672E+01  0.18726470614E+02  0.00000000000E+00 0. -1.
         11    1    3    3    0    0 -0.38407111302E+01 -0.58547352849E+01  0.60756536374E+01  0.92705207311E+01  0.51100000000E-03 0. -1.
        -11    1    3    3    0    0  0.18558598621E+02  0.20614396163E+02 -0.23612834726E+02  0.36427199673E+02  0.51100000000E-03 0.  1.
        -12    1    3    3    0    0 -0.25104864031E+02 -0.16406057160E+01  0.91299335216E+01  0.26763808982E+02  0.00000000000E+00 0.  1.
</event>
<event>
 7    1  0.1375918E-013  0.7246158E+02  0.7816164E-02  0.1226708E+00
        -11   -1    0    0    0    0  0.00000000000E+00  0.00000000000E+00  0.45593999997E+02  0.45594000000E+02  0.51100000000E-03 0. -1.
         11   -1    0    0    0    0 -0.00000000000E+00 -0.00000000000E+00 -0.45593999997E+02  0.45594000000E+02  0.51100000000E-03 0.  1.
    9900012    2    1    2    0    0  0.14784649242E+02 -0.98398322026E+01 -0.59388969003E+01  0.72461584236E+02  0.70000018161E+02 0.  0.
         12    1    1    2    0    0 -0.14784649242E+02  0.98398322026E+01  0.59388969003E+01  0.18726415764E+02  0.00000000000E+00 0. -1.
         11    1    3    3    0    0 -0.43279568883E+01 -0.63284437872E+01  0.63560709999E+01  0.99589181346E+01  0.51100000000E-03 0. -1.
        -11    1    3    3    0    0  0.11272746082E+02  0.24361181102E+02 -0.18869339444E+02  0.32811490673E+02  0.51100000000E-03 0.  1.
        -12    1    3    3    0    0  0.78398600489E+01 -0.27872569517E+02  0.65743715439E+01  0.29691175428E+02  0.00000000000E+00 0.  1.
</event>
<event>
 7    1  0.1375918E-013  0.7246119E+02  0.7816164E-02  0.1226709E+00
        -11   -1    0    0    0    0  0.00000000000E+00  0.00000000000E+00  0.45593999997E+02  0.45594000000E+02  0.51100000000E-03 0. -1.
         11   -1    0    0    0    0 -0.00000000000E+00 -0.00000000000E+00 -0.45593999997E+02  0.45594000000E+02  0.51100000000E-03 0.  1.
    9900012    2    1    2    0    0  0.10087338264E+02 -0.92859494952E+01 -0.12755792005E+02  0.72461188180E+02  0.69999502223E+02 0.  0.
         12    1    1    2    0    0 -0.10087338264E+02  0.92859494952E+01  0.12755792005E+02  0.18726811820E+02  0.00000000000E+00 0. -1.
         11    1    3    3    0    0 -0.27036827151E+01 -0.54766975544E+00  0.78615371959E+01  0.83314830450E+01  0.51100000000E-03 0. -1.
        -11    1    3    3    0    0  0.20988548299E+02  0.20602762088E+02 -0.15476779209E+02  0.33234374679E+02  0.51100000000E-03 0.  1.
        -12    1    3    3    0    0 -0.81975273205E+01 -0.29341041828E+02 -0.51405499924E+01  0.30895330456E+02  0.00000000000E+00 0.  1.
</event>
<event>
 7    1  0.1375918E-013  0.7246148E+02  0.7816164E-02  0.1226708E+00
        -11   -1    0    0    0    0  0.00000000000E+00  0.00000000000E+00  0.45593999997E+02  0.45594000000E+02  0.51100000000E-03 0. -1.
         11   -1    0    0    0    0 -0.00000000000E+00 -0.00000000000E+00 -0.45593999997E+02  0.45594000000E+02  0.51100000000E-03 0.  1.
    9900012    2    1    2    0    0 -0.86265199463E+01 -0.16369716330E+02  0.28806657894E+01  0.72461476177E+02  0.69999877394E+02 0.  0.
         12    1    1    2    0    0  0.86265199463E+01  0.16369716330E+02 -0.28806657894E+01  0.18726523823E+02  0.00000000000E+00 0. -1.
         11    1    3    3    0    0  0.10317764277E+02 -0.22731895489E+02 -0.19028786893E+02  0.31389330402E+02  0.51100000000E-03 0. -1.
        -11    1    3    3    0    0 -0.17365615360E+02  0.16615332925E+02  0.17826821813E+02  0.29923727396E+02  0.51100000000E-03 0.  1.
         12    1    3    3    0    0 -0.15786688628E+01 -0.10253153766E+02  0.40826308692E+01  0.11148418378E+02  0.00000000000E+00 0. -1.
</event>
<event>
 7    1  0.1375918E-013  0.7246157E+02  0.7816164E-02  0.1226708E+00
        -11   -1    0    0    0    0  0.00000000000E+00  0.00000000000E+00  0.45593999997E+02  0.45594000000E+02  0.51100000000E-03 0.  1.
         11   -1    0    0    0    0 -0.00000000000E+00 -0.00000000000E+00 -0.45593999997E+02  0.45594000000E+02  0.51100000000E-03 0. -1.
    9900012    2    1    2    0    0 -0.18951005126E+01  0.16013901444E+02  0.95206566843E+01  0.72461565499E+02  0.69999993754E+02 0.  0.
         12    1    1    2    0    0  0.18951005126E+01 -0.16013901444E+02 -0.95206566843E+01  0.18726434501E+02  0.00000000000E+00 0. -1.
         11    1    3    3    0    0  0.19373938152E+02 -0.17456885610E+02 -0.36809840362E+01  0.26337083712E+02  0.51100000000E-03 0. -1.
        -11    1    3    3    0    0 -0.24859631780E+02  0.30168138790E+02  0.13156566853E+02  0.41245765139E+02  0.51100000000E-03 0.  1.
        -12    1    3    3    0    0  0.35905931155E+01  0.33026482639E+01  0.45073867015E-01  0.48787166478E+01  0.00000000000E+00 0.  1.
</event>
<event>
 7    1  0.1375918E-013  0.7246155E+02  0.7816164E-02  0.1226708E+00
        -11   -1    0    0    0    0  0.00000000000E+00  0.00000000000E+00  0.45593999997E+02  0.45594000000E+02  0.51100000000E-03 0.  1.
         11   -1    0    0    0    0 -0.00000000000E+00 -0.00000000000E+00 -0.45593999997E+02  0.45594000000E+02  0.51100000000E-03 0. -1.
    9900012    2    1    2    0    0 -0.16352183334E+02 -0.78080587438E+00  0.90926536234E+01  0.72461550589E+02  0.69999974331E+02 0.  0.
         12    1    1    2    0    0  0.16352183334E+02  0.78080587438E+00 -0.90926536234E+01  0.18726449411E+02  0.00000000000E+00 0. -1.
         11    1    3    3    0    0 -0.37623214760E+02  0.12546748271E+02 -0.78346529647E+01  0.40426587394E+02  0.51100000000E-03 0. -1.
        -11    1    3    3    0    0  0.21146548108E+01 -0.65127713084E+01  0.47703708596E+01  0.83453216525E+01  0.51100000000E-03 0.  1.
         12    1    3    3    0    0  0.19156376615E+02 -0.68147828366E+01  0.12156935728E+02  0.23689641543E+02  0.00000000000E+00 0. -1.
</event>
<event>
 7    1  0.1375918E-013  0.7246158E+02  0.7816164E-02  0.1226708E+00
        -11   -1    0    0    0    0  0.00000000000E+00  0.00000000000E+00  0.45593999997E+02  0.45594000000E+02  0.51100000000E-03 0. -1.
         11   -1    0    0    0    0 -0.00000000000E+00 -0.00000000000E+00 -0.45593999997E+02  0.45594000000E+02  0.51100000000E-03 0.  1.
    9900012    2    1    2    0    0  0.13114839907E+02 -0.58830242486E+01 -0.12002907178E+02  0.72461580673E+02  0.70000013520E+02 0.  0.
         12    1    1    2    0    0 -0.13114839907E+02  0.58830242486E+01  0.12002907178E+02  0.18726419327E+02  0.00000000000E+00 0. -1.
         11    1    3    3    0    0  0.18444239344E+02  0.16279424200E+02 -0.95644276899E+01  0.26394845985E+02  0.51100000000E-03 0. -1.
        -11    1    3    3    0    0 -0.17146304633E+02 -0.23152222986E+02  0.83914303183E+01  0.30007287362E+02  0.51100000000E-03 0.  1.
         12    1    3    3    0    0  0.11816905195E+02  0.98977453783E+00 -0.10829909806E+02  0.16059447327E+02  0.00000000000E+00 0. -1.
</event>
<event>
 7    1  0.1375918E-013  0.7246157E+02  0.7816164E-02  0.1226708E+00
        -11   -1    0    0    0    0  0.00000000000E+00  0.00000000000E+00  0.45593999997E+02  0.45594000000E+02  0.51100000000E-03 0.  1.
         11   -1    0    0    0    0 -0.00000000000E+00 -0.00000000000E+00 -0.45593999997E+02  0.45594000000E+02  0.51100000000E-03 0. -1.
    9900012    2    1    2    0    0 -0.72796563173E+01 -0.16287591550E+02  0.56921060015E+01  0.72461572009E+02  0.70000002233E+02 0.  0.
         12    1    1    2    0    0  0.72796563173E+01  0.16287591550E+02 -0.56921060015E+01  0.18726427991E+02  0.00000000000E+00 0. -1.
         11    1    3    3    0    0 -0.23775165664E+02  0.19387992077E+02  0.61558478520E+01  0.31289729979E+02  0.51100000000E-03 0. -1.
        -11    1    3    3    0    0  0.93452829406E+01 -0.10145053259E+02  0.38260167204E+01  0.14314147654E+02  0.51100000000E-03 0.  1.
         12    1    3    3    0    0  0.71502264063E+01 -0.25530530368E+02 -0.42897585708E+01  0.26857694375E+02  0.00000000000E+00 0. -1.
</event>
<event>
 7    1  0.1375918E-013  0.7246159E+02  0.7816164E-02  0.1226708E+00
        -11   -1    0    0    0    0  0.00000000000E+00  0.00000000000E+00  0.45593999997E+02  0.45594000000E+02  0.51100000000E-03 0.  1.
         11   -1    0    0    0    0 -0.00000000000E+00 -0.00000000000E+00 -0.45593999997E+02  0.45594000000E+02  0.51100000000E-03 0. -1.
    9900012    2    1    2    0    0 -0.10611495095E+02 -0.82328036753E+01  0.13049733549E+02  0.72461590034E+02  0.70000025715E+02 0.  0.
         12    1    1    2    0    0  0.10611495095E+02  0.82328036753E+01 -0.13049733549E+02  0.18726409966E+02  0.00000000000E+00 0. -1.
         11    1    3    3    0    0  0.27402004389E+01 -0.13505368798E+01 -0.69736433519E+01  0.76134322201E+01  0.51100000000E-03 0. -1.
        -11    1    3    3    0    0  0.12551485522E+01  0.25215220895E+02  0.14613361955E+02  0.29170757798E+02  0.51100000000E-03 0.  1.
        -12    1    3    3    0    0 -0.14606844086E+02 -0.32097487690E+02  0.54100149463E+01  0.35677400016E+02  0.00000000000E+00 0.  1.
</event>
<event>
 7    1  0.1375918E-013  0.7246165E+02  0.7816164E-02  0.1226708E+00
        -11   -1    0    0    0    0  0.00000000000E+00  0.00000000000E+00  0.45593999997E+02  0.45594000000E+02  0.51100000000E-03 0. -1.
         11   -1    0    0    0    0 -0.00000000000E+00 -0.00000000000E+00 -0.45593999997E+02  0.45594000000E+02  0.51100000000E-03 0.  1.
    9900012    2    1    2    0    0 -0.33357657662E+01 -0.18400774875E+02 -0.98001422904E+00  0.72461647522E+02  0.70000100603E+02 0.  0.
         12    1    1    2    0    0  0.33357657662E+01  0.18400774875E+02  0.98001422904E+00  0.18726352478E+02  0.00000000000E+00 0. -1.
         11    1    3    3    0    0  0.18673575935E+02  0.38345074029E+01 -0.65912027662E+01  0.20170519066E+02  0.51100000000E-03 0. -1.
        -11    1    3    3    0    0 -0.19935543321E+02 -0.12519855302E+02  0.22585621095E+02  0.32623349687E+02  0.51100000000E-03 0.  1.
        -12    1    3    3    0    0 -0.20737983798E+01 -0.97154269759E+01 -0.16974432558E+02  0.19667778769E+02  0.00000000000E+00 0.  1.
</event>
<event>
 7    1  0.1375918E-013  0.7246156E+02  0.7816164E-02  0.1226708E+00
        -11   -1    0    0    0    0  0.00000000000E+00  0.00000000000E+00  0.45593999997E+02  0.45594000000E+02  0.51100000000E-03 0. -1.
         11   -1    0    0    0    0 -0.00000000000E+00 -0.00000000000E+00 -0.45593999997E+02  0.45594000000E+02  0.51100000000E-03 0.  1.
    9900012    2    1    2    0    0  0.10177740550E+02  0.14677319558E+02  0.56275635719E+01  0.72461559232E+02  0.69999985589E+02 0.  0.
         12    1    1    2    0    0 -0.10177740550E+02 -0.14677319558E+02 -0.56275635719E+01  0.18726440768E+02  0.00000000000E+00 0. -1.
         11    1    3    3    0    0 -0.71351817671E+01  0.36061669190E+00 -0.24180639782E+02  0.25213968426E+02  0.51100000000E-03 0. -1.
        -11    1    3    3    0    0  0.81601161122E+01  0.19264383066E+02  0.30311917946E+02  0.36830915272E+02  0.51100000000E-03 0.  1.
        -12    1    3    3    0    0  0.91528062045E+01 -0.49476802006E+01 -0.50371459212E+00  0.10416675534E+02  0.00000000000E+00 0.  1.
</event>
<event>
 7    1  0.1375918E-013  0.7246156E+02  0.7816164E-02  0.1226708E+00
        -11   -1    0    0    0    0  0.00000000000E+00  0.00000000000E+00  0.45593999997E+02  0.45594000000E+02  0.51100000000E-03 0.  1.
         11   -1    0    0    0    0 -0.00000000000E+00 -0.00000000000E+00 -0.45593999997E+02  0.45594000000E+02  0.51100000000E-03 0. -1.
    9900012    2    1    2    0    0 -0.48140970785E+01 -0.74383664676E+00  0.18081774602E+02  0.72461564236E+02  0.69999992108E+02 0.  0.
         12    1    1    2    0    0  0.48140970785E+01  0.74383664676E+00 -0.18081774602E+02  0.18726435764E+02  0.00000000000E+00 0. -1.
         11    1    3    3    0    0  0.47492696412E+01  0.13026094078E+02 -0.17415183620E+02  0.22260352868E+02  0.51100000000E-03 0. -1.
        -11    1    3    3    0    0 -0.55050217178E+01 -0.15797442370E+02  0.25250150060E+01  0.16918633237E+02  0.51100000000E-03 0.  1.
         12    1    3    3    0    0 -0.40583450018E+01  0.20275116455E+01  0.32971943216E+02  0.33282578131E+02  0.00000000000E+00 0. -1.
</event>
<event>
 7    1  0.1375918E-013  0.7246160E+02  0.7816164E-02  0.1226708E+00
        -11   -1    0    0    0    0  0.00000000000E+00  0.00000000000E+00  0.45593999997E+02  0.45594000000E+02  0.51100000000E-03 0.  1.
         11   -1    0    0    0    0 -0.00000000000E+00 -0.00000000000E+00 -0.45593999997E+02  0.45594000000E+02  0.51100000000E-03 0. -1.
    9900012    2    1    2    0    0 -0.17684580849E+02  0.61470759844E+01  0.38358895367E+00  0.72461599293E+02  0.70000037776E+02 0.  0.
         12    1    1    2    0    0  0.17684580849E+02 -0.61470759844E+01 -0.38358895367E+00  0.18726400707E+02  0.00000000000E+00 0. -1.
         11    1    3    3    0    0  0.13911059287E+02 -0.11219461615E+02 -0.98178788744E+01  0.20390797809E+02  0.51100000000E-03 0. -1.
        -11    1    3    3    0    0 -0.36179160276E+02  0.63166767953E+01  0.59986532743E+00  0.36731347411E+02  0.51100000000E-03 0.  1.
        -12    1    3    3    0    0  0.45835201396E+01  0.11049860805E+02  0.96016025006E+01  0.15339454073E+02  0.00000000000E+00 0.  1.
</event>
<event>
 7    1  0.1375918E-013  0.7246141E+02  0.7816164E-02  0.1226708E+00
        -11   -1    0    0    0    0  0.00000000000E+00  0.00000000000E+00  0.45593999997E+02  0.45594000000E+02  0.51100000000E-03 0.  1.
         11   -1    0    0    0    0 -0.00000000000E+00 -0.00000000000E+00 -0.45593999997E+02  0.45594000000E+02  0.51100000000E-03 0. -1.
    9900012    2    1    2    0    0  0.48982474890E+01 -0.16678984702E+02  0.69644656250E+01  0.72461410866E+02  0.69999792315E+02 0.  0.
         12    1    1    2    0    0 -0.48982474890E+01  0.16678984702E+02 -0.69644656250E+01  0.18726589134E+02  0.00000000000E+00 0. -1.
         11    1    3    3    0    0  0.93104730133E+01 -0.25370361033E+02  0.14072647346E+02  0.30469321132E+02  0.51100000000E-03 0. -1.
        -11    1    3    3    0    0  0.72960674108E+01  0.19534464156E+02  0.56009502522E+01  0.21591631099E+02  0.51100000000E-03 0.  1.
         12    1    3    3    0    0 -0.11708292935E+02 -0.10843087825E+02 -0.12709131973E+02  0.20400458635E+02  0.00000000000E+00 0. -1.
</event>
<event>
 7    1  0.1375918E-013  0.7246146E+02  0.7816164E-02  0.1226708E+00
        -11   -1    0    0    0    0  0.00000000000E+00  0.00000000000E+00  0.45593999997E+02  0.45594000000E+02  0.51100000000E-03 0. -1.
         11   -1    0    0    0    0 -0.00000000000E+00 -0.00000000000E+00 -0.45593999997E+02  0.45594000000E+02  0.51100000000E-03 0.  1.
    9900012    2    1    2    0    0  0.65567983312E+01  0.11908726219E+02 -0.12879198536E+02  0.72461464831E+02  0.69999862614E+02 0.  0.
         12    1    1    2    0    0 -0.65567983312E+01 -0.11908726219E+02  0.12879198536E+02  0.18726535169E+02  0.00000000000E+00 0. -1.
         11    1    3    3    0    0  0.91851757296E+01  0.38033607816E+01  0.20482620618E+02  0.22767756896E+02  0.51100000000E-03 0. -1.
        -11    1    3    3    0    0 -0.78907886776E+01  0.20287681981E+02 -0.12893972313E+02  0.25300377633E+02  0.51100000000E-03 0.  1.
         12    1    3    3    0    0  0.52624112792E+01 -0.12182316544E+02 -0.20467846842E+02  0.24393330301E+02  0.00000000000E+00 0. -1.
</event>
<event>
 7    1  0.1375918E-013  0.7246157E+02  0.7816164E-02  0.1226708E+00
        -11   -1    0    0    0    0  0.00000000000E+00  0.00000000000E+00  0.45593999997E+02  0.45594000000E+02  0.51100000000E-03 0. -1.
         11   -1    0    0    0    0 -0.00000000000E+00 -0.00000000000E+00 -0.45593999997E+02  0.45594000000E+02  0.51100000000E-03 0.  1.
    9900012    2    1    2    0    0 -0.19360471551E+01 -0.11102073371E+02 -0.14955758855E+02  0.72461573895E+02  0.70000004691E+02 0.  0.
         12    1    1    2    0    0  0.19360471551E+01  0.11102073371E+02  0.14955758855E+02  0.18726426105E+02  0.00000000000E+00 0. -1.
         11    1    3    3    0    0 -0.11657189463E+02 -0.16787468848E+02  0.22175787346E+01  0.20557889780E+02  0.51100000000E-03 0. -1.
        -11    1    3    3    0    0 -0.51884732217E+01  0.10355137539E+02 -0.29699797516E+02  0.31878317091E+02  0.51100000000E-03 0.  1.
        -12    1    3    3    0    0  0.14909615530E+02 -0.46697420622E+01  0.12526459926E+02  0.20025367024E+02  0.00000000000E+00 0.  1.
</event>
<event>
 7    1  0.1375918E-013  0.7246155E+02  0.7816164E-02  0.1226708E+00
        -11   -1    0    0    0    0  0.00000000000E+00  0.00000000000E+00  0.45593999997E+02  0.45594000000E+02  0.51100000000E-03 0. -1.
         11   -1    0    0    0    0 -0.00000000000E+00 -0.00000000000E+00 -0.45593999997E+02  0.45594000000E+02  0.51100000000E-03 0.  1.
    9900012    2    1    2    0    0  0.17218876052E+02  0.82851143210E+00 -0.73146418525E+01  0.72461545207E+02  0.69999967320E+02 0.  0.
         12    1    1    2    0    0 -0.17218876052E+02 -0.82851143210E+00  0.73146418525E+01  0.18726454793E+02  0.00000000000E+00 0. -1.
         11    1    3    3    0    0 -0.11646703120E+02  0.18963935867E+02  0.75650616898E+01  0.23505461402E+02  0.51100000000E-03 0. -1.
        -11    1    3    3    0    0  0.82101274195E+01 -0.12725222710E+02 -0.21770346812E+02  0.26519530272E+02  0.51100000000E-03 0.  1.
         12    1    3    3    0    0  0.20655451752E+02 -0.54102017245E+01  0.68906432698E+01  0.22436553533E+02  0.00000000000E+00 0. -1.
</event>
<event>
 7    1  0.1375918E-013  0.7246161E+02  0.7816164E-02  0.1226708E+00
        -11   -1    0    0    0    0  0.00000000000E+00  0.00000000000E+00  0.45593999997E+02  0.45594000000E+02  0.51100000000E-03 0. -1.
         11   -1    0    0    0    0 -0.00000000000E+00 -0.00000000000E+00 -0.45593999997E+02  0.45594000000E+02  0.51100000000E-03 0.  1.
    9900012    2    1    2    0    0  0.13961988780E+02 -0.25190332639E+01 -0.12222730471E+02  0.72461606876E+02  0.70000047654E+02 0.  0.
         12    1    1    2    0    0 -0.13961988780E+02  0.25190332639E+01  0.12222730471E+02  0.18726393124E+02  0.00000000000E+00 0. -1.
         11    1    3    3    0    0 -0.12025590720E+02 -0.50325986479E+01  0.10921886505E+02  0.17006748261E+02  0.51100000000E-03 0. -1.
        -11    1    3    3    0    0  0.24712352322E+02  0.20539650418E+02 -0.12484119192E+02  0.34473625119E+02  0.51100000000E-03 0.  1.
        -12    1    3    3    0    0  0.12752271781E+01 -0.18026085034E+02 -0.10660497785E+02  0.20981233496E+02  0.00000000000E+00 0.  1.
</event>
<event>
 7    1  0.1375918E-013  0.7246156E+02  0.7816164E-02  0.1226708E+00
        -11   -1    0    0    0    0  0.00000000000E+00  0.00000000000E+00  0.45593999997E+02  0.45594000000E+02  0.51100000000E-03 0. -1.
         11   -1    0    0    0    0 -0.00000000000E+00 -0.00000000000E+00 -0.45593999997E+02  0.45594000000E+02  0.51100000000E-03 0.  1.
    9900012    2    1    2    0    0  0.94771871461E+01  0.14813202907E+02 -0.64367370712E+01  0.72461557714E+02  0.69999983612E+02 0.  0.
         12    1    1    2    0    0 -0.94771871461E+01 -0.14813202907E+02  0.64367370712E+01  0.18726442286E+02  0.00000000000E+00 0. -1.
         11    1    3    3    0    0 -0.68441270572E+01 -0.12065068367E+02  0.21619040382E+02  0.25686394398E+02  0.51100000000E-03 0. -1.
        -11    1    3    3    0    0  0.42742380273E+01 -0.29868496781E+01 -0.42760464386E+01  0.67435120760E+01  0.51100000000E-03 0.  1.
         12    1    3    3    0    0  0.12047076176E+02  0.29865120952E+02 -0.23779731014E+02  0.40031651240E+02  0.00000000000E+00 0. -1.
</event>
<event>
 7    1  0.1375918E-013  0.7246159E+02  0.7816164E-02  0.1226708E+00
        -11   -1    0    0    0    0  0.00000000000E+00  0.00000000000E+00  0.45593999997E+02  0.45594000000E+02  0.51100000000E-03 0.  1.
         11   -1    0    0    0    0 -0.00000000000E+00 -0.00000000000E+00 -0.45593999997E+02  0.45594000000E+02  0.51100000000E-03 0. -1.
    9900012    2    1    2    0    0 -0.67866081251E+01 -0.13219555778E+02  0.11395772684E+02  0.72461592446E+02  0.70000028856E+02 0.  0.
         12    1    1    2    0    0  0.67866081251E+01  0.13219555778E+02 -0.11395772684E+02  0.18726407554E+02  0.00000000000E+00 0. -1.
         11    1    3    3    0    0 -0.28277146650E+01 -0.39205178703E+02  0.15886461914E+02  0.42396010187E+02  0.51100000000E-03 0.  1.
        -11    1    3    3    0    0  0.52251729432E+01  0.90644373898E+01 -0.11601543163E+01  0.10526747635E+02  0.51100000000E-03 0. -1.
         12    1    3    3    0    0 -0.91840664032E+01  0.16921185535E+02 -0.33305349138E+01  0.19538834623E+02  0.00000000000E+00 0. -1.
</event>
<event>
 7    1  0.1375918E-013  0.7246160E+02  0.7816164E-02  0.1226708E+00
        -11   -1    0    0    0    0  0.00000000000E+00  0.00000000000E+00  0.45593999997E+02  0.45594000000E+02  0.51100000000E-03 0. -1.
         11   -1    0    0    0    0 -0.00000000000E+00 -0.00000000000E+00 -0.45593999997E+02  0.45594000000E+02  0.51100000000E-03 0.  1.
    9900012    2    1    2    0    0 -0.68844861600E+01  0.15977804749E+02  0.69276055369E+01  0.72461598510E+02  0.70000036756E+02 0.  0.
         12    1    1    2    0    0  0.68844861600E+01 -0.15977804749E+02 -0.69276055369E+01  0.18726401490E+02  0.00000000000E+00 0. -1.
         11    1    3    3    0    0  0.35732868299E+01 -0.13266226928E+02 -0.63769504198E+00  0.13753828954E+02  0.51100000000E-03 0. -1.
        -11    1    3    3    0    0  0.34140801908E+01  0.35568120001E+02 -0.83230885096E+01  0.36688157579E+02  0.51100000000E-03 0.  1.
        -12    1    3    3    0    0 -0.13871853181E+02 -0.63240883230E+01  0.15888389088E+02  0.22019611977E+02  0.00000000000E+00 0.  1.
</event>
<event>
 7    1  0.1375918E-013  0.7246157E+02  0.7816164E-02  0.1226708E+00
        -11   -1    0    0    0    0  0.00000000000E+00  0.00000000000E+00  0.45593999997E+02  0.45594000000E+02  0.51100000000E-03 0.  1.
         11   -1    0    0    0    0 -0.00000000000E+00 -0.00000000000E+00 -0.45593999997E+02  0.45594000000E+02  0.51100000000E-03 0. -1.
    9900012    2    1    2    0    0 -0.10875532342E+02  0.14272981599E+02 -0.53557404394E+01  0.72461570466E+02  0.70000000223E+02 0.  0.
         12    1    1    2    0    0  0.10875532342E+02 -0.14272981599E+02  0.53557404394E+01  0.18726429534E+02  0.00000000000E+00 0. -1.
         11    1    3    3    0    0  0.17319602668E+02 -0.14713085956E+02  0.37412737157E+01  0.23031297493E+02  0.51100000000E-03 0. -1.
        -11    1    3    3    0    0 -0.11849265432E+02  0.77191615374E+01  0.92810422865E+01  0.16915327142E+02  0.51100000000E-03 0.  1.
         12    1    3    3    0    0 -0.16345869578E+02  0.21266906017E+02 -0.18378056442E+02  0.32514945831E+02  0.00000000000E+00 0. -1.
</event>
<event>
 7    1  0.1375918E-013  0.7246155E+02  0.7816164E-02  0.1226708E+00
        -11   -1    0    0    0    0  0.00000000000E+00  0.00000000000E+00  0.45593999997E+02  0.45594000000E+02  0.51100000000E-03 0.  1.
         11   -1    0    0    0    0 -0.00000000000E+00 -0.00000000000E+00 -0.45593999997E+02  0.45594000000E+02  0.51100000000E-03 0. -1.
    9900012    2    1    2    0    0 -0.96179772589E+00 -0.12301243678E+02  0.14086668002E+02  0.72461551690E+02  0.69999975765E+02 0.  0.
         12    1    1    2    0    0  0.96179772589E+00  0.12301243678E+02 -0.14086668002E+02  0.18726448310E+02  0.00000000000E+00 0. -1.
         11    1    3    3    0    0 -0.95226453507E+01  0.25887818778E+01 -0.26055312518E+02  0.27861476572E+02  0.51100000000E-03 0.  1.
        -11    1    3    3    0    0  0.10004891901E+02 -0.94577936310E+01  0.27036975521E+02  0.30340497160E+02  0.51100000000E-03 0. -1.
        -12    1    3    3    0    0 -0.14440442763E+01 -0.54322319249E+01  0.13105004999E+02  0.14259577959E+02  0.00000000000E+00 0.  1.
</event>
<event>
 7    1  0.1375918E-013  0.7246156E+02  0.7816164E-02  0.1226708E+00
        -11   -1    0    0    0    0  0.00000000000E+00  0.00000000000E+00  0.45593999997E+02  0.45594000000E+02  0.51100000000E-03 0.  1.
         11   -1    0    0    0    0 -0.00000000000E+00 -0.00000000000E+00 -0.45593999997E+02  0.45594000000E+02  0.51100000000E-03 0. -1.
    9900012    2    1    2    0    0 -0.12865571429E+02 -0.10803660445E+02 -0.82726973002E+01  0.72461560727E+02  0.69999987537E+02 0.  0.
         12    1    1    2    0    0  0.12865571429E+02  0.10803660445E+02  0.82726973002E+01  0.18726439273E+02  0.00000000000E+00 0. -1.
         11    1    3    3    0    0  0.10287678003E+01 -0.19075182499E+02 -0.24122357516E+02  0.30770262966E+02  0.51100000000E-03 0. -1.
        -11    1    3    3    0    0 -0.53905639960E+01  0.21595085429E+02  0.59438105871E+01  0.23037681729E+02  0.51100000000E-03 0.  1.
        -12    1    3    3    0    0 -0.85037752336E+01 -0.13323563375E+02  0.99058496290E+01  0.18653616033E+02  0.00000000000E+00 0.  1.
</event>
<event>
 7    1  0.1375918E-013  0.7246151E+02  0.7816164E-02  0.1226708E+00
        -11   -1    0    0    0    0  0.00000000000E+00  0.00000000000E+00  0.45593999997E+02  0.45594000000E+02  0.51100000000E-03 0. -1.
         11   -1    0    0    0    0 -0.00000000000E+00 -0.00000000000E+00 -0.45593999997E+02  0.45594000000E+02  0.51100000000E-03 0.  1.
    9900012    2    1    2    0    0 -0.96191059024E+01 -0.10028666482E+02 -0.12553096342E+02  0.72461506000E+02  0.69999916245E+02 0.  0.
         12    1    1    2    0    0  0.96191059024E+01  0.10028666482E+02  0.12553096342E+02  0.18726494000E+02  0.00000000000E+00 0. -1.
         11    1    3    3    0    0 -0.18245197566E+02 -0.28336588547E+02 -0.17610240162E+02  0.38025912791E+02  0.51100000000E-03 0. -1.
        -11    1    3    3    0    0 -0.59340036524E+01  0.77401669556E+01 -0.76618981078E+01  0.12402712071E+02  0.51100000000E-03 0.  1.
         12    1    3    3    0    0  0.14560095316E+02  0.10567755110E+02  0.12719041928E+02  0.22032881138E+02  0.00000000000E+00 0. -1.
</event>
<event>
 7    1  0.1375918E-013  0.7246153E+02  0.7816164E-02  0.1226708E+00
        -11   -1    0    0    0    0  0.00000000000E+00  0.00000000000E+00  0.45593999997E+02  0.45594000000E+02  0.51100000000E-03 0.  1.
         11   -1    0    0    0    0 -0.00000000000E+00 -0.00000000000E+00 -0.45593999997E+02  0.45594000000E+02  0.51100000000E-03 0. -1.
    9900012    2    1    2    0    0  0.17529614575E+02  0.50276622893E+01 -0.42562984405E+01  0.72461525381E+02  0.69999941492E+02 0.  0.
         12    1    1    2    0    0 -0.17529614575E+02 -0.50276622893E+01  0.42562984405E+01  0.18726474619E+02  0.00000000000E+00 0. -1.
         11    1    3    3    0    0 -0.40697355111E+01 -0.20592798925E+02 -0.16769631672E+02  0.26867204197E+02  0.51100000000E-03 0. -1.
        -11    1    3    3    0    0  0.16865198652E+02  0.20477306511E+02 -0.47673468314E+01  0.26953341232E+02  0.51100000000E-03 0.  1.
        -12    1    3    3    0    0  0.47341514343E+01  0.51431547036E+01  0.17280680063E+02  0.18640979951E+02  0.00000000000E+00 0.  1.
</event>
<event>
 7    1  0.1375918E-013  0.7246156E+02  0.7816164E-02  0.1226708E+00
        -11   -1    0    0    0    0  0.00000000000E+00  0.00000000000E+00  0.45593999997E+02  0.45594000000E+02  0.51100000000E-03 0. -1.
         11   -1    0    0    0    0 -0.00000000000E+00 -0.00000000000E+00 -0.45593999997E+02  0.45594000000E+02  0.51100000000E-03 0.  1.
    9900012    2    1    2    0    0  0.55172671760E+01 -0.17870390245E+02  0.94249951455E+00  0.72461564409E+02  0.69999992334E+02 0.  0.
         12    1    1    2    0    0 -0.55172671760E+01  0.17870390245E+02 -0.94249951455E+00  0.18726435591E+02  0.00000000000E+00 0. -1.
         11    1    3    3    0    0 -0.10508766996E+02  0.16128350710E+02 -0.12829264519E+02  0.23133264118E+02  0.51100000000E-03 0. -1.
        -11    1    3    3    0    0  0.10599782586E+02 -0.96262965943E+01 -0.78230105453E+01  0.16316264010E+02  0.51100000000E-03 0.  1.
         12    1    3    3    0    0  0.54262515862E+01 -0.24372444360E+02  0.21594774578E+02  0.33012036282E+02  0.00000000000E+00 0. -1.
</event>
<event>
 7    1  0.1375918E-013  0.7246158E+02  0.7816164E-02  0.1226708E+00
        -11   -1    0    0    0    0  0.00000000000E+00  0.00000000000E+00  0.45593999997E+02  0.45594000000E+02  0.51100000000E-03 0.  1.
         11   -1    0    0    0    0 -0.00000000000E+00 -0.00000000000E+00 -0.45593999997E+02  0.45594000000E+02  0.51100000000E-03 0. -1.
    9900012    2    1    2    0    0 -0.45634189570E+01 -0.14136257022E+02  0.11402646596E+02  0.72461577369E+02  0.70000009216E+02 0.  0.
         12    1    1    2    0    0  0.45634189570E+01  0.14136257022E+02 -0.11402646596E+02  0.18726422631E+02  0.00000000000E+00 0. -1.
         11    1    3    3    0    0  0.31693897630E+01 -0.60976282521E+01 -0.91210706004E+01  0.11420158971E+02  0.51100000000E-03 0. -1.
        -11    1    3    3    0    0 -0.28150060887E+02  0.25088441014E+01  0.24878387344E+02  0.37651751403E+02  0.51100000000E-03 0.  1.
        -12    1    3    3    0    0  0.20417252167E+02 -0.10547472871E+02 -0.43546701476E+01  0.23389666994E+02  0.00000000000E+00 0.  1.
</event>
<event>
 7    1  0.1375918E-013  0.7246159E+02  0.7816164E-02  0.1226708E+00
        -11   -1    0    0    0    0  0.00000000000E+00  0.00000000000E+00  0.45593999997E+02  0.45594000000E+02  0.51100000000E-03 0.  1.
         11   -1    0    0    0    0 -0.00000000000E+00 -0.00000000000E+00 -0.45593999997E+02  0.45594000000E+02  0.51100000000E-03 0. -1.
    9900012    2    1    2    0    0  0.10674265598E+02  0.15377821622E+02 -0.51102285044E+00  0.72461588484E+02  0.70000023696E+02 0.  0.
         12    1    1    2    0    0 -0.10674265598E+02 -0.15377821622E+02  0.51102285044E+00  0.18726411516E+02  0.00000000000E+00 0. -1.
         11    1    3    3    0    0 -0.24643680219E+02 -0.79385694122E+01 -0.19945733897E+01  0.25967483172E+02  0.51100000000E-03 0. -1.
        -11    1    3    3    0    0  0.13337096968E+02  0.14677475312E+02  0.89028485891E+01  0.21738609669E+02  0.51100000000E-03 0.  1.
         12    1    3    3    0    0  0.21980848849E+02  0.86389157228E+01 -0.74192980498E+01  0.24755495643E+02  0.00000000000E+00 0. -1.
</event>
<event>
 7    1  0.1375918E-013  0.7246156E+02  0.7816164E-02  0.1226708E+00
        -11   -1    0    0    0    0  0.00000000000E+00  0.00000000000E+00  0.45593999997E+02  0.45594000000E+02  0.51100000000E-03 0.  1.
         11   -1    0    0    0    0 -0.00000000000E+00 -0.00000000000E+00 -0.45593999997E+02  0.45594000000E+02  0.51100000000E-03 0. -1.
    9900012    2    1    2    0    0  0.16871358441E+02  0.80152938181E+01  0.13385583818E+01  0.72461563895E+02  0.69999991664E+02 0.  0.
         12    1    1    2    0    0 -0.16871358441E+02 -0.80152938181E+01 -0.13385583818E+01  0.18726436105E+02  0.00000000000E+00 0. -1.
         11    1    3    3    0    0  0.42482701320E+01 -0.15615779262E+02  0.13179298647E+02  0.20870895385E+02  0.51100000000E-03 0.  1.
        -11    1    3    3    0    0  0.14855399695E+01  0.33698730206E+02 -0.13809375461E+02  0.36448732453E+02  0.51100000000E-03 0. -1.
         12    1    3    3    0    0  0.11137548340E+02 -0.10067657126E+02  0.19686351950E+01  0.15141936057E+02  0.00000000000E+00 0. -1.
</event>
<event>
 7    1  0.1375918E-013  0.7246173E+02  0.7816164E-02  0.1226708E+00
        -11   -1    0    0    0    0  0.00000000000E+00  0.00000000000E+00  0.45593999997E+02  0.45594000000E+02  0.51100000000E-03 0.  1.
         11   -1    0    0    0    0 -0.00000000000E+00 -0.00000000000E+00 -0.45593999997E+02  0.45594000000E+02  0.51100000000E-03 0. -1.
    9900012    2    1    2    0    0 -0.36964281938E+01 -0.41627004518E+01  0.17879636213E+02  0.72461733753E+02  0.70000212936E+02 0.  0.
         12    1    1    2    0    0  0.36964281938E+01  0.41627004518E+01 -0.17879636213E+02  0.18726266247E+02  0.00000000000E+00 0. -1.
         11    1    3    3    0    0  0.19450781420E+02 -0.13820578486E+02 -0.10801279839E+02  0.26191772257E+02  0.51100000000E-03 0. -1.
        -11    1    3    3    0    0 -0.17842723734E+02  0.64970774328E+01  0.22433416821E+01  0.19120862626E+02  0.51100000000E-03 0.  1.
         12    1    3    3    0    0 -0.53044858805E+01  0.31608006010E+01  0.26437574370E+02  0.27149098870E+02  0.00000000000E+00 0. -1.
</event>
<event>
 7    1  0.1375918E-013  0.7246160E+02  0.7816164E-02  0.1226708E+00
        -11   -1    0    0    0    0  0.00000000000E+00  0.00000000000E+00  0.45593999997E+02  0.45594000000E+02  0.51100000000E-03 0.  1.
         11   -1    0    0    0    0 -0.00000000000E+00 -0.00000000000E+00 -0.45593999997E+02  0.45594000000E+02  0.51100000000E-03 0. -1.
    9900012    2    1    2    0    0 -0.89545915580E+01  0.14520420239E+02  0.77233876781E+01  0.72461600690E+02  0.70000039596E+02 0.  0.
         12    1    1    2    0    0  0.89545915580E+01 -0.14520420239E+02 -0.77233876781E+01  0.18726399310E+02  0.00000000000E+00 0. -1.
         11    1    3    3    0    0  0.10845044280E+01 -0.18176116670E+02 -0.13092227708E+02  0.22426631349E+02  0.51100000000E-03 0. -1.
        -11    1    3    3    0    0 -0.19430776892E+02  0.12798706501E+02  0.81871655990E+01  0.24665596679E+02  0.51100000000E-03 0.  1.
         12    1    3    3    0    0  0.93916809062E+01  0.19897830409E+02  0.12628449787E+02  0.25369372661E+02  0.00000000000E+00 0. -1.
</event>
<event>
 7    1  0.1375918E-013  0.7246154E+02  0.7816164E-02  0.1226708E+00
        -11   -1    0    0    0    0  0.00000000000E+00  0.00000000000E+00  0.45593999997E+02  0.45594000000E+02  0.51100000000E-03 0.  1.
         11   -1    0    0    0    0 -0.00000000000E+00 -0.00000000000E+00 -0.45593999997E+02  0.45594000000E+02  0.51100000000E-03 0. -1.
    9900012    2    1    2    0    0 -0.13869797846E+02 -0.11017779489E+02  0.60759728728E+01  0.72461542687E+02  0.69999964037E+02 0.  0.
         12    1    1    2    0    0  0.13869797846E+02  0.11017779489E+02 -0.60759728728E+01  0.18726457313E+02  0.00000000000E+00 0. -1.
         11    1    3    3    0    0 -0.29479744636E+02  0.31429296547E+01 -0.12850262523E+02  0.32311957505E+02  0.51100000000E-03 0. -1.
        -11    1    3    3    0    0  0.12345318492E+02 -0.78020119254E+00 -0.43426188546E+01  0.13110070227E+02  0.51100000000E-03 0.  1.
         12    1    3    3    0    0  0.32646282983E+01 -0.13380507951E+02  0.23268854250E+02  0.27039514956E+02  0.00000000000E+00 0. -1.
</event>
<event>
 7    1  0.1375918E-013  0.7246156E+02  0.7816164E-02  0.1226708E+00
        -11   -1    0    0    0    0  0.00000000000E+00  0.00000000000E+00  0.45593999997E+02  0.45594000000E+02  0.51100000000E-03 0.  1.
         11   -1    0    0    0    0 -0.00000000000E+00 -0.00000000000E+00 -0.45593999997E+02  0.45594000000E+02  0.51100000000E-03 0. -1.
    9900012    2    1    2    0    0  0.80857159581E+01  0.16053364160E+02 -0.52526489374E+01  0.72461558153E+02  0.69999984183E+02 0.  0.
         12    1    1    2    0    0 -0.80857159581E+01 -0.16053364160E+02  0.52526489374E+01  0.18726441847E+02  0.00000000000E+00 0. -1.
         11    1    3    3    0    0 -0.12396889796E+02  0.47993382300E+01  0.21735597124E+02  0.25478475360E+02  0.51100000000E-03 0.  1.
        -11    1    3    3    0    0  0.27231660877E+02  0.14431834289E+02 -0.23451149145E+02  0.38727220293E+02  0.51100000000E-03 0. -1.
         12    1    3    3    0    0 -0.67490551236E+01 -0.31778083593E+01 -0.35370969159E+01  0.82558625003E+01  0.00000000000E+00 0. -1.
</event>
<event>
 7    1  0.1375918E-013  0.7246158E+02  0.7816164E-02  0.1226708E+00
        -11   -1    0    0    0    0  0.00000000000E+00  0.00000000000E+00  0.45593999997E+02  0.45594000000E+02  0.51100000000E-03 0.  1.
         11   -1    0    0    0    0 -0.00000000000E+00 -0.00000000000E+00 -0.45593999997E+02  0.45594000000E+02  0.51100000000E-03 0. -1.
    9900012    2    1    2    0    0  0.83512691975E+01 -0.14969516480E+02  0.75398098597E+01  0.72461578730E+02  0.70000010989E+02 0.  0.
         12    1    1    2    0    0 -0.83512691975E+01  0.14969516480E+02 -0.75398098597E+01  0.18726421270E+02  0.00000000000E+00 0. -1.
         11    1    3    3    0    0 -0.14342278530E+02 -0.24709570969E+02  0.76754252508E+01  0.29583373776E+02  0.51100000000E-03 0. -1.
        -11    1    3    3    0    0  0.24827200123E+02 -0.63741951809E+01 -0.45533264430E+01  0.26033689945E+02  0.51100000000E-03 0.  1.
        -12    1    3    3    0    0 -0.21336523955E+01  0.16114249670E+02  0.44177110519E+01  0.16844515010E+02  0.00000000000E+00 0.  1.
</event>
<event>
 7    1  0.1375918E-013  0.7246171E+02  0.7816164E-02  0.1226708E+00
        -11   -1    0    0    0    0  0.00000000000E+00  0.00000000000E+00  0.45593999997E+02  0.45594000000E+02  0.51100000000E-03 0.  1.
         11   -1    0    0    0    0 -0.00000000000E+00 -0.00000000000E+00 -0.45593999997E+02  0.45594000000E+02  0.51100000000E-03 0. -1.
    9900012    2    1    2    0    0  0.38661444704E+01  0.45071352981E+01  0.17759856734E+02  0.72461712250E+02  0.70000184924E+02 0.  0.
         12    1    1    2    0    0 -0.38661444704E+01 -0.45071352981E+01 -0.17759856734E+02  0.18726287750E+02  0.00000000000E+00 0. -1.
         11    1    3    3    0    0  0.21329707183E+02 -0.21192616770E+02  0.15647808549E+02  0.33895978031E+02  0.51100000000E-03 0. -1.
        -11    1    3    3    0    0 -0.73591944694E+00  0.11442502635E+02  0.99997911115E+01  0.15214081192E+02  0.51100000000E-03 0.  1.
         12    1    3    3    0    0 -0.16727643265E+02  0.14257249433E+02 -0.78877429257E+01  0.23351653027E+02  0.00000000000E+00 0. -1.
</event>
<event>
 7    1  0.1375918E-013  0.7246157E+02  0.7816164E-02  0.1226708E+00
        -11   -1    0    0    0    0  0.00000000000E+00  0.00000000000E+00  0.45593999997E+02  0.45594000000E+02  0.51100000000E-03 0.  1.
         11   -1    0    0    0    0 -0.00000000000E+00 -0.00000000000E+00 -0.45593999997E+02  0.45594000000E+02  0.51100000000E-03 0. -1.
    9900012    2    1    2    0    0 -0.79876537293E+01  0.16928819838E+02 -0.54014640452E+00  0.72461566507E+02  0.69999995067E+02 0.  0.
         12    1    1    2    0    0  0.79876537293E+01 -0.16928819838E+02  0.54014640452E+00  0.18726433493E+02  0.00000000000E+00 0. -1.
         11    1    3    3    0    0  0.12254915170E+02 -0.24440232531E+01  0.22911145530E+01  0.12704542560E+02  0.51100000000E-03 0. -1.
        -11    1    3    3    0    0  0.75652625013E+01  0.20959409436E+02 -0.17448319893E+02  0.28301482434E+02  0.51100000000E-03 0.  1.
        -12    1    3    3    0    0 -0.27807831401E+02 -0.15865663445E+01  0.14617058936E+02  0.31455541514E+02  0.00000000000E+00 0.  1.
</event>
<event>
 7    1  0.1375918E-013  0.7246161E+02  0.7816164E-02  0.1226708E+00
        -11   -1    0    0    0    0  0.00000000000E+00  0.00000000000E+00  0.45593999997E+02  0.45594000000E+02  0.51100000000E-03 0.  1.
         11   -1    0    0    0    0 -0.00000000000E+00 -0.00000000000E+00 -0.45593999997E+02  0.45594000000E+02  0.51100000000E-03 0. -1.
    9900012    2    1    2    0    0  0.76892190544E+01  0.49478635032E+01  0.16342340516E+02  0.72461613897E+02  0.70000056801E+02 0.  0.
         12    1    1    2    0    0 -0.76892190544E+01 -0.49478635032E+01 -0.16342340516E+02  0.18726386103E+02  0.00000000000E+00 0. -1.
         11    1    3    3    0    0  0.16496913176E+02  0.35641806459E+01 -0.16822861600E+02  0.23829817471E+02  0.51100000000E-03 0. -1.
        -11    1    3    3    0    0 -0.48451214781E+00  0.10055298883E+02  0.35048384211E+02  0.36465504572E+02  0.51100000000E-03 0.  1.
         12    1    3    3    0    0 -0.83231819742E+01 -0.86716160262E+01 -0.18831820940E+01  0.12166291854E+02  0.00000000000E+00 0. -1.
</event>
<event>
 7    1  0.1375918E-013  0.7246156E+02  0.7816164E-02  0.1226708E+00
        -11   -1    0    0    0    0  0.00000000000E+00  0.00000000000E+00  0.45593999997E+02  0.45594000000E+02  0.51100000000E-03 0. -1.
         11   -1    0    0    0    0 -0.00000000000E+00 -0.00000000000E+00 -0.45593999997E+02  0.45594000000E+02  0.51100000000E-03 0.  1.
    9900012    2    1    2    0    0 -0.18317830094E+02 -0.32456074018E+01 -0.21454004929E+01  0.72461558533E+02  0.69999984678E+02 0.  0.
         12    1    1    2    0    0  0.18317830094E+02  0.32456074018E+01  0.21454004929E+01  0.18726441467E+02  0.00000000000E+00 0. -1.
         11    1    3    3    0    0 -0.54141451781E+01 -0.31696488590E+02  0.36876765936E+01  0.32366329972E+02  0.51100000000E-03 0. -1.
        -11    1    3    3    0    0 -0.53567725651E+01  0.29264911149E+01  0.80284138036E+01  0.10085375106E+02  0.51100000000E-03 0.  1.
         12    1    3    3    0    0 -0.75469123507E+01  0.25524390074E+02 -0.13861490890E+02  0.30009853454E+02  0.00000000000E+00 0. -1.
</event>
<event>
 7    1  0.1375918E-013  0.7246158E+02  0.7816164E-02  0.1226708E+00
        -11   -1    0    0    0    0  0.00000000000E+00  0.00000000000E+00  0.45593999997E+02  0.45594000000E+02  0.51100000000E-03 0. -1.
         11   -1    0    0    0    0 -0.00000000000E+00 -0.00000000000E+00 -0.45593999997E+02  0.45594000000E+02  0.51100000000E-03 0.  1.
    9900012    2    1    2    0    0  0.14153585470E+02 -0.10113701851E+01 -0.12220151669E+02  0.72461575938E+02  0.70000007353E+02 0.  0.
         12    1    1    2    0    0 -0.14153585470E+02  0.10113701851E+01  0.12220151669E+02  0.18726424062E+02  0.00000000000E+00 0. -1.
         11    1    3    3    0    0  0.27718192398E+02  0.82814759813E+01 -0.53194809848E+00  0.28933786535E+02  0.51100000000E-03 0. -1.
        -11    1    3    3    0    0 -0.18243012969E+02  0.10833250699E+02 -0.69765095820E+01  0.22334693396E+02  0.51100000000E-03 0.  1.
         12    1    3    3    0    0  0.46784060415E+01 -0.20126096866E+02 -0.47116939885E+01  0.21193096007E+02  0.00000000000E+00 0. -1.
</event>
<event>
 7    1  0.1375918E-013  0.7246153E+02  0.7816164E-02  0.1226708E+00
        -11   -1    0    0    0    0  0.00000000000E+00  0.00000000000E+00  0.45593999997E+02  0.45594000000E+02  0.51100000000E-03 0.  1.
         11   -1    0    0    0    0 -0.00000000000E+00 -0.00000000000E+00 -0.45593999997E+02  0.45594000000E+02  0.51100000000E-03 0. -1.
    9900012    2    1    2    0    0  0.99743271554E+01  0.15542829582E+02 -0.31006243190E+01  0.72461531438E+02  0.69999949383E+02 0.  0.
         12    1    1    2    0    0 -0.99743271554E+01 -0.15542829582E+02  0.31006243190E+01  0.18726468562E+02  0.00000000000E+00 0. -1.
         11    1    3    3    0    0  0.19780656204E+02 -0.20439832680E+02  0.56536983031E+01  0.29000438352E+02  0.51100000000E-03 0. -1.
        -11    1    3    3    0    0 -0.15557059666E+02  0.18744746990E+02 -0.59312873812E+01  0.25071254764E+02  0.51100000000E-03 0.  1.
        -12    1    3    3    0    0  0.57507306176E+01  0.17237915272E+02 -0.28230352410E+01  0.18389838323E+02  0.00000000000E+00 0.  1.
</event>
<event>
 7    1  0.1375918E-013  0.7246165E+02  0.7816164E-02  0.1226708E+00
        -11   -1    0    0    0    0  0.00000000000E+00  0.00000000000E+00  0.45593999997E+02  0.45594000000E+02  0.51100000000E-03 0.  1.
         11   -1    0    0    0    0 -0.00000000000E+00 -0.00000000000E+00 -0.45593999997E+02  0.45594000000E+02  0.51100000000E-03 0. -1.
    9900012    2    1    2    0    0  0.18598899172E+02  0.21639069526E+01  0.27345374196E+00  0.72461646360E+02  0.70000099090E+02 0.  0.
         12    1    1    2    0    0 -0.18598899172E+02 -0.21639069526E+01 -0.27345374196E+00  0.18726353640E+02  0.00000000000E+00 0. -1.
         11    1    3    3    0    0  0.14295683152E+02 -0.15803665265E+02 -0.15509441349E+02  0.26356501358E+02  0.51100000000E-03 0. -1.
        -11    1    3    3    0    0 -0.42401997599E+01  0.25798416991E+02  0.20865736922E+02  0.33450210624E+02  0.51100000000E-03 0.  1.
        -12    1    3    3    0    0  0.85434157796E+01 -0.78308447732E+01 -0.50828418310E+01  0.12654934378E+02  0.00000000000E+00 0.  1.
</event>
<event>
 7    1  0.1375918E-013  0.7246156E+02  0.7816164E-02  0.1226708E+00
        -11   -1    0    0    0    0  0.00000000000E+00  0.00000000000E+00  0.45593999997E+02  0.45594000000E+02  0.51100000000E-03 0.  1.
         11   -1    0    0    0    0 -0.00000000000E+00 -0.00000000000E+00 -0.45593999997E+02  0.45594000000E+02  0.51100000000E-03 0. -1.
    9900012    2    1    2    0    0 -0.17129977431E+02 -0.72299109824E+01  0.22297304015E+01  0.72461563146E+02  0.69999990688E+02 0.  0.
         12    1    1    2    0    0  0.17129977431E+02  0.72299109824E+01 -0.22297304015E+01  0.18726436854E+02  0.00000000000E+00 0. -1.
         11    1    3    3    0    0  0.97793594170E+01  0.23908635968E+01 -0.20167204592E+01  0.10267388228E+02  0.51100000000E-03 0. -1.
        -11    1    3    3    0    0 -0.40915922507E+02  0.35609910704E+00 -0.71866389506E+01  0.41543799788E+02  0.51100000000E-03 0.  1.
        -12    1    3    3    0    0  0.14006585659E+02 -0.99768736863E+01  0.11433089811E+02  0.20650375130E+02  0.00000000000E+00 0.  1.
</event>
<event>
 7    1  0.1375918E-013  0.7246155E+02  0.7816164E-02  0.1226708E+00
        -11   -1    0    0    0    0  0.00000000000E+00  0.00000000000E+00  0.45593999997E+02  0.45594000000E+02  0.51100000000E-03 0.  1.
         11   -1    0    0    0    0 -0.00000000000E+00 -0.00000000000E+00 -0.45593999997E+02  0.45594000000E+02  0.51100000000E-03 0. -1.
    9900012    2    1    2    0    0 -0.10298513666E+02 -0.10056705240E+02 -0.11978449293E+02  0.72461549416E+02  0.69999972803E+02 0.  0.
         12    1    1    2    0    0  0.10298513666E+02  0.10056705240E+02  0.11978449293E+02  0.18726450584E+02  0.00000000000E+00 0. -1.
         11    1    3    3    0    0  0.45744426121E+00 -0.35509340000E+01 -0.40718733214E+02  0.40875831764E+02  0.51100000000E-03 0. -1.
        -11    1    3    3    0    0 -0.98365534907E+01 -0.55227613778E+01  0.22125508422E+02  0.24835394118E+02  0.51100000000E-03 0.  1.
         12    1    3    3    0    0 -0.91940443643E+00 -0.98300986183E+00  0.66147755000E+01  0.67503235346E+01  0.00000000000E+00 0. -1.
</event>
<event>
 7    1  0.1375918E-013  0.7246158E+02  0.7816164E-02  0.1226708E+00
        -11   -1    0    0    0    0  0.00000000000E+00  0.00000000000E+00  0.45593999997E+02  0.45594000000E+02  0.51100000000E-03 0.  1.
         11   -1    0    0    0    0 -0.00000000000E+00 -0.00000000000E+00 -0.45593999997E+02  0.45594000000E+02  0.51100000000E-03 0. -1.
    9900012    2    1    2    0    0 -0.87920869983E+01  0.87139851815E+01  0.14051498233E+02  0.72461576579E+02  0.70000008188E+02 0.  0.
         12    1    1    2    0    0  0.87920869983E+01 -0.87139851815E+01 -0.14051498233E+02  0.18726423421E+02  0.00000000000E+00 0. -1.
         11    1    3    3    0    0 -0.19664015369E+02 -0.21206912951E+02  0.81660237697E+01  0.30051465885E+02  0.51100000000E-03 0. -1.
        -11    1    3    3    0    0 -0.37008173379E+00  0.28824588259E+02  0.98130130673E+01  0.30451421551E+02  0.51100000000E-03 0.  1.
         12    1    3    3    0    0  0.11242010105E+02  0.10963098743E+01 -0.39275386039E+01  0.11958689143E+02  0.00000000000E+00 0. -1.
</event>
<event>
 7    1  0.1375918E-013  0.7246159E+02  0.7816164E-02  0.1226708E+00
        -11   -1    0    0    0    0  0.00000000000E+00  0.00000000000E+00  0.45593999997E+02  0.45594000000E+02  0.51100000000E-03 0. -1.
         11   -1    0    0    0    0 -0.00000000000E+00 -0.00000000000E+00 -0.45593999997E+02  0.45594000000E+02  0.51100000000E-03 0.  1.
    9900012    2    1    2    0    0 -0.13616926916E+02 -0.55153931856E+01  0.11611985769E+02  0.72461588862E+02  0.70000024188E+02 0.  0.
         12    1    1    2    0    0  0.13616926916E+02  0.55153931856E+01 -0.11611985769E+02  0.18726411138E+02  0.00000000000E+00 0. -1.
         11    1    3    3    0    0 -0.28448652710E+01 -0.11996364311E+02  0.10892395074E+02  0.16451452392E+02  0.51100000000E-03 0. -1.
        -11    1    3    3    0    0  0.20402898311E+02  0.81237161888E+01 -0.83603426914E+01  0.23498262795E+02  0.51100000000E-03 0.  1.
        -12    1    3    3    0    0 -0.31174959956E+02 -0.16427450634E+01  0.90799333859E+01  0.32511873675E+02  0.00000000000E+00 0.  1.
</event>
<event>
 7    1  0.1375918E-013  0.7246157E+02  0.7816164E-02  0.1226708E+00
        -11   -1    0    0    0    0  0.00000000000E+00  0.00000000000E+00  0.45593999997E+02  0.45594000000E+02  0.51100000000E-03 0.  1.
         11   -1    0    0    0    0 -0.00000000000E+00 -0.00000000000E+00 -0.45593999997E+02  0.45594000000E+02  0.51100000000E-03 0. -1.
    9900012    2    1    2    0    0  0.88898933410E+01 -0.16399012823E+02 -0.16496316304E+01  0.72461571892E+02  0.70000002081E+02 0.  0.
         12    1    1    2    0    0 -0.88898933410E+01  0.16399012823E+02  0.16496316304E+01  0.18726428108E+02  0.00000000000E+00 0. -1.
         11    1    3    3    0    0  0.15729014608E+02  0.29446739704E+01  0.47808593019E+01  0.16701186223E+02  0.51100000000E-03 0. -1.
        -11    1    3    3    0    0 -0.21490745207E+02 -0.19216823939E+02  0.12833874116E+02  0.31557040053E+02  0.51100000000E-03 0.  1.
        -12    1    3    3    0    0  0.14651623940E+02 -0.12686285458E+00 -0.19264365048E+02  0.24203345615E+02  0.00000000000E+00 0.  1.
</event>
<event>
 7    1  0.1375918E-013  0.7246157E+02  0.7816164E-02  0.1226708E+00
        -11   -1    0    0    0    0  0.00000000000E+00  0.00000000000E+00  0.45593999997E+02  0.45594000000E+02  0.51100000000E-03 0.  1.
         11   -1    0    0    0    0 -0.00000000000E+00 -0.00000000000E+00 -0.45593999997E+02  0.45594000000E+02  0.51100000000E-03 0. -1.
    9900012    2    1    2    0    0  0.66182555915E+01  0.17515525222E+02 -0.29051734381E+00  0.72461565978E+02  0.69999994377E+02 0.  0.
         12    1    1    2    0    0 -0.66182555915E+01 -0.17515525222E+02  0.29051734381E+00  0.18726434022E+02  0.00000000000E+00 0. -1.
         11    1    3    3    0    0 -0.19318522274E+02 -0.19828448955E+01 -0.21368728398E+01  0.19537226070E+02  0.51100000000E-03 0. -1.
        -11    1    3    3    0    0  0.35639438899E+02  0.23071982745E+02  0.27527742454E+01  0.42544844096E+02  0.51100000000E-03 0.  1.
        -12    1    3    3    0    0 -0.97026610339E+01 -0.35736126274E+01 -0.90641874941E+00  0.10379495811E+02  0.00000000000E+00 0.  1.
</event>
<event>
 7    1  0.1375918E-013  0.7246156E+02  0.7816164E-02  0.1226708E+00
        -11   -1    0    0    0    0  0.00000000000E+00  0.00000000000E+00  0.45593999997E+02  0.45594000000E+02  0.51100000000E-03 0.  1.
         11   -1    0    0    0    0 -0.00000000000E+00 -0.00000000000E+00 -0.45593999997E+02  0.45594000000E+02  0.51100000000E-03 0. -1.
    9900012    2    1    2    0    0 -0.33498328300E+01  0.16167424608E+02  0.88358749555E+01  0.72461556540E+02  0.69999982082E+02 0.  0.
         12    1    1    2    0    0  0.33498328300E+01 -0.16167424608E+02 -0.88358749555E+01  0.18726443460E+02  0.00000000000E+00 0. -1.
         11    1    3    3    0    0 -0.23677043807E+02  0.13809951185E+02  0.10607053902E+00  0.27410370417E+02  0.51100000000E-03 0. -1.
        -11    1    3    3    0    0  0.16210010521E+02  0.16575516747E+02 -0.62292048738E+01  0.24006565563E+02  0.51100000000E-03 0.  1.
         12    1    3    3    0    0  0.41172004562E+01 -0.14218043324E+02  0.14959009290E+02  0.21044620560E+02  0.00000000000E+00 0. -1.
</event>
<event>
 7    1  0.1375918E-013  0.7246123E+02  0.7816164E-02  0.1226709E+00
        -11   -1    0    0    0    0  0.00000000000E+00  0.00000000000E+00  0.45593999997E+02  0.45594000000E+02  0.51100000000E-03 0.  1.
         11   -1    0    0    0    0 -0.00000000000E+00 -0.00000000000E+00 -0.45593999997E+02  0.45594000000E+02  0.51100000000E-03 0. -1.
    9900012    2    1    2    0    0  0.28065568736E+01 -0.75115824764E+01  0.16923104534E+02  0.72461225055E+02  0.69999550260E+02 0.  0.
         12    1    1    2    0    0 -0.28065568736E+01  0.75115824764E+01 -0.16923104534E+02  0.18726774945E+02  0.00000000000E+00 0. -1.
         11    1    3    3    0    0  0.19071981311E+02 -0.27686813226E+01 -0.71364578792E+01  0.20550793141E+02  0.51100000000E-03 0. -1.
        -11    1    3    3    0    0 -0.97884165715E+01 -0.11626493713E+02  0.34577120463E+02  0.37769904882E+02  0.51100000000E-03 0.  1.
        -12    1    3    3    0    0 -0.64770078657E+01  0.68835925595E+01 -0.10517558050E+02  0.14140527032E+02  0.00000000000E+00 0.  1.
</event>
<event>
 7    1  0.1375918E-013  0.7246153E+02  0.7816164E-02  0.1226708E+00
        -11   -1    0    0    0    0  0.00000000000E+00  0.00000000000E+00  0.45593999997E+02  0.45594000000E+02  0.51100000000E-03 0.  1.
         11   -1    0    0    0    0 -0.00000000000E+00 -0.00000000000E+00 -0.45593999997E+02  0.45594000000E+02  0.51100000000E-03 0. -1.
    9900012    2    1    2    0    0  0.69889442390E+01  0.14131120247E+02 -0.10106771388E+02  0.72461528658E+02  0.69999945761E+02 0.  0.
         12    1    1    2    0    0 -0.69889442390E+01 -0.14131120247E+02  0.10106771388E+02  0.18726471342E+02  0.00000000000E+00 0. -1.
         11    1    3    3    0    0  0.11883585593E+02  0.15033548860E+02  0.94719818354E+01  0.21376286816E+02  0.51100000000E-03 0. -1.
        -11    1    3    3    0    0 -0.16479952879E+02  0.17667510394E+02 -0.46838059888E+01  0.24610319161E+02  0.51100000000E-03 0.  1.
         12    1    3    3    0    0  0.11585311524E+02 -0.18569939007E+02 -0.14894947235E+02  0.26474922681E+02  0.00000000000E+00 0. -1.
</event>
<event>
 7    1  0.1375918E-013  0.7246155E+02  0.7816164E-02  0.1226708E+00
        -11   -1    0    0    0    0  0.00000000000E+00  0.00000000000E+00  0.45593999997E+02  0.45594000000E+02  0.51100000000E-03 0.  1.
         11   -1    0    0    0    0 -0.00000000000E+00 -0.00000000000E+00 -0.45593999997E+02  0.45594000000E+02  0.51100000000E-03 0. -1.
    9900012    2    1    2    0    0  0.14457535690E+02 -0.10688266284E+02 -0.52364673338E+01  0.72461549068E+02  0.69999972348E+02 0.  0.
         12    1    1    2    0    0 -0.14457535690E+02  0.10688266284E+02  0.52364673338E+01  0.18726450932E+02  0.00000000000E+00 0. -1.
         11    1    3    3    0    0 -0.16959513625E+02 -0.13767834539E+02 -0.15588529017E+02  0.26836180941E+02  0.51100000000E-03 0. -1.
        -11    1    3    3    0    0  0.14312113064E+02 -0.50547835447E+01  0.19401946108E+02  0.24633776204E+02  0.51100000000E-03 0.  1.
        -12    1    3    3    0    0  0.17104936251E+02  0.81343517996E+01 -0.90498844244E+01  0.20991591922E+02  0.00000000000E+00 0.  1.
</event>
<event>
 7    1  0.1375918E-013  0.7246154E+02  0.7816164E-02  0.1226708E+00
        -11   -1    0    0    0    0  0.00000000000E+00  0.00000000000E+00  0.45593999997E+02  0.45594000000E+02  0.51100000000E-03 0.  1.
         11   -1    0    0    0    0 -0.00000000000E+00 -0.00000000000E+00 -0.45593999997E+02  0.45594000000E+02  0.51100000000E-03 0. -1.
    9900012    2    1    2    0    0 -0.83510661292E+00 -0.83081945234E+01  0.16761763786E+02  0.72461542126E+02  0.69999963305E+02 0.  0.
         12    1    1    2    0    0  0.83510661292E+00  0.83081945234E+01 -0.16761763786E+02  0.18726457874E+02  0.00000000000E+00 0. -1.
         11    1    3    3    0    0 -0.58418840027E+01 -0.11949324648E+02 -0.15177072222E+02  0.20180621639E+02  0.51100000000E-03 0. -1.
        -11    1    3    3    0    0 -0.10537243096E+02  0.17311033785E+02  0.19540731353E+02  0.28152185791E+02  0.51100000000E-03 0.  1.
        -12    1    3    3    0    0  0.15544020485E+02 -0.13669903661E+02  0.12398104656E+02  0.24128734695E+02  0.00000000000E+00 0.  1.
</event>
<event>
 7    1  0.1375918E-013  0.7246119E+02  0.7816164E-02  0.1226709E+00
        -11   -1    0    0    0    0  0.00000000000E+00  0.00000000000E+00  0.45593999997E+02  0.45594000000E+02  0.51100000000E-03 0.  1.
         11   -1    0    0    0    0 -0.00000000000E+00 -0.00000000000E+00 -0.45593999997E+02  0.45594000000E+02  0.51100000000E-03 0. -1.
    9900012    2    1    2    0    0 -0.21041013360E+01 -0.13494022832E+02 -0.12813181662E+02  0.72461187166E+02  0.69999500902E+02 0.  0.
         12    1    1    2    0    0  0.21041013360E+01  0.13494022832E+02  0.12813181662E+02  0.18726812834E+02  0.00000000000E+00 0. -1.
         11    1    3    3    0    0  0.21436077996E+02 -0.42643638854E+01 -0.30809455727E+02  0.37774499356E+02  0.51100000000E-03 0. -1.
        -11    1    3    3    0    0 -0.93042444058E+01  0.35106543352E+01  0.29626607928E+01  0.10376464574E+02  0.51100000000E-03 0.  1.
         12    1    3    3    0    0 -0.14235934926E+02 -0.12740313282E+02  0.15033613272E+02  0.24310223235E+02  0.00000000000E+00 0. -1.
</event>
<event>
 7    1  0.1375918E-013  0.7246156E+02  0.7816164E-02  0.1226708E+00
        -11   -1    0    0    0    0  0.00000000000E+00  0.00000000000E+00  0.45593999997E+02  0.45594000000E+02  0.51100000000E-03 0.  1.
         11   -1    0    0    0    0 -0.00000000000E+00 -0.00000000000E+00 -0.45593999997E+02  0.45594000000E+02  0.51100000000E-03 0. -1.
    9900012    2    1    2    0    0 -0.59409631756E+01 -0.10379257179E+02  0.14410257493E+02  0.72461560294E+02  0.69999986973E+02 0.  0.
         12    1    1    2    0    0  0.59409631756E+01  0.10379257179E+02 -0.14410257493E+02  0.18726439706E+02  0.00000000000E+00 0. -1.
         11    1    3    3    0    0 -0.13616774905E+02 -0.35440673634E+01 -0.20777022522E+02  0.25093059547E+02  0.51100000000E-03 0. -1.
        -11    1    3    3    0    0  0.18854359336E+02 -0.17163953576E+01  0.25253009501E+02  0.31561802358E+02  0.51100000000E-03 0.  1.
         12    1    3    3    0    0 -0.11178547607E+02 -0.51187944581E+01  0.99342705142E+01  0.15806698389E+02  0.00000000000E+00 0. -1.
</event>
<event>
 7    1  0.1375918E-013  0.7246158E+02  0.7816164E-02  0.1226708E+00
        -11   -1    0    0    0    0  0.00000000000E+00  0.00000000000E+00  0.45593999997E+02  0.45594000000E+02  0.51100000000E-03 0.  1.
         11   -1    0    0    0    0 -0.00000000000E+00 -0.00000000000E+00 -0.45593999997E+02  0.45594000000E+02  0.51100000000E-03 0. -1.
    9900012    2    1    2    0    0 -0.10361139016E+02 -0.84304427002E+01 -0.13124535030E+02  0.72461575205E+02  0.70000006397E+02 0.  0.
         12    1    1    2    0    0  0.10361139016E+02  0.84304427002E+01  0.13124535030E+02  0.18726424795E+02  0.00000000000E+00 0. -1.
         11    1    3    3    0    0  0.94886177712E+01  0.38766575037E+01 -0.20646934520E+02  0.23051209208E+02  0.51100000000E-03 0. -1.
        -11    1    3    3    0    0 -0.32539918788E+02 -0.39780237727E+01  0.75528994777E+00  0.32790874508E+02  0.51100000000E-03 0.  1.
        -12    1    3    3    0    0  0.12690162000E+02 -0.83290764312E+01  0.67671095423E+01  0.16619491489E+02  0.00000000000E+00 0.  1.
</event>
<event>
 7    1  0.1375918E-013  0.7246152E+02  0.7816164E-02  0.1226708E+00
        -11   -1    0    0    0    0  0.00000000000E+00  0.00000000000E+00  0.45593999997E+02  0.45594000000E+02  0.51100000000E-03 0.  1.
         11   -1    0    0    0    0 -0.00000000000E+00 -0.00000000000E+00 -0.45593999997E+02  0.45594000000E+02  0.51100000000E-03 0. -1.
    9900012    2    1    2    0    0 -0.86055213995E+01 -0.13357319856E+02  0.99099954967E+01  0.72461521339E+02  0.69999936226E+02 0.  0.
         12    1    1    2    0    0  0.86055213995E+01  0.13357319856E+02 -0.99099954967E+01  0.18726478661E+02  0.00000000000E+00 0. -1.
         11    1    3    3    0    0  0.13692040375E+02  0.17782602724E+02 -0.10529114460E+02  0.24790223493E+02  0.51100000000E-03 0. -1.
        -11    1    3    3    0    0 -0.62451123695E+01 -0.18857106559E+02  0.14160300998E+01  0.19914744231E+02  0.51100000000E-03 0.  1.
         12    1    3    3    0    0 -0.16052449405E+02 -0.12282816021E+02  0.19023079857E+02  0.27756553615E+02  0.00000000000E+00 0. -1.
</event>
<event>
 7    1  0.1375918E-013  0.7246158E+02  0.7816164E-02  0.1226708E+00
        -11   -1    0    0    0    0  0.00000000000E+00  0.00000000000E+00  0.45593999997E+02  0.45594000000E+02  0.51100000000E-03 0.  1.
         11   -1    0    0    0    0 -0.00000000000E+00 -0.00000000000E+00 -0.45593999997E+02  0.45594000000E+02  0.51100000000E-03 0. -1.
    9900012    2    1    2    0    0 -0.12293293289E+02 -0.14108013240E+02 -0.71947154832E+00  0.72461581849E+02  0.70000015052E+02 0.  0.
         12    1    1    2    0    0  0.12293293289E+02  0.14108013240E+02  0.71947154832E+00  0.18726418151E+02  0.00000000000E+00 0. -1.
         11    1    3    3    0    0  0.18048649729E+01 -0.31448029512E+01 -0.46985037128E+01  0.59349187503E+01  0.51100000000E-03 0. -1.
        -11    1    3    3    0    0 -0.24508721099E+02  0.13781102953E+02 -0.16644036764E+02  0.32674457433E+02  0.51100000000E-03 0.  1.
        -12    1    3    3    0    0  0.10410562838E+02 -0.24744313241E+02  0.20623068928E+02  0.33852205665E+02  0.00000000000E+00 0.  1.
</event>
<event>
 7    1  0.1375918E-013  0.7246158E+02  0.7816164E-02  0.1226708E+00
        -11   -1    0    0    0    0  0.00000000000E+00  0.00000000000E+00  0.45593999997E+02  0.45594000000E+02  0.51100000000E-03 0. -1.
         11   -1    0    0    0    0 -0.00000000000E+00 -0.00000000000E+00 -0.45593999997E+02  0.45594000000E+02  0.51100000000E-03 0.  1.
    9900012    2    1    2    0    0 -0.16340312195E+02 -0.91467210077E+01  0.10283092339E+00  0.72461577971E+02  0.70000010000E+02 0.  0.
         12    1    1    2    0    0  0.16340312195E+02  0.91467210077E+01 -0.10283092339E+00  0.18726422029E+02  0.00000000000E+00 0. -1.
         11    1    3    3    0    0  0.10276244189E+02  0.16188988457E+02  0.59329080311E+01  0.20071969008E+02  0.51100000000E-03 0. -1.
        -11    1    3    3    0    0 -0.18020476963E+01 -0.26101156058E+02 -0.82811886478E+01  0.27442591152E+02  0.51100000000E-03 0.  1.
         12    1    3    3    0    0 -0.24814508687E+02  0.76544659291E+00  0.24511115401E+01  0.24947017811E+02  0.00000000000E+00 0. -1.
</event>
<event>
 7    1  0.1375918E-013  0.7246158E+02  0.7816164E-02  0.1226708E+00
        -11   -1    0    0    0    0  0.00000000000E+00  0.00000000000E+00  0.45593999997E+02  0.45594000000E+02  0.51100000000E-03 0. -1.
         11   -1    0    0    0    0 -0.00000000000E+00 -0.00000000000E+00 -0.45593999997E+02  0.45594000000E+02  0.51100000000E-03 0.  1.
    9900012    2    1    2    0    0 -0.13644966114E+02  0.71974066666E+01 -0.10615612160E+02  0.72461575234E+02  0.70000006435E+02 0.  0.
         12    1    1    2    0    0  0.13644966114E+02 -0.71974066666E+01  0.10615612160E+02  0.18726424766E+02  0.00000000000E+00 0. -1.
         11    1    3    3    0    0  0.17358634665E+02  0.17693674606E+01 -0.21586466242E+02  0.27756591717E+02  0.51100000000E-03 0. -1.
        -11    1    3    3    0    0 -0.28199806665E+02  0.82887225960E+01 -0.35826950545E+01  0.29610263800E+02  0.51100000000E-03 0.  1.
        -12    1    3    3    0    0 -0.28037941140E+01 -0.28606833900E+01  0.14553549136E+02  0.15094719717E+02  0.00000000000E+00 0.  1.
</event>
<event>
 7    1  0.1375918E-013  0.7246152E+02  0.7816164E-02  0.1226708E+00
        -11   -1    0    0    0    0  0.00000000000E+00  0.00000000000E+00  0.45593999997E+02  0.45594000000E+02  0.51100000000E-03 0.  1.
         11   -1    0    0    0    0 -0.00000000000E+00 -0.00000000000E+00 -0.45593999997E+02  0.45594000000E+02  0.51100000000E-03 0. -1.
    9900012    2    1    2    0    0  0.11971953099E+02 -0.13923774876E+02  0.36717713107E+01  0.72461519488E+02  0.69999933815E+02 0.  0.
         12    1    1    2    0    0 -0.11971953099E+02  0.13923774876E+02 -0.36717713107E+01  0.18726480512E+02  0.00000000000E+00 0. -1.
         11    1    3    3    0    0  0.11605840831E+02  0.39001727965E+01 -0.11279176629E+02  0.16647123323E+02  0.51100000000E-03 0. -1.
        -11    1    3    3    0    0 -0.24221554724E+02 -0.15086571828E+02  0.42133866284E+01  0.28845120729E+02  0.51100000000E-03 0.  1.
        -12    1    3    3    0    0  0.24587666992E+02 -0.27373758442E+01  0.10737561311E+02  0.26969275435E+02  0.00000000000E+00 0.  1.
</event>
<event>
 7    1  0.1375918E-013  0.7246166E+02  0.7816164E-02  0.1226708E+00
        -11   -1    0    0    0    0  0.00000000000E+00  0.00000000000E+00  0.45593999997E+02  0.45594000000E+02  0.51100000000E-03 0.  1.
         11   -1    0    0    0    0 -0.00000000000E+00 -0.00000000000E+00 -0.45593999997E+02  0.45594000000E+02  0.51100000000E-03 0. -1.
    9900012    2    1    2    0    0 -0.16254039364E+02  0.83798332797E+01 -0.40324291881E+01  0.72461657949E+02  0.70000114187E+02 0.  0.
         12    1    1    2    0    0  0.16254039364E+02 -0.83798332797E+01  0.40324291881E+01  0.18726342051E+02  0.00000000000E+00 0. -1.
         11    1    3    3    0    0  0.42850642593E+01 -0.21194807910E+02  0.53391322319E+01  0.22273032827E+02  0.51100000000E-03 0.  1.
        -11    1    3    3    0    0 -0.21483891119E+02  0.16013116544E+02 -0.19581168308E+02  0.33187341437E+02  0.51100000000E-03 0. -1.
        -12    1    3    3    0    0  0.94478749604E+00  0.13561524646E+02  0.10209606888E+02  0.17001283685E+02  0.00000000000E+00 0.  1.
</event>
<event>
 7    1  0.1375918E-013  0.7246157E+02  0.7816164E-02  0.1226708E+00
        -11   -1    0    0    0    0  0.00000000000E+00  0.00000000000E+00  0.45593999997E+02  0.45594000000E+02  0.51100000000E-03 0. -1.
         11   -1    0    0    0    0 -0.00000000000E+00 -0.00000000000E+00 -0.45593999997E+02  0.45594000000E+02  0.51100000000E-03 0.  1.
    9900012    2    1    2    0    0 -0.82241687785E+01 -0.16324292297E+02 -0.40693791268E+01  0.72461566341E+02  0.69999994850E+02 0.  0.
         12    1    1    2    0    0  0.82241687785E+01  0.16324292297E+02  0.40693791268E+01  0.18726433659E+02  0.00000000000E+00 0. -1.
         11    1    3    3    0    0  0.79404541900E+01 -0.18450715360E+02  0.28782460245E+02  0.35098571596E+02  0.51100000000E-03 0. -1.
        -11    1    3    3    0    0 -0.44168756286E+01  0.28324745324E+01 -0.55768355380E+01  0.76572055722E+01  0.51100000000E-03 0.  1.
         12    1    3    3    0    0 -0.11747747340E+02 -0.70605146930E+00 -0.27275003834E+02  0.29705789173E+02  0.00000000000E+00 0. -1.
</event>
<event>
 7    1  0.1375918E-013  0.7246180E+02  0.7816164E-02  0.1226707E+00
        -11   -1    0    0    0    0  0.00000000000E+00  0.00000000000E+00  0.45593999997E+02  0.45594000000E+02  0.51100000000E-03 0.  1.
         11   -1    0    0    0    0 -0.00000000000E+00 -0.00000000000E+00 -0.45593999997E+02  0.45594000000E+02  0.51100000000E-03 0. -1.
    9900012    2    1    2    0    0 -0.14925390435E+02 -0.10116959761E+01  0.11264096620E+02  0.72461796940E+02  0.70000295247E+02 0.  0.
         12    1    1    2    0    0  0.14925390435E+02  0.10116959761E+01 -0.11264096620E+02  0.18726203060E+02  0.00000000000E+00 0. -1.
         11    1    3    3    0    0 -0.26706574610E+01  0.13495723971E+02  0.10647785081E+01  0.13798577112E+02  0.51100000000E-03 0. -1.
        -11    1    3    3    0    0  0.20479757321E+02 -0.14379038236E+02  0.38390082311E+01  0.25316302751E+02  0.51100000000E-03 0.  1.
        -12    1    3    3    0    0 -0.32734490295E+02 -0.12838171113E+00  0.63603098807E+01  0.33346917077E+02  0.00000000000E+00 0.  1.
</event>
<event>
 7    1  0.1375918E-013  0.7246079E+02  0.7816164E-02  0.1226710E+00
        -11   -1    0    0    0    0  0.00000000000E+00  0.00000000000E+00  0.45593999997E+02  0.45594000000E+02  0.51100000000E-03 0. -1.
         11   -1    0    0    0    0 -0.00000000000E+00 -0.00000000000E+00 -0.45593999997E+02  0.45594000000E+02  0.51100000000E-03 0.  1.
    9900012    2    1    2    0    0 -0.47666476876E+01  0.58277970927E+01 -0.17147135419E+02  0.72460789791E+02  0.69998983242E+02 0.  0.
         12    1    1    2    0    0  0.47666476876E+01 -0.58277970927E+01  0.17147135419E+02  0.18727210209E+02  0.00000000000E+00 0. -1.
         11    1    3    3    0    0  0.13524275859E+01 -0.13029353598E+02  0.20826867759E+02  0.24603892709E+02  0.51100000000E-03 0. -1.
        -11    1    3    3    0    0 -0.12984600808E+02  0.77783523080E+01 -0.14250951450E+02  0.20789233759E+02  0.51100000000E-03 0.  1.
         12    1    3    3    0    0  0.68655255345E+01  0.11078798382E+02 -0.23723051728E+02  0.27067663323E+02  0.00000000000E+00 0. -1.
</event>
<event>
 7    1  0.1375918E-013  0.7246157E+02  0.7816164E-02  0.1226708E+00
        -11   -1    0    0    0    0  0.00000000000E+00  0.00000000000E+00  0.45593999997E+02  0.45594000000E+02  0.51100000000E-03 0. -1.
         11   -1    0    0    0    0 -0.00000000000E+00 -0.00000000000E+00 -0.45593999997E+02  0.45594000000E+02  0.51100000000E-03 0.  1.
    9900012    2    1    2    0    0  0.33671548948E+01 -0.83430264927E+00 -0.18402324127E+02  0.72461566109E+02  0.69999994548E+02 0.  0.
         12    1    1    2    0    0 -0.33671548948E+01  0.83430264927E+00  0.18402324127E+02  0.18726433891E+02  0.00000000000E+00 0. -1.
         11    1    3    3    0    0  0.15788342973E+02 -0.26970740682E+02  0.49426381684E+01  0.31640516732E+02  0.51100000000E-03 0. -1.
        -11    1    3    3    0    0 -0.76511465630E+01  0.50815799055E+01 -0.15175436453E+02  0.17738556025E+02  0.51100000000E-03 0.  1.
         12    1    3    3    0    0 -0.47700415151E+01  0.21054858127E+02 -0.81695258429E+01  0.23082493351E+02  0.00000000000E+00 0. -1.
</event>
<event>
 7    1  0.1375918E-013  0.7246160E+02  0.7816164E-02  0.1226708E+00
        -11   -1    0    0    0    0  0.00000000000E+00  0.00000000000E+00  0.45593999997E+02  0.45594000000E+02  0.51100000000E-03 0. -1.
         11   -1    0    0    0    0 -0.00000000000E+00 -0.00000000000E+00 -0.45593999997E+02  0.45594000000E+02  0.51100000000E-03 0.  1.
    9900012    2    1    2    0    0  0.85713719971E+01 -0.15173371979E+02 -0.68540707979E+01  0.72461603613E+02  0.70000043404E+02 0.  0.
         12    1    1    2    0    0 -0.85713719971E+01  0.15173371979E+02  0.68540707979E+01  0.18726396387E+02  0.00000000000E+00 0. -1.
         11    1    3    3    0    0  0.11692249841E+02  0.17269176031E+02 -0.24811784724E+02  0.32412309523E+02  0.51100000000E-03 0. -1.
        -11    1    3    3    0    0 -0.91187442258E+01 -0.19250812180E+02  0.10357184597E+02  0.23685787698E+02  0.51100000000E-03 0.  1.
        -12    1    3    3    0    0  0.59978663820E+01 -0.13191735831E+02  0.76005293293E+01  0.16363506392E+02  0.00000000000E+00 0.  1.
</event>
<event>
 7    1  0.1375918E-013  0.7246154E+02  0.7816164E-02  0.1226708E+00
        -11   -1    0    0    0    0  0.00000000000E+00  0.00000000000E+00  0.45593999997E+02  0.45594000000E+02  0.51100000000E-03 0.  1.
         11   -1    0    0    0    0 -0.00000000000E+00 -0.00000000000E+00 -0.45593999997E+02  0.45594000000E+02  0.51100000000E-03 0. -1.
    9900012    2    1    2    0    0  0.61651898911E+01  0.37670113193E+01  0.17276582703E+02  0.72461541430E+02  0.69999962399E+02 0.  0.
         12    1    1    2    0    0 -0.61651898911E+01 -0.37670113193E+01 -0.17276582703E+02  0.18726458570E+02  0.00000000000E+00 0. -1.
         11    1    3    3    0    0  0.21096634276E+02 -0.90378054820E+01 -0.15915605077E+02  0.27929489629E+02  0.51100000000E-03 0.  1.
        -11    1    3    3    0    0 -0.80077309983E+01  0.17953548896E+02  0.28747327385E+02  0.34826175583E+02  0.51100000000E-03 0. -1.
        -12    1    3    3    0    0 -0.69237133863E+01 -0.51487320944E+01  0.44448603951E+01  0.97058762184E+01  0.00000000000E+00 0.  1.
</event>
<event>
 7    1  0.1375918E-013  0.7246236E+02  0.7816164E-02  0.1226706E+00
        -11   -1    0    0    0    0  0.00000000000E+00  0.00000000000E+00  0.45593999997E+02  0.45594000000E+02  0.51100000000E-03 0. -1.
         11   -1    0    0    0    0 -0.00000000000E+00 -0.00000000000E+00 -0.45593999997E+02  0.45594000000E+02  0.51100000000E-03 0.  1.
    9900012    2    1    2    0    0  0.12525589912E+02 -0.85589085086E+01 -0.10977451093E+02  0.72462355819E+02  0.70001023284E+02 0.  0.
         12    1    1    2    0    0 -0.12525589912E+02  0.85589085086E+01  0.10977451093E+02  0.18725644181E+02  0.00000000000E+00 0. -1.
         11    1    3    3    0    0  0.12355449716E+02  0.66479912743E+01  0.22017968033E+02  0.26108309831E+02  0.51100000000E-03 0. -1.
        -11    1    3    3    0    0 -0.40880105237E+01 -0.19386512099E+02 -0.92413940747E+01  0.21862114402E+02  0.51100000000E-03 0.  1.
        -12    1    3    3    0    0  0.42581507202E+01  0.41796123165E+01 -0.23754025051E+02  0.24491931586E+02  0.00000000000E+00 0.  1.
</event>
<event>
 7    1  0.1375918E-013  0.7246149E+02  0.7816164E-02  0.1226708E+00
        -11   -1    0    0    0    0  0.00000000000E+00  0.00000000000E+00  0.45593999997E+02  0.45594000000E+02  0.51100000000E-03 0.  1.
         11   -1    0    0    0    0 -0.00000000000E+00 -0.00000000000E+00 -0.45593999997E+02  0.45594000000E+02  0.51100000000E-03 0. -1.
    9900012    2    1    2    0    0 -0.18700788887E+02 -0.27712973192E+00  0.94125533058E+00  0.72461487579E+02  0.69999892247E+02 0.  0.
         12    1    1    2    0    0  0.18700788887E+02  0.27712973192E+00 -0.94125533058E+00  0.18726512421E+02  0.00000000000E+00 0. -1.
         11    1    3    3    0    0 -0.36346909148E+02  0.12305993492E+02 -0.10360086923E+02  0.39747536801E+02  0.51100000000E-03 0. -1.
        -11    1    3    3    0    0 -0.20764670592E+01 -0.39958617898E+01  0.10228900795E+02  0.11176271231E+02  0.51100000000E-03 0.  1.
         12    1    3    3    0    0  0.19722587321E+02 -0.85872614340E+01  0.10724414584E+01  0.21537679546E+02  0.00000000000E+00 0. -1.
</event>
<event>
 7    1  0.1375918E-013  0.7246147E+02  0.7816164E-02  0.1226708E+00
        -11   -1    0    0    0    0  0.00000000000E+00  0.00000000000E+00  0.45593999997E+02  0.45594000000E+02  0.51100000000E-03 0.  1.
         11   -1    0    0    0    0 -0.00000000000E+00 -0.00000000000E+00 -0.45593999997E+02  0.45594000000E+02  0.51100000000E-03 0. -1.
    9900012    2    1    2    0    0  0.15392389123E+02 -0.44708729848E+01 -0.96834249952E+01  0.72461466210E+02  0.69999864410E+02 0.  0.
         12    1    1    2    0    0 -0.15392389123E+02  0.44708729848E+01  0.96834249952E+01  0.18726533790E+02  0.00000000000E+00 0. -1.
         11    1    3    3    0    0 -0.93436446793E+01  0.14683153430E+02  0.35963797535E+01  0.17771680791E+02  0.51100000000E-03 0. -1.
        -11    1    3    3    0    0  0.15236595143E+02 -0.79789219359E+01 -0.28667880988E+02  0.33431488561E+02  0.51100000000E-03 0.  1.
         12    1    3    3    0    0  0.94994386592E+01 -0.11175104479E+02  0.15388076239E+02  0.21258296858E+02  0.00000000000E+00 0. -1.
</event>
<event>
 7    1  0.1375918E-013  0.7246167E+02  0.7816164E-02  0.1226708E+00
        -11   -1    0    0    0    0  0.00000000000E+00  0.00000000000E+00  0.45593999997E+02  0.45594000000E+02  0.51100000000E-03 0.  1.
         11   -1    0    0    0    0 -0.00000000000E+00 -0.00000000000E+00 -0.45593999997E+02  0.45594000000E+02  0.51100000000E-03 0. -1.
    9900012    2    1    2    0    0  0.24361002559E+01  0.17261564439E+02 -0.68395263714E+01  0.72461673283E+02  0.70000134161E+02 0.  0.
         12    1    1    2    0    0 -0.24361002559E+01 -0.17261564439E+02  0.68395263714E+01  0.18726326717E+02  0.00000000000E+00 0. -1.
         11    1    3    3    0    0 -0.19732208068E+01  0.21236888503E+02  0.23295770227E+02  0.31584678950E+02  0.51100000000E-03 0. -1.
        -11    1    3    3    0    0  0.11344219433E+01 -0.13453863291E+02 -0.60651276662E+01  0.14801321713E+02  0.51100000000E-03 0.  1.
         12    1    3    3    0    0  0.32748991194E+01  0.94785392273E+01 -0.24070168932E+02  0.26075672619E+02  0.00000000000E+00 0. -1.
</event>
<event>
 7    1  0.1417532E-013  0.7246144E+02  0.7816164E-02  0.1226708E+00
        -11   -1    0    0    0    0  0.00000000000E+00  0.00000000000E+00  0.45593999997E+02  0.45594000000E+02  0.51100000000E-03 0. -1.
         11   -1    0    0    0    0 -0.00000000000E+00 -0.00000000000E+00 -0.45593999997E+02  0.45594000000E+02  0.51100000000E-03 0.  1.
    9900012    2    1    2    0    0 -0.50978700449E+01  0.58499313252E+01 -0.17043298761E+02  0.72461441102E+02  0.69999831703E+02 0.  0.
         12    1    1    2    0    0  0.50978700449E+01 -0.58499313252E+01  0.17043298761E+02  0.18726558898E+02  0.00000000000E+00 0. -1.
         11    1    3    3    0    0  0.93751165849E+01 -0.87682559911E+01  0.12248637572E+02  0.17742723769E+02  0.51100000000E-03 0. -1.
        -11    1    3    3    0    0 -0.18757429318E+02 -0.75038898011E+01 -0.24368498787E+02  0.31653961050E+02  0.51100000000E-03 0.  1.
         12    1    3    3    0    0  0.42844426882E+01  0.22122077117E+02 -0.49234375464E+01  0.23064756283E+02  0.00000000000E+00 0. -1.
</event>
<event>
 7    1  0.1375918E-013  0.7246165E+02  0.7816164E-02  0.1226708E+00
        -11   -1    0    0    0    0  0.00000000000E+00  0.00000000000E+00  0.45593999997E+02  0.45594000000E+02  0.51100000000E-03 0.  1.
         11   -1    0    0    0    0 -0.00000000000E+00 -0.00000000000E+00 -0.45593999997E+02  0.45594000000E+02  0.51100000000E-03 0. -1.
    9900012    2    1    2    0    0  0.10044362884E+02  0.52028188759E+01  0.14923726091E+02  0.72461650904E+02  0.70000105009E+02 0.  0.
         12    1    1    2    0    0 -0.10044362884E+02 -0.52028188759E+01 -0.14923726091E+02  0.18726349096E+02  0.00000000000E+00 0. -1.
         11    1    3    3    0    0  0.33059359942E+02  0.92247018912E+01  0.14157916012E+02  0.37127658030E+02  0.51100000000E-03 0. -1.
        -11    1    3    3    0    0 -0.19005153044E+02  0.77092228407E+01 -0.57886672788E+01  0.21310481650E+02  0.51100000000E-03 0.  1.
         12    1    3    3    0    0 -0.40098440135E+01 -0.11731105856E+02  0.65544773579E+01  0.14023511224E+02  0.00000000000E+00 0. -1.
</event>
<event>
 7    1  0.1375918E-013  0.7246155E+02  0.7816164E-02  0.1226708E+00
        -11   -1    0    0    0    0  0.00000000000E+00  0.00000000000E+00  0.45593999997E+02  0.45594000000E+02  0.51100000000E-03 0. -1.
         11   -1    0    0    0    0 -0.00000000000E+00 -0.00000000000E+00 -0.45593999997E+02  0.45594000000E+02  0.51100000000E-03 0.  1.
    9900012    2    1    2    0    0  0.34171262737E+01 -0.15434136324E+02 -0.10039451568E+02  0.72461550688E+02  0.69999974459E+02 0.  0.
         12    1    1    2    0    0 -0.34171262737E+01  0.15434136324E+02  0.10039451568E+02  0.18726449312E+02  0.00000000000E+00 0. -1.
         11    1    3    3    0    0 -0.26808498599E+01 -0.54358980061E+01 -0.20138801081E+01  0.63868346193E+01  0.51100000000E-03 0. -1.
        -11    1    3    3    0    0  0.14678851064E+02  0.22609741126E+02  0.88459835544E+01  0.28371120662E+02  0.51100000000E-03 0.  1.
        -12    1    3    3    0    0 -0.85808749306E+01 -0.32607979444E+02 -0.16871555014E+02  0.37703595406E+02  0.00000000000E+00 0.  1.
</event>
<event>
 7    1  0.1375918E-013  0.7246154E+02  0.7816164E-02  0.1226708E+00
        -11   -1    0    0    0    0  0.00000000000E+00  0.00000000000E+00  0.45593999997E+02  0.45594000000E+02  0.51100000000E-03 0. -1.
         11   -1    0    0    0    0 -0.00000000000E+00 -0.00000000000E+00 -0.45593999997E+02  0.45594000000E+02  0.51100000000E-03 0.  1.
    9900012    2    1    2    0    0 -0.18558105742E+02 -0.11907384817E+01 -0.22043618370E+01  0.72461538563E+02  0.69999958664E+02 0.  0.
         12    1    1    2    0    0  0.18558105742E+02  0.11907384817E+01  0.22043618370E+01  0.18726461437E+02  0.00000000000E+00 0. -1.
         11    1    3    3    0    0 -0.27323563524E+02  0.21564190396E+02 -0.11636408915E+02  0.36701463782E+02  0.51100000000E-03 0.  1.
        -11    1    3    3    0    0  0.13886307312E+02 -0.21423834868E+02  0.13689206066E+02  0.28969028188E+02  0.51100000000E-03 0. -1.
         12    1    3    3    0    0 -0.51208495298E+01 -0.13310940099E+01 -0.42571589876E+01  0.67910465921E+01  0.00000000000E+00 0. -1.
</event>
<event>
 7    1  0.1375918E-013  0.7246156E+02  0.7816164E-02  0.1226708E+00
        -11   -1    0    0    0    0  0.00000000000E+00  0.00000000000E+00  0.45593999997E+02  0.45594000000E+02  0.51100000000E-03 0.  1.
         11   -1    0    0    0    0 -0.00000000000E+00 -0.00000000000E+00 -0.45593999997E+02  0.45594000000E+02  0.51100000000E-03 0. -1.
    9900012    2    1    2    0    0 -0.44751476773E+01 -0.57604483473E+01  0.17247311383E+02  0.72461562490E+02  0.69999989833E+02 0.  0.
         12    1    1    2    0    0  0.44751476773E+01  0.57604483473E+01 -0.17247311383E+02  0.18726437510E+02  0.00000000000E+00 0. -1.
         11    1    3    3    0    0  0.10507399873E+00 -0.73378952992E+01 -0.24852089507E+02  0.25912971677E+02  0.51100000000E-03 0. -1.
        -11    1    3    3    0    0 -0.85868865451E+01  0.67829093683E+01  0.14428511888E+02  0.18108683983E+02  0.51100000000E-03 0.  1.
         12    1    3    3    0    0  0.40066648690E+01 -0.52054624163E+01  0.27670889002E+02  0.28439906830E+02  0.00000000000E+00 0. -1.
</event>
<event>
 7    1  0.1375918E-013  0.7246157E+02  0.7816164E-02  0.1226708E+00
        -11   -1    0    0    0    0  0.00000000000E+00  0.00000000000E+00  0.45593999997E+02  0.45594000000E+02  0.51100000000E-03 0. -1.
         11   -1    0    0    0    0 -0.00000000000E+00 -0.00000000000E+00 -0.45593999997E+02  0.45594000000E+02  0.51100000000E-03 0.  1.
    9900012    2    1    2    0    0 -0.38138884151E+01 -0.90018603570E+01 -0.15971844402E+02  0.72461573530E+02  0.70000004215E+02 0.  0.
         12    1    1    2    0    0  0.38138884151E+01  0.90018603570E+01  0.15971844402E+02  0.18726426470E+02  0.00000000000E+00 0. -1.
         11    1    3    3    0    0  0.77480472573E+01 -0.11920670493E+02 -0.49969711996E+01  0.15069981511E+02  0.51100000000E-03 0. -1.
        -11    1    3    3    0    0 -0.32057029500E+02 -0.57006080125E+01  0.82352496549E-01  0.32560049973E+02  0.51100000000E-03 0.  1.
        -12    1    3    3    0    0  0.20495093827E+02  0.86194181489E+01 -0.11057225699E+02  0.24831542046E+02  0.00000000000E+00 0.  1.
</event>
<event>
 7    1  0.1375918E-013  0.7246156E+02  0.7816164E-02  0.1226708E+00
        -11   -1    0    0    0    0  0.00000000000E+00  0.00000000000E+00  0.45593999997E+02  0.45594000000E+02  0.51100000000E-03 0. -1.
         11   -1    0    0    0    0 -0.00000000000E+00 -0.00000000000E+00 -0.45593999997E+02  0.45594000000E+02  0.51100000000E-03 0.  1.
    9900012    2    1    2    0    0 -0.17840787891E+01  0.60102850084E+01 -0.17645768279E+02  0.72461558769E+02  0.69999984986E+02 0.  0.
         12    1    1    2    0    0  0.17840787891E+01 -0.60102850084E+01  0.17645768279E+02  0.18726441231E+02  0.00000000000E+00 0. -1.
         11    1    3    3    0    0  0.13868360040E+02  0.23487283456E+02 -0.13676191604E+02  0.30512654938E+02  0.51100000000E-03 0. -1.
        -11    1    3    3    0    0 -0.26426674224E+02 -0.86872598296E+01 -0.34880207342E+01  0.28035760785E+02  0.51100000000E-03 0.  1.
         12    1    3    3    0    0  0.10774235395E+02 -0.87897386176E+01 -0.48155594091E+00  0.13913143046E+02  0.00000000000E+00 0. -1.
</event>
<event>
 7    1  0.1375918E-013  0.7246123E+02  0.7816164E-02  0.1226709E+00
        -11   -1    0    0    0    0  0.00000000000E+00  0.00000000000E+00  0.45593999997E+02  0.45594000000E+02  0.51100000000E-03 0. -1.
         11   -1    0    0    0    0 -0.00000000000E+00 -0.00000000000E+00 -0.45593999997E+02  0.45594000000E+02  0.51100000000E-03 0.  1.
    9900012    2    1    2    0    0 -0.13442769312E+02  0.10109264368E+02 -0.82332720748E+01  0.72461226602E+02  0.69999552275E+02 0.  0.
         12    1    1    2    0    0  0.13442769312E+02 -0.10109264368E+02  0.82332720748E+01  0.18726773398E+02  0.00000000000E+00 0. -1.
         11    1    3    3    0    0 -0.15345459119E+02  0.15910053436E+02  0.93684500061E+01  0.24007931433E+02  0.51100000000E-03 0. -1.
        -11    1    3    3    0    0  0.64103197685E+01  0.80907941874E+01 -0.28447189090E+02  0.30262116871E+02  0.51100000000E-03 0.  1.
         12    1    3    3    0    0 -0.45076299625E+01 -0.13891583256E+02  0.10845467009E+02  0.18191178298E+02  0.00000000000E+00 0. -1.
</event>
<event>
 7    1  0.1375918E-013  0.7246156E+02  0.7816164E-02  0.1226708E+00
        -11   -1    0    0    0    0  0.00000000000E+00  0.00000000000E+00  0.45593999997E+02  0.45594000000E+02  0.51100000000E-03 0. -1.
         11   -1    0    0    0    0 -0.00000000000E+00 -0.00000000000E+00 -0.45593999997E+02  0.45594000000E+02  0.51100000000E-03 0.  1.
    9900012    2    1    2    0    0 -0.16097397727E+02 -0.47571279240E+01 -0.83019875245E+01  0.72461562097E+02  0.69999989322E+02 0.  0.
         12    1    1    2    0    0  0.16097397727E+02  0.47571279240E+01  0.83019875245E+01  0.18726437903E+02  0.00000000000E+00 0. -1.
         11    1    3    3    0    0  0.12580590385E+02 -0.96138451380E+01  0.91780673246E+01  0.18301207415E+02  0.51100000000E-03 0. -1.
        -11    1    3    3    0    0 -0.50139680569E+01  0.36699410484E+01 -0.27676739360E+02  0.28365652555E+02  0.51100000000E-03 0.  1.
        -12    1    3    3    0    0 -0.23664020055E+02  0.11867761655E+01  0.10196684511E+02  0.25794702128E+02  0.00000000000E+00 0.  1.
</event>
<event>
 7    1  0.1375918E-013  0.7246146E+02  0.7816164E-02  0.1226708E+00
        -11   -1    0    0    0    0  0.00000000000E+00  0.00000000000E+00  0.45593999997E+02  0.45594000000E+02  0.51100000000E-03 0.  1.
         11   -1    0    0    0    0 -0.00000000000E+00 -0.00000000000E+00 -0.45593999997E+02  0.45594000000E+02  0.51100000000E-03 0. -1.
    9900012    2    1    2    0    0 -0.46225990492E+01  0.27660534038E+01  0.17934992894E+02  0.72461456179E+02  0.69999851343E+02 0.  0.
         12    1    1    2    0    0  0.46225990492E+01 -0.27660534038E+01 -0.17934992894E+02  0.18726543821E+02  0.00000000000E+00 0. -1.
         11    1    3    3    0    0  0.38671925447E+01 -0.18349524917E+02  0.94700566594E+01  0.21008146426E+02  0.51100000000E-03 0. -1.
        -11    1    3    3    0    0 -0.27156472128E+02  0.13388578677E+02  0.76748941687E+01  0.31235108743E+02  0.51100000000E-03 0.  1.
        -12    1    3    3    0    0  0.18666680534E+02  0.77269996434E+01  0.79004206550E+00  0.20218201010E+02  0.00000000000E+00 0.  1.
</event>
<event>
 7    1  0.1375918E-013  0.7246139E+02  0.7816164E-02  0.1226708E+00
        -11   -1    0    0    0    0  0.00000000000E+00  0.00000000000E+00  0.45593999997E+02  0.45594000000E+02  0.51100000000E-03 0. -1.
         11   -1    0    0    0    0 -0.00000000000E+00 -0.00000000000E+00 -0.45593999997E+02  0.45594000000E+02  0.51100000000E-03 0.  1.
    9900012    2    1    2    0    0 -0.98380478941E+00 -0.13052628652E+02 -0.13392046850E+02  0.72461390445E+02  0.69999765713E+02 0.  0.
         12    1    1    2    0    0  0.98380478941E+00  0.13052628652E+02  0.13392046850E+02  0.18726609555E+02  0.00000000000E+00 0. -1.
         11    1    3    3    0    0  0.89273759566E+01  0.16226449033E+02 -0.69815434043E+01  0.19792363130E+02  0.51100000000E-03 0.  1.
        -11    1    3    3    0    0 -0.48722939807E+01 -0.33900225888E+02  0.93394042856E+01  0.35499141349E+02  0.51100000000E-03 0. -1.
        -12    1    3    3    0    0 -0.50388867653E+01  0.46211482026E+01 -0.15749907731E+02  0.17169885966E+02  0.00000000000E+00 0.  1.
</event>
<event>
 7    1  0.1375918E-013  0.7246138E+02  0.7816164E-02  0.1226709E+00
        -11   -1    0    0    0    0  0.00000000000E+00  0.00000000000E+00  0.45593999997E+02  0.45594000000E+02  0.51100000000E-03 0.  1.
         11   -1    0    0    0    0 -0.00000000000E+00 -0.00000000000E+00 -0.45593999997E+02  0.45594000000E+02  0.51100000000E-03 0. -1.
    9900012    2    1    2    0    0 -0.88723939354E+01  0.12185363817E+02  0.11112320952E+02  0.72461384117E+02  0.69999757469E+02 0.  0.
         12    1    1    2    0    0  0.88723939354E+01 -0.12185363817E+02 -0.11112320952E+02  0.18726615883E+02  0.00000000000E+00 0. -1.
         11    1    3    3    0    0 -0.29317550819E+02 -0.14628168059E+02 -0.38871714253E+00  0.32766647495E+02  0.51100000000E-03 0. -1.
        -11    1    3    3    0    0  0.81163129398E+00  0.10545641821E+02  0.93320726680E+01  0.14105207808E+02  0.51100000000E-03 0.  1.
         12    1    3    3    0    0  0.19633525589E+02  0.16267890055E+02  0.21689654266E+01  0.25589528814E+02  0.00000000000E+00 0. -1.
</event>
<event>
 7    1  0.1375918E-013  0.7246173E+02  0.7816164E-02  0.1226708E+00
        -11   -1    0    0    0    0  0.00000000000E+00  0.00000000000E+00  0.45593999997E+02  0.45594000000E+02  0.51100000000E-03 0.  1.
         11   -1    0    0    0    0 -0.00000000000E+00 -0.00000000000E+00 -0.45593999997E+02  0.45594000000E+02  0.51100000000E-03 0. -1.
    9900012    2    1    2    0    0  0.73477384647E+01 -0.12439865176E+02  0.11913586770E+02  0.72461733531E+02  0.70000212645E+02 0.  0.
         12    1    1    2    0    0 -0.73477384647E+01  0.12439865176E+02 -0.11913586770E+02  0.18726266469E+02  0.00000000000E+00 0. -1.
         11    1    3    3    0    0 -0.20873785384E+01 -0.16436435684E+02 -0.97152257675E+01  0.19206748270E+02  0.51100000000E-03 0. -1.
        -11    1    3    3    0    0 -0.79563117586E+01 -0.22081111839E+01  0.31327748653E+02  0.32397630897E+02  0.51100000000E-03 0.  1.
        -12    1    3    3    0    0  0.17391428762E+02  0.62046816914E+01 -0.96989361153E+01  0.20857354363E+02  0.00000000000E+00 0.  1.
</event>
<event>
 7    1  0.1375918E-013  0.7246136E+02  0.7816164E-02  0.1226709E+00
        -11   -1    0    0    0    0  0.00000000000E+00  0.00000000000E+00  0.45593999997E+02  0.45594000000E+02  0.51100000000E-03 0. -1.
         11   -1    0    0    0    0 -0.00000000000E+00 -0.00000000000E+00 -0.45593999997E+02  0.45594000000E+02  0.51100000000E-03 0.  1.
    9900012    2    1    2    0    0  0.14048484646E+02 -0.85326227491E+01 -0.89733698315E+01  0.72461362877E+02  0.69999729799E+02 0.  0.
         12    1    1    2    0    0 -0.14048484646E+02  0.85326227491E+01  0.89733698315E+01  0.18726637123E+02  0.00000000000E+00 0. -1.
         11    1    3    3    0    0  0.17526797299E+02  0.25649780309E+02  0.69473022769E+01  0.31833392258E+02  0.51100000000E-03 0. -1.
        -11    1    3    3    0    0  0.16293304789E+01 -0.10511480942E+02  0.15753648810E+01  0.10753033255E+02  0.51100000000E-03 0.  1.
         12    1    3    3    0    0 -0.51076431325E+01 -0.23670922116E+02 -0.17496036989E+02  0.29874937364E+02  0.00000000000E+00 0. -1.
</event>
<event>
 7    1  0.1375918E-013  0.7246158E+02  0.7816164E-02  0.1226708E+00
        -11   -1    0    0    0    0  0.00000000000E+00  0.00000000000E+00  0.45593999997E+02  0.45594000000E+02  0.51100000000E-03 0.  1.
         11   -1    0    0    0    0 -0.00000000000E+00 -0.00000000000E+00 -0.45593999997E+02  0.45594000000E+02  0.51100000000E-03 0. -1.
    9900012    2    1    2    0    0 -0.12385188028E+02  0.13485798182E+02  0.39267341054E+01  0.72461578136E+02  0.70000010216E+02 0.  0.
         12    1    1    2    0    0  0.12385188028E+02 -0.13485798182E+02 -0.39267341054E+01  0.18726421864E+02  0.00000000000E+00 0. -1.
         11    1    3    3    0    0 -0.15137236179E+02  0.84120416600E+01 -0.30349033312E+02  0.34942269349E+02  0.51100000000E-03 0. -1.
        -11    1    3    3    0    0 -0.69890077212E+00  0.95536731451E+01  0.22593574229E+02  0.24540389759E+02  0.51100000000E-03 0.  1.
         12    1    3    3    0    0  0.34509489231E+01 -0.44799166232E+01  0.11682193189E+02  0.12978919028E+02  0.00000000000E+00 0. -1.
</event>
<event>
 7    1  0.1375918E-013  0.7246155E+02  0.7816164E-02  0.1226708E+00
        -11   -1    0    0    0    0  0.00000000000E+00  0.00000000000E+00  0.45593999997E+02  0.45594000000E+02  0.51100000000E-03 0.  1.
         11   -1    0    0    0    0 -0.00000000000E+00 -0.00000000000E+00 -0.45593999997E+02  0.45594000000E+02  0.51100000000E-03 0. -1.
    9900012    2    1    2    0    0 -0.50506719012E+00  0.33854113822E+00  0.18716571627E+02  0.72461554624E+02  0.69999979586E+02 0.  0.
         12    1    1    2    0    0  0.50506719012E+00 -0.33854113822E+00 -0.18716571627E+02  0.18726445376E+02  0.00000000000E+00 0. -1.
         11    1    3    3    0    0 -0.78334737329E+01 -0.23747835510E+01 -0.17307066607E+02  0.19145168122E+02  0.51100000000E-03 0. -1.
        -11    1    3    3    0    0  0.21218292095E+02  0.71632402945E+01  0.30232277721E+02  0.37623377671E+02  0.51100000000E-03 0.  1.
        -12    1    3    3    0    0 -0.13889885553E+02 -0.44499156053E+01  0.57913605127E+01  0.15693008830E+02  0.00000000000E+00 0.  1.
</event>
<event>
 7    1  0.1375918E-013  0.7246136E+02  0.7816164E-02  0.1226709E+00
        -11   -1    0    0    0    0  0.00000000000E+00  0.00000000000E+00  0.45593999997E+02  0.45594000000E+02  0.51100000000E-03 0.  1.
         11   -1    0    0    0    0 -0.00000000000E+00 -0.00000000000E+00 -0.45593999997E+02  0.45594000000E+02  0.51100000000E-03 0. -1.
    9900012    2    1    2    0    0  0.68435982307E+01 -0.17181569402E+02 -0.29404142922E+01  0.72461355878E+02  0.69999720683E+02 0.  0.
         12    1    1    2    0    0 -0.68435982307E+01  0.17181569402E+02  0.29404142922E+01  0.18726644122E+02  0.00000000000E+00 0. -1.
         11    1    3    3    0    0  0.12987485677E+02  0.18062859390E+02 -0.90086747855E+00  0.22265516747E+02  0.51100000000E-03 0. -1.
        -11    1    3    3    0    0 -0.46839559398E+00 -0.33281849179E+02  0.11635547705E+02  0.35260272969E+02  0.51100000000E-03 0.  1.
         12    1    3    3    0    0 -0.56754918519E+01 -0.19625796129E+01 -0.13675094518E+02  0.14935566162E+02  0.00000000000E+00 0. -1.
</event>
<event>
 7    1  0.1375918E-013  0.7246156E+02  0.7816164E-02  0.1226708E+00
        -11   -1    0    0    0    0  0.00000000000E+00  0.00000000000E+00  0.45593999997E+02  0.45594000000E+02  0.51100000000E-03 0.  1.
         11   -1    0    0    0    0 -0.00000000000E+00 -0.00000000000E+00 -0.45593999997E+02  0.45594000000E+02  0.51100000000E-03 0. -1.
    9900012    2    1    2    0    0 -0.15029125997E+02  0.10777150123E+02  0.29424100981E+01  0.72461564936E+02  0.69999993020E+02 0.  0.
         12    1    1    2    0    0  0.15029125997E+02 -0.10777150123E+02 -0.29424100981E+01  0.18726435064E+02  0.00000000000E+00 0. -1.
         11    1    3    3    0    0  0.25734326747E+02  0.12503108414E+02 -0.81328292676E+01  0.29744347451E+02  0.51100000000E-03 0. -1.
        -11    1    3    3    0    0 -0.63147692196E+01 -0.25096953608E+01  0.20373162025E+01  0.70940495255E+01  0.51100000000E-03 0.  1.
         12    1    3    3    0    0 -0.34448683525E+02  0.78373707059E+00  0.90379231632E+01  0.35623167960E+02  0.00000000000E+00 0. -1.
</event>
<event>
 7    1  0.1375918E-013  0.7246144E+02  0.7816164E-02  0.1226708E+00
        -11   -1    0    0    0    0  0.00000000000E+00  0.00000000000E+00  0.45593999997E+02  0.45594000000E+02  0.51100000000E-03 0.  1.
         11   -1    0    0    0    0 -0.00000000000E+00 -0.00000000000E+00 -0.45593999997E+02  0.45594000000E+02  0.51100000000E-03 0. -1.
    9900012    2    1    2    0    0  0.13179914853E+02  0.77700887288E+01 -0.10798131120E+02  0.72461439449E+02  0.69999829550E+02 0.  0.
         12    1    1    2    0    0 -0.13179914853E+02 -0.77700887288E+01  0.10798131120E+02  0.18726560551E+02  0.00000000000E+00 0. -1.
         11    1    3    3    0    0  0.12107324253E+02  0.38593162550E+02 -0.30568569011E+01  0.40563085072E+02  0.51100000000E-03 0. -1.
        -11    1    3    3    0    0  0.16717629854E+00 -0.16472616126E+01  0.14463754419E+00  0.16620285844E+01  0.51100000000E-03 0.  1.
         12    1    3    3    0    0  0.90541430144E+00 -0.29175812209E+02 -0.78859117631E+01  0.30236325793E+02  0.00000000000E+00 0. -1.
</event>
<event>
 7    1  0.1375918E-013  0.7246162E+02  0.7816164E-02  0.1226708E+00
        -11   -1    0    0    0    0  0.00000000000E+00  0.00000000000E+00  0.45593999997E+02  0.45594000000E+02  0.51100000000E-03 0. -1.
         11   -1    0    0    0    0 -0.00000000000E+00 -0.00000000000E+00 -0.45593999997E+02  0.45594000000E+02  0.51100000000E-03 0.  1.
    9900012    2    1    2    0    0  0.12826996066E+02 -0.13034398869E+02 -0.40311142537E+01  0.72461621170E+02  0.70000066275E+02 0.  0.
         12    1    1    2    0    0 -0.12826996066E+02  0.13034398869E+02  0.40311142537E+01  0.18726378830E+02  0.00000000000E+00 0. -1.
         11    1    3    3    0    0  0.14923795508E+02  0.66153020693E+00 -0.31981620797E+02  0.35298461208E+02  0.51100000000E-03 0.  1.
        -11    1    3    3    0    0  0.52511578232E+01 -0.11039025676E+02  0.26544583205E+02  0.29224127774E+02  0.51100000000E-03 0. -1.
         12    1    3    3    0    0 -0.73479572651E+01 -0.26569034004E+01  0.14059233390E+01  0.79390321882E+01  0.00000000000E+00 0. -1.
</event>
<event>
 7    1  0.1375918E-013  0.7246149E+02  0.7816164E-02  0.1226708E+00
        -11   -1    0    0    0    0  0.00000000000E+00  0.00000000000E+00  0.45593999997E+02  0.45594000000E+02  0.51100000000E-03 0. -1.
         11   -1    0    0    0    0 -0.00000000000E+00 -0.00000000000E+00 -0.45593999997E+02  0.45594000000E+02  0.51100000000E-03 0.  1.
    9900012    2    1    2    0    0 -0.14851158719E+02  0.94903422199E+01 -0.63291982652E+01  0.72461487740E+02  0.69999892457E+02 0.  0.
         12    1    1    2    0    0  0.14851158719E+02 -0.94903422199E+01  0.63291982652E+01  0.18726512260E+02  0.00000000000E+00 0. -1.
         11    1    3    3    0    0 -0.10272398716E+02  0.27417579323E+02 -0.18584608383E+02  0.34679006622E+02  0.51100000000E-03 0. -1.
        -11    1    3    3    0    0  0.12751620118E+02 -0.11506059019E+02  0.71866179408E+01  0.18618289058E+02  0.51100000000E-03 0.  1.
        -12    1    3    3    0    0 -0.17330380121E+02 -0.64211780845E+01  0.50687921766E+01  0.19164192059E+02  0.00000000000E+00 0.  1.
</event>
<event>
 7    1  0.1375918E-013  0.7246158E+02  0.7816164E-02  0.1226708E+00
        -11   -1    0    0    0    0  0.00000000000E+00  0.00000000000E+00  0.45593999997E+02  0.45594000000E+02  0.51100000000E-03 0.  1.
         11   -1    0    0    0    0 -0.00000000000E+00 -0.00000000000E+00 -0.45593999997E+02  0.45594000000E+02  0.51100000000E-03 0. -1.
    9900012    2    1    2    0    0  0.16109917510E+02 -0.18417751175E+01  0.93678807149E+01  0.72461581046E+02  0.70000014006E+02 0.  0.
         12    1    1    2    0    0 -0.16109917510E+02  0.18417751175E+01 -0.93678807149E+01  0.18726418954E+02  0.00000000000E+00 0. -1.
         11    1    3    3    0    0 -0.85339234756E+01  0.18609256177E+02 -0.98607023581E+01  0.22723681845E+02  0.51100000000E-03 0. -1.
        -11    1    3    3    0    0  0.19743325385E+02 -0.29396506118E+02  0.12661133616E+02  0.37606618752E+02  0.51100000000E-03 0.  1.
        -12    1    3    3    0    0  0.49005156002E+01  0.89454748240E+01  0.65674494568E+01  0.12131280449E+02  0.00000000000E+00 0.  1.
</event>
<event>
 7    1  0.1375918E-013  0.7246151E+02  0.7816164E-02  0.1226708E+00
        -11   -1    0    0    0    0  0.00000000000E+00  0.00000000000E+00  0.45593999997E+02  0.45594000000E+02  0.51100000000E-03 0.  1.
         11   -1    0    0    0    0 -0.00000000000E+00 -0.00000000000E+00 -0.45593999997E+02  0.45594000000E+02  0.51100000000E-03 0. -1.
    9900012    2    1    2    0    0  0.13115108496E+02  0.11128414505E+02  0.74049931688E+01  0.72461505291E+02  0.69999915321E+02 0.  0.
         12    1    1    2    0    0 -0.13115108496E+02 -0.11128414505E+02 -0.74049931688E+01  0.18726494709E+02  0.00000000000E+00 0. -1.
         11    1    3    3    0    0  0.23390607426E+00 -0.13548893269E+02 -0.11151361907E+02  0.17549361627E+02  0.51100000000E-03 0. -1.
        -11    1    3    3    0    0 -0.12716324603E+02  0.21743992400E+02  0.45865740414E+01  0.25603569645E+02  0.51100000000E-03 0.  1.
        -12    1    3    3    0    0  0.25597527025E+02  0.29333153742E+01  0.13969781034E+02  0.29308574019E+02  0.00000000000E+00 0.  1.
</event>
<event>
 7    1  0.1375918E-013  0.7246161E+02  0.7816164E-02  0.1226708E+00
        -11   -1    0    0    0    0  0.00000000000E+00  0.00000000000E+00  0.45593999997E+02  0.45594000000E+02  0.51100000000E-03 0.  1.
         11   -1    0    0    0    0 -0.00000000000E+00 -0.00000000000E+00 -0.45593999997E+02  0.45594000000E+02  0.51100000000E-03 0. -1.
    9900012    2    1    2    0    0 -0.44992422469E+01  0.92576879132E+01  0.15643845290E+02  0.72461605212E+02  0.70000045486E+02 0.  0.
         12    1    1    2    0    0  0.44992422469E+01 -0.92576879132E+01 -0.15643845290E+02  0.18726394788E+02  0.00000000000E+00 0. -1.
         11    1    3    3    0    0  0.21582901222E+02 -0.67709377442E+01 -0.18321533536E+00  0.22620804389E+02  0.51100000000E-03 0. -1.
        -11    1    3    3    0    0 -0.24944644570E+02 -0.31777955477E+01  0.35063321425E+00  0.25148690247E+02  0.51100000000E-03 0.  1.
        -12    1    3    3    0    0 -0.11374988989E+01  0.19206421205E+02  0.15476427412E+02  0.24692110576E+02  0.00000000000E+00 0.  1.
</event>
<event>
 7    1  0.1375918E-013  0.7246157E+02  0.7816164E-02  0.1226708E+00
        -11   -1    0    0    0    0  0.00000000000E+00  0.00000000000E+00  0.45593999997E+02  0.45594000000E+02  0.51100000000E-03 0.  1.
         11   -1    0    0    0    0 -0.00000000000E+00 -0.00000000000E+00 -0.45593999997E+02  0.45594000000E+02  0.51100000000E-03 0. -1.
    9900012    2    1    2    0    0 -0.10094656502E+02 -0.87900792958E+01  0.13096243634E+02  0.72461569981E+02  0.69999999592E+02 0.  0.
         12    1    1    2    0    0  0.10094656502E+02  0.87900792958E+01 -0.13096243634E+02  0.18726430019E+02  0.00000000000E+00 0. -1.
         11    1    3    3    0    0  0.14377153566E+02  0.15405759500E+02 -0.13652986986E+02  0.25108644414E+02  0.51100000000E-03 0. -1.
        -11    1    3    3    0    0 -0.52321078732E+01 -0.47172647236E+01  0.16809469073E+02  0.18225964722E+02  0.51100000000E-03 0.  1.
         12    1    3    3    0    0 -0.19239702195E+02 -0.19478574072E+02  0.99397615465E+01  0.29126960845E+02  0.00000000000E+00 0. -1.
</event>
<event>
 7    1  0.1375918E-013  0.7246154E+02  0.7816164E-02  0.1226708E+00
        -11   -1    0    0    0    0  0.00000000000E+00  0.00000000000E+00  0.45593999997E+02  0.45594000000E+02  0.51100000000E-03 0. -1.
         11   -1    0    0    0    0 -0.00000000000E+00 -0.00000000000E+00 -0.45593999997E+02  0.45594000000E+02  0.51100000000E-03 0.  1.
    9900012    2    1    2    0    0  0.74752229941E+00  0.36073720100E+01 -0.18360515438E+02  0.72461536117E+02  0.69999955478E+02 0.  0.
         12    1    1    2    0    0 -0.74752229941E+00 -0.36073720100E+01  0.18360515438E+02  0.18726463883E+02  0.00000000000E+00 0. -1.
         11    1    3    3    0    0  0.96501875371E+01 -0.10658312569E+02  0.47499466821E+01  0.15142250165E+02  0.51100000000E-03 0. -1.
        -11    1    3    3    0    0 -0.26719548561E+01  0.29651432418E+02 -0.11536222581E+01  0.29793919376E+02  0.51100000000E-03 0.  1.
        -12    1    3    3    0    0 -0.62307103815E+01 -0.15385747840E+02 -0.21956839862E+02  0.27525366576E+02  0.00000000000E+00 0.  1.
</event>
<event>
 7    1  0.1375918E-013  0.7246171E+02  0.7816164E-02  0.1226708E+00
        -11   -1    0    0    0    0  0.00000000000E+00  0.00000000000E+00  0.45593999997E+02  0.45594000000E+02  0.51100000000E-03 0.  1.
         11   -1    0    0    0    0 -0.00000000000E+00 -0.00000000000E+00 -0.45593999997E+02  0.45594000000E+02  0.51100000000E-03 0. -1.
    9900012    2    1    2    0    0 -0.32153503186E+01 -0.12983203504E+02  0.13106175974E+02  0.72461711004E+02  0.70000183300E+02 0.  0.
         12    1    1    2    0    0  0.32153503186E+01  0.12983203504E+02 -0.13106175974E+02  0.18726288996E+02  0.00000000000E+00 0. -1.
         11    1    3    3    0    0  0.15982515824E+02 -0.28884227353E+02  0.21349159015E+02  0.39313178360E+02  0.51100000000E-03 0. -1.
        -11    1    3    3    0    0 -0.60363241028E+00  0.13045996541E+02 -0.53585974456E+01  0.14116549320E+02  0.51100000000E-03 0.  1.
         12    1    3    3    0    0 -0.18594233732E+02  0.28550273073E+01 -0.28843855951E+01  0.19031983325E+02  0.00000000000E+00 0. -1.
</event>
<event>
 7    1  0.1375918E-013  0.7246152E+02  0.7816164E-02  0.1226708E+00
        -11   -1    0    0    0    0  0.00000000000E+00  0.00000000000E+00  0.45593999997E+02  0.45594000000E+02  0.51100000000E-03 0.  1.
         11   -1    0    0    0    0 -0.00000000000E+00 -0.00000000000E+00 -0.45593999997E+02  0.45594000000E+02  0.51100000000E-03 0. -1.
    9900012    2    1    2    0    0 -0.64648197678E+00  0.14172033687E+02 -0.12223613546E+02  0.72461515923E+02  0.69999929171E+02 0.  0.
         12    1    1    2    0    0  0.64648197678E+00 -0.14172033687E+02  0.12223613546E+02  0.18726484077E+02  0.00000000000E+00 0. -1.
         11    1    3    3    0    0 -0.16504073275E+02  0.14983618752E+01  0.15502044950E+02  0.22692353797E+02  0.51100000000E-03 0.  1.
        -11    1    3    3    0    0  0.15182731976E+02 -0.36987002444E+01 -0.29402627190E+02  0.33297300487E+02  0.51100000000E-03 0. -1.
         12    1    3    3    0    0  0.67485932165E+00  0.16372372056E+02  0.16769686937E+01  0.16471861639E+02  0.00000000000E+00 0. -1.
</event>
<event>
 7    1  0.1375918E-013  0.7246160E+02  0.7816164E-02  0.1226708E+00
        -11   -1    0    0    0    0  0.00000000000E+00  0.00000000000E+00  0.45593999997E+02  0.45594000000E+02  0.51100000000E-03 0.  1.
         11   -1    0    0    0    0 -0.00000000000E+00 -0.00000000000E+00 -0.45593999997E+02  0.45594000000E+02  0.51100000000E-03 0. -1.
    9900012    2    1    2    0    0 -0.12602231938E+02 -0.13775462316E+02  0.14485677299E+01  0.72461602581E+02  0.70000042059E+02 0.  0.
         12    1    1    2    0    0  0.12602231938E+02  0.13775462316E+02 -0.14485677299E+01  0.18726397419E+02  0.00000000000E+00 0. -1.
         11    1    3    3    0    0 -0.55350996822E+01 -0.20797780561E+02 -0.76388457721E+01  0.22837183927E+02  0.51100000000E-03 0. -1.
        -11    1    3    3    0    0 -0.19793830918E+02  0.72192068564E+01  0.22711726094E+02  0.30979593162E+02  0.51100000000E-03 0.  1.
        -12    1    3    3    0    0  0.12726698663E+02 -0.19688861172E+00 -0.13624312592E+02  0.18644825491E+02  0.00000000000E+00 0.  1.
</event>
<event>
 7    1  0.1375918E-013  0.7246181E+02  0.7816164E-02  0.1226707E+00
        -11   -1    0    0    0    0  0.00000000000E+00  0.00000000000E+00  0.45593999997E+02  0.45594000000E+02  0.51100000000E-03 0. -1.
         11   -1    0    0    0    0 -0.00000000000E+00 -0.00000000000E+00 -0.45593999997E+02  0.45594000000E+02  0.51100000000E-03 0.  1.
    9900012    2    1    2    0    0  0.65937474336E+01 -0.15649767160E+02 -0.78916027438E+01  0.72461812154E+02  0.70000315066E+02 0.  0.
         12    1    1    2    0    0 -0.65937474336E+01  0.15649767160E+02  0.78916027438E+01  0.18726187846E+02  0.00000000000E+00 0. -1.
         11    1    3    3    0    0  0.10826066577E+00 -0.12404812482E+02  0.14954824907E+02  0.19430334051E+02  0.51100000000E-03 0. -1.
        -11    1    3    3    0    0  0.12314982427E+02  0.15610913490E+02  0.34208658038E+01  0.20175770996E+02  0.51100000000E-03 0.  1.
        -12    1    3    3    0    0 -0.58294956595E+01 -0.18855868169E+02 -0.26267293455E+02  0.32855707106E+02  0.00000000000E+00 0.  1.
</event>
<event>
 8    1  0.1375918E-013  0.7246157E+02  0.7816164E-02  0.1226708E+00
        -11   -1    0    0    0    0  0.00000000000E+00  0.00000000000E+00  0.45593999997E+02  0.45594000000E+02  0.51100000000E-03 0.  1.
         11   -1    0    0    0    0 -0.00000000000E+00 -0.00000000000E+00 -0.45593999997E+02  0.45594000000E+02  0.51100000000E-03 0. -1.
    9900012    2    1    2    0    0  0.94466706399E+01  0.15873753891E+02  0.30762669389E+01  0.72461573030E+02  0.70000003564E+02 0.  0.
        -24    2    3    3    0    0  0.93026515200E+01  0.11959630279E+02  0.19555767188E+02  0.55523006565E+02  0.49707184049E+02 0.  0.
         12    1    1    2    0    0 -0.94466706399E+01 -0.15873753891E+02 -0.30762669389E+01  0.18726426970E+02  0.00000000000E+00 0. -1.
         11    1    4    4    0    0 -0.52636676900E+01  0.26548591991E+02  0.21843787665E+02  0.34780526076E+02  0.51100000000E-03 0.  1.
        -11    1    3    3    0    0  0.14401911993E+00  0.39141236123E+01 -0.16479500249E+02  0.16938566465E+02  0.51100000000E-03 0. -1.
        -12    1    4    4    0    0  0.14566319210E+02 -0.14588961712E+02 -0.22880204774E+01  0.20742480490E+02  0.00000000000E+00 0.  1.
</event>
<event>
 7    1  0.1375918E-013  0.7246159E+02  0.7816164E-02  0.1226708E+00
        -11   -1    0    0    0    0  0.00000000000E+00  0.00000000000E+00  0.45593999997E+02  0.45594000000E+02  0.51100000000E-03 0.  1.
         11   -1    0    0    0    0 -0.00000000000E+00 -0.00000000000E+00 -0.45593999997E+02  0.45594000000E+02  0.51100000000E-03 0. -1.
    9900012    2    1    2    0    0  0.88920776891E+01  0.25337886537E+01  0.16284634389E+02  0.72461589565E+02  0.70000025104E+02 0.  0.
         12    1    1    2    0    0 -0.88920776891E+01 -0.25337886537E+01 -0.16284634389E+02  0.18726410435E+02  0.00000000000E+00 0. -1.
         11    1    3    3    0    0 -0.22347103319E+02  0.17239634278E+02  0.23908576258E+02  0.36989431406E+02  0.51100000000E-03 0. -1.
        -11    1    3    3    0    0  0.95505819298E+01 -0.41683166965E+01 -0.36052119714E+01  0.11026605684E+02  0.51100000000E-03 0.  1.
         12    1    3    3    0    0  0.21688599078E+02 -0.10537528928E+02 -0.40187298972E+01  0.24445552476E+02  0.00000000000E+00 0. -1.
</event>
<event>
 7    1  0.1375918E-013  0.7246161E+02  0.7816164E-02  0.1226708E+00
        -11   -1    0    0    0    0  0.00000000000E+00  0.00000000000E+00  0.45593999997E+02  0.45594000000E+02  0.51100000000E-03 0.  1.
         11   -1    0    0    0    0 -0.00000000000E+00 -0.00000000000E+00 -0.45593999997E+02  0.45594000000E+02  0.51100000000E-03 0. -1.
    9900012    2    1    2    0    0  0.18426244896E+00  0.18582073978E+02  0.23130502375E+01  0.72461611470E+02  0.70000053639E+02 0.  0.
         12    1    1    2    0    0 -0.18426244896E+00 -0.18582073978E+02 -0.23130502375E+01  0.18726388530E+02  0.00000000000E+00 0. -1.
         11    1    3    3    0    0 -0.26252250785E+02  0.13473612876E+02 -0.15485027647E+02  0.33324240377E+02  0.51100000000E-03 0. -1.
        -11    1    3    3    0    0  0.31988276540E+01 -0.52011984964E+01  0.11384729463E+02  0.12918863316E+02  0.51100000000E-03 0.  1.
         12    1    3    3    0    0  0.23237685580E+02  0.10309659598E+02  0.64133484215E+01  0.26218507778E+02  0.00000000000E+00 0. -1.
</event>
<event>
 7    1  0.1375918E-013  0.7246161E+02  0.7816164E-02  0.1226708E+00
        -11   -1    0    0    0    0  0.00000000000E+00  0.00000000000E+00  0.45593999997E+02  0.45594000000E+02  0.51100000000E-03 0.  1.
         11   -1    0    0    0    0 -0.00000000000E+00 -0.00000000000E+00 -0.45593999997E+02  0.45594000000E+02  0.51100000000E-03 0. -1.
    9900012    2    1    2    0    0  0.10358573676E+02 -0.81670268510E+01  0.13292006133E+02  0.72461606775E+02  0.70000047523E+02 0.  0.
         12    1    1    2    0    0 -0.10358573676E+02  0.81670268510E+01 -0.13292006133E+02  0.18726393225E+02  0.00000000000E+00 0. -1.
         11    1    3    3    0    0 -0.11562643984E+02 -0.21029919621E+02 -0.25760837844E+00  0.24000387861E+02  0.51100000000E-03 0. -1.
        -11    1    3    3    0    0  0.17251382184E+02  0.83178463519E+01  0.27240106079E+02  0.33298950954E+02  0.51100000000E-03 0.  1.
         12    1    3    3    0    0  0.46698354757E+01  0.45450464179E+01 -0.13690491567E+02  0.15162267959E+02  0.00000000000E+00 0. -1.
</event>
<event>
 7    1  0.1375918E-013  0.7246157E+02  0.7816164E-02  0.1226708E+00
        -11   -1    0    0    0    0  0.00000000000E+00  0.00000000000E+00  0.45593999997E+02  0.45594000000E+02  0.51100000000E-03 0.  1.
         11   -1    0    0    0    0 -0.00000000000E+00 -0.00000000000E+00 -0.45593999997E+02  0.45594000000E+02  0.51100000000E-03 0. -1.
    9900012    2    1    2    0    0 -0.21769533144E+01 -0.12901301541E+02  0.13397628553E+02  0.72461570601E+02  0.70000000400E+02 0.  0.
         12    1    1    2    0    0  0.21769533144E+01  0.12901301541E+02 -0.13397628553E+02  0.18726429399E+02  0.00000000000E+00 0. -1.
         11    1    3    3    0    0 -0.73822017586E+01  0.26098983109E+02 -0.50394473149E+01  0.27587131994E+02  0.51100000000E-03 0. -1.
        -11    1    3    3    0    0  0.76492550436E+01 -0.25169273016E+02  0.15475220479E+02  0.30520253211E+02  0.51100000000E-03 0.  1.
        -12    1    3    3    0    0 -0.24440065995E+01 -0.13831011633E+02  0.29618553892E+01  0.14354185397E+02  0.00000000000E+00 0.  1.
</event>
<event>
 7    1  0.1375918E-013  0.7246160E+02  0.7816164E-02  0.1226708E+00
        -11   -1    0    0    0    0  0.00000000000E+00  0.00000000000E+00  0.45593999997E+02  0.45594000000E+02  0.51100000000E-03 0.  1.
         11   -1    0    0    0    0 -0.00000000000E+00 -0.00000000000E+00 -0.45593999997E+02  0.45594000000E+02  0.51100000000E-03 0. -1.
    9900012    2    1    2    0    0  0.46503356811E+01 -0.15155595984E+02  0.99679648949E+01  0.72461600567E+02  0.70000039435E+02 0.  0.
         12    1    1    2    0    0 -0.46503356811E+01  0.15155595984E+02 -0.99679648949E+01  0.18726399433E+02  0.00000000000E+00 0. -1.
         11    1    3    3    0    0  0.40028164819E+00 -0.19764971856E+02 -0.21479259067E+02  0.29192000757E+02  0.51100000000E-03 0. -1.
        -11    1    3    3    0    0 -0.11410500430E+02 -0.11382924327E+01  0.19945337550E+02  0.23006775523E+02  0.51100000000E-03 0.  1.
         12    1    3    3    0    0  0.15660554463E+02  0.57476683047E+01  0.11501886412E+02  0.20262824287E+02  0.00000000000E+00 0. -1.
</event>
<event>
 7    1  0.1375918E-013  0.7246145E+02  0.7816164E-02  0.1226708E+00
        -11   -1    0    0    0    0  0.00000000000E+00  0.00000000000E+00  0.45593999997E+02  0.45594000000E+02  0.51100000000E-03 0.  1.
         11   -1    0    0    0    0 -0.00000000000E+00 -0.00000000000E+00 -0.45593999997E+02  0.45594000000E+02  0.51100000000E-03 0. -1.
    9900012    2    1    2    0    0 -0.27204064746E+01 -0.13298172051E+02  0.12901229234E+02  0.72461449142E+02  0.69999842177E+02 0.  0.
         12    1    1    2    0    0  0.27204064746E+01  0.13298172051E+02 -0.12901229234E+02  0.18726550858E+02  0.00000000000E+00 0. -1.
         11    1    3    3    0    0  0.23937029907E+02 -0.20005430096E+02 -0.11264550994E+02  0.33167585735E+02  0.51100000000E-03 0.  1.
        -11    1    3    3    0    0 -0.21836974373E+02  0.15278018541E+00  0.21715365967E+02  0.30796654216E+02  0.51100000000E-03 0. -1.
        -12    1    3    3    0    0 -0.48204620090E+01  0.65544778601E+01  0.24504142610E+01  0.84972091918E+01  0.00000000000E+00 0.  1.
</event>
<event>
 7    1  0.1375918E-013  0.7246164E+02  0.7816164E-02  0.1226708E+00
        -11   -1    0    0    0    0  0.00000000000E+00  0.00000000000E+00  0.45593999997E+02  0.45594000000E+02  0.51100000000E-03 0.  1.
         11   -1    0    0    0    0 -0.00000000000E+00 -0.00000000000E+00 -0.45593999997E+02  0.45594000000E+02  0.51100000000E-03 0. -1.
    9900012    2    1    2    0    0 -0.16274730977E+02 -0.19553147993E+01 -0.90546333123E+01  0.72461641337E+02  0.70000092547E+02 0.  0.
         12    1    1    2    0    0  0.16274730977E+02  0.19553147993E+01  0.90546333123E+01  0.18726358663E+02  0.00000000000E+00 0. -1.
         11    1    3    3    0    0  0.65502834032E+01 -0.69204493884E+01 -0.31287379001E+01  0.10029348608E+02  0.51100000000E-03 0. -1.
        -11    1    3    3    0    0 -0.14587779413E+02 -0.21005866520E+01  0.25352230710E+02  0.29324927532E+02  0.51100000000E-03 0.  1.
        -12    1    3    3    0    0 -0.82372349674E+01  0.70657212411E+01 -0.31278126123E+02  0.33107365197E+02  0.00000000000E+00 0.  1.
</event>
<event>
 7    1  0.1375918E-013  0.7246156E+02  0.7816164E-02  0.1226708E+00
        -11   -1    0    0    0    0  0.00000000000E+00  0.00000000000E+00  0.45593999997E+02  0.45594000000E+02  0.51100000000E-03 0.  1.
         11   -1    0    0    0    0 -0.00000000000E+00 -0.00000000000E+00 -0.45593999997E+02  0.45594000000E+02  0.51100000000E-03 0. -1.
    9900012    2    1    2    0    0 -0.10996658686E+02 -0.13423732840E+02  0.70396353461E+01  0.72461559564E+02  0.69999986021E+02 0.  0.
         12    1    1    2    0    0  0.10996658686E+02  0.13423732840E+02 -0.70396353461E+01  0.18726440436E+02  0.00000000000E+00 0. -1.
         11    1    3    3    0    0  0.11115619448E+02 -0.25194683776E+01 -0.80975306827E+01  0.13981227415E+02  0.51100000000E-03 0. -1.
        -11    1    3    3    0    0 -0.37933320947E+02 -0.85780907777E+01  0.42231726114E+01  0.39119760565E+02  0.51100000000E-03 0.  1.
        -12    1    3    3    0    0  0.15821042814E+02 -0.23261736849E+01  0.10913993417E+02  0.19360571584E+02  0.00000000000E+00 0.  1.
</event>
<event>
 7    1  0.1375918E-013  0.7246166E+02  0.7816164E-02  0.1226708E+00
        -11   -1    0    0    0    0  0.00000000000E+00  0.00000000000E+00  0.45593999997E+02  0.45594000000E+02  0.51100000000E-03 0. -1.
         11   -1    0    0    0    0 -0.00000000000E+00 -0.00000000000E+00 -0.45593999997E+02  0.45594000000E+02  0.51100000000E-03 0.  1.
    9900012    2    1    2    0    0  0.16882659781E+02 -0.34665945584E-01 -0.81024947448E+01  0.72461659618E+02  0.70000116361E+02 0.  0.
         12    1    1    2    0    0 -0.16882659781E+02  0.34665945584E-01  0.81024947448E+01  0.18726340382E+02  0.00000000000E+00 0. -1.
         11    1    3    3    0    0  0.17290965880E+02  0.14060977459E+02  0.17523205397E+02  0.28350508210E+02  0.51100000000E-03 0. -1.
        -11    1    3    3    0    0 -0.43189995169E+01 -0.20252629203E+02 -0.37413775147E+01  0.21043304218E+02  0.51100000000E-03 0.  1.
        -12    1    3    3    0    0  0.39106934177E+01  0.61569857985E+01 -0.21884322627E+02  0.23067847189E+02  0.00000000000E+00 0.  1.
</event>
<event>
 7    1  0.1375918E-013  0.7246154E+02  0.7816164E-02  0.1226708E+00
        -11   -1    0    0    0    0  0.00000000000E+00  0.00000000000E+00  0.45593999997E+02  0.45594000000E+02  0.51100000000E-03 0.  1.
         11   -1    0    0    0    0 -0.00000000000E+00 -0.00000000000E+00 -0.45593999997E+02  0.45594000000E+02  0.51100000000E-03 0. -1.
    9900012    2    1    2    0    0  0.18290598301E+02  0.21765123738E+01 -0.33759592750E+01  0.72461540288E+02  0.69999960911E+02 0.  0.
         12    1    1    2    0    0 -0.18290598301E+02 -0.21765123738E+01  0.33759592750E+01  0.18726459712E+02  0.00000000000E+00 0. -1.
         11    1    3    3    0    0 -0.10749033341E+02 -0.17855964698E+01 -0.11748306469E+02  0.16023507034E+02  0.51100000000E-03 0. -1.
        -11    1    3    3    0    0  0.37083273914E+02  0.16661608356E+02  0.77914685602E+01  0.41394267474E+02  0.51100000000E-03 0.  1.
        -12    1    3    3    0    0 -0.80436422720E+01 -0.12699499512E+02  0.58087863389E+00  0.15043765780E+02  0.00000000000E+00 0.  1.
</event>
<event>
 7    1  0.1375918E-013  0.7246158E+02  0.7816164E-02  0.1226708E+00
        -11   -1    0    0    0    0  0.00000000000E+00  0.00000000000E+00  0.45593999997E+02  0.45594000000E+02  0.51100000000E-03 0. -1.
         11   -1    0    0    0    0 -0.00000000000E+00 -0.00000000000E+00 -0.45593999997E+02  0.45594000000E+02  0.51100000000E-03 0.  1.
    9900012    2    1    2    0    0 -0.77409242156E+01  0.14781540717E+02 -0.85007637415E+01  0.72461579150E+02  0.70000011536E+02 0.  0.
         12    1    1    2    0    0  0.77409242156E+01 -0.14781540717E+02  0.85007637415E+01  0.18726420850E+02  0.00000000000E+00 0. -1.
         11    1    3    3    0    0 -0.30831319371E+02 -0.31525228282E+01 -0.10301764634E+02  0.32659378579E+02  0.51100000000E-03 0. -1.
        -11    1    3    3    0    0  0.13863437046E+02  0.80684347029E-01  0.11002537796E+02  0.17699074409E+02  0.51100000000E-03 0.  1.
         12    1    3    3    0    0  0.92269581090E+01  0.17853379198E+02 -0.92015369040E+01  0.22103126162E+02  0.00000000000E+00 0. -1.
</event>
<event>
 7    1  0.1375918E-013  0.7246141E+02  0.7816164E-02  0.1226708E+00
        -11   -1    0    0    0    0  0.00000000000E+00  0.00000000000E+00  0.45593999997E+02  0.45594000000E+02  0.51100000000E-03 0.  1.
         11   -1    0    0    0    0 -0.00000000000E+00 -0.00000000000E+00 -0.45593999997E+02  0.45594000000E+02  0.51100000000E-03 0. -1.
    9900012    2    1    2    0    0  0.66031314149E+01  0.17498286284E+02  0.94531707209E+00  0.72461414841E+02  0.69999797492E+02 0.  0.
         12    1    1    2    0    0 -0.66031314149E+01 -0.17498286284E+02 -0.94531707209E+00  0.18726585159E+02  0.00000000000E+00 0. -1.
         11    1    3    3    0    0 -0.11375898336E+02  0.12993138241E+02  0.19538092872E+02  0.26076230127E+02  0.51100000000E-03 0. -1.
        -11    1    3    3    0    0  0.21991499083E+02  0.64238910758E+01  0.40880408979E+01  0.23272397537E+02  0.51100000000E-03 0.  1.
         12    1    3    3    0    0 -0.40124693324E+01 -0.19187430332E+01 -0.22680816698E+02  0.23112787176E+02  0.00000000000E+00 0. -1.
</event>
<event>
 7    1  0.1375918E-013  0.7246171E+02  0.7816164E-02  0.1226708E+00
        -11   -1    0    0    0    0  0.00000000000E+00  0.00000000000E+00  0.45593999997E+02  0.45594000000E+02  0.51100000000E-03 0.  1.
         11   -1    0    0    0    0 -0.00000000000E+00 -0.00000000000E+00 -0.45593999997E+02  0.45594000000E+02  0.51100000000E-03 0. -1.
    9900012    2    1    2    0    0  0.15313829329E+02 -0.10395376640E+02  0.28454831134E+01  0.72461708367E+02  0.70000179864E+02 0.  0.
         12    1    1    2    0    0 -0.15313829329E+02  0.10395376640E+02 -0.28454831134E+01  0.18726291633E+02  0.00000000000E+00 0. -1.
         11    1    3    3    0    0  0.15104964018E+00  0.18108617911E+02 -0.12486507979E+02  0.21996766590E+02  0.51100000000E-03 0. -1.
        -11    1    3    3    0    0  0.24758989896E+02 -0.15491940890E+02  0.17659870925E+02  0.34130321630E+02  0.51100000000E-03 0.  1.
        -12    1    3    3    0    0 -0.95962102078E+01 -0.13012053660E+02 -0.23278798327E+01  0.16334620146E+02  0.00000000000E+00 0.  1.
</event>
<event>
 7    1  0.1375918E-013  0.7246147E+02  0.7816164E-02  0.1226708E+00
        -11   -1    0    0    0    0  0.00000000000E+00  0.00000000000E+00  0.45593999997E+02  0.45594000000E+02  0.51100000000E-03 0.  1.
         11   -1    0    0    0    0 -0.00000000000E+00 -0.00000000000E+00 -0.45593999997E+02  0.45594000000E+02  0.51100000000E-03 0. -1.
    9900012    2    1    2    0    0 -0.57981137924E+01 -0.92927802339E+01  0.15189107821E+02  0.72461471106E+02  0.69999870789E+02 0.  0.
         12    1    1    2    0    0  0.57981137924E+01  0.92927802339E+01 -0.15189107821E+02  0.18726528894E+02  0.00000000000E+00 0. -1.
         11    1    3    3    0    0  0.42684167403E+01  0.25047808038E+02  0.12150772581E+02  0.28164753568E+02  0.51100000000E-03 0. -1.
        -11    1    3    3    0    0 -0.16293889084E+02 -0.18161317866E+02  0.89367650076E+01  0.25984419508E+02  0.51100000000E-03 0.  1.
         12    1    3    3    0    0  0.62273585513E+01 -0.16179270406E+02 -0.58984297686E+01  0.18312298030E+02  0.00000000000E+00 0. -1.
</event>
<event>
 7    1  0.1375918E-013  0.7246152E+02  0.7816164E-02  0.1226708E+00
        -11   -1    0    0    0    0  0.00000000000E+00  0.00000000000E+00  0.45593999997E+02  0.45594000000E+02  0.51100000000E-03 0.  1.
         11   -1    0    0    0    0 -0.00000000000E+00 -0.00000000000E+00 -0.45593999997E+02  0.45594000000E+02  0.51100000000E-03 0. -1.
    9900012    2    1    2    0    0  0.14264236335E+02  0.99379857754E+01  0.69605309609E+01  0.72461521667E+02  0.69999936654E+02 0.  0.
         12    1    1    2    0    0 -0.14264236335E+02 -0.99379857754E+01 -0.69605309609E+01  0.18726478333E+02  0.00000000000E+00 0. -1.
         11    1    3    3    0    0 -0.53312954228E+01 -0.29025061570E+01  0.27515617271E+02  0.28177232776E+02  0.51100000000E-03 0.  1.
        -11    1    3    3    0    0  0.23803864005E+02  0.98250682655E+01 -0.29340070480E+01  0.25918416341E+02  0.51100000000E-03 0. -1.
         12    1    3    3    0    0 -0.42083322473E+01  0.30154236669E+01 -0.17621079262E+02  0.18365872551E+02  0.00000000000E+00 0. -1.
</event>
<event>
 7    1  0.1375918E-013  0.7246166E+02  0.7816164E-02  0.1226708E+00
        -11   -1    0    0    0    0  0.00000000000E+00  0.00000000000E+00  0.45593999997E+02  0.45594000000E+02  0.51100000000E-03 0.  1.
         11   -1    0    0    0    0 -0.00000000000E+00 -0.00000000000E+00 -0.45593999997E+02  0.45594000000E+02  0.51100000000E-03 0. -1.
    9900012    2    1    2    0    0 -0.95019842522E+01  0.12927503265E+02  0.96575332018E+01  0.72461655110E+02  0.70000110488E+02 0.  0.
         12    1    1    2    0    0  0.95019842522E+01 -0.12927503265E+02 -0.96575332018E+01  0.18726344890E+02  0.00000000000E+00 0. -1.
         11    1    3    3    0    0  0.57782632813E+01 -0.17411791315E+02  0.59822049858E+00  0.18355290011E+02  0.51100000000E-03 0. -1.
        -11    1    3    3    0    0 -0.71017176224E+01  0.28734390028E+02  0.23257152300E+02  0.37642990010E+02  0.51100000000E-03 0.  1.
         12    1    3    3    0    0 -0.81785299111E+01  0.16049045520E+01 -0.14197839597E+02  0.16463375090E+02  0.00000000000E+00 0. -1.
</event>
<event>
 7    1  0.1375918E-013  0.7246158E+02  0.7816164E-02  0.1226708E+00
        -11   -1    0    0    0    0  0.00000000000E+00  0.00000000000E+00  0.45593999997E+02  0.45594000000E+02  0.51100000000E-03 0. -1.
         11   -1    0    0    0    0 -0.00000000000E+00 -0.00000000000E+00 -0.45593999997E+02  0.45594000000E+02  0.51100000000E-03 0.  1.
    9900012    2    1    2    0    0  0.79150548451E+01 -0.10334733496E+01 -0.16939974247E+02  0.72461577815E+02  0.70000009797E+02 0.  0.
         12    1    1    2    0    0 -0.79150548451E+01  0.10334733496E+01  0.16939974247E+02  0.18726422185E+02  0.00000000000E+00 0. -1.
         11    1    3    3    0    0  0.25473090218E+02 -0.16562696429E+02  0.27917878158E+01  0.30512215877E+02  0.51100000000E-03 0. -1.
        -11    1    3    3    0    0 -0.18081077596E+02  0.14273822037E+02 -0.88460175630E+00  0.23053196809E+02  0.51100000000E-03 0.  1.
        -12    1    3    3    0    0  0.52304222330E+00  0.12554010421E+01 -0.18847160307E+02  0.18896165129E+02  0.00000000000E+00 0.  1.
</event>
<event>
 7    1  0.1375918E-013  0.7246155E+02  0.7816164E-02  0.1226708E+00
        -11   -1    0    0    0    0  0.00000000000E+00  0.00000000000E+00  0.45593999997E+02  0.45594000000E+02  0.51100000000E-03 0.  1.
         11   -1    0    0    0    0 -0.00000000000E+00 -0.00000000000E+00 -0.45593999997E+02  0.45594000000E+02  0.51100000000E-03 0. -1.
    9900012    2    1    2    0    0  0.77883269592E+01  0.16550609011E+02 -0.40123657948E+01  0.72461554136E+02  0.69999978950E+02 0.  0.
         12    1    1    2    0    0 -0.77883269592E+01 -0.16550609011E+02  0.40123657948E+01  0.18726445864E+02  0.00000000000E+00 0. -1.
         11    1    3    3    0    0  0.13450349484E+02  0.15527949119E+02 -0.23288875951E+02  0.31054803951E+02  0.51100000000E-03 0. -1.
        -11    1    3    3    0    0 -0.27016826878E+01 -0.14169139670E+02  0.21375921093E+02  0.25787470042E+02  0.51100000000E-03 0.  1.
         12    1    3    3    0    0 -0.29603398366E+01  0.15191799562E+02 -0.20994109367E+01  0.15619280143E+02  0.00000000000E+00 0. -1.
</event>
<event>
 7    1  0.1375918E-013  0.7246159E+02  0.7816164E-02  0.1226708E+00
        -11   -1    0    0    0    0  0.00000000000E+00  0.00000000000E+00  0.45593999997E+02  0.45594000000E+02  0.51100000000E-03 0. -1.
         11   -1    0    0    0    0 -0.00000000000E+00 -0.00000000000E+00 -0.45593999997E+02  0.45594000000E+02  0.51100000000E-03 0.  1.
    9900012    2    1    2    0    0 -0.30126306775E+01 -0.13019893234E+02 -0.13118106305E+02  0.72461594140E+02  0.70000031063E+02 0.  0.
         12    1    1    2    0    0  0.30126306775E+01  0.13019893234E+02  0.13118106305E+02  0.18726405860E+02  0.00000000000E+00 0. -1.
         11    1    3    3    0    0  0.10275740550E+02  0.65309953403E+01  0.82682343959E+01  0.14717623595E+02  0.51100000000E-03 0. -1.
        -11    1    3    3    0    0 -0.14632885518E+02 -0.74478855035E+00 -0.32646294320E+02  0.35783467994E+02  0.51100000000E-03 0.  1.
         12    1    3    3    0    0  0.13445142904E+01 -0.18806100024E+02  0.11259953619E+02  0.21960502551E+02  0.00000000000E+00 0. -1.
</event>
<event>
 7    1  0.1375918E-013  0.7246157E+02  0.7816164E-02  0.1226708E+00
        -11   -1    0    0    0    0  0.00000000000E+00  0.00000000000E+00  0.45593999997E+02  0.45594000000E+02  0.51100000000E-03 0. -1.
         11   -1    0    0    0    0 -0.00000000000E+00 -0.00000000000E+00 -0.45593999997E+02  0.45594000000E+02  0.51100000000E-03 0.  1.
    9900012    2    1    2    0    0  0.10224914152E+02  0.11826207541E+02 -0.10308796955E+02  0.72461565506E+02  0.69999993762E+02 0.  0.
         12    1    1    2    0    0 -0.10224914152E+02 -0.11826207541E+02  0.10308796955E+02  0.18726434494E+02  0.00000000000E+00 0. -1.
         11    1    3    3    0    0 -0.83524845268E+01  0.81407655770E+01 -0.28960968338E+01  0.12017630344E+02  0.51100000000E-03 0. -1.
        -11    1    3    3    0    0 -0.22766707693E+01 -0.24551520337E+02 -0.47196749789E+00  0.24661369269E+02  0.51100000000E-03 0.  1.
        -12    1    3    3    0    0  0.20854069448E+02  0.28236962300E+02 -0.69407326234E+01  0.35782565893E+02  0.00000000000E+00 0.  1.
</event>
<event>
 7    1  0.1375918E-013  0.7246155E+02  0.7816164E-02  0.1226708E+00
        -11   -1    0    0    0    0  0.00000000000E+00  0.00000000000E+00  0.45593999997E+02  0.45594000000E+02  0.51100000000E-03 0. -1.
         11   -1    0    0    0    0 -0.00000000000E+00 -0.00000000000E+00 -0.45593999997E+02  0.45594000000E+02  0.51100000000E-03 0.  1.
    9900012    2    1    2    0    0  0.69732632248E-01 -0.66680039949E+01 -0.17498933909E+02  0.72461552717E+02  0.69999977102E+02 0.  0.
         12    1    1    2    0    0 -0.69732632248E-01  0.66680039949E+01  0.17498933909E+02  0.18726447283E+02  0.00000000000E+00 0. -1.
         11    1    3    3    0    0 -0.62746062540E+01 -0.10538314084E+02  0.77874372979E+00  0.12289556112E+02  0.51100000000E-03 0. -1.
        -11    1    3    3    0    0  0.41686581755E+01  0.23953578018E+02 -0.28557719051E+02  0.37505931911E+02  0.51100000000E-03 0.  1.
        -12    1    3    3    0    0  0.21756807107E+01 -0.20083267929E+02  0.10280041412E+02  0.22666064694E+02  0.00000000000E+00 0.  1.
</event>
<event>
 7    1  0.1375918E-013  0.7246226E+02  0.7816164E-02  0.1226706E+00
        -11   -1    0    0    0    0  0.00000000000E+00  0.00000000000E+00  0.45593999997E+02  0.45594000000E+02  0.51100000000E-03 0.  1.
         11   -1    0    0    0    0 -0.00000000000E+00 -0.00000000000E+00 -0.45593999997E+02  0.45594000000E+02  0.51100000000E-03 0. -1.
    9900012    2    1    2    0    0  0.15942631395E+02 -0.80155330685E+01  0.56777852824E+01  0.72462255372E+02  0.70000892435E+02 0.  0.
         12    1    1    2    0    0 -0.15942631395E+02  0.80155330685E+01 -0.56777852824E+01  0.18725744628E+02  0.00000000000E+00 0. -1.
         11    1    3    3    0    0 -0.10657550724E+02  0.15793878715E+02 -0.11576250109E+02  0.22294384027E+02  0.51100000000E-03 0. -1.
        -11    1    3    3    0    0  0.32941136446E+02 -0.22777667176E+02  0.11829741274E+02  0.41759829635E+02  0.51100000000E-03 0.  1.
        -12    1    3    3    0    0 -0.63409543271E+01 -0.10317446077E+01  0.54242941175E+01  0.84080417094E+01  0.00000000000E+00 0.  1.
</event>
<event>
 7    1  0.1375918E-013  0.7246155E+02  0.7816164E-02  0.1226708E+00
        -11   -1    0    0    0    0  0.00000000000E+00  0.00000000000E+00  0.45593999997E+02  0.45594000000E+02  0.51100000000E-03 0. -1.
         11   -1    0    0    0    0 -0.00000000000E+00 -0.00000000000E+00 -0.45593999997E+02  0.45594000000E+02  0.51100000000E-03 0.  1.
    9900012    2    1    2    0    0 -0.74421620761E+01 -0.16446676412E+02 -0.49800747980E+01  0.72461545815E+02  0.69999968111E+02 0.  0.
         12    1    1    2    0    0  0.74421620761E+01  0.16446676412E+02  0.49800747980E+01  0.18726454185E+02  0.00000000000E+00 0. -1.
         11    1    3    3    0    0  0.20485260340E+02 -0.18691189817E+02 -0.76043306660E+01  0.28754692019E+02  0.51100000000E-03 0. -1.
        -11    1    3    3    0    0 -0.16331926848E+02 -0.58170816546E+01 -0.13718100272E+02  0.22107839082E+02  0.51100000000E-03 0.  1.
        -12    1    3    3    0    0 -0.11595495568E+02  0.80615950598E+01  0.16342356140E+02  0.21599014713E+02  0.00000000000E+00 0.  1.
</event>
<event>
 7    1  0.1375918E-013  0.7246158E+02  0.7816164E-02  0.1226708E+00
        -11   -1    0    0    0    0  0.00000000000E+00  0.00000000000E+00  0.45593999997E+02  0.45594000000E+02  0.51100000000E-03 0.  1.
         11   -1    0    0    0    0 -0.00000000000E+00 -0.00000000000E+00 -0.45593999997E+02  0.45594000000E+02  0.51100000000E-03 0. -1.
    9900012    2    1    2    0    0  0.65530594265E+01  0.60774955167E+01  0.16456008990E+02  0.72461580922E+02  0.70000013845E+02 0.  0.
         12    1    1    2    0    0 -0.65530594265E+01 -0.60774955167E+01 -0.16456008990E+02  0.18726419078E+02  0.00000000000E+00 0. -1.
         11    1    3    3    0    0  0.18179289759E+01 -0.64817955437E+01  0.17899565888E+02  0.19123624093E+02  0.51100000000E-03 0. -1.
        -11    1    3    3    0    0  0.26342709391E+02  0.11019811139E+02 -0.96972986976E+01  0.30156461627E+02  0.51100000000E-03 0.  1.
        -12    1    3    3    0    0 -0.21607578940E+02  0.15394799217E+01  0.82537417996E+01  0.23181495202E+02  0.00000000000E+00 0.  1.
</event>
<event>
 8    1  0.1375918E-013  0.7246080E+02  0.7816164E-02  0.1226710E+00
        -11   -1    0    0    0    0  0.00000000000E+00  0.00000000000E+00  0.45593999997E+02  0.45594000000E+02  0.51100000000E-03 0. -1.
         11   -1    0    0    0    0 -0.00000000000E+00 -0.00000000000E+00 -0.45593999997E+02  0.45594000000E+02  0.51100000000E-03 0.  1.
    9900012    2    1    2    0    0 -0.29937790325E+01 -0.75842497511E+01 -0.16858954932E+02  0.72460802703E+02  0.69999000063E+02 0.  0.
         24    2    3    3    0    0  0.15911070391E+01 -0.14626873298E+02 -0.23068792198E+02  0.62011792901E+02  0.55649045286E+02 0.  0.
         12    1    1    2    0    0  0.29937790325E+01  0.75842497511E+01  0.16858954932E+02  0.18727197297E+02  0.00000000000E+00 0. -1.
         11    1    3    3    0    0 -0.45848860715E+01  0.70426235474E+01  0.62098372660E+01  0.10449009802E+02  0.51100000000E-03 0. -1.
        -11    1    4    4    0    0 -0.15982116474E+02 -0.28542160176E+02 -0.22286907629E+02  0.39582688216E+02  0.51100000000E-03 0.  1.
         12    1    4    4    0    0  0.17573223513E+02  0.13915286877E+02 -0.78188456925E+00  0.22429104685E+02  0.00000000000E+00 0. -1.
</event>
<event>
 7    1  0.1375918E-013  0.7246155E+02  0.7816164E-02  0.1226708E+00
        -11   -1    0    0    0    0  0.00000000000E+00  0.00000000000E+00  0.45593999997E+02  0.45594000000E+02  0.51100000000E-03 0. -1.
         11   -1    0    0    0    0 -0.00000000000E+00 -0.00000000000E+00 -0.45593999997E+02  0.45594000000E+02  0.51100000000E-03 0.  1.
    9900012    2    1    2    0    0 -0.83598143987E+01 -0.15292349229E+02 -0.68510804428E+01  0.72461554930E+02  0.69999979985E+02 0.  0.
         12    1    1    2    0    0  0.83598143987E+01  0.15292349229E+02  0.68510804428E+01  0.18726445070E+02  0.00000000000E+00 0. -1.
         11    1    3    3    0    0  0.38063261314E+01  0.42262189595E+01 -0.32179696165E+02  0.32678462186E+02  0.51100000000E-03 0.  1.
        -11    1    3    3    0    0 -0.14193072789E+02 -0.11339468576E+02  0.25554233305E+02  0.31353559652E+02  0.51100000000E-03 0. -1.
         12    1    3    3    0    0  0.20269322588E+01 -0.81790996131E+01 -0.22561758342E+00  0.84295330924E+01  0.00000000000E+00 0. -1.
</event>
<event>
 7    1  0.1375918E-013  0.7246157E+02  0.7816164E-02  0.1226708E+00
        -11   -1    0    0    0    0  0.00000000000E+00  0.00000000000E+00  0.45593999997E+02  0.45594000000E+02  0.51100000000E-03 0. -1.
         11   -1    0    0    0    0 -0.00000000000E+00 -0.00000000000E+00 -0.45593999997E+02  0.45594000000E+02  0.51100000000E-03 0.  1.
    9900012    2    1    2    0    0  0.15817186548E+01  0.15349182708E+02 -0.10610372188E+02  0.72461568368E+02  0.69999997491E+02 0.  0.
         12    1    1    2    0    0 -0.15817186548E+01 -0.15349182708E+02  0.10610372188E+02  0.18726431632E+02  0.00000000000E+00 0. -1.
         11    1    3    3    0    0  0.24019610107E+02 -0.47641990915E+01  0.11185647397E+02  0.26921329288E+02  0.51100000000E-03 0. -1.
        -11    1    3    3    0    0 -0.20640051290E+02  0.75440697843E+01 -0.24122552796E+02  0.32631614422E+02  0.51100000000E-03 0.  1.
        -12    1    3    3    0    0 -0.17978401624E+01  0.12569312015E+02  0.23265332116E+01  0.12908624658E+02  0.00000000000E+00 0.  1.
</event>
<event>
 7    1  0.1375918E-013  0.7246161E+02  0.7816164E-02  0.1226708E+00
        -11   -1    0    0    0    0  0.00000000000E+00  0.00000000000E+00  0.45593999997E+02  0.45594000000E+02  0.51100000000E-03 0. -1.
         11   -1    0    0    0    0 -0.00000000000E+00 -0.00000000000E+00 -0.45593999997E+02  0.45594000000E+02  0.51100000000E-03 0.  1.
    9900012    2    1    2    0    0 -0.13631057789E+02  0.43693021242E+01 -0.12073988950E+02  0.72461608285E+02  0.70000049490E+02 0.  0.
         12    1    1    2    0    0  0.13631057789E+02 -0.43693021242E+01  0.12073988950E+02  0.18726391715E+02  0.00000000000E+00 0. -1.
         11    1    3    3    0    0 -0.89509188078E+01  0.34645900477E+02 -0.12743140757E+02  0.37984799644E+02  0.51100000000E-03 0. -1.
        -11    1    3    3    0    0 -0.73407108174E+01 -0.46150485407E+01  0.23057585911E+00  0.86739768172E+01  0.51100000000E-03 0.  1.
         12    1    3    3    0    0  0.26605718364E+01 -0.25661549812E+02  0.43857594777E+00  0.25802831824E+02  0.00000000000E+00 0. -1.
</event>
<event>
 7    1  0.1375918E-013  0.7246158E+02  0.7816164E-02  0.1226708E+00
        -11   -1    0    0    0    0  0.00000000000E+00  0.00000000000E+00  0.45593999997E+02  0.45594000000E+02  0.51100000000E-03 0.  1.
         11   -1    0    0    0    0 -0.00000000000E+00 -0.00000000000E+00 -0.45593999997E+02  0.45594000000E+02  0.51100000000E-03 0. -1.
    9900012    2    1    2    0    0  0.91678142428E+01 -0.13283963933E+02 -0.94955848320E+01  0.72461584244E+02  0.70000018172E+02 0.  0.
         12    1    1    2    0    0 -0.91678142428E+01  0.13283963933E+02  0.94955848320E+01  0.18726415756E+02  0.00000000000E+00 0. -1.
         11    1    3    3    0    0  0.58391030852E+01  0.12602023145E+01  0.20761959643E+02  0.21604217255E+02  0.51100000000E-03 0.  1.
        -11    1    3    3    0    0 -0.76432580294E+01  0.97751025458E+01 -0.17050289450E+02  0.21087541196E+02  0.51100000000E-03 0. -1.
         12    1    3    3    0    0  0.10971969187E+02 -0.24319268794E+02 -0.13207255025E+02  0.29769825794E+02  0.00000000000E+00 0. -1.
</event>
<event>
 7    1  0.1375918E-013  0.7246160E+02  0.7816164E-02  0.1226708E+00
        -11   -1    0    0    0    0  0.00000000000E+00  0.00000000000E+00  0.45593999997E+02  0.45594000000E+02  0.51100000000E-03 0.  1.
         11   -1    0    0    0    0 -0.00000000000E+00 -0.00000000000E+00 -0.45593999997E+02  0.45594000000E+02  0.51100000000E-03 0. -1.
    9900012    2    1    2    0    0 -0.18420835148E+02  0.12040165412E+01  0.31466398587E+01  0.72461597094E+02  0.70000034912E+02 0.  0.
         12    1    1    2    0    0  0.18420835148E+02 -0.12040165412E+01 -0.31466398587E+01  0.18726402906E+02  0.00000000000E+00 0. -1.
         11    1    3    3    0    0  0.15847475408E+02  0.21438476708E+02  0.63085496485E+01  0.27396141321E+02  0.51100000000E-03 0. -1.
        -11    1    3    3    0    0 -0.28858290825E+02 -0.56602613691E+01 -0.21496706590E+01  0.29486617173E+02  0.51100000000E-03 0.  1.
         12    1    3    3    0    0 -0.54100197305E+01 -0.14574198797E+02 -0.10122391308E+01  0.15578838600E+02  0.00000000000E+00 0. -1.
</event>
<event>
 7    1  0.1375918E-013  0.7246171E+02  0.7816164E-02  0.1226708E+00
        -11   -1    0    0    0    0  0.00000000000E+00  0.00000000000E+00  0.45593999997E+02  0.45594000000E+02  0.51100000000E-03 0.  1.
         11   -1    0    0    0    0 -0.00000000000E+00 -0.00000000000E+00 -0.45593999997E+02  0.45594000000E+02  0.51100000000E-03 0. -1.
    9900012    2    1    2    0    0 -0.57019094409E+01 -0.17834718748E+02 -0.29143065329E+00  0.72461711101E+02  0.70000183426E+02 0.  0.
         12    1    1    2    0    0  0.57019094409E+01  0.17834718748E+02  0.29143065329E+00  0.18726288899E+02  0.00000000000E+00 0. -1.
         11    1    3    3    0    0  0.67925369454E+01 -0.31888240988E+02 -0.13058520313E+02  0.35121552137E+02  0.51100000000E-03 0. -1.
        -11    1    3    3    0    0  0.49700100244E+01  0.16672383197E+02  0.71405933905E+01  0.18805781966E+02  0.51100000000E-03 0.  1.
         12    1    3    3    0    0 -0.17464456411E+02 -0.26188609574E+01  0.56264962688E+01  0.18534376998E+02  0.00000000000E+00 0. -1.
</event>
<event>
 7    1  0.1375918E-013  0.7246207E+02  0.7816164E-02  0.1226707E+00
        -11   -1    0    0    0    0  0.00000000000E+00  0.00000000000E+00  0.45593999997E+02  0.45594000000E+02  0.51100000000E-03 0.  1.
         11   -1    0    0    0    0 -0.00000000000E+00 -0.00000000000E+00 -0.45593999997E+02  0.45594000000E+02  0.51100000000E-03 0. -1.
    9900012    2    1    2    0    0  0.75973184976E+01 -0.95436700994E+01  0.14207724747E+02  0.72462073326E+02  0.70000655289E+02 0.  0.
         12    1    1    2    0    0 -0.75973184976E+01  0.95436700994E+01 -0.14207724747E+02  0.18725926674E+02  0.00000000000E+00 0. -1.
         11    1    3    3    0    0 -0.15715980232E+02 -0.24842203446E+02  0.78847954598E+01  0.30435129479E+02  0.51100000000E-03 0. -1.
        -11    1    3    3    0    0  0.29907011972E+02  0.67338560890E+01  0.58420075372E+01  0.31207422759E+02  0.51100000000E-03 0.  1.
         12    1    3    3    0    0 -0.65937132429E+01  0.85646772571E+01  0.48092175034E+00  0.10819521088E+02  0.00000000000E+00 0. -1.
</event>
<event>
 7    1  0.1375918E-013  0.7246159E+02  0.7816164E-02  0.1226708E+00
        -11   -1    0    0    0    0  0.00000000000E+00  0.00000000000E+00  0.45593999997E+02  0.45594000000E+02  0.51100000000E-03 0.  1.
         11   -1    0    0    0    0 -0.00000000000E+00 -0.00000000000E+00 -0.45593999997E+02  0.45594000000E+02  0.51100000000E-03 0. -1.
    9900012    2    1    2    0    0  0.17074005576E+02 -0.52700698892E+01 -0.56020766617E+01  0.72461586409E+02  0.70000020992E+02 0.  0.
         12    1    1    2    0    0 -0.17074005576E+02  0.52700698892E+01  0.56020766617E+01  0.18726413591E+02  0.00000000000E+00 0. -1.
         11    1    3    3    0    0 -0.10760606134E+02 -0.55282146399E+01 -0.76502436064E+01  0.14313561017E+02  0.51100000000E-03 0. -1.
        -11    1    3    3    0    0  0.34511523427E+02  0.62179842665E+01  0.18329701647E+02  0.39568757124E+02  0.51100000000E-03 0.  1.
        -12    1    3    3    0    0 -0.66769117168E+01 -0.59598395159E+01 -0.16281534702E+02  0.18579268268E+02  0.00000000000E+00 0.  1.
</event>
<event>
 7    1  0.1375918E-013  0.7246166E+02  0.7816164E-02  0.1226708E+00
        -11   -1    0    0    0    0  0.00000000000E+00  0.00000000000E+00  0.45593999997E+02  0.45594000000E+02  0.51100000000E-03 0.  1.
         11   -1    0    0    0    0 -0.00000000000E+00 -0.00000000000E+00 -0.45593999997E+02  0.45594000000E+02  0.51100000000E-03 0. -1.
    9900012    2    1    2    0    0 -0.15659754972E+02  0.10268421624E+02 -0.85250522334E-01  0.72461663570E+02  0.70000121509E+02 0.  0.
         12    1    1    2    0    0  0.15659754972E+02 -0.10268421624E+02  0.85250522334E-01  0.18726336430E+02  0.00000000000E+00 0. -1.
         11    1    3    3    0    0  0.22097288166E+01 -0.21750575537E+01 -0.18307075291E+02  0.18567788850E+02  0.51100000000E-03 0. -1.
        -11    1    3    3    0    0  0.13110606265E+02  0.33431984997E+01  0.16803581591E+02  0.21573718441E+02  0.51100000000E-03 0.  1.
        -12    1    3    3    0    0 -0.30980090054E+02  0.91002806779E+01  0.14182431781E+01  0.32320156279E+02  0.00000000000E+00 0.  1.
</event>
<event>
 7    1  0.1375918E-013  0.7246162E+02  0.7816164E-02  0.1226708E+00
        -11   -1    0    0    0    0  0.00000000000E+00  0.00000000000E+00  0.45593999997E+02  0.45594000000E+02  0.51100000000E-03 0.  1.
         11   -1    0    0    0    0 -0.00000000000E+00 -0.00000000000E+00 -0.45593999997E+02  0.45594000000E+02  0.51100000000E-03 0. -1.
    9900012    2    1    2    0    0  0.93121114882E+00 -0.18488240136E+02 -0.28275414683E+01  0.72461623728E+02  0.70000069607E+02 0.  0.
         12    1    1    2    0    0 -0.93121114882E+00  0.18488240136E+02  0.28275414683E+01  0.18726376272E+02  0.00000000000E+00 0. -1.
         11    1    3    3    0    0 -0.16976418009E+02  0.59389000351E+01 -0.49010372544E+01  0.18641069402E+02  0.51100000000E-03 0. -1.
        -11    1    3    3    0    0  0.16528094131E+02  0.14626347544E+00  0.18052474291E+02  0.24476337898E+02  0.51100000000E-03 0.  1.
         12    1    3    3    0    0  0.13795350265E+01 -0.24573403647E+02 -0.15978978505E+02  0.29344216427E+02  0.00000000000E+00 0. -1.
</event>
<event>
 7    1  0.1375918E-013  0.7246159E+02  0.7816164E-02  0.1226708E+00
        -11   -1    0    0    0    0  0.00000000000E+00  0.00000000000E+00  0.45593999997E+02  0.45594000000E+02  0.51100000000E-03 0.  1.
         11   -1    0    0    0    0 -0.00000000000E+00 -0.00000000000E+00 -0.45593999997E+02  0.45594000000E+02  0.51100000000E-03 0. -1.
    9900012    2    1    2    0    0 -0.78594850019E+01  0.16979676872E+02 -0.77307164645E+00  0.72461586277E+02  0.70000020820E+02 0.  0.
         12    1    1    2    0    0  0.78594850019E+01 -0.16979676872E+02  0.77307164645E+00  0.18726413723E+02  0.00000000000E+00 0. -1.
         11    1    3    3    0    0  0.13893605373E+02  0.10192951728E+02 -0.17298112039E+02  0.24416249006E+02  0.51100000000E-03 0. -1.
        -11    1    3    3    0    0 -0.10730541940E+02  0.10565271558E+02  0.27936045179E+02  0.31736290172E+02  0.51100000000E-03 0.  1.
        -12    1    3    3    0    0 -0.11022548435E+02 -0.37785464142E+01 -0.11411004786E+02  0.16309047098E+02  0.00000000000E+00 0.  1.
</event>
<event>
 7    1  0.1375918E-013  0.7246164E+02  0.7816164E-02  0.1226708E+00
        -11   -1    0    0    0    0  0.00000000000E+00  0.00000000000E+00  0.45593999997E+02  0.45594000000E+02  0.51100000000E-03 0.  1.
         11   -1    0    0    0    0 -0.00000000000E+00 -0.00000000000E+00 -0.45593999997E+02  0.45594000000E+02  0.51100000000E-03 0. -1.
    9900012    2    1    2    0    0 -0.77181653262E+01 -0.15899212049E+02 -0.61904423713E+01  0.72461638994E+02  0.70000089494E+02 0.  0.
         12    1    1    2    0    0  0.77181653262E+01  0.15899212049E+02  0.61904423713E+01  0.18726361006E+02  0.00000000000E+00 0. -1.
         11    1    3    3    0    0 -0.21424165395E+01  0.75076686435E+01 -0.30655720042E+01  0.83876557549E+01  0.51100000000E-03 0. -1.
        -11    1    3    3    0    0 -0.19146964562E+02 -0.36541503021E+02 -0.12339108228E+02  0.43059740909E+02  0.51100000000E-03 0.  1.
        -12    1    3    3    0    0  0.13571215776E+02  0.13134622329E+02  0.92142378612E+01  0.21014242330E+02  0.00000000000E+00 0.  1.
</event>
<event>
 7    1  0.1375918E-013  0.7246155E+02  0.7816164E-02  0.1226708E+00
        -11   -1    0    0    0    0  0.00000000000E+00  0.00000000000E+00  0.45593999997E+02  0.45594000000E+02  0.51100000000E-03 0. -1.
         11   -1    0    0    0    0 -0.00000000000E+00 -0.00000000000E+00 -0.45593999997E+02  0.45594000000E+02  0.51100000000E-03 0.  1.
    9900012    2    1    2    0    0  0.12549626566E+02 -0.58977089056E+01 -0.12585859190E+02  0.72461549487E+02  0.69999972894E+02 0.  0.
         12    1    1    2    0    0 -0.12549626566E+02  0.58977089056E+01  0.12585859190E+02  0.18726450513E+02  0.00000000000E+00 0. -1.
         11    1    3    3    0    0  0.18350492735E+02  0.86879963435E+01 -0.40066767448E+01  0.20694813912E+02  0.51100000000E-03 0. -1.
        -11    1    3    3    0    0 -0.92237997668E+01  0.13371002394E+02 -0.15831483960E+02  0.22682549941E+02  0.51100000000E-03 0.  1.
         12    1    3    3    0    0  0.34229335976E+01 -0.27956707644E+02  0.72523015148E+01  0.29084185633E+02  0.00000000000E+00 0. -1.
</event>
<event>
 7    1  0.1375918E-013  0.7246164E+02  0.7816164E-02  0.1226708E+00
        -11   -1    0    0    0    0  0.00000000000E+00  0.00000000000E+00  0.45593999997E+02  0.45594000000E+02  0.51100000000E-03 0. -1.
         11   -1    0    0    0    0 -0.00000000000E+00 -0.00000000000E+00 -0.45593999997E+02  0.45594000000E+02  0.51100000000E-03 0.  1.
    9900012    2    1    2    0    0  0.38184197955E+01  0.62034118042E+01 -0.17251494613E+02  0.72461635854E+02  0.70000085403E+02 0.  0.
         12    1    1    2    0    0 -0.38184197955E+01 -0.62034118042E+01  0.17251494613E+02  0.18726364146E+02  0.00000000000E+00 0. -1.
         11    1    3    3    0    0 -0.14536941951E+02  0.17102005614E+02  0.11713615906E+02  0.25318176774E+02  0.51100000000E-03 0. -1.
        -11    1    3    3    0    0  0.24309352526E+02 -0.39394256028E+01 -0.10985572473E+02  0.26965654028E+02  0.51100000000E-03 0.  1.
        -12    1    3    3    0    0 -0.59539907802E+01 -0.69591682073E+01 -0.17979538047E+02  0.20177805052E+02  0.00000000000E+00 0.  1.
</event>
<event>
 7    1  0.1375918E-013  0.7246174E+02  0.7816164E-02  0.1226708E+00
        -11   -1    0    0    0    0  0.00000000000E+00  0.00000000000E+00  0.45593999997E+02  0.45594000000E+02  0.51100000000E-03 0.  1.
         11   -1    0    0    0    0 -0.00000000000E+00 -0.00000000000E+00 -0.45593999997E+02  0.45594000000E+02  0.51100000000E-03 0. -1.
    9900012    2    1    2    0    0  0.54506180024E+01 -0.32045498332E+01  0.17626526716E+02  0.72461739821E+02  0.70000220839E+02 0.  0.
         12    1    1    2    0    0 -0.54506180024E+01  0.32045498332E+01 -0.17626526716E+02  0.18726260179E+02  0.00000000000E+00 0. -1.
         11    1    3    3    0    0 -0.11287377572E+02 -0.13744802516E+02 -0.20636312230E+02  0.27243015093E+02  0.51100000000E-03 0. -1.
        -11    1    3    3    0    0  0.10036408910E+02  0.63868424143E+01  0.90132283545E+01  0.14925131338E+02  0.51100000000E-03 0.  1.
         12    1    3    3    0    0  0.67015866647E+01  0.41534102682E+01  0.29249610591E+02  0.30293593389E+02  0.00000000000E+00 0. -1.
</event>
<event>
 8    1  0.1375918E-013  0.7246157E+02  0.7816164E-02  0.1226708E+00
        -11   -1    0    0    0    0  0.00000000000E+00  0.00000000000E+00  0.45593999997E+02  0.45594000000E+02  0.51100000000E-03 0. -1.
         11   -1    0    0    0    0 -0.00000000000E+00 -0.00000000000E+00 -0.45593999997E+02  0.45594000000E+02  0.51100000000E-03 0.  1.
    9900012    2    1    2    0    0 -0.96639944513E+01 -0.89545629844E+01 -0.13307969804E+02  0.72461573558E+02  0.70000004251E+02 0.  0.
         24    2    3    3    0    0 -0.31503717400E+01  0.14402800812E+01 -0.12064307579E+00  0.54450864808E+02  0.54340434989E+02 0.  0.
         12    1    1    2    0    0  0.96639944513E+01  0.89545629844E+01  0.13307969804E+02  0.18726426442E+02  0.00000000000E+00 0. -1.
         11    1    3    3    0    0 -0.65136227113E+01 -0.10394843066E+02 -0.13187326728E+02  0.18010708750E+02  0.51100000000E-03 0. -1.
        -11    1    4    4    0    0  0.16152243363E+02  0.17533332144E+02  0.11841121997E+02  0.26618130516E+02  0.51100000000E-03 0.  1.
         12    1    4    4    0    0 -0.19302615103E+02 -0.16093052063E+02 -0.11961765072E+02  0.27832734292E+02  0.00000000000E+00 0. -1.
</event>
<event>
 8    1  0.1375918E-013  0.7246157E+02  0.7816164E-02  0.1226708E+00
        -11   -1    0    0    0    0  0.00000000000E+00  0.00000000000E+00  0.45593999997E+02  0.45594000000E+02  0.51100000000E-03 0.  1.
         11   -1    0    0    0    0 -0.00000000000E+00 -0.00000000000E+00 -0.45593999997E+02  0.45594000000E+02  0.51100000000E-03 0. -1.
    9900012    2    1    2    0    0 -0.11704968093E+02 -0.13916682080E+02  0.44719882364E+01  0.72461574901E+02  0.70000006002E+02 0.  0.
         24    2    3    3    0    0 -0.47018724840E+01 -0.26737256238E+02  0.65453585607E+01  0.57706598297E+02  0.50499715764E+02 0.  0.
         12    1    1    2    0    0  0.11704968093E+02  0.13916682080E+02 -0.44719882364E+01  0.18726425099E+02  0.00000000000E+00 0. -1.
         11    1    3    3    0    0 -0.70030956091E+01  0.12820574158E+02 -0.20733703244E+01  0.14754976605E+02  0.51100000000E-03 0. -1.
        -11    1    4    4    0    0  0.17438457628E+02 -0.30181575396E+02  0.25880785991E+01  0.34953189395E+02  0.51100000000E-03 0.  1.
         12    1    4    4    0    0 -0.22140330112E+02  0.34443191574E+01  0.39572799617E+01  0.22753408901E+02  0.00000000000E+00 0. -1.
</event>
<event>
 7    1  0.1375918E-013  0.7246149E+02  0.7816164E-02  0.1226708E+00
        -11   -1    0    0    0    0  0.00000000000E+00  0.00000000000E+00  0.45593999997E+02  0.45594000000E+02  0.51100000000E-03 0.  1.
         11   -1    0    0    0    0 -0.00000000000E+00 -0.00000000000E+00 -0.45593999997E+02  0.45594000000E+02  0.51100000000E-03 0. -1.
    9900012    2    1    2    0    0  0.18391527513E+02 -0.26380339751E+01 -0.23397626482E+01  0.72461494806E+02  0.69999901662E+02 0.  0.
         12    1    1    2    0    0 -0.18391527513E+02  0.26380339751E+01  0.23397626482E+01  0.18726505194E+02  0.00000000000E+00 0. -1.
         11    1    3    3    0    0 -0.96612681982E+01  0.10436144106E+01 -0.17489131342E+02  0.20007472344E+02  0.51100000000E-03 0. -1.
        -11    1    3    3    0    0 -0.77726666011E+00 -0.25617797449E+01  0.22517632869E+02  0.22676213290E+02  0.51100000000E-03 0.  1.
        -12    1    3    3    0    0  0.28830062372E+02 -0.11198686408E+01 -0.73682641752E+01  0.29777809172E+02  0.00000000000E+00 0.  1.
</event>
<event>
 7    1  0.1375918E-013  0.7246151E+02  0.7816164E-02  0.1226708E+00
        -11   -1    0    0    0    0  0.00000000000E+00  0.00000000000E+00  0.45593999997E+02  0.45594000000E+02  0.51100000000E-03 0. -1.
         11   -1    0    0    0    0 -0.00000000000E+00 -0.00000000000E+00 -0.45593999997E+02  0.45594000000E+02  0.51100000000E-03 0.  1.
    9900012    2    1    2    0    0 -0.14072252693E+02  0.11545995497E+02 -0.43980812123E+01  0.72461510040E+02  0.69999921507E+02 0.  0.
         12    1    1    2    0    0  0.14072252693E+02 -0.11545995497E+02  0.43980812123E+01  0.18726489960E+02  0.00000000000E+00 0. -1.
         11    1    3    3    0    0  0.12903336494E+02  0.25614390687E+02  0.52462758162E+01  0.29156757590E+02  0.51100000000E-03 0.  1.
        -11    1    3    3    0    0 -0.22663655903E+02 -0.42379518113E+01 -0.18363140867E+02  0.29475523357E+02  0.51100000000E-03 0. -1.
         12    1    3    3    0    0 -0.43119332842E+01 -0.98304433790E+01  0.87187838381E+01  0.13829229092E+02  0.00000000000E+00 0. -1.
</event>
<event>
 7    1  0.1375918E-013  0.7246167E+02  0.7816164E-02  0.1226708E+00
        -11   -1    0    0    0    0  0.00000000000E+00  0.00000000000E+00  0.45593999997E+02  0.45594000000E+02  0.51100000000E-03 0.  1.
         11   -1    0    0    0    0 -0.00000000000E+00 -0.00000000000E+00 -0.45593999997E+02  0.45594000000E+02  0.51100000000E-03 0. -1.
    9900012    2    1    2    0    0 -0.39274189320E+01  0.50642738584E+01  0.17595568983E+02  0.72461667284E+02  0.70000126346E+02 0.  0.
         12    1    1    2    0    0  0.39274189320E+01 -0.50642738584E+01 -0.17595568983E+02  0.18726332716E+02  0.00000000000E+00 0. -1.
         11    1    3    3    0    0 -0.11404880773E+02 -0.64595718464E+01 -0.21005849432E+02  0.24759706874E+02  0.51100000000E-03 0. -1.
        -11    1    3    3    0    0  0.14595679158E+02  0.98457880594E+01  0.15453190648E+02  0.23425936354E+02  0.51100000000E-03 0.  1.
         12    1    3    3    0    0 -0.71182173168E+01  0.16780576453E+01  0.23148227766E+02  0.24276024055E+02  0.00000000000E+00 0. -1.
</event>
<event>
 7    1  0.1375918E-013  0.7246163E+02  0.7816164E-02  0.1226708E+00
        -11   -1    0    0    0    0  0.00000000000E+00  0.00000000000E+00  0.45593999997E+02  0.45594000000E+02  0.51100000000E-03 0. -1.
         11   -1    0    0    0    0 -0.00000000000E+00 -0.00000000000E+00 -0.45593999997E+02  0.45594000000E+02  0.51100000000E-03 0.  1.
    9900012    2    1    2    0    0 -0.15107523947E+02 -0.28292249097E+00 -0.11061623326E+02  0.72461632612E+02  0.70000081180E+02 0.  0.
         12    1    1    2    0    0  0.15107523947E+02  0.28292249097E+00  0.11061623326E+02  0.18726367388E+02  0.00000000000E+00 0. -1.
         11    1    3    3    0    0 -0.76483411657E+01  0.63260803080E+00  0.19255879632E+02  0.20728873972E+02  0.51100000000E-03 0. -1.
        -11    1    3    3    0    0  0.92195107755E+01  0.10712057651E+02 -0.27877099215E+02  0.31255083090E+02  0.51100000000E-03 0.  1.
        -12    1    3    3    0    0 -0.16678693557E+02 -0.11627588173E+02 -0.24404037433E+01  0.20477675550E+02  0.00000000000E+00 0.  1.
</event>
<event>
 7    1  0.1375918E-013  0.7246153E+02  0.7816164E-02  0.1226708E+00
        -11   -1    0    0    0    0  0.00000000000E+00  0.00000000000E+00  0.45593999997E+02  0.45594000000E+02  0.51100000000E-03 0.  1.
         11   -1    0    0    0    0 -0.00000000000E+00 -0.00000000000E+00 -0.45593999997E+02  0.45594000000E+02  0.51100000000E-03 0. -1.
    9900012    2    1    2    0    0 -0.18190514264E+02 -0.13159640837E+01 -0.42490284938E+01  0.72461526392E+02  0.69999942809E+02 0.  0.
         12    1    1    2    0    0  0.18190514264E+02  0.13159640837E+01  0.42490284938E+01  0.18726473608E+02  0.00000000000E+00 0. -1.
         11    1    3    3    0    0  0.10315730741E+01 -0.14180194620E+02 -0.17951800623E+02  0.22899982715E+02  0.51100000000E-03 0. -1.
        -11    1    3    3    0    0 -0.24036306778E+02  0.34160087586E+01  0.24455334918E+02  0.34459781856E+02  0.51100000000E-03 0.  1.
         12    1    3    3    0    0  0.48142194404E+01  0.94482217779E+01 -0.10752562788E+02  0.15101761821E+02  0.00000000000E+00 0. -1.
</event>
<event>
 8    1  0.1375918E-013  0.7246156E+02  0.7816164E-02  0.1226708E+00
        -11   -1    0    0    0    0  0.00000000000E+00  0.00000000000E+00  0.45593999997E+02  0.45594000000E+02  0.51100000000E-03 0. -1.
         11   -1    0    0    0    0 -0.00000000000E+00 -0.00000000000E+00 -0.45593999997E+02  0.45594000000E+02  0.51100000000E-03 0.  1.
    9900012    2    1    2    0    0 -0.35696149882E-01  0.75584714052E+01 -0.17133238517E+02  0.72461558099E+02  0.69999984113E+02 0.  0.
        -24    2    3    3    0    0  0.12507944336E+02 -0.18085867332E+01 -0.55740685479E+01  0.53001365257E+02  0.51169862433E+02 0.  0.
         12    1    1    2    0    0  0.35696149882E-01 -0.75584714052E+01  0.17133238517E+02  0.18726441901E+02  0.00000000000E+00 0. -1.
         11    1    4    4    0    0  0.15670319169E+02 -0.11105062667E+02  0.18706253840E+02  0.26810543685E+02  0.51100000000E-03 0. -1.
        -11    1    3    3    0    0 -0.12543640486E+02  0.93670581385E+01 -0.11559169969E+02  0.19460192842E+02  0.51100000000E-03 0.  1.
        -12    1    4    4    0    0 -0.31623748323E+01  0.92964759340E+01 -0.24280322388E+02  0.26190821572E+02  0.00000000000E+00 0.  1.
</event>
<event>
 7    1  0.1375918E-013  0.7246159E+02  0.7816164E-02  0.1226708E+00
        -11   -1    0    0    0    0  0.00000000000E+00  0.00000000000E+00  0.45593999997E+02  0.45594000000E+02  0.51100000000E-03 0. -1.
         11   -1    0    0    0    0 -0.00000000000E+00 -0.00000000000E+00 -0.45593999997E+02  0.45594000000E+02  0.51100000000E-03 0.  1.
    9900012    2    1    2    0    0  0.14929148999E+02  0.35364295918E+01 -0.10737434546E+02  0.72461592850E+02  0.70000029383E+02 0.  0.
         12    1    1    2    0    0 -0.14929148999E+02 -0.35364295918E+01  0.10737434546E+02  0.18726407150E+02  0.00000000000E+00 0. -1.
         11    1    3    3    0    0  0.61490963755E+01  0.48804380793E+01 -0.84520718605E+01  0.11535492234E+02  0.51100000000E-03 0.  1.
        -11    1    3    3    0    0  0.96019475179E+01  0.18040772030E+02  0.21877125321E+02  0.29937860046E+02  0.51100000000E-03 0. -1.
        -12    1    3    3    0    0 -0.82189489391E+00 -0.19384780518E+02 -0.24162488007E+02  0.30988240570E+02  0.00000000000E+00 0.  1.
</event>
<event>
 7    1  0.1375918E-013  0.7246159E+02  0.7816164E-02  0.1226708E+00
        -11   -1    0    0    0    0  0.00000000000E+00  0.00000000000E+00  0.45593999997E+02  0.45594000000E+02  0.51100000000E-03 0. -1.
         11   -1    0    0    0    0 -0.00000000000E+00 -0.00000000000E+00 -0.45593999997E+02  0.45594000000E+02  0.51100000000E-03 0.  1.
    9900012    2    1    2    0    0 -0.14598321519E+02  0.60096637948E+01 -0.10072316069E+02  0.72461585471E+02  0.70000019771E+02 0.  0.
         12    1    1    2    0    0  0.14598321519E+02 -0.60096637948E+01  0.10072316069E+02  0.18726414529E+02  0.00000000000E+00 0. -1.
         11    1    3    3    0    0  0.66283404802E+01 -0.23252217136E+02 -0.79087796657E+01  0.25439129218E+02  0.51100000000E-03 0.  1.
        -11    1    3    3    0    0 -0.13627218600E+02  0.26455985526E+02 -0.13832626421E+02  0.32817096320E+02  0.51100000000E-03 0. -1.
         12    1    3    3    0    0 -0.75994433999E+01  0.28058954055E+01  0.11669090018E+02  0.14205359934E+02  0.00000000000E+00 0. -1.
</event>
<event>
 7    1  0.1375918E-013  0.7246158E+02  0.7816164E-02  0.1226708E+00
        -11   -1    0    0    0    0  0.00000000000E+00  0.00000000000E+00  0.45593999997E+02  0.45594000000E+02  0.51100000000E-03 0. -1.
         11   -1    0    0    0    0 -0.00000000000E+00 -0.00000000000E+00 -0.45593999997E+02  0.45594000000E+02  0.51100000000E-03 0.  1.
    9900012    2    1    2    0    0 -0.43906119888E+01  0.11518723116E+02 -0.14096820771E+02  0.72461579848E+02  0.70000012446E+02 0.  0.
         12    1    1    2    0    0  0.43906119888E+01 -0.11518723116E+02  0.14096820771E+02  0.18726420152E+02  0.00000000000E+00 0. -1.
         11    1    3    3    0    0  0.82215942654E+00  0.19837532885E+02  0.18467086198E+02  0.27115252718E+02  0.51100000000E-03 0. -1.
        -11    1    3    3    0    0 -0.95301961774E+01 -0.18145286310E+02 -0.24370350600E+02  0.31843210314E+02  0.51100000000E-03 0.  1.
        -12    1    3    3    0    0  0.43174247620E+01  0.98264765412E+01 -0.81935563691E+01  0.13503116817E+02  0.00000000000E+00 0.  1.
</event>
<event>
 7    1  0.1375918E-013  0.7246160E+02  0.7816164E-02  0.1226708E+00
        -11   -1    0    0    0    0  0.00000000000E+00  0.00000000000E+00  0.45593999997E+02  0.45594000000E+02  0.51100000000E-03 0. -1.
         11   -1    0    0    0    0 -0.00000000000E+00 -0.00000000000E+00 -0.45593999997E+02  0.45594000000E+02  0.51100000000E-03 0.  1.
    9900012    2    1    2    0    0 -0.15172930942E+02 -0.10390022779E+02 -0.35366390986E+01  0.72461595571E+02  0.70000032928E+02 0.  0.
         12    1    1    2    0    0  0.15172930942E+02  0.10390022779E+02  0.35366390986E+01  0.18726404429E+02  0.00000000000E+00 0. -1.
         11    1    3    3    0    0 -0.49874060896E+01  0.90317092223E+01 -0.34024758714E+01  0.10863831428E+02  0.51100000000E-03 0. -1.
        -11    1    3    3    0    0 -0.14675885764E+02 -0.35598831692E+02 -0.12789226044E+02  0.40573670574E+02  0.51100000000E-03 0.  1.
        -12    1    3    3    0    0  0.44903609115E+01  0.16177099691E+02  0.12655062816E+02  0.21024093569E+02  0.00000000000E+00 0.  1.
</event>
<event>
 7    1  0.1375918E-013  0.7246157E+02  0.7816164E-02  0.1226708E+00
        -11   -1    0    0    0    0  0.00000000000E+00  0.00000000000E+00  0.45593999997E+02  0.45594000000E+02  0.51100000000E-03 0. -1.
         11   -1    0    0    0    0 -0.00000000000E+00 -0.00000000000E+00 -0.45593999997E+02  0.45594000000E+02  0.51100000000E-03 0.  1.
    9900012    2    1    2    0    0 -0.15337826533E+01 -0.12251919904E+01 -0.18623252803E+02  0.72461571360E+02  0.70000001389E+02 0.  0.
         12    1    1    2    0    0  0.15337826533E+01  0.12251919904E+01  0.18623252803E+02  0.18726428640E+02  0.00000000000E+00 0. -1.
         11    1    3    3    0    0  0.45417663190E+01  0.11611880517E+02  0.49122239987E+01  0.13401244544E+02  0.51100000000E-03 0. -1.
        -11    1    3    3    0    0  0.33674248858E+01 -0.21201491948E+02 -0.35621584756E+02  0.41590144409E+02  0.51100000000E-03 0.  1.
        -12    1    3    3    0    0 -0.94429738581E+01  0.83644194408E+01  0.12086107954E+02  0.17470182408E+02  0.00000000000E+00 0.  1.
</event>
<event>
 7    1  0.1375918E-013  0.7246123E+02  0.7816164E-02  0.1226709E+00
        -11   -1    0    0    0    0  0.00000000000E+00  0.00000000000E+00  0.45593999997E+02  0.45594000000E+02  0.51100000000E-03 0.  1.
         11   -1    0    0    0    0 -0.00000000000E+00 -0.00000000000E+00 -0.45593999997E+02  0.45594000000E+02  0.51100000000E-03 0. -1.
    9900012    2    1    2    0    0 -0.10772690259E+02  0.13521927747E+02  0.71971243794E+01  0.72461228128E+02  0.69999554263E+02 0.  0.
         12    1    1    2    0    0  0.10772690259E+02 -0.13521927747E+02 -0.71971243794E+01  0.18726771872E+02  0.00000000000E+00 0. -1.
         11    1    3    3    0    0 -0.80413815395E+01  0.13727085911E+01 -0.50802139868E+01  0.96102403900E+01  0.51100000000E-03 0. -1.
        -11    1    3    3    0    0  0.27750633321E+02  0.13525421943E+02  0.33134665603E+01  0.31048570811E+02  0.51100000000E-03 0.  1.
        -12    1    3    3    0    0 -0.30481942041E+02 -0.13762027868E+01  0.89638718058E+01  0.31802416927E+02  0.00000000000E+00 0.  1.
</event>
<event>
 7    1  0.1375918E-013  0.7246165E+02  0.7816164E-02  0.1226708E+00
        -11   -1    0    0    0    0  0.00000000000E+00  0.00000000000E+00  0.45593999997E+02  0.45594000000E+02  0.51100000000E-03 0.  1.
         11   -1    0    0    0    0 -0.00000000000E+00 -0.00000000000E+00 -0.45593999997E+02  0.45594000000E+02  0.51100000000E-03 0. -1.
    9900012    2    1    2    0    0  0.10854995596E+02  0.67845196623E+01  0.13668047725E+02  0.72461650514E+02  0.70000104501E+02 0.  0.
         12    1    1    2    0    0 -0.10854995596E+02 -0.67845196623E+01 -0.13668047725E+02  0.18726349486E+02  0.00000000000E+00 0. -1.
         11    1    3    3    0    0  0.20221467069E+02 -0.82207133485E+01  0.16141694682E+02  0.27148520510E+02  0.51100000000E-03 0. -1.
        -11    1    3    3    0    0 -0.75421010661E+01  0.17127994591E+02 -0.20101222717E+02  0.27464716314E+02  0.51100000000E-03 0.  1.
        -12    1    3    3    0    0 -0.18243704064E+01 -0.21227615808E+01  0.17627575760E+02  0.17848413691E+02  0.00000000000E+00 0.  1.
</event>
<event>
 7    1  0.1375918E-013  0.7246161E+02  0.7816164E-02  0.1226708E+00
        -11   -1    0    0    0    0  0.00000000000E+00  0.00000000000E+00  0.45593999997E+02  0.45594000000E+02  0.51100000000E-03 0.  1.
         11   -1    0    0    0    0 -0.00000000000E+00 -0.00000000000E+00 -0.45593999997E+02  0.45594000000E+02  0.51100000000E-03 0. -1.
    9900012    2    1    2    0    0 -0.16424944674E+02  0.40141300909E+01 -0.80489498782E+01  0.72461611077E+02  0.70000053127E+02 0.  0.
         12    1    1    2    0    0  0.16424944674E+02 -0.40141300909E+01  0.80489498782E+01  0.18726388923E+02  0.00000000000E+00 0. -1.
         11    1    3    3    0    0  0.10657281155E+02 -0.13302952758E+01  0.15661329799E+02  0.18990117916E+02  0.51100000000E-03 0. -1.
        -11    1    3    3    0    0  0.73392181030E+00  0.99075854942E+01 -0.23245755844E+02  0.25279716307E+02  0.51100000000E-03 0.  1.
        -12    1    3    3    0    0 -0.27816147639E+02 -0.45631601276E+01 -0.46452383311E+00  0.28191776855E+02  0.00000000000E+00 0.  1.
</event>
<event>
 7    1  0.1375918E-013  0.7246144E+02  0.7816164E-02  0.1226708E+00
        -11   -1    0    0    0    0  0.00000000000E+00  0.00000000000E+00  0.45593999997E+02  0.45594000000E+02  0.51100000000E-03 0.  1.
         11   -1    0    0    0    0 -0.00000000000E+00 -0.00000000000E+00 -0.45593999997E+02  0.45594000000E+02  0.51100000000E-03 0. -1.
    9900012    2    1    2    0    0 -0.39970772775E+01  0.17204344901E+02  0.62223712656E+01  0.72461440935E+02  0.69999831485E+02 0.  0.
         12    1    1    2    0    0  0.39970772775E+01 -0.17204344901E+02 -0.62223712656E+01  0.18726559065E+02  0.00000000000E+00 0. -1.
         11    1    3    3    0    0 -0.18814443285E+02  0.15374334202E+01  0.24611295046E+02  0.31017137549E+02  0.51100000000E-03 0. -1.
        -11    1    3    3    0    0  0.22485145681E+01  0.22586166124E+02 -0.98057325383E+01  0.24725353563E+02  0.51100000000E-03 0.  1.
         12    1    3    3    0    0  0.12568851439E+02 -0.69192546423E+01 -0.85831912420E+01  0.16718949823E+02  0.00000000000E+00 0. -1.
</event>
<event>
 7    1  0.1375918E-013  0.7246156E+02  0.7816164E-02  0.1226708E+00
        -11   -1    0    0    0    0  0.00000000000E+00  0.00000000000E+00  0.45593999997E+02  0.45594000000E+02  0.51100000000E-03 0. -1.
         11   -1    0    0    0    0 -0.00000000000E+00 -0.00000000000E+00 -0.45593999997E+02  0.45594000000E+02  0.51100000000E-03 0.  1.
    9900012    2    1    2    0    0  0.62660545884E+01  0.13030997772E+02 -0.11899965345E+02  0.72461560983E+02  0.69999987870E+02 0.  0.
         12    1    1    2    0    0 -0.62660545884E+01 -0.13030997772E+02  0.11899965345E+02  0.18726439017E+02  0.00000000000E+00 0. -1.
         11    1    3    3    0    0 -0.79375376384E+00  0.25561257610E+02  0.16159508270E+02  0.30251242015E+02  0.51100000000E-03 0. -1.
        -11    1    3    3    0    0 -0.49046443667E+01 -0.96057132009E+01 -0.27878735761E+02  0.29892292825E+02  0.51100000000E-03 0.  1.
        -12    1    3    3    0    0  0.11964452719E+02 -0.29245466368E+01 -0.18073785392E+00  0.12318026143E+02  0.00000000000E+00 0.  1.
</event>
<event>
 7    1  0.1375918E-013  0.7246158E+02  0.7816164E-02  0.1226708E+00
        -11   -1    0    0    0    0  0.00000000000E+00  0.00000000000E+00  0.45593999997E+02  0.45594000000E+02  0.51100000000E-03 0. -1.
         11   -1    0    0    0    0 -0.00000000000E+00 -0.00000000000E+00 -0.45593999997E+02  0.45594000000E+02  0.51100000000E-03 0.  1.
    9900012    2    1    2    0    0 -0.48279196448E+01  0.17148430209E+02 -0.57707313170E+01  0.72461579982E+02  0.70000012620E+02 0.  0.
         12    1    1    2    0    0  0.48279196448E+01 -0.17148430209E+02  0.57707313170E+01  0.18726420018E+02  0.00000000000E+00 0. -1.
         11    1    3    3    0    0  0.19812580583E+02 -0.75278191197E+01  0.19249667929E+02  0.28631383580E+02  0.51100000000E-03 0. -1.
        -11    1    3    3    0    0 -0.37644919988E+01  0.13661565291E+01 -0.42068936970E+00  0.40267559496E+01  0.51100000000E-03 0.  1.
         12    1    3    3    0    0 -0.20876008229E+02  0.23310092800E+02 -0.24599709876E+02  0.39803440453E+02  0.00000000000E+00 0. -1.
</event>
<event>
 7    1  0.1375918E-013  0.7246160E+02  0.7816164E-02  0.1226708E+00
        -11   -1    0    0    0    0  0.00000000000E+00  0.00000000000E+00  0.45593999997E+02  0.45594000000E+02  0.51100000000E-03 0. -1.
         11   -1    0    0    0    0 -0.00000000000E+00 -0.00000000000E+00 -0.45593999997E+02  0.45594000000E+02  0.51100000000E-03 0.  1.
    9900012    2    1    2    0    0 -0.16269788306E+02  0.59214667241E+01  0.71350070272E+01  0.72461598718E+02  0.70000037028E+02 0.  0.
         12    1    1    2    0    0  0.16269788306E+02 -0.59214667241E+01 -0.71350070272E+01  0.18726401282E+02  0.00000000000E+00 0. -1.
         11    1    3    3    0    0 -0.32435438493E+01  0.88454572678E+01 -0.21640750211E+02  0.23602643092E+02  0.51100000000E-03 0. -1.
        -11    1    3    3    0    0 -0.25267713547E+02 -0.35401806449E+01  0.12301461198E+02  0.28325186227E+02  0.51100000000E-03 0.  1.
         12    1    3    3    0    0  0.12241469091E+02  0.61619010123E+00  0.16474296040E+02  0.20533769400E+02  0.00000000000E+00 0. -1.
</event>
<event>
 7    1  0.1375918E-013  0.7246159E+02  0.7816164E-02  0.1226708E+00
        -11   -1    0    0    0    0  0.00000000000E+00  0.00000000000E+00  0.45593999997E+02  0.45594000000E+02  0.51100000000E-03 0. -1.
         11   -1    0    0    0    0 -0.00000000000E+00 -0.00000000000E+00 -0.45593999997E+02  0.45594000000E+02  0.51100000000E-03 0.  1.
    9900012    2    1    2    0    0  0.12469948118E+02 -0.11917149332E+02 -0.72911145304E+01  0.72461590697E+02  0.70000026579E+02 0.  0.
         12    1    1    2    0    0 -0.12469948118E+02  0.11917149332E+02  0.72911145304E+01  0.18726409303E+02  0.00000000000E+00 0. -1.
         11    1    3    3    0    0  0.27011174203E+02 -0.12557615404E+02 -0.25636110394E+02  0.39300221283E+02  0.51100000000E-03 0. -1.
        -11    1    3    3    0    0 -0.82372049305E+01  0.11004884946E+02  0.38809367944E+01  0.14283581778E+02  0.51100000000E-03 0.  1.
         12    1    3    3    0    0 -0.63040211545E+01 -0.10364418874E+02  0.14464059069E+02  0.18877787637E+02  0.00000000000E+00 0. -1.
</event>
<event>
 7    1  0.1375918E-013  0.7246155E+02  0.7816164E-02  0.1226708E+00
        -11   -1    0    0    0    0  0.00000000000E+00  0.00000000000E+00  0.45593999997E+02  0.45594000000E+02  0.51100000000E-03 0.  1.
         11   -1    0    0    0    0 -0.00000000000E+00 -0.00000000000E+00 -0.45593999997E+02  0.45594000000E+02  0.51100000000E-03 0. -1.
    9900012    2    1    2    0    0 -0.12820934178E+02  0.12594455344E+02 -0.52614972248E+01  0.72461547809E+02  0.69999970709E+02 0.  0.
         12    1    1    2    0    0  0.12820934178E+02 -0.12594455344E+02  0.52614972248E+01  0.18726452191E+02  0.00000000000E+00 0. -1.
         11    1    3    3    0    0  0.16279107861E+02  0.55194336934E+01 -0.12220027523E+02  0.21090343145E+02  0.51100000000E-03 0. -1.
        -11    1    3    3    0    0 -0.28732917150E+02  0.20386943428E+02 -0.20548992324E+01  0.35290658840E+02  0.51100000000E-03 0.  1.
        -12    1    3    3    0    0 -0.36712488915E+00 -0.13311921777E+02  0.90134295309E+01  0.16080545824E+02  0.00000000000E+00 0.  1.
</event>
<event>
 7    1  0.1375918E-013  0.7246191E+02  0.7816164E-02  0.1226707E+00
        -11   -1    0    0    0    0  0.00000000000E+00  0.00000000000E+00  0.45593999997E+02  0.45594000000E+02  0.51100000000E-03 0.  1.
         11   -1    0    0    0    0 -0.00000000000E+00 -0.00000000000E+00 -0.45593999997E+02  0.45594000000E+02  0.51100000000E-03 0. -1.
    9900012    2    1    2    0    0 -0.87946495776E+01 -0.80642962700E+01  0.14432178463E+02  0.72461908291E+02  0.70000440302E+02 0.  0.
         12    1    1    2    0    0  0.87946495776E+01  0.80642962700E+01 -0.14432178463E+02  0.18726091709E+02  0.00000000000E+00 0. -1.
         11    1    3    3    0    0  0.20354275568E+01 -0.21495009607E+02  0.28409151193E+01  0.21777263426E+02  0.51100000000E-03 0. -1.
        -11    1    3    3    0    0 -0.12330389013E+02  0.16850302274E+02 -0.13794839762E+02  0.25025362820E+02  0.51100000000E-03 0.  1.
        -12    1    3    3    0    0  0.15003118783E+01 -0.34195889373E+01  0.25386103105E+02  0.25659282046E+02  0.00000000000E+00 0.  1.
</event>
<event>
 7    1  0.1375918E-013  0.7246159E+02  0.7816164E-02  0.1226708E+00
        -11   -1    0    0    0    0  0.00000000000E+00  0.00000000000E+00  0.45593999997E+02  0.45594000000E+02  0.51100000000E-03 0.  1.
         11   -1    0    0    0    0 -0.00000000000E+00 -0.00000000000E+00 -0.45593999997E+02  0.45594000000E+02  0.51100000000E-03 0. -1.
    9900012    2    1    2    0    0 -0.50065660060E+01  0.99231525937E+00  0.18017435967E+02  0.72461591066E+02  0.70000027059E+02 0.  0.
         12    1    1    2    0    0  0.50065660060E+01 -0.99231525937E+00 -0.18017435967E+02  0.18726408934E+02  0.00000000000E+00 0. -1.
         11    1    3    3    0    0 -0.86608901107E+01  0.90839483933E+01 -0.11397974511E+02  0.16954142831E+02  0.51100000000E-03 0. -1.
        -11    1    3    3    0    0  0.86412927860E+01  0.12840088063E+02  0.30243794986E+02  0.33973915552E+02  0.51100000000E-03 0.  1.
        -12    1    3    3    0    0 -0.49869686814E+01 -0.20931721197E+02 -0.82838450857E+00  0.21533532683E+02  0.00000000000E+00 0.  1.
</event>
<event>
 7    1  0.1375918E-013  0.7246153E+02  0.7816164E-02  0.1226708E+00
        -11   -1    0    0    0    0  0.00000000000E+00  0.00000000000E+00  0.45593999997E+02  0.45594000000E+02  0.51100000000E-03 0.  1.
         11   -1    0    0    0    0 -0.00000000000E+00 -0.00000000000E+00 -0.45593999997E+02  0.45594000000E+02  0.51100000000E-03 0. -1.
    9900012    2    1    2    0    0 -0.45907408189E+01  0.14973387457E+01  0.18093198141E+02  0.72461528267E+02  0.69999945251E+02 0.  0.
         12    1    1    2    0    0  0.45907408189E+01 -0.14973387457E+01 -0.18093198141E+02  0.18726471733E+02  0.00000000000E+00 0. -1.
         11    1    3    3    0    0  0.55495875949E+01  0.96916648023E+01 -0.66507656386E+00  0.11187878092E+02  0.51100000000E-03 0. -1.
        -11    1    3    3    0    0 -0.21826868331E+02 -0.12720581230E+02 -0.12067760862E+02  0.27997432391E+02  0.51100000000E-03 0.  1.
        -12    1    3    3    0    0  0.11686539918E+02  0.45262551736E+01  0.30826035568E+02  0.33276217783E+02  0.00000000000E+00 0.  1.
</event>
<event>
 7    1  0.1375918E-013  0.7246158E+02  0.7816164E-02  0.1226708E+00
        -11   -1    0    0    0    0  0.00000000000E+00  0.00000000000E+00  0.45593999997E+02  0.45594000000E+02  0.51100000000E-03 0.  1.
         11   -1    0    0    0    0 -0.00000000000E+00 -0.00000000000E+00 -0.45593999997E+02  0.45594000000E+02  0.51100000000E-03 0. -1.
    9900012    2    1    2    0    0  0.41500484815E+01  0.18140978503E+02  0.20882508023E+01  0.72461580298E+02  0.70000013032E+02 0.  0.
         12    1    1    2    0    0 -0.41500484815E+01 -0.18140978503E+02 -0.20882508023E+01  0.18726419702E+02  0.00000000000E+00 0. -1.
         11    1    3    3    0    0 -0.18207303220E+02 -0.15848972692E+02  0.13529146207E+02  0.27671892297E+02  0.51100000000E-03 0. -1.
        -11    1    3    3    0    0  0.22565179241E+02  0.23307539193E+02 -0.10337723397E+02  0.34048454043E+02  0.51100000000E-03 0.  1.
        -12    1    3    3    0    0 -0.20782753880E+00  0.10682412002E+02 -0.11031720076E+01  0.10741233958E+02  0.00000000000E+00 0.  1.
</event>
<event>
 7    1  0.1375918E-013  0.7246158E+02  0.7816164E-02  0.1226708E+00
        -11   -1    0    0    0    0  0.00000000000E+00  0.00000000000E+00  0.45593999997E+02  0.45594000000E+02  0.51100000000E-03 0.  1.
         11   -1    0    0    0    0 -0.00000000000E+00 -0.00000000000E+00 -0.45593999997E+02  0.45594000000E+02  0.51100000000E-03 0. -1.
    9900012    2    1    2    0    0  0.54147636205E+01  0.14190137374E+01  0.17870237201E+02  0.72461584361E+02  0.70000018325E+02 0.  0.
         12    1    1    2    0    0 -0.54147636205E+01 -0.14190137374E+01 -0.17870237201E+02  0.18726415639E+02  0.00000000000E+00 0. -1.
         11    1    3    3    0    0  0.46032701321E+01 -0.20151687235E+02  0.81685934776E+01  0.22226257309E+02  0.51100000000E-03 0. -1.
        -11    1    3    3    0    0  0.18224520874E+02  0.18373934318E+02 -0.60066114137E+01  0.26567160262E+02  0.51100000000E-03 0.  1.
        -12    1    3    3    0    0 -0.17413027386E+02  0.31967666537E+01  0.15708255137E+02  0.23668166791E+02  0.00000000000E+00 0.  1.
</event>
<event>
 7    1  0.1375918E-013  0.7246157E+02  0.7816164E-02  0.1226708E+00
        -11   -1    0    0    0    0  0.00000000000E+00  0.00000000000E+00  0.45593999997E+02  0.45594000000E+02  0.51100000000E-03 0. -1.
         11   -1    0    0    0    0 -0.00000000000E+00 -0.00000000000E+00 -0.45593999997E+02  0.45594000000E+02  0.51100000000E-03 0.  1.
    9900012    2    1    2    0    0 -0.74855543401E+01 -0.13073693785E+01 -0.17115386868E+02  0.72461569318E+02  0.69999998728E+02 0.  0.
         12    1    1    2    0    0  0.74855543401E+01  0.13073693785E+01  0.17115386868E+02  0.18726430682E+02  0.00000000000E+00 0. -1.
         11    1    3    3    0    0 -0.39349394551E+01  0.16194359039E+02  0.12843182093E+02  0.21040160164E+02  0.51100000000E-03 0. -1.
        -11    1    3    3    0    0  0.59254711185E+01 -0.11313935120E+02 -0.36277059410E+02  0.38459607065E+02  0.51100000000E-03 0.  1.
         12    1    3    3    0    0 -0.94760860035E+01 -0.61877932967E+01  0.63184904497E+01  0.12961802089E+02  0.00000000000E+00 0. -1.
</event>
<event>
 7    1  0.1375918E-013  0.7246160E+02  0.7816164E-02  0.1226708E+00
        -11   -1    0    0    0    0  0.00000000000E+00  0.00000000000E+00  0.45593999997E+02  0.45594000000E+02  0.51100000000E-03 0.  1.
         11   -1    0    0    0    0 -0.00000000000E+00 -0.00000000000E+00 -0.45593999997E+02  0.45594000000E+02  0.51100000000E-03 0. -1.
    9900012    2    1    2    0    0  0.15008628349E+02 -0.94114871673E+01  0.60698436451E+01  0.72461601054E+02  0.70000040070E+02 0.  0.
         12    1    1    2    0    0 -0.15008628349E+02  0.94114871673E+01 -0.60698436451E+01  0.18726398946E+02  0.00000000000E+00 0. -1.
         11    1    3    3    0    0 -0.16950886617E+02 -0.10221247415E+02  0.12517433312E+02  0.23419918719E+02  0.51100000000E-03 0.  1.
        -11    1    3    3    0    0  0.17548876810E+02 -0.10866126829E+02 -0.17834317070E+02  0.27278171771E+02  0.51100000000E-03 0. -1.
        -12    1    3    3    0    0  0.14410638156E+02  0.11675887076E+02  0.11386727403E+02  0.21763510563E+02  0.00000000000E+00 0.  1.
</event>
<event>
 7    1  0.1375918E-013  0.7246157E+02  0.7816164E-02  0.1226708E+00
        -11   -1    0    0    0    0  0.00000000000E+00  0.00000000000E+00  0.45593999997E+02  0.45594000000E+02  0.51100000000E-03 0. -1.
         11   -1    0    0    0    0 -0.00000000000E+00 -0.00000000000E+00 -0.45593999997E+02  0.45594000000E+02  0.51100000000E-03 0.  1.
    9900012    2    1    2    0    0 -0.12991313450E+02 -0.29776683457E+01 -0.13154412097E+02  0.72461567037E+02  0.69999995756E+02 0.  0.
         12    1    1    2    0    0  0.12991313450E+02  0.29776683457E+01  0.13154412097E+02  0.18726432963E+02  0.00000000000E+00 0. -1.
         11    1    3    3    0    0 -0.18790095593E+02  0.22044294392E+02  0.11034875273E+00  0.28966028115E+02  0.51100000000E-03 0. -1.
        -11    1    3    3    0    0  0.93784582226E+01 -0.17181915248E+02  0.75395849843E+01  0.20976630621E+02  0.51100000000E-03 0.  1.
        -12    1    3    3    0    0 -0.35796760790E+01 -0.78400474905E+01 -0.20804345834E+02  0.22518908301E+02  0.00000000000E+00 0.  1.
</event>
<event>
 7    1  0.1375918E-013  0.7246154E+02  0.7816164E-02  0.1226708E+00
        -11   -1    0    0    0    0  0.00000000000E+00  0.00000000000E+00  0.45593999997E+02  0.45594000000E+02  0.51100000000E-03 0.  1.
         11   -1    0    0    0    0 -0.00000000000E+00 -0.00000000000E+00 -0.45593999997E+02  0.45594000000E+02  0.51100000000E-03 0. -1.
    9900012    2    1    2    0    0  0.16992389173E+02  0.29294084235E+01  0.73046294810E+01  0.72461539166E+02  0.69999959449E+02 0.  0.
         12    1    1    2    0    0 -0.16992389173E+02 -0.29294084235E+01 -0.73046294810E+01  0.18726460834E+02  0.00000000000E+00 0. -1.
         11    1    3    3    0    0  0.31508236946E+02 -0.16721648156E+02  0.12427977331E+02  0.37773497764E+02  0.51100000000E-03 0.  1.
        -11    1    3    3    0    0 -0.19126398574E+02  0.12427753078E+02  0.28453642198E+01  0.22986175558E+02  0.51100000000E-03 0. -1.
        -12    1    3    3    0    0  0.46105508011E+01  0.72233035020E+01 -0.79687120701E+01  0.11701865844E+02  0.00000000000E+00 0.  1.
</event>
<event>
 7    1  0.1375918E-013  0.7246153E+02  0.7816164E-02  0.1226708E+00
        -11   -1    0    0    0    0  0.00000000000E+00  0.00000000000E+00  0.45593999997E+02  0.45594000000E+02  0.51100000000E-03 0. -1.
         11   -1    0    0    0    0 -0.00000000000E+00 -0.00000000000E+00 -0.45593999997E+02  0.45594000000E+02  0.51100000000E-03 0.  1.
    9900012    2    1    2    0    0 -0.13628359192E+02  0.10871811791E+02 -0.68375501773E+01  0.72461533213E+02  0.69999951694E+02 0.  0.
         12    1    1    2    0    0  0.13628359192E+02 -0.10871811791E+02  0.68375501773E+01  0.18726466787E+02  0.00000000000E+00 0. -1.
         11    1    3    3    0    0 -0.72540269361E+01  0.27463192290E+02  0.22796023938E+02  0.36421237558E+02  0.51100000000E-03 0. -1.
        -11    1    3    3    0    0 -0.79568327422E+01 -0.78022231869E+01 -0.20063579041E+02  0.22950666180E+02  0.51100000000E-03 0.  1.
         12    1    3    3    0    0  0.15825004858E+01 -0.87891573124E+01 -0.95699950751E+01  0.13089629475E+02  0.00000000000E+00 0. -1.
</event>
<event>
 7    1  0.1375918E-013  0.7246162E+02  0.7816164E-02  0.1226708E+00
        -11   -1    0    0    0    0  0.00000000000E+00  0.00000000000E+00  0.45593999997E+02  0.45594000000E+02  0.51100000000E-03 0.  1.
         11   -1    0    0    0    0 -0.00000000000E+00 -0.00000000000E+00 -0.45593999997E+02  0.45594000000E+02  0.51100000000E-03 0. -1.
    9900012    2    1    2    0    0 -0.18436273053E+02 -0.26785782943E+01 -0.18990385339E+01  0.72461620394E+02  0.70000065265E+02 0.  0.
         12    1    1    2    0    0  0.18436273053E+02  0.26785782943E+01  0.18990385339E+01  0.18726379606E+02  0.00000000000E+00 0. -1.
         11    1    3    3    0    0 -0.38148016207E+02  0.13047542173E+02 -0.40828580257E+01  0.40523810621E+02  0.51100000000E-03 0.  1.
        -11    1    3    3    0    0  0.20082876761E+02 -0.18832872436E+02 -0.89753752353E+00  0.27546408061E+02  0.51100000000E-03 0. -1.
        -12    1    3    3    0    0 -0.37113360709E+00  0.31067519687E+01  0.30813570153E+01  0.43914017130E+01  0.00000000000E+00 0.  1.
</event>
<event>
 7    1  0.1375918E-013  0.7246151E+02  0.7816164E-02  0.1226708E+00
        -11   -1    0    0    0    0  0.00000000000E+00  0.00000000000E+00  0.45593999997E+02  0.45594000000E+02  0.51100000000E-03 0.  1.
         11   -1    0    0    0    0 -0.00000000000E+00 -0.00000000000E+00 -0.45593999997E+02  0.45594000000E+02  0.51100000000E-03 0. -1.
    9900012    2    1    2    0    0 -0.17867752944E+02 -0.19544561947E+01  0.52540284015E+01  0.72461513177E+02  0.69999925594E+02 0.  0.
         12    1    1    2    0    0  0.17867752944E+02  0.19544561947E+01 -0.52540284015E+01  0.18726486823E+02  0.00000000000E+00 0. -1.
         11    1    3    3    0    0  0.17746032509E+02 -0.17880096300E+02 -0.22966489976E+01  0.25296128367E+02  0.51100000000E-03 0. -1.
        -11    1    3    3    0    0 -0.27853541694E+02 -0.35201711631E+00  0.84526943232E+01  0.29109993860E+02  0.51100000000E-03 0.  1.
         12    1    3    3    0    0 -0.77602437590E+01  0.16277657221E+02 -0.90201692404E+00  0.18055390950E+02  0.00000000000E+00 0. -1.
</event>
<event>
 7    1  0.1375918E-013  0.7246154E+02  0.7816164E-02  0.1226708E+00
        -11   -1    0    0    0    0  0.00000000000E+00  0.00000000000E+00  0.45593999997E+02  0.45594000000E+02  0.51100000000E-03 0. -1.
         11   -1    0    0    0    0 -0.00000000000E+00 -0.00000000000E+00 -0.45593999997E+02  0.45594000000E+02  0.51100000000E-03 0.  1.
    9900012    2    1    2    0    0 -0.94069247683E+01  0.11114402207E+02 -0.11775409107E+02  0.72461536648E+02  0.69999956170E+02 0.  0.
         12    1    1    2    0    0  0.94069247683E+01 -0.11114402207E+02  0.11775409107E+02  0.18726463352E+02  0.00000000000E+00 0. -1.
         11    1    3    3    0    0  0.18957551718E+02 -0.17166867172E+01 -0.11540966977E+02  0.22260496388E+02  0.51100000000E-03 0. -1.
        -11    1    3    3    0    0 -0.23233533020E+02  0.19613627513E+02 -0.14427651175E+02  0.33654844517E+02  0.51100000000E-03 0.  1.
         12    1    3    3    0    0 -0.51309434667E+01 -0.67825385889E+01  0.14193209045E+02  0.16546195743E+02  0.00000000000E+00 0. -1.
</event>
<event>
 7    1  0.1375918E-013  0.7246160E+02  0.7816164E-02  0.1226708E+00
        -11   -1    0    0    0    0  0.00000000000E+00  0.00000000000E+00  0.45593999997E+02  0.45594000000E+02  0.51100000000E-03 0.  1.
         11   -1    0    0    0    0 -0.00000000000E+00 -0.00000000000E+00 -0.45593999997E+02  0.45594000000E+02  0.51100000000E-03 0. -1.
    9900012    2    1    2    0    0  0.11963949320E+02 -0.14320451443E+02  0.15705779307E+01  0.72461598105E+02  0.70000036229E+02 0.  0.
         12    1    1    2    0    0 -0.11963949320E+02  0.14320451443E+02 -0.15705779307E+01  0.18726401895E+02  0.00000000000E+00 0. -1.
         11    1    3    3    0    0  0.15445570046E+01  0.21794847118E+01 -0.13208546830E+02  0.13475960804E+02  0.51100000000E-03 0. -1.
        -11    1    3    3    0    0  0.74852069710E+01 -0.35018782517E+02  0.17806939843E+02  0.39992881357E+02  0.51100000000E-03 0.  1.
        -12    1    3    3    0    0  0.29341853448E+01  0.18518846362E+02 -0.30278150817E+01  0.18992755945E+02  0.00000000000E+00 0.  1.
</event>
<event>
 7    1  0.1918360E-013  0.7246151E+02  0.7816164E-02  0.1226708E+00
        -11   -1    0    0    0    0  0.00000000000E+00  0.00000000000E+00  0.45593999997E+02  0.45594000000E+02  0.51100000000E-03 0. -1.
         11   -1    0    0    0    0 -0.00000000000E+00 -0.00000000000E+00 -0.45593999997E+02  0.45594000000E+02  0.51100000000E-03 0.  1.
    9900012    2    1    2    0    0 -0.62343673688E+01 -0.43907479243E+01 -0.17103667774E+02  0.72461509267E+02  0.69999920501E+02 0.  0.
         12    1    1    2    0    0  0.62343673688E+01  0.43907479243E+01  0.17103667774E+02  0.18726490733E+02  0.00000000000E+00 0. -1.
         11    1    3    3    0    0  0.13920868652E+02 -0.12555093350E+02  0.79345704418E+01  0.20356285550E+02  0.51100000000E-03 0. -1.
        -11    1    3    3    0    0 -0.84399064341E+01  0.23501085659E+02 -0.20430195756E+02  0.32263383993E+02  0.51100000000E-03 0.  1.
        -12    1    3    3    0    0 -0.11715329587E+02 -0.15336740234E+02 -0.46080424602E+01  0.19841839724E+02  0.00000000000E+00 0.  1.
</event>
<event>
 7    1  0.1375918E-013  0.7246162E+02  0.7816164E-02  0.1226708E+00
        -11   -1    0    0    0    0  0.00000000000E+00  0.00000000000E+00  0.45593999997E+02  0.45594000000E+02  0.51100000000E-03 0.  1.
         11   -1    0    0    0    0 -0.00000000000E+00 -0.00000000000E+00 -0.45593999997E+02  0.45594000000E+02  0.51100000000E-03 0. -1.
    9900012    2    1    2    0    0 -0.16520772299E+02  0.67774791744E-01 -0.88168502878E+01  0.72461618615E+02  0.70000062947E+02 0.  0.
         12    1    1    2    0    0  0.16520772299E+02 -0.67774791744E-01  0.88168502878E+01  0.18726381385E+02  0.00000000000E+00 0. -1.
         11    1    3    3    0    0 -0.86784903329E+01 -0.91754539038E+01  0.23542192826E+02  0.26715912713E+02  0.51100000000E-03 0. -1.
        -11    1    3    3    0    0 -0.61928401489E+01  0.16500131209E+02 -0.64146913810E+01  0.18755102367E+02  0.51100000000E-03 0.  1.
         12    1    3    3    0    0 -0.16494418168E+01 -0.72569025130E+01 -0.25944351732E+02  0.26990603535E+02  0.00000000000E+00 0. -1.
</event>
<event>
 7    1  0.1375918E-013  0.7246158E+02  0.7816164E-02  0.1226708E+00
        -11   -1    0    0    0    0  0.00000000000E+00  0.00000000000E+00  0.45593999997E+02  0.45594000000E+02  0.51100000000E-03 0.  1.
         11   -1    0    0    0    0 -0.00000000000E+00 -0.00000000000E+00 -0.45593999997E+02  0.45594000000E+02  0.51100000000E-03 0. -1.
    9900012    2    1    2    0    0  0.30152035801E+01  0.29283412552E+00  0.18479766944E+02  0.72461575067E+02  0.70000006218E+02 0.  0.
         12    1    1    2    0    0 -0.30152035801E+01 -0.29283412552E+00 -0.18479766944E+02  0.18726424933E+02  0.00000000000E+00 0. -1.
         11    1    3    3    0    0  0.26275674728E+02  0.83876532883E+01 -0.20465737563E+01  0.27657770599E+02  0.51100000000E-03 0. -1.
        -11    1    3    3    0    0 -0.31048413592E+02 -0.60898233319E+01  0.17852352229E+02  0.36329002397E+02  0.51100000000E-03 0.  1.
         12    1    3    3    0    0  0.77879424446E+01 -0.20049958309E+01  0.26739884715E+01  0.84748020714E+01  0.00000000000E+00 0. -1.
</event>
<event>
 7    1  0.1375918E-013  0.7246153E+02  0.7816164E-02  0.1226708E+00
        -11   -1    0    0    0    0  0.00000000000E+00  0.00000000000E+00  0.45593999997E+02  0.45594000000E+02  0.51100000000E-03 0. -1.
         11   -1    0    0    0    0 -0.00000000000E+00 -0.00000000000E+00 -0.45593999997E+02  0.45594000000E+02  0.51100000000E-03 0.  1.
    9900012    2    1    2    0    0 -0.17647287479E+02  0.56029783506E+01  0.28036768776E+01  0.72461528742E+02  0.69999945870E+02 0.  0.
         12    1    1    2    0    0  0.17647287479E+02 -0.56029783506E+01 -0.28036768776E+01  0.18726471258E+02  0.00000000000E+00 0. -1.
         11    1    3    3    0    0 -0.26374600563E+00  0.78192277826E+01 -0.11327163054E+02  0.13766426849E+02  0.51100000000E-03 0. -1.
        -11    1    3    3    0    0 -0.35218231120E+02 -0.13857339373E+01  0.19199449453E+02  0.40135556821E+02  0.51100000000E-03 0.  1.
        -12    1    3    3    0    0  0.17834689647E+02 -0.83051549478E+00 -0.50686095208E+01  0.18559545072E+02  0.00000000000E+00 0.  1.
</event>
<event>
 7    1  0.1375918E-013  0.7246156E+02  0.7816164E-02  0.1226708E+00
        -11   -1    0    0    0    0  0.00000000000E+00  0.00000000000E+00  0.45593999997E+02  0.45594000000E+02  0.51100000000E-03 0. -1.
         11   -1    0    0    0    0 -0.00000000000E+00 -0.00000000000E+00 -0.45593999997E+02  0.45594000000E+02  0.51100000000E-03 0.  1.
    9900012    2    1    2    0    0  0.11663877264E+02  0.10713987992E+02 -0.99921880884E+01  0.72461564293E+02  0.69999992182E+02 0.  0.
         12    1    1    2    0    0 -0.11663877264E+02 -0.10713987992E+02  0.99921880884E+01  0.18726435707E+02  0.00000000000E+00 0. -1.
         11    1    3    3    0    0  0.19349513491E+02 -0.11966147844E+02  0.17065996838E+02  0.28440123328E+02  0.51100000000E-03 0. -1.
        -11    1    3    3    0    0 -0.15756411612E+02  0.11477936643E+02 -0.21806891422E+02  0.29249752994E+02  0.51100000000E-03 0.  1.
         12    1    3    3    0    0  0.80707753844E+01  0.11202199192E+02 -0.52512935041E+01  0.14771687971E+02  0.00000000000E+00 0. -1.
</event>
<event>
 7    1  0.1375918E-013  0.7246159E+02  0.7816164E-02  0.1226708E+00
        -11   -1    0    0    0    0  0.00000000000E+00  0.00000000000E+00  0.45593999997E+02  0.45594000000E+02  0.51100000000E-03 0.  1.
         11   -1    0    0    0    0 -0.00000000000E+00 -0.00000000000E+00 -0.45593999997E+02  0.45594000000E+02  0.51100000000E-03 0. -1.
    9900012    2    1    2    0    0  0.31612421933E+01 -0.15599884827E+02 -0.98655263126E+01  0.72461589019E+02  0.70000024392E+02 0.  0.
         12    1    1    2    0    0 -0.31612421933E+01  0.15599884827E+02  0.98655263126E+01  0.18726410981E+02  0.00000000000E+00 0. -1.
         11    1    3    3    0    0 -0.10105666064E+02 -0.39319364851E+02 -0.15753747679E+02  0.43546727834E+02  0.51100000000E-03 0. -1.
        -11    1    3    3    0    0  0.17649432705E+01  0.69253481461E+01 -0.14217974169E+01  0.72867674485E+01  0.51100000000E-03 0.  1.
         12    1    3    3    0    0  0.11501964986E+02  0.16794131878E+02  0.73100187829E+01  0.21628093737E+02  0.00000000000E+00 0. -1.
</event>
<event>
 7    1  0.1375918E-013  0.7246164E+02  0.7816164E-02  0.1226708E+00
        -11   -1    0    0    0    0  0.00000000000E+00  0.00000000000E+00  0.45593999997E+02  0.45594000000E+02  0.51100000000E-03 0.  1.
         11   -1    0    0    0    0 -0.00000000000E+00 -0.00000000000E+00 -0.45593999997E+02  0.45594000000E+02  0.51100000000E-03 0. -1.
    9900012    2    1    2    0    0  0.15690890554E+02  0.87625306207E+00  0.10183545920E+02  0.72461642284E+02  0.70000093780E+02 0.  0.
         12    1    1    2    0    0 -0.15690890554E+02 -0.87625306207E+00 -0.10183545920E+02  0.18726357716E+02  0.00000000000E+00 0. -1.
         11    1    3    3    0    0  0.69582339600E+01  0.39035804818E+01 -0.25658479595E+02  0.26870290951E+02  0.51100000000E-03 0. -1.
        -11    1    3    3    0    0 -0.86892365313E+01  0.95039272022E+00  0.19525241295E+02  0.21392548369E+02  0.51100000000E-03 0.  1.
         12    1    3    3    0    0  0.17421893125E+02 -0.39777201400E+01  0.16316784220E+02  0.24198802964E+02  0.00000000000E+00 0. -1.
</event>
<event>
 7    1  0.1375918E-013  0.7246156E+02  0.7816164E-02  0.1226708E+00
        -11   -1    0    0    0    0  0.00000000000E+00  0.00000000000E+00  0.45593999997E+02  0.45594000000E+02  0.51100000000E-03 0. -1.
         11   -1    0    0    0    0 -0.00000000000E+00 -0.00000000000E+00 -0.45593999997E+02  0.45594000000E+02  0.51100000000E-03 0.  1.
    9900012    2    1    2    0    0  0.13965636293E+02 -0.50390768904E+01 -0.11412638674E+02  0.72461558414E+02  0.69999984523E+02 0.  0.
         12    1    1    2    0    0 -0.13965636293E+02  0.50390768904E+01  0.11412638674E+02  0.18726441586E+02  0.00000000000E+00 0. -1.
         11    1    3    3    0    0  0.55034221842E+00  0.64869312525E+01 -0.27147036015E+02  0.27916746198E+02  0.51100000000E-03 0. -1.
        -11    1    3    3    0    0  0.19864748403E+02 -0.58493850480E+01 -0.56784858083E+01  0.21472511168E+02  0.51100000000E-03 0.  1.
         12    1    3    3    0    0 -0.64494543281E+01 -0.56766230949E+01  0.21412883149E+02  0.23072301047E+02  0.00000000000E+00 0. -1.
</event>
<event>
 7    1  0.1375918E-013  0.7246156E+02  0.7816164E-02  0.1226708E+00
        -11   -1    0    0    0    0  0.00000000000E+00  0.00000000000E+00  0.45593999997E+02  0.45594000000E+02  0.51100000000E-03 0.  1.
         11   -1    0    0    0    0 -0.00000000000E+00 -0.00000000000E+00 -0.45593999997E+02  0.45594000000E+02  0.51100000000E-03 0. -1.
    9900012    2    1    2    0    0  0.10942096783E+02  0.66957225254E+01  0.13642483199E+02  0.72461560670E+02  0.69999987463E+02 0.  0.
         12    1    1    2    0    0 -0.10942096783E+02 -0.66957225254E+01 -0.13642483199E+02  0.18726439330E+02  0.00000000000E+00 0. -1.
         11    1    3    3    0    0  0.51774737942E+01  0.80728008095E+00  0.38053054354E+02  0.38412144980E+02  0.51100000000E-03 0. -1.
        -11    1    3    3    0    0  0.11337736038E+02  0.78562074310E+01 -0.66145198698E+01  0.15297585660E+02  0.51100000000E-03 0.  1.
         12    1    3    3    0    0 -0.55731130491E+01 -0.19677649865E+01 -0.17796051286E+02  0.18751830030E+02  0.00000000000E+00 0. -1.
</event>
<event>
 8    1  0.1375918E-013  0.7246160E+02  0.7816164E-02  0.1226708E+00
        -11   -1    0    0    0    0  0.00000000000E+00  0.00000000000E+00  0.45593999997E+02  0.45594000000E+02  0.51100000000E-03 0.  1.
         11   -1    0    0    0    0 -0.00000000000E+00 -0.00000000000E+00 -0.45593999997E+02  0.45594000000E+02  0.51100000000E-03 0. -1.
    9900012    2    1    2    0    0 -0.61564656847E+01 -0.17179494605E+02  0.42001109266E+01  0.72461600549E+02  0.70000039412E+02 0.  0.
         24    2    3    3    0    0 -0.17900882225E+02 -0.21506553108E+02  0.67164240486E+01  0.59694980513E+02  0.52301117918E+02 0.  0.
         12    1    1    2    0    0  0.61564656847E+01  0.17179494605E+02 -0.42001109266E+01  0.18726399451E+02  0.00000000000E+00 0. -1.
         11    1    3    3    0    0  0.11744416540E+02  0.43270585029E+01 -0.25163131220E+01  0.12766620036E+02  0.51100000000E-03 0. -1.
        -11    1    4    4    0    0 -0.23246389724E+02 -0.20304004306E+02  0.25557841616E+02  0.40073064450E+02  0.51100000000E-03 0.  1.
         12    1    4    4    0    0  0.53455074990E+01 -0.12025488012E+01 -0.18841417567E+02  0.19621916063E+02  0.00000000000E+00 0. -1.
</event>
<event>
 7    1  0.1375918E-013  0.7246157E+02  0.7816164E-02  0.1226708E+00
        -11   -1    0    0    0    0  0.00000000000E+00  0.00000000000E+00  0.45593999997E+02  0.45594000000E+02  0.51100000000E-03 0.  1.
         11   -1    0    0    0    0 -0.00000000000E+00 -0.00000000000E+00 -0.45593999997E+02  0.45594000000E+02  0.51100000000E-03 0. -1.
    9900012    2    1    2    0    0 -0.19875697094E+01 -0.55413297164E+01  0.17777022043E+02  0.72461567316E+02  0.69999996120E+02 0.  0.
         12    1    1    2    0    0  0.19875697094E+01  0.55413297164E+01 -0.17777022043E+02  0.18726432684E+02  0.00000000000E+00 0. -1.
         11    1    3    3    0    0 -0.99317047175E+01  0.33788448405E+01 -0.20375788264E+02  0.22917855456E+02  0.51100000000E-03 0. -1.
        -11    1    3    3    0    0 -0.19526743391E+01  0.17554603715E+01  0.34413855310E+02  0.34513881493E+02  0.51100000000E-03 0.  1.
         12    1    3    3    0    0  0.98968093472E+01 -0.10675634928E+02  0.37389549968E+01  0.15029830367E+02  0.00000000000E+00 0. -1.
</event>
<event>
 7    1  0.1375918E-013  0.7246155E+02  0.7816164E-02  0.1226708E+00
        -11   -1    0    0    0    0  0.00000000000E+00  0.00000000000E+00  0.45593999997E+02  0.45594000000E+02  0.51100000000E-03 0.  1.
         11   -1    0    0    0    0 -0.00000000000E+00 -0.00000000000E+00 -0.45593999997E+02  0.45594000000E+02  0.51100000000E-03 0. -1.
    9900012    2    1    2    0    0  0.11623011055E+02 -0.73713452030E+01  0.12698378085E+02  0.72461550201E+02  0.69999973825E+02 0.  0.
         12    1    1    2    0    0 -0.11623011055E+02  0.73713452030E+01 -0.12698378085E+02  0.18726449799E+02  0.00000000000E+00 0. -1.
         11    1    3    3    0    0  0.27794339712E+02 -0.21733379822E+01  0.82948491679E+01  0.29086994362E+02  0.51100000000E-03 0. -1.
        -11    1    3    3    0    0 -0.22648335894E+02  0.99703444038E+01  0.88694216407E+01  0.26287288312E+02  0.51100000000E-03 0.  1.
         12    1    3    3    0    0  0.64770072366E+01 -0.15168351625E+02 -0.44658927241E+01  0.17087267528E+02  0.00000000000E+00 0. -1.
</event>
<event>
 7    1  0.1375918E-013  0.7246163E+02  0.7816164E-02  0.1226708E+00
        -11   -1    0    0    0    0  0.00000000000E+00  0.00000000000E+00  0.45593999997E+02  0.45594000000E+02  0.51100000000E-03 0.  1.
         11   -1    0    0    0    0 -0.00000000000E+00 -0.00000000000E+00 -0.45593999997E+02  0.45594000000E+02  0.51100000000E-03 0. -1.
    9900012    2    1    2    0    0 -0.16224326831E+02  0.17768074853E+01  0.91810180903E+01  0.72461630380E+02  0.70000078273E+02 0.  0.
         12    1    1    2    0    0  0.16224326831E+02 -0.17768074853E+01 -0.91810180903E+01  0.18726369620E+02  0.00000000000E+00 0. -1.
         11    1    3    3    0    0 -0.26043730255E+01 -0.17721474826E+02  0.29519728656E+02  0.34528941615E+02  0.51100000000E-03 0. -1.
        -11    1    3    3    0    0  0.18730665630E+01  0.11520993531E+02 -0.72331273261E+00  0.11694650566E+02  0.51100000000E-03 0.  1.
         12    1    3    3    0    0 -0.15493020368E+02  0.79772887798E+01 -0.19615397833E+02  0.26238038199E+02  0.00000000000E+00 0. -1.
</event>
<event>
 7    1  0.1375918E-013  0.7246165E+02  0.7816164E-02  0.1226708E+00
        -11   -1    0    0    0    0  0.00000000000E+00  0.00000000000E+00  0.45593999997E+02  0.45594000000E+02  0.51100000000E-03 0. -1.
         11   -1    0    0    0    0 -0.00000000000E+00 -0.00000000000E+00 -0.45593999997E+02  0.45594000000E+02  0.51100000000E-03 0.  1.
    9900012    2    1    2    0    0  0.16381769289E+02  0.56375941026E+01 -0.71085294594E+01  0.72461654298E+02  0.70000109430E+02 0.  0.
         12    1    1    2    0    0 -0.16381769289E+02 -0.56375941026E+01  0.71085294594E+01  0.18726345702E+02  0.00000000000E+00 0. -1.
         11    1    3    3    0    0 -0.54284485239E+01 -0.18288476430E+02  0.72036627191E+01  0.20391890063E+02  0.51100000000E-03 0.  1.
        -11    1    3    3    0    0  0.82608324966E+01  0.32047591223E+02 -0.14826260836E+02  0.36264410479E+02  0.51100000000E-03 0. -1.
        -12    1    3    3    0    0  0.13549385316E+02 -0.81215206909E+01  0.51406865714E+00  0.15805353756E+02  0.00000000000E+00 0.  1.
</event>
<event>
 7    1  0.1375918E-013  0.7246158E+02  0.7816164E-02  0.1226708E+00
        -11   -1    0    0    0    0  0.00000000000E+00  0.00000000000E+00  0.45593999997E+02  0.45594000000E+02  0.51100000000E-03 0.  1.
         11   -1    0    0    0    0 -0.00000000000E+00 -0.00000000000E+00 -0.45593999997E+02  0.45594000000E+02  0.51100000000E-03 0. -1.
    9900012    2    1    2    0    0  0.74288184264E+00 -0.67520566367E+01  0.17450982024E+02  0.72461577067E+02  0.70000008823E+02 0.  0.
         12    1    1    2    0    0 -0.74288184264E+00  0.67520566367E+01 -0.17450982024E+02  0.18726422933E+02  0.00000000000E+00 0. -1.
         11    1    3    3    0    0  0.13747416864E+02 -0.21399279795E+02  0.26708275920E+02  0.36881603125E+02  0.51100000000E-03 0. -1.
        -11    1    3    3    0    0  0.73162235385E+01  0.11599458576E+02 -0.49889392246E+01  0.14593288902E+02  0.51100000000E-03 0.  1.
         12    1    3    3    0    0 -0.20320758560E+02  0.30477645821E+01 -0.42683546715E+01  0.20986685041E+02  0.00000000000E+00 0. -1.
</event>
<event>
 7    1  0.1375918E-013  0.7246155E+02  0.7816164E-02  0.1226708E+00
        -11   -1    0    0    0    0  0.00000000000E+00  0.00000000000E+00  0.45593999997E+02  0.45594000000E+02  0.51100000000E-03 0. -1.
         11   -1    0    0    0    0 -0.00000000000E+00 -0.00000000000E+00 -0.45593999997E+02  0.45594000000E+02  0.51100000000E-03 0.  1.
    9900012    2    1    2    0    0  0.17244213476E+02  0.68659925017E+01  0.24849875809E+01  0.72461550398E+02  0.69999974081E+02 0.  0.
         12    1    1    2    0    0 -0.17244213476E+02 -0.68659925017E+01 -0.24849875809E+01  0.18726449602E+02  0.00000000000E+00 0. -1.
         11    1    3    3    0    0 -0.80864761624E+01 -0.13982894472E+02 -0.74870830346E+01  0.17803618934E+02  0.51100000000E-03 0. -1.
        -11    1    3    3    0    0  0.22989445345E+02 -0.44290965467E+01  0.16259870543E+02  0.28504646706E+02  0.51100000000E-03 0.  1.
         12    1    3    3    0    0  0.23412442935E+01  0.25277983520E+02 -0.62877999279E+01  0.26153284758E+02  0.00000000000E+00 0. -1.
</event>
<event>
 8    1  0.1375918E-013  0.7246164E+02  0.7816164E-02  0.1226708E+00
        -11   -1    0    0    0    0  0.00000000000E+00  0.00000000000E+00  0.45593999997E+02  0.45594000000E+02  0.51100000000E-03 0. -1.
         11   -1    0    0    0    0 -0.00000000000E+00 -0.00000000000E+00 -0.45593999997E+02  0.45594000000E+02  0.51100000000E-03 0.  1.
    9900012    2    1    2    0    0  0.14313105698E+02  0.23032184374E+01 -0.11853561988E+02  0.72461635118E+02  0.70000084445E+02 0.  0.
        -24    2    3    3    0    0 -0.11761743774E+01 -0.42273108355E+01 -0.17504173128E+02  0.54727627778E+02  0.51666852258E+02 0.  0.
         12    1    1    2    0    0 -0.14313105698E+02 -0.23032184374E+01  0.11853561988E+02  0.18726364882E+02  0.00000000000E+00 0. -1.
         11    1    4    4    0    0 -0.23670479648E+02  0.92201426524E+01 -0.11260669434E+02  0.27786783075E+02  0.51100000000E-03 0. -1.
        -11    1    3    3    0    0  0.15489280075E+02  0.65305292728E+01  0.56506111400E+01  0.17734007340E+02  0.51100000000E-03 0.  1.
        -12    1    4    4    0    0  0.22494305271E+02 -0.13447453488E+02 -0.62435036936E+01  0.26940844703E+02  0.00000000000E+00 0.  1.
</event>
<event>
 7    1  0.1375918E-013  0.7246150E+02  0.7816164E-02  0.1226708E+00
        -11   -1    0    0    0    0  0.00000000000E+00  0.00000000000E+00  0.45593999997E+02  0.45594000000E+02  0.51100000000E-03 0. -1.
         11   -1    0    0    0    0 -0.00000000000E+00 -0.00000000000E+00 -0.45593999997E+02  0.45594000000E+02  0.51100000000E-03 0.  1.
    9900012    2    1    2    0    0 -0.11987761872E+02  0.11497042312E+02 -0.86483131959E+01  0.72461501722E+02  0.69999910671E+02 0.  0.
         12    1    1    2    0    0  0.11987761872E+02 -0.11497042312E+02  0.86483131959E+01  0.18726498278E+02  0.00000000000E+00 0. -1.
         11    1    3    3    0    0  0.15490080799E+02 -0.82962774527E+01  0.15262251311E+02  0.23274602855E+02  0.51100000000E-03 0. -1.
        -11    1    3    3    0    0 -0.11278362175E+02  0.59921964382E+01 -0.24791089135E+02  0.27887380161E+02  0.51100000000E-03 0.  1.
        -12    1    3    3    0    0 -0.16199480497E+02  0.13801123327E+02  0.88052462798E+00  0.21299518705E+02  0.00000000000E+00 0.  1.
</event>
<event>
 7    1  0.1375918E-013  0.7246189E+02  0.7816164E-02  0.1226707E+00
        -11   -1    0    0    0    0  0.00000000000E+00  0.00000000000E+00  0.45593999997E+02  0.45594000000E+02  0.51100000000E-03 0.  1.
         11   -1    0    0    0    0 -0.00000000000E+00 -0.00000000000E+00 -0.45593999997E+02  0.45594000000E+02  0.51100000000E-03 0. -1.
    9900012    2    1    2    0    0 -0.12647885282E+01 -0.13030801254E+02  0.13389012342E+02  0.72461891947E+02  0.70000419011E+02 0.  0.
         12    1    1    2    0    0  0.12647885282E+01  0.13030801254E+02 -0.13389012342E+02  0.18726108053E+02  0.00000000000E+00 0. -1.
         11    1    3    3    0    0 -0.16845695737E+02  0.47130246277E+01  0.21972083193E+01  0.17630025260E+02  0.51100000000E-03 0. -1.
        -11    1    3    3    0    0  0.71238194729E+01 -0.28441490965E+02  0.22626438297E+02  0.37035427937E+02  0.51100000000E-03 0.  1.
        -12    1    3    3    0    0  0.84570877357E+01  0.10697665084E+02 -0.11434634274E+02  0.17796438750E+02  0.00000000000E+00 0.  1.
</event>
<event>
 7    1  0.1375918E-013  0.7246166E+02  0.7816164E-02  0.1226708E+00
        -11   -1    0    0    0    0  0.00000000000E+00  0.00000000000E+00  0.45593999997E+02  0.45594000000E+02  0.51100000000E-03 0.  1.
         11   -1    0    0    0    0 -0.00000000000E+00 -0.00000000000E+00 -0.45593999997E+02  0.45594000000E+02  0.51100000000E-03 0. -1.
    9900012    2    1    2    0    0 -0.43086807412E+01 -0.83880523123E+01  0.16178737700E+02  0.72461662801E+02  0.70000120507E+02 0.  0.
         12    1    1    2    0    0  0.43086807412E+01  0.83880523123E+01 -0.16178737700E+02  0.18726337199E+02  0.00000000000E+00 0. -1.
         11    1    3    3    0    0  0.33513245262E-01  0.15517501291E+01 -0.23600220661E+02  0.23651204348E+02  0.51100000000E-03 0. -1.
        -11    1    3    3    0    0  0.14281678301E+01  0.67390493474E+01  0.24554170521E+02  0.25502190880E+02  0.51100000000E-03 0.  1.
        -12    1    3    3    0    0 -0.57703618165E+01 -0.16678851789E+02  0.15224787840E+02  0.23308267573E+02  0.00000000000E+00 0.  1.
</event>
<event>
 7    1  0.1375918E-013  0.7246117E+02  0.7816164E-02  0.1226709E+00
        -11   -1    0    0    0    0  0.00000000000E+00  0.00000000000E+00  0.45593999997E+02  0.45594000000E+02  0.51100000000E-03 0. -1.
         11   -1    0    0    0    0 -0.00000000000E+00 -0.00000000000E+00 -0.45593999997E+02  0.45594000000E+02  0.51100000000E-03 0.  1.
    9900012    2    1    2    0    0  0.14173458411E+02 -0.88823944865E+01 -0.84208287336E+01  0.72461168669E+02  0.69999476806E+02 0.  0.
         12    1    1    2    0    0 -0.14173458411E+02  0.88823944865E+01  0.84208287336E+01  0.18726831331E+02  0.00000000000E+00 0. -1.
         11    1    3    3    0    0 -0.18651353049E+02 -0.21960759016E+02 -0.13946097652E+02  0.32010022604E+02  0.51100000000E-03 0. -1.
        -11    1    3    3    0    0  0.18956435285E+02 -0.24656071146E+01  0.42364839130E+01  0.19579924753E+02  0.51100000000E-03 0.  1.
         12    1    3    3    0    0  0.13868376176E+02  0.15543971644E+02  0.12887850059E+01  0.20871221311E+02  0.00000000000E+00 0. -1.
</event>
<event>
 7    1  0.1375918E-013  0.7246148E+02  0.7816164E-02  0.1226708E+00
        -11   -1    0    0    0    0  0.00000000000E+00  0.00000000000E+00  0.45593999997E+02  0.45594000000E+02  0.51100000000E-03 0.  1.
         11   -1    0    0    0    0 -0.00000000000E+00 -0.00000000000E+00 -0.45593999997E+02  0.45594000000E+02  0.51100000000E-03 0. -1.
    9900012    2    1    2    0    0 -0.21213312914E+01 -0.11351015948E+02  0.14742350589E+02  0.72461481093E+02  0.69999883798E+02 0.  0.
         12    1    1    2    0    0  0.21213312914E+01  0.11351015948E+02 -0.14742350589E+02  0.18726518907E+02  0.00000000000E+00 0. -1.
         11    1    3    3    0    0 -0.37363978103E+01 -0.32721783305E+02  0.21354925137E+02  0.39251861091E+02  0.51100000000E-03 0. -1.
        -11    1    3    3    0    0 -0.11125410265E+02  0.11533684281E+02 -0.62936812284E+00  0.16037354244E+02  0.51100000000E-03 0.  1.
        -12    1    3    3    0    0  0.12740476784E+02  0.98370830752E+01 -0.59832064251E+01  0.17172265757E+02  0.00000000000E+00 0.  1.
</event>
<event>
 7    1  0.1375918E-013  0.7246157E+02  0.7816164E-02  0.1226708E+00
        -11   -1    0    0    0    0  0.00000000000E+00  0.00000000000E+00  0.45593999997E+02  0.45594000000E+02  0.51100000000E-03 0. -1.
         11   -1    0    0    0    0 -0.00000000000E+00 -0.00000000000E+00 -0.45593999997E+02  0.45594000000E+02  0.51100000000E-03 0.  1.
    9900012    2    1    2    0    0  0.14160756693E+02 -0.12170574218E+02  0.14244926167E+01  0.72461572521E+02  0.70000002901E+02 0.  0.
         12    1    1    2    0    0 -0.14160756693E+02  0.12170574218E+02 -0.14244926167E+01  0.18726427479E+02  0.00000000000E+00 0. -1.
         11    1    3    3    0    0 -0.14279394498E+02  0.15668056586E+01  0.16869221645E+01  0.14463806341E+02  0.51100000000E-03 0. -1.
        -11    1    3    3    0    0  0.16567653060E+02 -0.30534588947E+02  0.82997666428E+01  0.35717423992E+02  0.51100000000E-03 0.  1.
        -12    1    3    3    0    0  0.11872498131E+02  0.16797209070E+02 -0.85621961906E+01  0.22280342188E+02  0.00000000000E+00 0.  1.
</event>
<event>
 7    1  0.1375918E-013  0.7246157E+02  0.7816164E-02  0.1226708E+00
        -11   -1    0    0    0    0  0.00000000000E+00  0.00000000000E+00  0.45593999997E+02  0.45594000000E+02  0.51100000000E-03 0.  1.
         11   -1    0    0    0    0 -0.00000000000E+00 -0.00000000000E+00 -0.45593999997E+02  0.45594000000E+02  0.51100000000E-03 0. -1.
    9900012    2    1    2    0    0  0.18451012540E+02  0.19405130171E+01  0.25443495386E+01  0.72461570306E+02  0.70000000015E+02 0.  0.
         12    1    1    2    0    0 -0.18451012540E+02 -0.19405130171E+01 -0.25443495386E+01  0.18726429694E+02  0.00000000000E+00 0. -1.
         11    1    3    3    0    0 -0.47284027547E+01  0.36044334886E+01 -0.24042185406E+02  0.24766437224E+02  0.51100000000E-03 0. -1.
        -11    1    3    3    0    0  0.95306163896E+01  0.14277311320E+02  0.57025451616E+01  0.18088484980E+02  0.51100000000E-03 0.  1.
         12    1    3    3    0    0  0.13648798905E+02 -0.15941231791E+02  0.20883989783E+02  0.29606648102E+02  0.00000000000E+00 0. -1.
</event>
<event>
 7    1  0.1375918E-013  0.7246157E+02  0.7816164E-02  0.1226708E+00
        -11   -1    0    0    0    0  0.00000000000E+00  0.00000000000E+00  0.45593999997E+02  0.45594000000E+02  0.51100000000E-03 0.  1.
         11   -1    0    0    0    0 -0.00000000000E+00 -0.00000000000E+00 -0.45593999997E+02  0.45594000000E+02  0.51100000000E-03 0. -1.
    9900012    2    1    2    0    0 -0.13227917382E+02  0.10450925748E+02  0.81534882184E+01  0.72461574357E+02  0.70000005292E+02 0.  0.
         12    1    1    2    0    0  0.13227917382E+02 -0.10450925748E+02 -0.81534882184E+01  0.18726425643E+02  0.00000000000E+00 0. -1.
         11    1    3    3    0    0  0.96109897162E+01  0.29099190113E+02 -0.11054141145E+02  0.32578029795E+02  0.51100000000E-03 0.  1.
        -11    1    3    3    0    0 -0.23253836465E+02 -0.15396594034E+02  0.92228350499E+01  0.29374422629E+02  0.51100000000E-03 0. -1.
        -12    1    3    3    0    0  0.41492936638E+00 -0.32516703319E+01  0.99847943133E+01  0.10509121933E+02  0.00000000000E+00 0.  1.
</event>
<event>
 7    1  0.1375918E-013  0.7246150E+02  0.7816164E-02  0.1226708E+00
        -11   -1    0    0    0    0  0.00000000000E+00  0.00000000000E+00  0.45593999997E+02  0.45594000000E+02  0.51100000000E-03 0.  1.
         11   -1    0    0    0    0 -0.00000000000E+00 -0.00000000000E+00 -0.45593999997E+02  0.45594000000E+02  0.51100000000E-03 0. -1.
    9900012    2    1    2    0    0  0.40224400174E+01 -0.23796697669E+00  0.18287841373E+02  0.72461500218E+02  0.69999908713E+02 0.  0.
         12    1    1    2    0    0 -0.40224400174E+01  0.23796697669E+00 -0.18287841373E+02  0.18726499782E+02  0.00000000000E+00 0. -1.
         11    1    3    3    0    0  0.17146595149E+02  0.98866684893E+01  0.23754041403E+02  0.30919353522E+02  0.51100000000E-03 0. -1.
        -11    1    3    3    0    0 -0.10518151666E+02  0.12766233042E+02  0.33450563964E+01  0.16875948065E+02  0.51100000000E-03 0.  1.
         12    1    3    3    0    0 -0.26060034659E+01 -0.22890868508E+02 -0.88112564258E+01  0.24666198631E+02  0.00000000000E+00 0. -1.
</event>
<event>
 7    1  0.1375918E-013  0.7246133E+02  0.7816164E-02  0.1226709E+00
        -11   -1    0    0    0    0  0.00000000000E+00  0.00000000000E+00  0.45593999997E+02  0.45594000000E+02  0.51100000000E-03 0.  1.
         11   -1    0    0    0    0 -0.00000000000E+00 -0.00000000000E+00 -0.45593999997E+02  0.45594000000E+02  0.51100000000E-03 0. -1.
    9900012    2    1    2    0    0  0.10185878742E+02 -0.75650903185E+01  0.13773360585E+02  0.72461329738E+02  0.69999686630E+02 0.  0.
         12    1    1    2    0    0 -0.10185878742E+02  0.75650903185E+01 -0.13773360585E+02  0.18726670262E+02  0.00000000000E+00 0. -1.
         11    1    3    3    0    0 -0.12246044068E+02  0.19050344643E+01 -0.17986646383E+00  0.12394640125E+02  0.51100000000E-03 0.  1.
        -11    1    3    3    0    0  0.24145987545E+02 -0.19308512939E+02 -0.11294811286E+02  0.32915348224E+02  0.51100000000E-03 0. -1.
        -12    1    3    3    0    0 -0.17140647346E+01  0.98383881565E+01  0.25248038335E+02  0.27151341389E+02  0.00000000000E+00 0.  1.
</event>
<event>
 7    1  0.1375918E-013  0.7246160E+02  0.7816164E-02  0.1226708E+00
        -11   -1    0    0    0    0  0.00000000000E+00  0.00000000000E+00  0.45593999997E+02  0.45594000000E+02  0.51100000000E-03 0. -1.
         11   -1    0    0    0    0 -0.00000000000E+00 -0.00000000000E+00 -0.45593999997E+02  0.45594000000E+02  0.51100000000E-03 0.  1.
    9900012    2    1    2    0    0 -0.17050196336E+02  0.63576896173E+01 -0.44213788192E+01  0.72461601440E+02  0.70000040573E+02 0.  0.
         12    1    1    2    0    0  0.17050196336E+02 -0.63576896173E+01  0.44213788192E+01  0.18726398560E+02  0.00000000000E+00 0. -1.
         11    1    3    3    0    0 -0.27338162641E+02  0.26669620013E+02  0.47359098217E+01  0.38484706187E+02  0.51100000000E-03 0. -1.
        -11    1    3    3    0    0  0.97599024265E+01 -0.11583131985E+02  0.61501101131E+01  0.16347736743E+02  0.51100000000E-03 0.  1.
        -12    1    3    3    0    0  0.52806387800E+00 -0.87287984111E+01 -0.15307398754E+02  0.17629158510E+02  0.00000000000E+00 0.  1.
</event>
<event>
 7    1  0.1375918E-013  0.7246158E+02  0.7816164E-02  0.1226708E+00
        -11   -1    0    0    0    0  0.00000000000E+00  0.00000000000E+00  0.45593999997E+02  0.45594000000E+02  0.51100000000E-03 0.  1.
         11   -1    0    0    0    0 -0.00000000000E+00 -0.00000000000E+00 -0.45593999997E+02  0.45594000000E+02  0.51100000000E-03 0. -1.
    9900012    2    1    2    0    0  0.66079155396E+01  0.18485646109E+01  0.17424040135E+02  0.72461577130E+02  0.70000008904E+02 0.  0.
         12    1    1    2    0    0 -0.66079155396E+01 -0.18485646109E+01 -0.17424040135E+02  0.18726422870E+02  0.00000000000E+00 0. -1.
         11    1    3    3    0    0 -0.38024566589E+01 -0.27134685108E+00 -0.58664713436E+01  0.69962698663E+01  0.51100000000E-03 0. -1.
        -11    1    3    3    0    0  0.34454324211E+02 -0.31829355726E+01  0.53764618499E+01  0.35016251627E+02  0.51100000000E-03 0.  1.
        -12    1    3    3    0    0 -0.24043952013E+02  0.53028470346E+01  0.17914049628E+02  0.30449055636E+02  0.00000000000E+00 0.  1.
</event>
<event>
 7    1  0.1375918E-013  0.7246159E+02  0.7816164E-02  0.1226708E+00
        -11   -1    0    0    0    0  0.00000000000E+00  0.00000000000E+00  0.45593999997E+02  0.45594000000E+02  0.51100000000E-03 0.  1.
         11   -1    0    0    0    0 -0.00000000000E+00 -0.00000000000E+00 -0.45593999997E+02  0.45594000000E+02  0.51100000000E-03 0. -1.
    9900012    2    1    2    0    0 -0.43819232365E+01  0.11921366039E+02 -0.13760744901E+02  0.72461592985E+02  0.70000029558E+02 0.  0.
         12    1    1    2    0    0  0.43819232365E+01 -0.11921366039E+02  0.13760744901E+02  0.18726407015E+02  0.00000000000E+00 0. -1.
         11    1    3    3    0    0 -0.16747661394E+02  0.77989910961E+01  0.10556092063E+02  0.21277676193E+02  0.51100000000E-03 0. -1.
        -11    1    3    3    0    0  0.20424794862E+02  0.17276777614E+02 -0.23707615919E+02  0.35745074384E+02  0.51100000000E-03 0.  1.
         12    1    3    3    0    0 -0.80590567045E+01 -0.13154402672E+02 -0.60922104485E+00  0.15438842408E+02  0.00000000000E+00 0. -1.
</event>
<event>
 7    1  0.1375918E-013  0.7246154E+02  0.7816164E-02  0.1226708E+00
        -11   -1    0    0    0    0  0.00000000000E+00  0.00000000000E+00  0.45593999997E+02  0.45594000000E+02  0.51100000000E-03 0. -1.
         11   -1    0    0    0    0 -0.00000000000E+00 -0.00000000000E+00 -0.45593999997E+02  0.45594000000E+02  0.51100000000E-03 0.  1.
    9900012    2    1    2    0    0  0.16076580153E+02  0.40505575437E+01 -0.87072938824E+01  0.72461537105E+02  0.69999956764E+02 0.  0.
         12    1    1    2    0    0 -0.16076580153E+02 -0.40505575437E+01  0.87072938824E+01  0.18726462895E+02  0.00000000000E+00 0. -1.
         11    1    3    3    0    0  0.83455178251E+00 -0.17455061065E+02  0.56904127333E+01  0.18378150908E+02  0.51100000000E-03 0.  1.
        -11    1    3    3    0    0  0.12058475841E+02  0.30038823242E+02  0.49064958996E+01  0.32738531483E+02  0.51100000000E-03 0. -1.
        -12    1    3    3    0    0  0.31835525294E+01 -0.85332046334E+01 -0.19304202515E+02  0.21344854714E+02  0.00000000000E+00 0.  1.
</event>
<event>
 7    1  0.1375918E-013  0.7246159E+02  0.7816164E-02  0.1226708E+00
        -11   -1    0    0    0    0  0.00000000000E+00  0.00000000000E+00  0.45593999997E+02  0.45594000000E+02  0.51100000000E-03 0. -1.
         11   -1    0    0    0    0 -0.00000000000E+00 -0.00000000000E+00 -0.45593999997E+02  0.45594000000E+02  0.51100000000E-03 0.  1.
    9900012    2    1    2    0    0 -0.95848533593E+01 -0.53509397238E+01 -0.15171564400E+02  0.72461592544E+02  0.70000028984E+02 0.  0.
         12    1    1    2    0    0  0.95848533593E+01  0.53509397238E+01  0.15171564400E+02  0.18726407456E+02  0.00000000000E+00 0. -1.
         11    1    3    3    0    0  0.20177478712E+02  0.12417325602E+02 -0.37376488567E+01  0.23985217145E+02  0.51100000000E-03 0. -1.
        -11    1    3    3    0    0 -0.90645036978E+01  0.56458707336E+00 -0.17907740381E+02  0.20079122284E+02  0.51100000000E-03 0.  1.
         12    1    3    3    0    0 -0.20697828373E+02 -0.18332852399E+02  0.64738248376E+01  0.28397253115E+02  0.00000000000E+00 0. -1.
</event>
<event>
 7    1  0.1375918E-013  0.7246146E+02  0.7816164E-02  0.1226708E+00
        -11   -1    0    0    0    0  0.00000000000E+00  0.00000000000E+00  0.45593999997E+02  0.45594000000E+02  0.51100000000E-03 0. -1.
         11   -1    0    0    0    0 -0.00000000000E+00 -0.00000000000E+00 -0.45593999997E+02  0.45594000000E+02  0.51100000000E-03 0.  1.
    9900012    2    1    2    0    0 -0.12827823741E+02  0.40682919514E+01 -0.13022256228E+02  0.72461462183E+02  0.69999859165E+02 0.  0.
         12    1    1    2    0    0  0.12827823741E+02 -0.40682919514E+01  0.13022256228E+02  0.18726537817E+02  0.00000000000E+00 0. -1.
         11    1    3    3    0    0 -0.29608364597E+02 -0.42146114684E+01 -0.23016957507E+02  0.37738555047E+02  0.51100000000E-03 0. -1.
        -11    1    3    3    0    0  0.21263629660E+02  0.15987047828E+01 -0.70356136762E+00  0.21335247882E+02  0.51100000000E-03 0.  1.
         12    1    3    3    0    0 -0.44830888045E+01  0.66841986371E+01  0.10698262647E+02  0.13387659254E+02  0.00000000000E+00 0. -1.
</event>
<event>
 7    1  0.1375918E-013  0.7246151E+02  0.7816164E-02  0.1226708E+00
        -11   -1    0    0    0    0  0.00000000000E+00  0.00000000000E+00  0.45593999997E+02  0.45594000000E+02  0.51100000000E-03 0. -1.
         11   -1    0    0    0    0 -0.00000000000E+00 -0.00000000000E+00 -0.45593999997E+02  0.45594000000E+02  0.51100000000E-03 0.  1.
    9900012    2    1    2    0    0 -0.17190125864E+02 -0.63306820640E+01 -0.38863147337E+01  0.72461510611E+02  0.69999922252E+02 0.  0.
         12    1    1    2    0    0  0.17190125864E+02  0.63306820640E+01  0.38863147337E+01  0.18726489389E+02  0.00000000000E+00 0. -1.
         11    1    3    3    0    0 -0.15743705832E+02  0.13432265892E+02  0.11827825743E+02  0.23836683964E+02  0.51100000000E-03 0. -1.
        -11    1    3    3    0    0  0.18023353841E+02 -0.10158706966E+01 -0.11139204487E+02  0.21212146375E+02  0.51100000000E-03 0.  1.
        -12    1    3    3    0    0 -0.19469773873E+02 -0.18747077260E+02 -0.45749359893E+01  0.27412680273E+02  0.00000000000E+00 0.  1.
</event>
<event>
 7    1  0.1375918E-013  0.7246200E+02  0.7816164E-02  0.1226707E+00
        -11   -1    0    0    0    0  0.00000000000E+00  0.00000000000E+00  0.45593999997E+02  0.45594000000E+02  0.51100000000E-03 0.  1.
         11   -1    0    0    0    0 -0.00000000000E+00 -0.00000000000E+00 -0.45593999997E+02  0.45594000000E+02  0.51100000000E-03 0. -1.
    9900012    2    1    2    0    0  0.16006592369E+02  0.88725001606E+01  0.39662142274E+01  0.72461998994E+02  0.70000558459E+02 0.  0.
         12    1    1    2    0    0 -0.16006592369E+02 -0.88725001606E+01 -0.39662142274E+01  0.18726001006E+02  0.00000000000E+00 0. -1.
         11    1    3    3    0    0 -0.46996156127E+01 -0.15604394502E+02 -0.19886763281E+02  0.25711220677E+02  0.51100000000E-03 0. -1.
        -11    1    3    3    0    0  0.37680351328E+01  0.21406315445E+02  0.74605522995E+01  0.22980171248E+02  0.51100000000E-03 0.  1.
         12    1    3    3    0    0  0.16938172849E+02  0.30705792168E+01  0.16392425209E+02  0.23770607069E+02  0.00000000000E+00 0. -1.
</event>
<event>
 7    1  0.1375918E-013  0.7246169E+02  0.7816164E-02  0.1226708E+00
        -11   -1    0    0    0    0  0.00000000000E+00  0.00000000000E+00  0.45593999997E+02  0.45594000000E+02  0.51100000000E-03 0. -1.
         11   -1    0    0    0    0 -0.00000000000E+00 -0.00000000000E+00 -0.45593999997E+02  0.45594000000E+02  0.51100000000E-03 0.  1.
    9900012    2    1    2    0    0  0.15695655661E+02  0.81699793574E+01  0.61296483799E+01  0.72461688068E+02  0.70000153422E+02 0.  0.
         12    1    1    2    0    0 -0.15695655661E+02 -0.81699793574E+01 -0.61296483799E+01  0.18726311932E+02  0.00000000000E+00 0. -1.
         11    1    3    3    0    0  0.21140973373E+02 -0.32073511308E+01  0.21383017932E+02  0.30240061385E+02  0.51100000000E-03 0. -1.
        -11    1    3    3    0    0 -0.51780274333E+01  0.20050880729E+02  0.40105214297E+01  0.21093460326E+02  0.51100000000E-03 0.  1.
         12    1    3    3    0    0 -0.26729027877E+00 -0.86735502407E+01 -0.19263890982E+02  0.21128166357E+02  0.00000000000E+00 0. -1.
</event>
<event>
 7    1  0.1375918E-013  0.7246158E+02  0.7816164E-02  0.1226708E+00
        -11   -1    0    0    0    0  0.00000000000E+00  0.00000000000E+00  0.45593999997E+02  0.45594000000E+02  0.51100000000E-03 0.  1.
         11   -1    0    0    0    0 -0.00000000000E+00 -0.00000000000E+00 -0.45593999997E+02  0.45594000000E+02  0.51100000000E-03 0. -1.
    9900012    2    1    2    0    0 -0.12926354337E+02  0.13507592685E+02  0.10644756162E+01  0.72461580029E+02  0.70000012681E+02 0.  0.
         12    1    1    2    0    0  0.12926354337E+02 -0.13507592685E+02 -0.10644756162E+01  0.18726419971E+02  0.00000000000E+00 0. -1.
         11    1    3    3    0    0  0.15027333928E+01 -0.18037425560E+01 -0.17342389701E+02  0.17500576437E+02  0.51100000000E-03 0. -1.
        -11    1    3    3    0    0 -0.94057289662E+01  0.31961646170E+02  0.66656650412E+01  0.33977134282E+02  0.51100000000E-03 0.  1.
        -12    1    3    3    0    0 -0.50233587638E+01 -0.16650310929E+02  0.11741200276E+02  0.20983869310E+02  0.00000000000E+00 0.  1.
</event>
<event>
 8    1  0.1375918E-013  0.7246205E+02  0.7816164E-02  0.1226707E+00
        -11   -1    0    0    0    0  0.00000000000E+00  0.00000000000E+00  0.45593999997E+02  0.45594000000E+02  0.51100000000E-03 0.  1.
         11   -1    0    0    0    0 -0.00000000000E+00 -0.00000000000E+00 -0.45593999997E+02  0.45594000000E+02  0.51100000000E-03 0. -1.
    9900012    2    1    2    0    0  0.89359604930E+01 -0.10649305136E+02  0.12546004412E+02  0.72462046979E+02  0.70000620968E+02 0.  0.
         24    2    3    3    0    0  0.93245087977E+01 -0.23353132741E+02  0.22502915332E+01  0.56105399721E+02  0.50104259227E+02 0.  0.
         12    1    1    2    0    0 -0.89359604930E+01  0.10649305136E+02 -0.12546004412E+02  0.18725953021E+02  0.00000000000E+00 0. -1.
         11    1    3    3    0    0 -0.38854830471E+00  0.12703827604E+02  0.10295712879E+02  0.16356647259E+02  0.51100000000E-03 0.  1.
        -11    1    4    4    0    0  0.26060189518E+01 -0.38966244318E+02  0.10882925410E+01  0.39068451620E+02  0.51100000000E-03 0. -1.
         12    1    4    4    0    0  0.67184898459E+01  0.15613111577E+02  0.11619989922E+01  0.17036948101E+02  0.00000000000E+00 0. -1.
</event>
<event>
 7    1  0.1375918E-013  0.7246157E+02  0.7816164E-02  0.1226708E+00
        -11   -1    0    0    0    0  0.00000000000E+00  0.00000000000E+00  0.45593999997E+02  0.45594000000E+02  0.51100000000E-03 0. -1.
         11   -1    0    0    0    0 -0.00000000000E+00 -0.00000000000E+00 -0.45593999997E+02  0.45594000000E+02  0.51100000000E-03 0.  1.
    9900012    2    1    2    0    0 -0.10816294133E+02  0.12234424673E+02 -0.91654673385E+01  0.72461570619E+02  0.70000000423E+02 0.  0.
         12    1    1    2    0    0  0.10816294133E+02 -0.12234424673E+02  0.91654673385E+01  0.18726429381E+02  0.00000000000E+00 0. -1.
         11    1    3    3    0    0 -0.33362603934E+01  0.33833087490E+02 -0.17439042676E+02  0.38209012710E+02  0.51100000000E-03 0. -1.
        -11    1    3    3    0    0  0.61629947448E+01 -0.15832822998E+02  0.93666376212E+01  0.19400894023E+02  0.51100000000E-03 0.  1.
        -12    1    3    3    0    0 -0.13643028484E+02 -0.57658398199E+01 -0.10930622836E+01  0.14851663887E+02  0.00000000000E+00 0.  1.
</event>
<event>
 7    1  0.1375918E-013  0.7246159E+02  0.7816164E-02  0.1226708E+00
        -11   -1    0    0    0    0  0.00000000000E+00  0.00000000000E+00  0.45593999997E+02  0.45594000000E+02  0.51100000000E-03 0.  1.
         11   -1    0    0    0    0 -0.00000000000E+00 -0.00000000000E+00 -0.45593999997E+02  0.45594000000E+02  0.51100000000E-03 0. -1.
    9900012    2    1    2    0    0  0.96327652862E+01 -0.15583575545E+02 -0.38782229598E+01  0.72461585310E+02  0.70000019560E+02 0.  0.
         12    1    1    2    0    0 -0.96327652862E+01  0.15583575545E+02  0.38782229598E+01  0.18726414690E+02  0.00000000000E+00 0. -1.
         11    1    3    3    0    0  0.27026940569E+02 -0.32573897374E+01 -0.25804551780E+02  0.37509212166E+02  0.51100000000E-03 0. -1.
        -11    1    3    3    0    0 -0.67449619906E+01 -0.13788548436E+02  0.17631202317E+02  0.23376866249E+02  0.51100000000E-03 0.  1.
        -12    1    3    3    0    0 -0.10649213292E+02  0.14623626278E+01  0.42951265038E+01  0.11575506895E+02  0.00000000000E+00 0.  1.
</event>
<event>
 7    1  0.1375918E-013  0.7246158E+02  0.7816164E-02  0.1226708E+00
        -11   -1    0    0    0    0  0.00000000000E+00  0.00000000000E+00  0.45593999997E+02  0.45594000000E+02  0.51100000000E-03 0. -1.
         11   -1    0    0    0    0 -0.00000000000E+00 -0.00000000000E+00 -0.45593999997E+02  0.45594000000E+02  0.51100000000E-03 0.  1.
    9900012    2    1    2    0    0  0.11353057822E+01 -0.48678866820E+01 -0.18046984878E+02  0.72461577407E+02  0.70000009265E+02 0.  0.
         12    1    1    2    0    0 -0.11353057822E+01  0.48678866820E+01  0.18046984878E+02  0.18726422593E+02  0.00000000000E+00 0. -1.
         11    1    3    3    0    0  0.16661574542E+02  0.21992085129E+02 -0.24947170446E+01  0.27703492342E+02  0.51100000000E-03 0. -1.
        -11    1    3    3    0    0 -0.14421980442E+01 -0.11063575921E+02 -0.20212793595E+02  0.23087651949E+02  0.51100000000E-03 0.  1.
         12    1    3    3    0    0 -0.14084070716E+02 -0.15796395890E+02  0.46605257622E+01  0.21670433116E+02  0.00000000000E+00 0. -1.
</event>
<event>
 7    1  0.1375918E-013  0.7246156E+02  0.7816164E-02  0.1226708E+00
        -11   -1    0    0    0    0  0.00000000000E+00  0.00000000000E+00  0.45593999997E+02  0.45594000000E+02  0.51100000000E-03 0.  1.
         11   -1    0    0    0    0 -0.00000000000E+00 -0.00000000000E+00 -0.45593999997E+02  0.45594000000E+02  0.51100000000E-03 0. -1.
    9900012    2    1    2    0    0 -0.67833332694E+01 -0.78912825485E+01  0.15568997778E+02  0.72461557671E+02  0.69999983556E+02 0.  0.
         12    1    1    2    0    0  0.67833332694E+01  0.78912825485E+01 -0.15568997778E+02  0.18726442329E+02  0.00000000000E+00 0. -1.
         11    1    3    3    0    0 -0.32992504332E+02  0.61491337722E+01 -0.68163505490E+01  0.34245873085E+02  0.51100000000E-03 0. -1.
        -11    1    3    3    0    0  0.36610734825E+01  0.39087195594E+00  0.53141702027E+01  0.64650324929E+01  0.51100000000E-03 0.  1.
         12    1    3    3    0    0  0.22548097580E+02 -0.14431288277E+02  0.17071178124E+02  0.31750652093E+02  0.00000000000E+00 0. -1.
</event>
<event>
 7    1  0.1375918E-013  0.7246162E+02  0.7816164E-02  0.1226708E+00
        -11   -1    0    0    0    0  0.00000000000E+00  0.00000000000E+00  0.45593999997E+02  0.45594000000E+02  0.51100000000E-03 0.  1.
         11   -1    0    0    0    0 -0.00000000000E+00 -0.00000000000E+00 -0.45593999997E+02  0.45594000000E+02  0.51100000000E-03 0. -1.
    9900012    2    1    2    0    0  0.77246887955E+01 -0.40146554914E+01  0.16579776981E+02  0.72461620733E+02  0.70000065706E+02 0.  0.
         12    1    1    2    0    0 -0.77246887955E+01  0.40146554914E+01 -0.16579776981E+02  0.18726379267E+02  0.00000000000E+00 0. -1.
         11    1    3    3    0    0 -0.41260302480E+01  0.79556060617E+01 -0.21360239880E+02  0.23164102430E+02  0.51100000000E-03 0. -1.
        -11    1    3    3    0    0  0.24795579379E+01 -0.19234508550E+02  0.26344166053E+02  0.32712835585E+02  0.51100000000E-03 0.  1.
        -12    1    3    3    0    0  0.93711611056E+01  0.72642469969E+01  0.11595850808E+02  0.16584682718E+02  0.00000000000E+00 0.  1.
</event>
<event>
 7    1  0.1375918E-013  0.7246155E+02  0.7816164E-02  0.1226708E+00
        -11   -1    0    0    0    0  0.00000000000E+00  0.00000000000E+00  0.45593999997E+02  0.45594000000E+02  0.51100000000E-03 0. -1.
         11   -1    0    0    0    0 -0.00000000000E+00 -0.00000000000E+00 -0.45593999997E+02  0.45594000000E+02  0.51100000000E-03 0.  1.
    9900012    2    1    2    0    0 -0.39756341881E+01 -0.14793062074E+02 -0.10772169983E+02  0.72461548151E+02  0.69999971154E+02 0.  0.
         12    1    1    2    0    0  0.39756341881E+01  0.14793062074E+02  0.10772169983E+02  0.18726451849E+02  0.00000000000E+00 0. -1.
         11    1    3    3    0    0 -0.13904641039E+02  0.46443386227E+01 -0.69397796797E+01  0.16219416325E+02  0.51100000000E-03 0. -1.
        -11    1    3    3    0    0  0.28331762258E+02 -0.90437275950E+01  0.95389232784E+01  0.31232496202E+02  0.51100000000E-03 0.  1.
        -12    1    3    3    0    0 -0.18402755407E+02 -0.10393673102E+02 -0.13371313581E+02  0.25009635623E+02  0.00000000000E+00 0.  1.
</event>
<event>
 7    1  0.1375918E-013  0.7246156E+02  0.7816164E-02  0.1226708E+00
        -11   -1    0    0    0    0  0.00000000000E+00  0.00000000000E+00  0.45593999997E+02  0.45594000000E+02  0.51100000000E-03 0.  1.
         11   -1    0    0    0    0 -0.00000000000E+00 -0.00000000000E+00 -0.45593999997E+02  0.45594000000E+02  0.51100000000E-03 0. -1.
    9900012    2    1    2    0    0 -0.13471762267E+02 -0.12480215271E+02 -0.36654382272E+01  0.72461559089E+02  0.69999985403E+02 0.  0.
         12    1    1    2    0    0  0.13471762267E+02  0.12480215271E+02  0.36654382272E+01  0.18726440911E+02  0.00000000000E+00 0. -1.
         11    1    3    3    0    0  0.62696774534E+01 -0.37569564765E+01 -0.42302548394E+01  0.84450360332E+01  0.51100000000E-03 0. -1.
        -11    1    3    3    0    0 -0.27851593159E+02  0.11760338103E+02 -0.18018383135E+02  0.35194870718E+02  0.51100000000E-03 0.  1.
        -12    1    3    3    0    0  0.81101534383E+01 -0.20483596897E+02  0.18583199747E+02  0.28821652338E+02  0.00000000000E+00 0.  1.
</event>
<event>
 7    1  0.1375918E-013  0.7246190E+02  0.7816164E-02  0.1226707E+00
        -11   -1    0    0    0    0  0.00000000000E+00  0.00000000000E+00  0.45593999997E+02  0.45594000000E+02  0.51100000000E-03 0. -1.
         11   -1    0    0    0    0 -0.00000000000E+00 -0.00000000000E+00 -0.45593999997E+02  0.45594000000E+02  0.51100000000E-03 0.  1.
    9900012    2    1    2    0    0  0.12280364289E+02  0.17492316570E+01 -0.14028536606E+02  0.72461895286E+02  0.70000423360E+02 0.  0.
         12    1    1    2    0    0 -0.12280364289E+02 -0.17492316570E+01  0.14028536606E+02  0.18726104714E+02  0.00000000000E+00 0. -1.
         11    1    3    3    0    0  0.12455181479E+02  0.12711457096E+02  0.18802037688E+02  0.25888787316E+02  0.51100000000E-03 0. -1.
        -11    1    3    3    0    0 -0.11364524139E+02 -0.67372149056E+01 -0.31957280560E+02  0.34580489509E+02  0.51100000000E-03 0.  1.
         12    1    3    3    0    0  0.11189706949E+02 -0.42250105336E+01 -0.87329373391E+00  0.11992618461E+02  0.00000000000E+00 0. -1.
</event>
<event>
 7    1  0.1375918E-013  0.7246159E+02  0.7816164E-02  0.1226708E+00
        -11   -1    0    0    0    0  0.00000000000E+00  0.00000000000E+00  0.45593999997E+02  0.45594000000E+02  0.51100000000E-03 0. -1.
         11   -1    0    0    0    0 -0.00000000000E+00 -0.00000000000E+00 -0.45593999997E+02  0.45594000000E+02  0.51100000000E-03 0.  1.
    9900012    2    1    2    0    0  0.61314914053E+01  0.71425522614E+01 -0.16188492690E+02  0.72461587230E+02  0.70000022062E+02 0.  0.
         12    1    1    2    0    0 -0.61314914053E+01 -0.71425522614E+01  0.16188492690E+02  0.18726412770E+02  0.00000000000E+00 0. -1.
         11    1    3    3    0    0  0.64049739799E+01  0.21950764673E+02 -0.28403314563E+02  0.36463790805E+02  0.51100000000E-03 0. -1.
        -11    1    3    3    0    0  0.12294456647E+02 -0.16654454796E+02  0.46623396700E+01  0.21219376528E+02  0.51100000000E-03 0.  1.
         12    1    3    3    0    0 -0.12567939221E+02  0.18462423844E+01  0.75524822039E+01  0.14778419897E+02  0.00000000000E+00 0. -1.
</event>
<event>
 7    1  0.1375918E-013  0.7246161E+02  0.7816164E-02  0.1226708E+00
        -11   -1    0    0    0    0  0.00000000000E+00  0.00000000000E+00  0.45593999997E+02  0.45594000000E+02  0.51100000000E-03 0. -1.
         11   -1    0    0    0    0 -0.00000000000E+00 -0.00000000000E+00 -0.45593999997E+02  0.45594000000E+02  0.51100000000E-03 0.  1.
    9900012    2    1    2    0    0  0.17721365236E+02  0.35626910057E+01 -0.48926683870E+01  0.72461608010E+02  0.70000049131E+02 0.  0.
         12    1    1    2    0    0 -0.17721365236E+02 -0.35626910057E+01  0.48926683870E+01  0.18726391990E+02  0.00000000000E+00 0. -1.
         11    1    3    3    0    0  0.20642811470E+02  0.15192264083E+02 -0.42801472019E+01  0.25985577032E+02  0.51100000000E-03 0.  1.
        -11    1    3    3    0    0 -0.19479239056E+02 -0.81020636647E+01 -0.13633084770E+02  0.25118622383E+02  0.51100000000E-03 0. -1.
         12    1    3    3    0    0  0.16557792823E+02 -0.35275094126E+01  0.13020563585E+02  0.21357408595E+02  0.00000000000E+00 0. -1.
</event>
<event>
 7    1  0.1375918E-013  0.7246159E+02  0.7816164E-02  0.1226708E+00
        -11   -1    0    0    0    0  0.00000000000E+00  0.00000000000E+00  0.45593999997E+02  0.45594000000E+02  0.51100000000E-03 0.  1.
         11   -1    0    0    0    0 -0.00000000000E+00 -0.00000000000E+00 -0.45593999997E+02  0.45594000000E+02  0.51100000000E-03 0. -1.
    9900012    2    1    2    0    0 -0.23857658026E+01 -0.79454419226E+01  0.16788579205E+02  0.72461593042E+02  0.70000029634E+02 0.  0.
         12    1    1    2    0    0  0.23857658026E+01  0.79454419226E+01 -0.16788579205E+02  0.18726406958E+02  0.00000000000E+00 0. -1.
         11    1    3    3    0    0 -0.16696932893E+02  0.37029287521E+01  0.37668716854E+02  0.41369451036E+02  0.51100000000E-03 0. -1.
        -11    1    3    3    0    0  0.66998207145E+01  0.23251916548E+01 -0.72282320152E+01  0.10126275335E+02  0.51100000000E-03 0.  1.
         12    1    3    3    0    0  0.76113463757E+01 -0.13973562329E+02 -0.13651905633E+02  0.20965866671E+02  0.00000000000E+00 0. -1.
</event>
<event>
 7    1  0.1375918E-013  0.7246157E+02  0.7816164E-02  0.1226708E+00
        -11   -1    0    0    0    0  0.00000000000E+00  0.00000000000E+00  0.45593999997E+02  0.45594000000E+02  0.51100000000E-03 0. -1.
         11   -1    0    0    0    0 -0.00000000000E+00 -0.00000000000E+00 -0.45593999997E+02  0.45594000000E+02  0.51100000000E-03 0.  1.
    9900012    2    1    2    0    0  0.76465275676E+01  0.11254514615E+02 -0.12866463107E+02  0.72461565317E+02  0.69999993516E+02 0.  0.
         12    1    1    2    0    0 -0.76465275676E+01 -0.11254514615E+02  0.12866463107E+02  0.18726434683E+02  0.00000000000E+00 0. -1.
         11    1    3    3    0    0 -0.54275394849E+01  0.36794397805E+02  0.47960378194E+01  0.37500504980E+02  0.51100000000E-03 0. -1.
        -11    1    3    3    0    0  0.12164085694E+02 -0.14635341725E+02 -0.92545793575E+01  0.21161414119E+02  0.51100000000E-03 0.  1.
         12    1    3    3    0    0  0.90998135808E+00 -0.10904541465E+02 -0.84079215687E+01  0.13799646218E+02  0.00000000000E+00 0. -1.
</event>
<event>
 7    1  0.1375918E-013  0.7246159E+02  0.7816164E-02  0.1226708E+00
        -11   -1    0    0    0    0  0.00000000000E+00  0.00000000000E+00  0.45593999997E+02  0.45594000000E+02  0.51100000000E-03 0. -1.
         11   -1    0    0    0    0 -0.00000000000E+00 -0.00000000000E+00 -0.45593999997E+02  0.45594000000E+02  0.51100000000E-03 0.  1.
    9900012    2    1    2    0    0 -0.37347928786E+01  0.84835554354E+01 -0.16271415708E+02  0.72461591914E+02  0.70000028163E+02 0.  0.
         12    1    1    2    0    0  0.37347928786E+01 -0.84835554354E+01  0.16271415708E+02  0.18726408086E+02  0.00000000000E+00 0. -1.
         11    1    3    3    0    0 -0.22442261997E+02  0.60318309208E+01  0.19092295080E+02  0.30075801560E+02  0.51100000000E-03 0. -1.
        -11    1    3    3    0    0  0.11416422055E+01  0.23170041942E+01 -0.16138110548E+02  0.16343514545E+02  0.51100000000E-03 0.  1.
         12    1    3    3    0    0  0.17565826913E+02  0.13472032034E+00 -0.19225600240E+02  0.26042275808E+02  0.00000000000E+00 0. -1.
</event>
<event>
 7    1  0.1375918E-013  0.7246152E+02  0.7816164E-02  0.1226708E+00
        -11   -1    0    0    0    0  0.00000000000E+00  0.00000000000E+00  0.45593999997E+02  0.45594000000E+02  0.51100000000E-03 0. -1.
         11   -1    0    0    0    0 -0.00000000000E+00 -0.00000000000E+00 -0.45593999997E+02  0.45594000000E+02  0.51100000000E-03 0.  1.
    9900012    2    1    2    0    0  0.17463564359E+02 -0.58162238767E+01  0.34462403491E+01  0.72461518407E+02  0.69999932407E+02 0.  0.
         12    1    1    2    0    0 -0.17463564359E+02  0.58162238767E+01 -0.34462403491E+01  0.18726481593E+02  0.00000000000E+00 0. -1.
         11    1    3    3    0    0 -0.19107828137E+02 -0.85200525897E+01  0.15392754863E+02  0.25973780910E+02  0.51100000000E-03 0. -1.
        -11    1    3    3    0    0  0.28535326271E+02  0.17305730425E+01 -0.20140222245E+02  0.34969819571E+02  0.51100000000E-03 0.  1.
         12    1    3    3    0    0  0.80360662246E+01  0.97325567048E+00  0.81937077320E+01  0.11517917927E+02  0.00000000000E+00 0. -1.
</event>
<event>
 7    1  0.1375918E-013  0.7246183E+02  0.7816164E-02  0.1226707E+00
        -11   -1    0    0    0    0  0.00000000000E+00  0.00000000000E+00  0.45593999997E+02  0.45594000000E+02  0.51100000000E-03 0. -1.
         11   -1    0    0    0    0 -0.00000000000E+00 -0.00000000000E+00 -0.45593999997E+02  0.45594000000E+02  0.51100000000E-03 0.  1.
    9900012    2    1    2    0    0 -0.65368441931E+01  0.54732398853E+01 -0.16672817016E+02  0.72461828098E+02  0.70000335836E+02 0.  0.
         12    1    1    2    0    0  0.65368441931E+01 -0.54732398853E+01  0.16672817016E+02  0.18726171902E+02  0.00000000000E+00 0. -1.
         11    1    3    3    0    0  0.21882275499E+02 -0.20145598023E+01  0.15880698570E+02  0.27112525141E+02  0.51100000000E-03 0. -1.
        -11    1    3    3    0    0 -0.11929956250E+02  0.56874922743E+00 -0.20690051854E+02  0.23889863495E+02  0.51100000000E-03 0.  1.
         12    1    3    3    0    0 -0.16489163442E+02  0.69190504601E+01 -0.11863463732E+02  0.21459439462E+02  0.00000000000E+00 0. -1.
</event>
<event>
 7    1  0.1375918E-013  0.7246154E+02  0.7816164E-02  0.1226708E+00
        -11   -1    0    0    0    0  0.00000000000E+00  0.00000000000E+00  0.45593999997E+02  0.45594000000E+02  0.51100000000E-03 0.  1.
         11   -1    0    0    0    0 -0.00000000000E+00 -0.00000000000E+00 -0.45593999997E+02  0.45594000000E+02  0.51100000000E-03 0. -1.
    9900012    2    1    2    0    0  0.21220149973E+01 -0.69110142561E+01  0.17274696276E+02  0.72461542857E+02  0.69999964258E+02 0.  0.
         12    1    1    2    0    0 -0.21220149973E+01  0.69110142561E+01 -0.17274696276E+02  0.18726457143E+02  0.00000000000E+00 0. -1.
         11    1    3    3    0    0  0.79449266429E+01  0.20973079807E+02  0.19277254305E+02  0.29573712479E+02  0.51100000000E-03 0. -1.
        -11    1    3    3    0    0 -0.15702352254E+02 -0.40276918671E+01  0.32616184010E+01  0.16535547252E+02  0.51100000000E-03 0.  1.
         12    1    3    3    0    0  0.98794406080E+01 -0.23856402196E+02 -0.52641764300E+01  0.26352283126E+02  0.00000000000E+00 0. -1.
</event>
<event>
 7    1  0.1375918E-013  0.7246159E+02  0.7816164E-02  0.1226708E+00
        -11   -1    0    0    0    0  0.00000000000E+00  0.00000000000E+00  0.45593999997E+02  0.45594000000E+02  0.51100000000E-03 0. -1.
         11   -1    0    0    0    0 -0.00000000000E+00 -0.00000000000E+00 -0.45593999997E+02  0.45594000000E+02  0.51100000000E-03 0.  1.
    9900012    2    1    2    0    0  0.81627275704E+01  0.16680475097E+02 -0.24104093928E+01  0.72461589658E+02  0.70000025225E+02 0.  0.
         12    1    1    2    0    0 -0.81627275704E+01 -0.16680475097E+02  0.24104093928E+01  0.18726410342E+02  0.00000000000E+00 0. -1.
         11    1    3    3    0    0  0.18509561000E+02  0.10134972093E+02 -0.19597834601E+02  0.28799247022E+02  0.51100000000E-03 0. -1.
        -11    1    3    3    0    0 -0.10525381819E+02  0.18949698004E+02  0.21497984463E+02  0.30529298274E+02  0.51100000000E-03 0.  1.
         12    1    3    3    0    0  0.17854838889E+00 -0.12404195000E+02 -0.43105592554E+01  0.13133044362E+02  0.00000000000E+00 0. -1.
</event>
<event>
 7    1  0.1375918E-013  0.7246157E+02  0.7816164E-02  0.1226708E+00
        -11   -1    0    0    0    0  0.00000000000E+00  0.00000000000E+00  0.45593999997E+02  0.45594000000E+02  0.51100000000E-03 0. -1.
         11   -1    0    0    0    0 -0.00000000000E+00 -0.00000000000E+00 -0.45593999997E+02  0.45594000000E+02  0.51100000000E-03 0.  1.
    9900012    2    1    2    0    0 -0.54613817450E+01 -0.28213638582E+01 -0.17688766567E+02  0.72461568219E+02  0.69999997296E+02 0.  0.
         12    1    1    2    0    0  0.54613817450E+01  0.28213638582E+01  0.17688766567E+02  0.18726431781E+02  0.00000000000E+00 0. -1.
         11    1    3    3    0    0 -0.79859082008E+01 -0.33026783240E+00  0.86440902953E+01  0.11773024417E+02  0.51100000000E-03 0. -1.
        -11    1    3    3    0    0 -0.17619905088E+01  0.96145538975E+01 -0.40444082966E+02  0.41608510000E+02  0.51100000000E-03 0.  1.
        -12    1    3    3    0    0  0.42865169646E+01 -0.12105649923E+02  0.14111226103E+02  0.19080033802E+02  0.00000000000E+00 0.  1.
</event>
<event>
 7    1  0.1375918E-013  0.7246157E+02  0.7816164E-02  0.1226708E+00
        -11   -1    0    0    0    0  0.00000000000E+00  0.00000000000E+00  0.45593999997E+02  0.45594000000E+02  0.51100000000E-03 0. -1.
         11   -1    0    0    0    0 -0.00000000000E+00 -0.00000000000E+00 -0.45593999997E+02  0.45594000000E+02  0.51100000000E-03 0.  1.
    9900012    2    1    2    0    0  0.57148491511E+01 -0.16059419974E+02 -0.77533688438E+01  0.72461569504E+02  0.69999998970E+02 0.  0.
         12    1    1    2    0    0 -0.57148491511E+01  0.16059419974E+02  0.77533688438E+01  0.18726430496E+02  0.00000000000E+00 0. -1.
         11    1    3    3    0    0 -0.75516292103E+01 -0.66335071723E+01  0.20339157847E+02  0.22687262138E+02  0.51100000000E-03 0. -1.
        -11    1    3    3    0    0  0.25931510514E+02 -0.78486469872E+01 -0.24468534240E+02  0.36506898871E+02  0.51100000000E-03 0.  1.
        -12    1    3    3    0    0 -0.12665032153E+02 -0.15772658142E+01 -0.36239924514E+01  0.13267408495E+02  0.00000000000E+00 0.  1.
</event>
<event>
 7    1  0.1375918E-013  0.7246161E+02  0.7816164E-02  0.1226708E+00
        -11   -1    0    0    0    0  0.00000000000E+00  0.00000000000E+00  0.45593999997E+02  0.45594000000E+02  0.51100000000E-03 0.  1.
         11   -1    0    0    0    0 -0.00000000000E+00 -0.00000000000E+00 -0.45593999997E+02  0.45594000000E+02  0.51100000000E-03 0. -1.
    9900012    2    1    2    0    0  0.26027375374E+00  0.18364029538E+02  0.36568486530E+01  0.72461605115E+02  0.70000045361E+02 0.  0.
         12    1    1    2    0    0 -0.26027375374E+00 -0.18364029538E+02 -0.36568486530E+01  0.18726394885E+02  0.00000000000E+00 0. -1.
         11    1    3    3    0    0 -0.11129569083E+02 -0.29992571257E+01 -0.25247252478E+01  0.11799876657E+02  0.51100000000E-03 0. -1.
        -11    1    3    3    0    0  0.28671308597E+02  0.17516912758E+02  0.19189280954E+02  0.38692566121E+02  0.51100000000E-03 0.  1.
        -12    1    3    3    0    0 -0.17281465760E+02  0.38463739055E+01 -0.13007707053E+02  0.21969162338E+02  0.00000000000E+00 0.  1.
</event>
<event>
 7    1  0.1375918E-013  0.7246158E+02  0.7816164E-02  0.1226708E+00
        -11   -1    0    0    0    0  0.00000000000E+00  0.00000000000E+00  0.45593999997E+02  0.45594000000E+02  0.51100000000E-03 0.  1.
         11   -1    0    0    0    0 -0.00000000000E+00 -0.00000000000E+00 -0.45593999997E+02  0.45594000000E+02  0.51100000000E-03 0. -1.
    9900012    2    1    2    0    0 -0.14606276868E+02 -0.45334991605E+01  0.10806610576E+02  0.72461580942E+02  0.70000013870E+02 0.  0.
         12    1    1    2    0    0  0.14606276868E+02  0.45334991605E+01 -0.10806610576E+02  0.18726419058E+02  0.00000000000E+00 0. -1.
         11    1    3    3    0    0  0.65332621634E+01  0.49100105685E+01 -0.10044349327E+02  0.12949157190E+02  0.51100000000E-03 0. -1.
        -11    1    3    3    0    0  0.47026700623E+01 -0.11904843421E+02  0.29494373289E+02  0.32152114372E+02  0.51100000000E-03 0.  1.
        -12    1    3    3    0    0 -0.25842209094E+02  0.24613336918E+01 -0.86434133858E+01  0.27360309380E+02  0.00000000000E+00 0.  1.
</event>
<event>
 7    1  0.1375918E-013  0.7246160E+02  0.7816164E-02  0.1226708E+00
        -11   -1    0    0    0    0  0.00000000000E+00  0.00000000000E+00  0.45593999997E+02  0.45594000000E+02  0.51100000000E-03 0.  1.
         11   -1    0    0    0    0 -0.00000000000E+00 -0.00000000000E+00 -0.45593999997E+02  0.45594000000E+02  0.51100000000E-03 0. -1.
    9900012    2    1    2    0    0  0.85611484103E+01  0.16259976419E+02  0.36052759216E+01  0.72461598592E+02  0.70000036863E+02 0.  0.
         12    1    1    2    0    0 -0.85611484103E+01 -0.16259976419E+02 -0.36052759216E+01  0.18726401408E+02  0.00000000000E+00 0. -1.
         11    1    3    3    0    0 -0.14094991480E+02  0.16564012666E+02 -0.25731408405E+02  0.33691848854E+02  0.51100000000E-03 0. -1.
        -11    1    3    3    0    0  0.96188686443E+01 -0.55812833500E+00  0.21490156094E+02  0.23551240953E+02  0.51100000000E-03 0.  1.
         12    1    3    3    0    0  0.13037271246E+02  0.25409208767E+00  0.78465282331E+01  0.15218508785E+02  0.00000000000E+00 0. -1.
</event>
<event>
 7    1  0.1375918E-013  0.7246158E+02  0.7816164E-02  0.1226708E+00
        -11   -1    0    0    0    0  0.00000000000E+00  0.00000000000E+00  0.45593999997E+02  0.45594000000E+02  0.51100000000E-03 0.  1.
         11   -1    0    0    0    0 -0.00000000000E+00 -0.00000000000E+00 -0.45593999997E+02  0.45594000000E+02  0.51100000000E-03 0. -1.
    9900012    2    1    2    0    0  0.15661079386E+02 -0.10266870202E+02 -0.30284306397E-01  0.72461576198E+02  0.70000007691E+02 0.  0.
         12    1    1    2    0    0 -0.15661079386E+02  0.10266870202E+02  0.30284306397E-01  0.18726423802E+02  0.00000000000E+00 0. -1.
         11    1    3    3    0    0  0.17594956365E+00 -0.15958861556E+02 -0.25696946026E+02  0.30249781086E+02  0.51100000000E-03 0. -1.
        -11    1    3    3    0    0 -0.28209991889E+01  0.12251368493E+02  0.42187237817E+01  0.13260908603E+02  0.51100000000E-03 0.  1.
         12    1    3    3    0    0  0.18306129011E+02 -0.65593771391E+01  0.21447937938E+02  0.28950886509E+02  0.00000000000E+00 0. -1.
</event>
<event>
 7    1  0.1375918E-013  0.7246164E+02  0.7816164E-02  0.1226708E+00
        -11   -1    0    0    0    0  0.00000000000E+00  0.00000000000E+00  0.45593999997E+02  0.45594000000E+02  0.51100000000E-03 0.  1.
         11   -1    0    0    0    0 -0.00000000000E+00 -0.00000000000E+00 -0.45593999997E+02  0.45594000000E+02  0.51100000000E-03 0. -1.
    9900012    2    1    2    0    0 -0.13929776888E+02 -0.65496484274E+01  0.10664890379E+02  0.72461642494E+02  0.70000094053E+02 0.  0.
         12    1    1    2    0    0  0.13929776888E+02  0.65496484274E+01 -0.10664890379E+02  0.18726357506E+02  0.00000000000E+00 0. -1.
         11    1    3    3    0    0  0.67507644043E+01  0.22847061089E+02  0.10127247270E+02  0.25886717791E+02  0.51100000000E-03 0.  1.
        -11    1    3    3    0    0  0.70694081486E+00 -0.24651259736E+02  0.29350034808E-01  0.24661411832E+02  0.51100000000E-03 0. -1.
         12    1    3    3    0    0 -0.21387482107E+02 -0.47454497810E+01  0.50829307404E+00  0.21913512871E+02  0.00000000000E+00 0. -1.
</event>
<event>
 7    1  0.1375918E-013  0.7246157E+02  0.7816164E-02  0.1226708E+00
        -11   -1    0    0    0    0  0.00000000000E+00  0.00000000000E+00  0.45593999997E+02  0.45594000000E+02  0.51100000000E-03 0. -1.
         11   -1    0    0    0    0 -0.00000000000E+00 -0.00000000000E+00 -0.45593999997E+02  0.45594000000E+02  0.51100000000E-03 0.  1.
    9900012    2    1    2    0    0 -0.79047679790E+01  0.16646372381E+02  0.33304586520E+01  0.72461574151E+02  0.70000005024E+02 0.  0.
         12    1    1    2    0    0  0.79047679790E+01 -0.16646372381E+02 -0.33304586520E+01  0.18726425849E+02  0.00000000000E+00 0. -1.
         11    1    3    3    0    0  0.89126408748E+01 -0.15923237686E+02 -0.16298222627E+02  0.24466645189E+02  0.51100000000E-03 0. -1.
        -11    1    3    3    0    0 -0.90960135240E+01  0.26494198584E+02  0.23402243212E+01  0.28109725555E+02  0.51100000000E-03 0.  1.
        -12    1    3    3    0    0 -0.77213953298E+01  0.60754114832E+01  0.17288456958E+02  0.19885203406E+02  0.00000000000E+00 0.  1.
</event>
<event>
 7    1  0.1375918E-013  0.7246154E+02  0.7816164E-02  0.1226708E+00
        -11   -1    0    0    0    0  0.00000000000E+00  0.00000000000E+00  0.45593999997E+02  0.45594000000E+02  0.51100000000E-03 0. -1.
         11   -1    0    0    0    0 -0.00000000000E+00 -0.00000000000E+00 -0.45593999997E+02  0.45594000000E+02  0.51100000000E-03 0.  1.
    9900012    2    1    2    0    0  0.18684040138E+02 -0.52984806173E+00  0.11428157723E+01  0.72461544843E+02  0.69999966845E+02 0.  0.
         12    1    1    2    0    0 -0.18684040138E+02  0.52984806173E+00 -0.11428157723E+01  0.18726455157E+02  0.00000000000E+00 0. -1.
         11    1    3    3    0    0  0.15449689063E+02 -0.13163241938E+02  0.27983514906E+02  0.34569364143E+02  0.51100000000E-03 0. -1.
        -11    1    3    3    0    0  0.12004206386E+02  0.82327589224E+01 -0.23275947965E+02  0.27452669167E+02  0.51100000000E-03 0.  1.
         12    1    3    3    0    0 -0.87698553108E+01  0.44006349538E+01 -0.35647511687E+01  0.10439511534E+02  0.00000000000E+00 0. -1.
</event>
<event>
 7    1  0.1375918E-013  0.7246151E+02  0.7816164E-02  0.1226708E+00
        -11   -1    0    0    0    0  0.00000000000E+00  0.00000000000E+00  0.45593999997E+02  0.45594000000E+02  0.51100000000E-03 0.  1.
         11   -1    0    0    0    0 -0.00000000000E+00 -0.00000000000E+00 -0.45593999997E+02  0.45594000000E+02  0.51100000000E-03 0. -1.
    9900012    2    1    2    0    0  0.52627832066E+00 -0.66699127150E+01  0.17490476451E+02  0.72461508845E+02  0.69999919950E+02 0.  0.
         12    1    1    2    0    0 -0.52627832066E+00  0.66699127150E+01 -0.17490476451E+02  0.18726491155E+02  0.00000000000E+00 0. -1.
         11    1    3    3    0    0 -0.36067401066E+01 -0.17549694308E+02 -0.79055578478E+01  0.19583109805E+02  0.51100000000E-03 0. -1.
        -11    1    3    3    0    0 -0.12075335426E+02  0.17831381021E+02 -0.50717272872E+00  0.21541334666E+02  0.51100000000E-03 0.  1.
        -12    1    3    3    0    0  0.16208353853E+02 -0.69515994276E+01  0.25903207028E+02  0.31337064374E+02  0.00000000000E+00 0.  1.
</event>
<event>
 7    1  0.1375918E-013  0.7246164E+02  0.7816164E-02  0.1226708E+00
        -11   -1    0    0    0    0  0.00000000000E+00  0.00000000000E+00  0.45593999997E+02  0.45594000000E+02  0.51100000000E-03 0.  1.
         11   -1    0    0    0    0 -0.00000000000E+00 -0.00000000000E+00 -0.45593999997E+02  0.45594000000E+02  0.51100000000E-03 0. -1.
    9900012    2    1    2    0    0 -0.66205031873E+01 -0.17199091838E+02  0.33221683743E+01  0.72461638228E+02  0.70000088496E+02 0.  0.
         12    1    1    2    0    0  0.66205031873E+01  0.17199091838E+02 -0.33221683743E+01  0.18726361772E+02  0.00000000000E+00 0. -1.
         11    1    3    3    0    0  0.12927744026E+02 -0.33589535549E+02  0.64726883651E+01  0.36568827694E+02  0.51100000000E-03 0. -1.
        -11    1    3    3    0    0 -0.29011291775E+01  0.10636553029E+02 -0.11903063723E+02  0.16224541198E+02  0.51100000000E-03 0.  1.
        -12    1    3    3    0    0 -0.16647118036E+02  0.57538906820E+01  0.87525437322E+01  0.19668269336E+02  0.00000000000E+00 0.  1.
</event>
<event>
 7    1  0.1375918E-013  0.7246159E+02  0.7816164E-02  0.1226708E+00
        -11   -1    0    0    0    0  0.00000000000E+00  0.00000000000E+00  0.45593999997E+02  0.45594000000E+02  0.51100000000E-03 0. -1.
         11   -1    0    0    0    0 -0.00000000000E+00 -0.00000000000E+00 -0.45593999997E+02  0.45594000000E+02  0.51100000000E-03 0.  1.
    9900012    2    1    2    0    0 -0.96784111534E+01 -0.13695064185E+02 -0.83337944878E+01  0.72461586674E+02  0.70000021338E+02 0.  0.
         12    1    1    2    0    0  0.96784111534E+01  0.13695064185E+02  0.83337944878E+01  0.18726413326E+02  0.00000000000E+00 0. -1.
         11    1    3    3    0    0 -0.22893165460E+02  0.50750539847E+01  0.16677395427E+02  0.28774793070E+02  0.51100000000E-03 0. -1.
        -11    1    3    3    0    0  0.19008069646E+02 -0.51126263916E+01 -0.83599670623E+01  0.21385385426E+02  0.51100000000E-03 0.  1.
         12    1    3    3    0    0 -0.57933153395E+01 -0.13657491778E+02 -0.16651222852E+02  0.22301408179E+02  0.00000000000E+00 0. -1.
</event>
<event>
 7    1  0.1375918E-013  0.7246155E+02  0.7816164E-02  0.1226708E+00
        -11   -1    0    0    0    0  0.00000000000E+00  0.00000000000E+00  0.45593999997E+02  0.45594000000E+02  0.51100000000E-03 0. -1.
         11   -1    0    0    0    0 -0.00000000000E+00 -0.00000000000E+00 -0.45593999997E+02  0.45594000000E+02  0.51100000000E-03 0.  1.
    9900012    2    1    2    0    0  0.39053594659E+01  0.16618926915E+02 -0.76967222717E+01  0.72461545502E+02  0.69999967703E+02 0.  0.
         12    1    1    2    0    0 -0.39053594659E+01 -0.16618926915E+02  0.76967222717E+01  0.18726454498E+02  0.00000000000E+00 0. -1.
         11    1    3    3    0    0  0.56506830288E+01  0.36391791373E+02 -0.13798419269E+01  0.36853719786E+02  0.51100000000E-03 0. -1.
        -11    1    3    3    0    0  0.10227891082E+02 -0.70301543205E+01 -0.11958647892E+02  0.17234908918E+02  0.51100000000E-03 0.  1.
         12    1    3    3    0    0 -0.11973214645E+02 -0.12742710138E+02  0.56417675472E+01  0.18372916798E+02  0.00000000000E+00 0. -1.
</event>
<event>
 7    1  0.1375918E-013  0.7246137E+02  0.7816164E-02  0.1226709E+00
        -11   -1    0    0    0    0  0.00000000000E+00  0.00000000000E+00  0.45593999997E+02  0.45594000000E+02  0.51100000000E-03 0.  1.
         11   -1    0    0    0    0 -0.00000000000E+00 -0.00000000000E+00 -0.45593999997E+02  0.45594000000E+02  0.51100000000E-03 0. -1.
    9900012    2    1    2    0    0  0.95686109267E+01 -0.56116682353E+01  0.15087656604E+02  0.72461374109E+02  0.69999744432E+02 0.  0.
         12    1    1    2    0    0 -0.95686109267E+01  0.56116682353E+01 -0.15087656604E+02  0.18726625891E+02  0.00000000000E+00 0. -1.
         11    1    3    3    0    0 -0.10995660545E+02 -0.37737959430E+01 -0.18115521490E+02  0.21524827659E+02  0.51100000000E-03 0. -1.
        -11    1    3    3    0    0  0.27801339379E+02 -0.26736467314E+01  0.15844071241E+02  0.32110706188E+02  0.51100000000E-03 0.  1.
         12    1    3    3    0    0 -0.72370679081E+01  0.83577443912E+00  0.17359106854E+02  0.18825840262E+02  0.00000000000E+00 0. -1.
</event>
<event>
 7    1  0.1375918E-013  0.7246159E+02  0.7816164E-02  0.1226708E+00
        -11   -1    0    0    0    0  0.00000000000E+00  0.00000000000E+00  0.45593999997E+02  0.45594000000E+02  0.51100000000E-03 0. -1.
         11   -1    0    0    0    0 -0.00000000000E+00 -0.00000000000E+00 -0.45593999997E+02  0.45594000000E+02  0.51100000000E-03 0.  1.
    9900012    2    1    2    0    0 -0.89626029228E+01  0.16291989208E+02  0.22184115336E+01  0.72461587817E+02  0.70000022827E+02 0.  0.
         12    1    1    2    0    0  0.89626029228E+01 -0.16291989208E+02 -0.22184115336E+01  0.18726412183E+02  0.00000000000E+00 0. -1.
         11    1    3    3    0    0  0.35614458987E+01  0.37075551340E+02 -0.81361874976E+01  0.38124505916E+02  0.51100000000E-03 0. -1.
        -11    1    3    3    0    0 -0.16464587996E+02 -0.13738234606E+02  0.13863857265E+02  0.25534844556E+02  0.51100000000E-03 0.  1.
         12    1    3    3    0    0  0.39405391747E+01 -0.70453275264E+01 -0.35092582333E+01  0.88022373457E+01  0.00000000000E+00 0. -1.
</event>
<event>
 7    1  0.1375918E-013  0.7246152E+02  0.7816164E-02  0.1226708E+00
        -11   -1    0    0    0    0  0.00000000000E+00  0.00000000000E+00  0.45593999997E+02  0.45594000000E+02  0.51100000000E-03 0.  1.
         11   -1    0    0    0    0 -0.00000000000E+00 -0.00000000000E+00 -0.45593999997E+02  0.45594000000E+02  0.51100000000E-03 0. -1.
    9900012    2    1    2    0    0 -0.13035346670E+02 -0.74588296806E+01  0.11186000689E+02  0.72461521035E+02  0.69999935830E+02 0.  0.
         12    1    1    2    0    0  0.13035346670E+02  0.74588296806E+01 -0.11186000689E+02  0.18726478965E+02  0.00000000000E+00 0. -1.
         11    1    3    3    0    0 -0.16487730114E+02 -0.10092625122E+02  0.11901632613E+02  0.22701435753E+02  0.51100000000E-03 0. -1.
        -11    1    3    3    0    0  0.85306997750E+01  0.25190150098E+02  0.59421698003E+00  0.26602059971E+02  0.51100000000E-03 0.  1.
        -12    1    3    3    0    0 -0.50783163314E+01 -0.22556354656E+02 -0.13098489041E+01  0.23158025311E+02  0.00000000000E+00 0.  1.
</event>
<event>
 7    1  0.1375918E-013  0.7246160E+02  0.7816164E-02  0.1226708E+00
        -11   -1    0    0    0    0  0.00000000000E+00  0.00000000000E+00  0.45593999997E+02  0.45594000000E+02  0.51100000000E-03 0. -1.
         11   -1    0    0    0    0 -0.00000000000E+00 -0.00000000000E+00 -0.45593999997E+02  0.45594000000E+02  0.51100000000E-03 0.  1.
    9900012    2    1    2    0    0 -0.76010272547E+01  0.15959473821E+02 -0.61804320096E+01  0.72461597255E+02  0.70000035121E+02 0.  0.
         12    1    1    2    0    0  0.76010272547E+01 -0.15959473821E+02  0.61804320096E+01  0.18726402745E+02  0.00000000000E+00 0. -1.
         11    1    3    3    0    0 -0.46284627919E+01  0.18497211831E+02  0.21157029676E+02  0.28481387226E+02  0.51100000000E-03 0. -1.
        -11    1    3    3    0    0 -0.12710015530E+02 -0.51746159751E+01 -0.30469331737E+02  0.33417081292E+02  0.51100000000E-03 0.  1.
        -12    1    3    3    0    0  0.97374510674E+01  0.26368779643E+01  0.31318700522E+01  0.10563128737E+02  0.00000000000E+00 0.  1.
</event>
<event>
 7    1  0.1375918E-013  0.7246157E+02  0.7816164E-02  0.1226708E+00
        -11   -1    0    0    0    0  0.00000000000E+00  0.00000000000E+00  0.45593999997E+02  0.45594000000E+02  0.51100000000E-03 0.  1.
         11   -1    0    0    0    0 -0.00000000000E+00 -0.00000000000E+00 -0.45593999997E+02  0.45594000000E+02  0.51100000000E-03 0. -1.
    9900012    2    1    2    0    0  0.12330704552E+02 -0.13124478253E+02 -0.51362527755E+01  0.72461566897E+02  0.69999995575E+02 0.  0.
         12    1    1    2    0    0 -0.12330704552E+02  0.13124478253E+02  0.51362527755E+01  0.18726433103E+02  0.00000000000E+00 0. -1.
         11    1    3    3    0    0  0.18810279498E+02  0.12747302954E+01 -0.23379539194E+02  0.30034220571E+02  0.51100000000E-03 0. -1.
        -11    1    3    3    0    0  0.29954967615E+01 -0.22883920783E+02  0.18694310136E+02  0.29700573445E+02  0.51100000000E-03 0.  1.
        -12    1    3    3    0    0 -0.94750717078E+01  0.84847122345E+01 -0.45102371671E+00  0.12726772881E+02  0.00000000000E+00 0.  1.
</event>
<event>
 7    1  0.1375918E-013  0.7246157E+02  0.7816164E-02  0.1226708E+00
        -11   -1    0    0    0    0  0.00000000000E+00  0.00000000000E+00  0.45593999997E+02  0.45594000000E+02  0.51100000000E-03 0.  1.
         11   -1    0    0    0    0 -0.00000000000E+00 -0.00000000000E+00 -0.45593999997E+02  0.45594000000E+02  0.51100000000E-03 0. -1.
    9900012    2    1    2    0    0 -0.21387109321E+01 -0.10263946322E+02 -0.15516325927E+02  0.72461573517E+02  0.70000004199E+02 0.  0.
         12    1    1    2    0    0  0.21387109321E+01  0.10263946322E+02  0.15516325927E+02  0.18726426483E+02  0.00000000000E+00 0. -1.
         11    1    3    3    0    0  0.41274766950E+01 -0.71149250853E+01 -0.23945503365E+02  0.25318873484E+02  0.51100000000E-03 0. -1.
        -11    1    3    3    0    0  0.19294807765E+02  0.26469224354E+01  0.76414749609E+01  0.20920992924E+02  0.51100000000E-03 0.  1.
        -12    1    3    3    0    0 -0.25560995393E+02 -0.57959436720E+01  0.78770247793E+00  0.26221707109E+02  0.00000000000E+00 0.  1.
</event>
<event>
 7    1  0.1375918E-013  0.7246157E+02  0.7816164E-02  0.1226708E+00
        -11   -1    0    0    0    0  0.00000000000E+00  0.00000000000E+00  0.45593999997E+02  0.45594000000E+02  0.51100000000E-03 0. -1.
         11   -1    0    0    0    0 -0.00000000000E+00 -0.00000000000E+00 -0.45593999997E+02  0.45594000000E+02  0.51100000000E-03 0.  1.
    9900012    2    1    2    0    0  0.12142505853E+02 -0.12905770006E+02  0.60563971914E+01  0.72461566950E+02  0.69999995643E+02 0.  0.
         12    1    1    2    0    0 -0.12142505853E+02  0.12905770006E+02 -0.60563971914E+01  0.18726433050E+02  0.00000000000E+00 0. -1.
         11    1    3    3    0    0  0.24892149399E+02 -0.77885165525E+01 -0.77118003970E+01  0.27198381522E+02  0.51100000000E-03 0. -1.
        -11    1    3    3    0    0  0.79420803110E+00 -0.49185713570E+01  0.26325390300E+02  0.26792709555E+02  0.51100000000E-03 0.  1.
        -12    1    3    3    0    0 -0.13543851578E+02 -0.19868209661E+00 -0.12557192712E+02  0.18470475872E+02  0.00000000000E+00 0.  1.
</event>
<event>
 7    1  0.1375918E-013  0.7246200E+02  0.7816164E-02  0.1226707E+00
        -11   -1    0    0    0    0  0.00000000000E+00  0.00000000000E+00  0.45593999997E+02  0.45594000000E+02  0.51100000000E-03 0. -1.
         11   -1    0    0    0    0 -0.00000000000E+00 -0.00000000000E+00 -0.45593999997E+02  0.45594000000E+02  0.51100000000E-03 0.  1.
    9900012    2    1    2    0    0  0.10581589366E+02 -0.14976178654E+02 -0.37956527110E+01  0.72462003629E+02  0.70000564497E+02 0.  0.
         12    1    1    2    0    0 -0.10581589366E+02  0.14976178654E+02  0.37956527110E+01  0.18725996371E+02  0.00000000000E+00 0. -1.
         11    1    3    3    0    0  0.72618764942E+01  0.64953228850E+01  0.23252840684E+01  0.10016537119E+02  0.51100000000E-03 0. -1.
        -11    1    3    3    0    0  0.13356294776E+02 -0.37040871948E+02  0.66675093724E+01  0.39935854646E+02  0.51100000000E-03 0.  1.
        -12    1    3    3    0    0 -0.10036581904E+02  0.15569370410E+02 -0.12788446152E+02  0.22509611864E+02  0.00000000000E+00 0.  1.
</event>
<event>
 7    1  0.1375918E-013  0.7246158E+02  0.7816164E-02  0.1226708E+00
        -11   -1    0    0    0    0  0.00000000000E+00  0.00000000000E+00  0.45593999997E+02  0.45594000000E+02  0.51100000000E-03 0. -1.
         11   -1    0    0    0    0 -0.00000000000E+00 -0.00000000000E+00 -0.45593999997E+02  0.45594000000E+02  0.51100000000E-03 0.  1.
    9900012    2    1    2    0    0 -0.13887753622E+02  0.93133970084E+01 -0.84302832961E+01  0.72461581737E+02  0.70000014906E+02 0.  0.
         12    1    1    2    0    0  0.13887753622E+02 -0.93133970084E+01  0.84302832961E+01  0.18726418263E+02  0.00000000000E+00 0. -1.
         11    1    3    3    0    0 -0.24169289179E+02 -0.10924559810E+02 -0.20865887406E+02  0.33747382179E+02  0.51100000000E-03 0. -1.
        -11    1    3    3    0    0  0.17302765129E+02  0.15859418266E+02 -0.36237504942E+00  0.23474201686E+02  0.51100000000E-03 0.  1.
         12    1    3    3    0    0 -0.70212295729E+01  0.43785385526E+01  0.12797979160E+02  0.15239997872E+02  0.00000000000E+00 0. -1.
</event>
<event>
 7    1  0.1375918E-013  0.7246113E+02  0.7816164E-02  0.1226709E+00
        -11   -1    0    0    0    0  0.00000000000E+00  0.00000000000E+00  0.45593999997E+02  0.45594000000E+02  0.51100000000E-03 0. -1.
         11   -1    0    0    0    0 -0.00000000000E+00 -0.00000000000E+00 -0.45593999997E+02  0.45594000000E+02  0.51100000000E-03 0.  1.
    9900012    2    1    2    0    0  0.84710083684E+00  0.17331895227E+02 -0.70415524808E+01  0.72461130712E+02  0.69999427361E+02 0.  0.
         12    1    1    2    0    0 -0.84710083684E+00 -0.17331895227E+02  0.70415524808E+01  0.18726869288E+02  0.00000000000E+00 0. -1.
         11    1    3    3    0    0  0.95424552313E+01  0.11061378607E+01  0.57275633889E+01  0.11184228871E+02  0.51100000000E-03 0. -1.
        -11    1    3    3    0    0 -0.16714307623E+01 -0.16970630345E+02 -0.20308033418E+02  0.26518148440E+02  0.51100000000E-03 0.  1.
        -12    1    3    3    0    0 -0.70239236321E+01  0.33196387711E+02  0.75389175484E+01  0.34758753402E+02  0.00000000000E+00 0.  1.
</event>
<event>
 7    1  0.1375918E-013  0.7246158E+02  0.7816164E-02  0.1226708E+00
        -11   -1    0    0    0    0  0.00000000000E+00  0.00000000000E+00  0.45593999997E+02  0.45594000000E+02  0.51100000000E-03 0.  1.
         11   -1    0    0    0    0 -0.00000000000E+00 -0.00000000000E+00 -0.45593999997E+02  0.45594000000E+02  0.51100000000E-03 0. -1.
    9900012    2    1    2    0    0  0.47351830900E+00 -0.14506890761E+02  0.11832358971E+02  0.72461579681E+02  0.70000012228E+02 0.  0.
         12    1    1    2    0    0 -0.47351830900E+00  0.14506890761E+02 -0.11832358971E+02  0.18726420319E+02  0.00000000000E+00 0. -1.
         11    1    3    3    0    0  0.12586801591E+02  0.98210198361E+01 -0.13931625075E+02  0.21188916499E+02  0.51100000000E-03 0. -1.
        -11    1    3    3    0    0  0.32825065454E+01  0.16937985460E+01  0.20193716668E+02  0.20528760212E+02  0.51100000000E-03 0.  1.
         12    1    3    3    0    0 -0.15395789828E+02 -0.26021709143E+02  0.55702673773E+01  0.30743902970E+02  0.00000000000E+00 0. -1.
</event>
<event>
 7    1  0.1375918E-013  0.7246165E+02  0.7816164E-02  0.1226708E+00
        -11   -1    0    0    0    0  0.00000000000E+00  0.00000000000E+00  0.45593999997E+02  0.45594000000E+02  0.51100000000E-03 0.  1.
         11   -1    0    0    0    0 -0.00000000000E+00 -0.00000000000E+00 -0.45593999997E+02  0.45594000000E+02  0.51100000000E-03 0. -1.
    9900012    2    1    2    0    0  0.11519122514E+02  0.14625177321E+02  0.20224169543E+01  0.72461650502E+02  0.70000104486E+02 0.  0.
         12    1    1    2    0    0 -0.11519122514E+02 -0.14625177321E+02 -0.20224169543E+01  0.18726349498E+02  0.00000000000E+00 0. -1.
         11    1    3    3    0    0  0.32956713485E+01 -0.10018354664E+02  0.41478433927E+01  0.11332849813E+02  0.51100000000E-03 0. -1.
        -11    1    3    3    0    0 -0.13671770548E+02  0.32336210668E+02  0.76753490675E+01  0.35936872622E+02  0.51100000000E-03 0.  1.
        -12    1    3    3    0    0  0.21895221714E+02 -0.76926786828E+01 -0.98007755059E+01  0.25191928067E+02  0.00000000000E+00 0.  1.
</event>
<event>
 7    1  0.1375918E-013  0.7246152E+02  0.7816164E-02  0.1226708E+00
        -11   -1    0    0    0    0  0.00000000000E+00  0.00000000000E+00  0.45593999997E+02  0.45594000000E+02  0.51100000000E-03 0. -1.
         11   -1    0    0    0    0 -0.00000000000E+00 -0.00000000000E+00 -0.45593999997E+02  0.45594000000E+02  0.51100000000E-03 0.  1.
    9900012    2    1    2    0    0 -0.82968597526E+01  0.15266282390E+02 -0.69845516700E+01  0.72461515498E+02  0.69999928618E+02 0.  0.
         12    1    1    2    0    0  0.82968597526E+01 -0.15266282390E+02  0.69845516700E+01  0.18726484502E+02  0.00000000000E+00 0. -1.
         11    1    3    3    0    0 -0.12649266300E+02  0.18479412318E+02 -0.55870200325E+01  0.23080455166E+02  0.51100000000E-03 0. -1.
        -11    1    3    3    0    0  0.25194849626E+02 -0.92450870695E+01  0.37032983387E+01  0.27091816134E+02  0.51100000000E-03 0.  1.
        -12    1    3    3    0    0 -0.20842443079E+02  0.60319571413E+01 -0.51008299763E+01  0.22289244198E+02  0.00000000000E+00 0.  1.
</event>
<event>
 7    1  0.1375918E-013  0.7246148E+02  0.7816164E-02  0.1226708E+00
        -11   -1    0    0    0    0  0.00000000000E+00  0.00000000000E+00  0.45593999997E+02  0.45594000000E+02  0.51100000000E-03 0.  1.
         11   -1    0    0    0    0 -0.00000000000E+00 -0.00000000000E+00 -0.45593999997E+02  0.45594000000E+02  0.51100000000E-03 0. -1.
    9900012    2    1    2    0    0 -0.15110086675E+02 -0.21143687455E+01 -0.10858053496E+02  0.72461478694E+02  0.69999880673E+02 0.  0.
         12    1    1    2    0    0  0.15110086675E+02  0.21143687455E+01  0.10858053496E+02  0.18726521306E+02  0.00000000000E+00 0. -1.
         11    1    3    3    0    0 -0.33896290133E+01  0.54131728099E+01  0.12698292152E+02  0.14214029990E+02  0.51100000000E-03 0. -1.
        -11    1    3    3    0    0 -0.29920299509E+02 -0.55775936145E+01 -0.27863814858E+01  0.30563013518E+02  0.51100000000E-03 0.  1.
        -12    1    3    3    0    0  0.18199841848E+02 -0.19499479409E+01 -0.20769964162E+02  0.27684435186E+02  0.00000000000E+00 0.  1.
</event>
<event>
 7    1  0.1375918E-013  0.7246160E+02  0.7816164E-02  0.1226708E+00
        -11   -1    0    0    0    0  0.00000000000E+00  0.00000000000E+00  0.45593999997E+02  0.45594000000E+02  0.51100000000E-03 0. -1.
         11   -1    0    0    0    0 -0.00000000000E+00 -0.00000000000E+00 -0.45593999997E+02  0.45594000000E+02  0.51100000000E-03 0.  1.
    9900012    2    1    2    0    0 -0.11398355749E+02 -0.19249344318E+01 -0.14732622221E+02  0.72461600349E+02  0.70000039152E+02 0.  0.
         12    1    1    2    0    0  0.11398355749E+02  0.19249344318E+01  0.14732622221E+02  0.18726399651E+02  0.00000000000E+00 0. -1.
         11    1    3    3    0    0 -0.14840042998E+02  0.14663420558E+01  0.16680643094E+02  0.22374558979E+02  0.51100000000E-03 0. -1.
        -11    1    3    3    0    0 -0.11478371817E+02  0.98303129602E+01 -0.24876781111E+02  0.29107427079E+02  0.51100000000E-03 0.  1.
        -12    1    3    3    0    0  0.14920059066E+02 -0.13221589448E+02 -0.65364842048E+01  0.20979614292E+02  0.00000000000E+00 0.  1.
</event>
<event>
 7    1  0.1375918E-013  0.7246155E+02  0.7816164E-02  0.1226708E+00
        -11   -1    0    0    0    0  0.00000000000E+00  0.00000000000E+00  0.45593999997E+02  0.45594000000E+02  0.51100000000E-03 0.  1.
         11   -1    0    0    0    0 -0.00000000000E+00 -0.00000000000E+00 -0.45593999997E+02  0.45594000000E+02  0.51100000000E-03 0. -1.
    9900012    2    1    2    0    0 -0.12339946134E+02 -0.60395008897E+01  0.12725173277E+02  0.72461551417E+02  0.69999975409E+02 0.  0.
         12    1    1    2    0    0  0.12339946134E+02  0.60395008897E+01 -0.12725173277E+02  0.18726448583E+02  0.00000000000E+00 0. -1.
         11    1    3    3    0    0  0.88268857012E+01  0.48870209804E+01 -0.17220701942E+02  0.19958693867E+02  0.51100000000E-03 0. -1.
        -11    1    3    3    0    0 -0.16540059225E+00 -0.14076927576E+01  0.29404428468E+02  0.29438569429E+02  0.51100000000E-03 0.  1.
        -12    1    3    3    0    0 -0.21001431243E+02 -0.95188291125E+01  0.54144675171E+00  0.23064288121E+02  0.00000000000E+00 0.  1.
</event>
<event>
 7    1  0.1375918E-013  0.7246154E+02  0.7816164E-02  0.1226708E+00
        -11   -1    0    0    0    0  0.00000000000E+00  0.00000000000E+00  0.45593999997E+02  0.45594000000E+02  0.51100000000E-03 0. -1.
         11   -1    0    0    0    0 -0.00000000000E+00 -0.00000000000E+00 -0.45593999997E+02  0.45594000000E+02  0.51100000000E-03 0.  1.
    9900012    2    1    2    0    0 -0.45324516004E+01  0.85955258116E+00 -0.18149337269E+02  0.72461537669E+02  0.69999957499E+02 0.  0.
         12    1    1    2    0    0  0.45324516004E+01 -0.85955258116E+00  0.18149337269E+02  0.18726462331E+02  0.00000000000E+00 0. -1.
         11    1    3    3    0    0 -0.59294288596E+00 -0.78869843816E+01  0.18948560371E+02  0.20532998911E+02  0.51100000000E-03 0. -1.
        -11    1    3    3    0    0  0.10529055040E+02 -0.87087678249E+01 -0.13898217777E+02  0.19490102480E+02  0.51100000000E-03 0.  1.
         12    1    3    3    0    0 -0.14468563754E+02  0.17455304788E+02 -0.23199679863E+02  0.32438436277E+02  0.00000000000E+00 0. -1.
</event>
<event>
 7    1  0.1375918E-013  0.7246159E+02  0.7816164E-02  0.1226708E+00
        -11   -1    0    0    0    0  0.00000000000E+00  0.00000000000E+00  0.45593999997E+02  0.45594000000E+02  0.51100000000E-03 0.  1.
         11   -1    0    0    0    0 -0.00000000000E+00 -0.00000000000E+00 -0.45593999997E+02  0.45594000000E+02  0.51100000000E-03 0. -1.
    9900012    2    1    2    0    0 -0.10699653508E+01 -0.16525127579E+02  0.87437914269E+01  0.72461586679E+02  0.70000021344E+02 0.  0.
         12    1    1    2    0    0  0.10699653508E+01  0.16525127579E+02 -0.87437914269E+01  0.18726413321E+02  0.00000000000E+00 0. -1.
         11    1    3    3    0    0 -0.80015575700E+01  0.93307261583E+00  0.27743069214E+02  0.28888984712E+02  0.51100000000E-03 0. -1.
        -11    1    3    3    0    0  0.12840630559E+02 -0.23821265019E+02 -0.56463524062E+01  0.27644452536E+02  0.51100000000E-03 0.  1.
         12    1    3    3    0    0 -0.59090383403E+01  0.63630648242E+01 -0.13352925381E+02  0.15928149431E+02  0.00000000000E+00 0. -1.
</event>
<event>
 7    1  0.1375918E-013  0.7246159E+02  0.7816164E-02  0.1226708E+00
        -11   -1    0    0    0    0  0.00000000000E+00  0.00000000000E+00  0.45593999997E+02  0.45594000000E+02  0.51100000000E-03 0.  1.
         11   -1    0    0    0    0 -0.00000000000E+00 -0.00000000000E+00 -0.45593999997E+02  0.45594000000E+02  0.51100000000E-03 0. -1.
    9900012    2    1    2    0    0 -0.12612161157E+02 -0.13062658013E+02  0.45802557101E+01  0.72461591220E+02  0.70000027260E+02 0.  0.
         12    1    1    2    0    0  0.12612161157E+02  0.13062658013E+02 -0.45802557101E+01  0.18726408780E+02  0.00000000000E+00 0. -1.
         11    1    3    3    0    0  0.18868843742E+02 -0.72569667098E+01 -0.11130193865E+02  0.23077652518E+02  0.51100000000E-03 0. -1.
        -11    1    3    3    0    0 -0.19180250702E+02  0.12480506521E+02  0.14946810133E+02  0.27332255549E+02  0.51100000000E-03 0.  1.
        -12    1    3    3    0    0 -0.12300754198E+02 -0.18286197824E+02  0.76363944258E+00  0.22051683153E+02  0.00000000000E+00 0.  1.
</event>
<event>
 7    1  0.1375918E-013  0.7246156E+02  0.7816164E-02  0.1226708E+00
        -11   -1    0    0    0    0  0.00000000000E+00  0.00000000000E+00  0.45593999997E+02  0.45594000000E+02  0.51100000000E-03 0. -1.
         11   -1    0    0    0    0 -0.00000000000E+00 -0.00000000000E+00 -0.45593999997E+02  0.45594000000E+02  0.51100000000E-03 0.  1.
    9900012    2    1    2    0    0 -0.25125748177E+01 -0.56779310295E+01 -0.17667132802E+02  0.72461561085E+02  0.69999988003E+02 0.  0.
         12    1    1    2    0    0  0.25125748177E+01  0.56779310295E+01  0.17667132802E+02  0.18726438915E+02  0.00000000000E+00 0. -1.
         11    1    3    3    0    0 -0.21382206170E+02 -0.11870464284E+02 -0.11404488628E+02  0.26984607171E+02  0.51100000000E-03 0. -1.
        -11    1    3    3    0    0  0.25450391246E+02 -0.69857889119E+01 -0.12834890621E+02  0.29347198824E+02  0.51100000000E-03 0.  1.
        -12    1    3    3    0    0 -0.65807598942E+01  0.13178322167E+02  0.65722464467E+01  0.16129755090E+02  0.00000000000E+00 0.  1.
</event>
<event>
 7    1  0.1375918E-013  0.7246159E+02  0.7816164E-02  0.1226708E+00
        -11   -1    0    0    0    0  0.00000000000E+00  0.00000000000E+00  0.45593999997E+02  0.45594000000E+02  0.51100000000E-03 0.  1.
         11   -1    0    0    0    0 -0.00000000000E+00 -0.00000000000E+00 -0.45593999997E+02  0.45594000000E+02  0.51100000000E-03 0. -1.
    9900012    2    1    2    0    0  0.66374427669E+01  0.22676729284E+01  0.17363191299E+02  0.72461590865E+02  0.70000026797E+02 0.  0.
         12    1    1    2    0    0 -0.66374427669E+01 -0.22676729284E+01 -0.17363191299E+02  0.18726409135E+02  0.00000000000E+00 0. -1.
         11    1    3    3    0    0  0.18885659430E+02  0.10486976247E+02 -0.12015734821E+02  0.24718873082E+02  0.51100000000E-03 0.  1.
        -11    1    3    3    0    0  0.29494469558E+01 -0.17947591487E+02  0.21194130001E+02  0.27928595100E+02  0.51100000000E-03 0. -1.
         12    1    3    3    0    0 -0.15197663619E+02  0.97282881689E+01  0.81847961195E+01  0.19814122683E+02  0.00000000000E+00 0. -1.
</event>
<event>
 7    1  0.1375918E-013  0.7246156E+02  0.7816164E-02  0.1226708E+00
        -11   -1    0    0    0    0  0.00000000000E+00  0.00000000000E+00  0.45593999997E+02  0.45594000000E+02  0.51100000000E-03 0.  1.
         11   -1    0    0    0    0 -0.00000000000E+00 -0.00000000000E+00 -0.45593999997E+02  0.45594000000E+02  0.51100000000E-03 0. -1.
    9900012    2    1    2    0    0  0.16127067170E+02 -0.83606666405E+01 -0.45493484322E+01  0.72461558444E+02  0.69999984563E+02 0.  0.
         12    1    1    2    0    0 -0.16127067170E+02  0.83606666405E+01  0.45493484322E+01  0.18726441556E+02  0.00000000000E+00 0. -1.
         11    1    3    3    0    0 -0.22975072010E+01 -0.36877055190E+01 -0.21795769441E+02  0.22224609719E+02  0.51100000000E-03 0. -1.
        -11    1    3    3    0    0 -0.51627609865E+01  0.15361356831E+02  0.50691625949E+01  0.16980041059E+02  0.51100000000E-03 0.  1.
        -12    1    3    3    0    0  0.23587335357E+02 -0.20034317952E+02  0.12177258414E+02  0.33256907667E+02  0.00000000000E+00 0.  1.
</event>
<event>
 7    1  0.1375918E-013  0.7246153E+02  0.7816164E-02  0.1226708E+00
        -11   -1    0    0    0    0  0.00000000000E+00  0.00000000000E+00  0.45593999997E+02  0.45594000000E+02  0.51100000000E-03 0.  1.
         11   -1    0    0    0    0 -0.00000000000E+00 -0.00000000000E+00 -0.45593999997E+02  0.45594000000E+02  0.51100000000E-03 0. -1.
    9900012    2    1    2    0    0 -0.10013276976E+02  0.67126881862E+01  0.14330210517E+02  0.72461525907E+02  0.69999942178E+02 0.  0.
         12    1    1    2    0    0  0.10013276976E+02 -0.67126881862E+01 -0.14330210517E+02  0.18726474093E+02  0.00000000000E+00 0. -1.
         11    1    3    3    0    0 -0.63119857943E+01  0.49092998314E+01 -0.16807259704E+01  0.81711216825E+01  0.51100000000E-03 0. -1.
        -11    1    3    3    0    0 -0.64330799381E+01 -0.12147374910E+02  0.36699107620E+02  0.39188872592E+02  0.51100000000E-03 0.  1.
        -12    1    3    3    0    0  0.27317887560E+01  0.13950763265E+02 -0.20688171133E+02  0.25101531633E+02  0.00000000000E+00 0.  1.
</event>
<event>
 7    1  0.1375918E-013  0.7246158E+02  0.7816164E-02  0.1226708E+00
        -11   -1    0    0    0    0  0.00000000000E+00  0.00000000000E+00  0.45593999997E+02  0.45594000000E+02  0.51100000000E-03 0.  1.
         11   -1    0    0    0    0 -0.00000000000E+00 -0.00000000000E+00 -0.45593999997E+02  0.45594000000E+02  0.51100000000E-03 0. -1.
    9900012    2    1    2    0    0  0.61187385644E+01  0.95607022747E+01  0.14894054115E+02  0.72461579157E+02  0.70000011545E+02 0.  0.
         12    1    1    2    0    0 -0.61187385644E+01 -0.95607022747E+01 -0.14894054115E+02  0.18726420843E+02  0.00000000000E+00 0. -1.
         11    1    3    3    0    0  0.32802092653E+02 -0.12555518776E+01 -0.96656148102E+01  0.34219552931E+02  0.51100000000E-03 0. -1.
        -11    1    3    3    0    0 -0.66409196437E+01  0.46187603520E+00  0.43323011443E+01  0.79425422034E+01  0.51100000000E-03 0.  1.
         12    1    3    3    0    0 -0.20042434444E+02  0.10354378117E+02  0.20227367781E+02  0.30299484022E+02  0.00000000000E+00 0. -1.
</event>
<event>
 7    1  0.1375918E-013  0.7246154E+02  0.7816164E-02  0.1226708E+00
        -11   -1    0    0    0    0  0.00000000000E+00  0.00000000000E+00  0.45593999997E+02  0.45594000000E+02  0.51100000000E-03 0. -1.
         11   -1    0    0    0    0 -0.00000000000E+00 -0.00000000000E+00 -0.45593999997E+02  0.45594000000E+02  0.51100000000E-03 0.  1.
    9900012    2    1    2    0    0 -0.48073410571E+01 -0.65251741707E+01 -0.16881704322E+02  0.72461538326E+02  0.69999958356E+02 0.  0.
         12    1    1    2    0    0  0.48073410571E+01  0.65251741707E+01  0.16881704322E+02  0.18726461674E+02  0.00000000000E+00 0. -1.
         11    1    3    3    0    0  0.96241179906E+01 -0.90453528978E+01  0.63179361474E+01  0.14640982671E+02  0.51100000000E-03 0. -1.
        -11    1    3    3    0    0 -0.14173133405E+02  0.15953815501E+02 -0.34296988731E+02  0.40394125512E+02  0.51100000000E-03 0.  1.
        -12    1    3    3    0    0 -0.25832564284E+00 -0.13433636774E+02  0.11097348262E+02  0.17426430144E+02  0.00000000000E+00 0.  1.
</event>
<event>
 7    1  0.1375918E-013  0.7246159E+02  0.7816164E-02  0.1226708E+00
        -11   -1    0    0    0    0  0.00000000000E+00  0.00000000000E+00  0.45593999997E+02  0.45594000000E+02  0.51100000000E-03 0. -1.
         11   -1    0    0    0    0 -0.00000000000E+00 -0.00000000000E+00 -0.45593999997E+02  0.45594000000E+02  0.51100000000E-03 0.  1.
    9900012    2    1    2    0    0  0.47655439416E+01  0.17253624774E+02 -0.55027670854E+01  0.72461590240E+02  0.70000025983E+02 0.  0.
         12    1    1    2    0    0 -0.47655439416E+01 -0.17253624774E+02  0.55027670854E+01  0.18726409760E+02  0.00000000000E+00 0. -1.
         11    1    3    3    0    0 -0.84541267085E+01  0.90980762854E+01 -0.27614818192E+02  0.30279125393E+02  0.51100000000E-03 0. -1.
        -11    1    3    3    0    0  0.89238246493E+01  0.16564100194E+02  0.75378770399E+00  0.18830089160E+02  0.51100000000E-03 0.  1.
         12    1    3    3    0    0  0.42958460008E+01 -0.84085517056E+01  0.21358263403E+02  0.23352375687E+02  0.00000000000E+00 0. -1.
</event>
<event>
 7    1  0.1375918E-013  0.7246158E+02  0.7816164E-02  0.1226708E+00
        -11   -1    0    0    0    0  0.00000000000E+00  0.00000000000E+00  0.45593999997E+02  0.45594000000E+02  0.51100000000E-03 0. -1.
         11   -1    0    0    0    0 -0.00000000000E+00 -0.00000000000E+00 -0.45593999997E+02  0.45594000000E+02  0.51100000000E-03 0.  1.
    9900012    2    1    2    0    0 -0.15547638421E+01  0.13897725790E+02  0.12454510723E+02  0.72461577221E+02  0.70000009023E+02 0.  0.
         12    1    1    2    0    0  0.15547638421E+01 -0.13897725790E+02 -0.12454510723E+02  0.18726422779E+02  0.00000000000E+00 0. -1.
         11    1    3    3    0    0 -0.89334217744E+00  0.32217258894E+02  0.25732837170E+02  0.41242317345E+02  0.51100000000E-03 0. -1.
        -11    1    3    3    0    0 -0.10695394438E+01 -0.26912647976E+01 -0.15195089381E+02  0.15468599239E+02  0.51100000000E-03 0.  1.
        -12    1    3    3    0    0  0.40811777916E+00 -0.15628268306E+02  0.19167629342E+01  0.15750660638E+02  0.00000000000E+00 0.  1.
</event>
<event>
 7    1  0.1375918E-013  0.7246160E+02  0.7816164E-02  0.1226708E+00
        -11   -1    0    0    0    0  0.00000000000E+00  0.00000000000E+00  0.45593999997E+02  0.45594000000E+02  0.51100000000E-03 0. -1.
         11   -1    0    0    0    0 -0.00000000000E+00 -0.00000000000E+00 -0.45593999997E+02  0.45594000000E+02  0.51100000000E-03 0.  1.
    9900012    2    1    2    0    0  0.14461292166E+02  0.11471473405E+02  0.31550428404E+01  0.72461602362E+02  0.70000041774E+02 0.  0.
         12    1    1    2    0    0 -0.14461292166E+02 -0.11471473405E+02 -0.31550428404E+01  0.18726397638E+02  0.00000000000E+00 0. -1.
         11    1    3    3    0    0 -0.16382398132E+02 -0.86137677123E+01  0.35892036685E+01  0.18853709078E+02  0.51100000000E-03 0. -1.
        -11    1    3    3    0    0  0.15697188210E+02  0.13736736371E+02 -0.19423275576E+02  0.28501987267E+02  0.51100000000E-03 0.  1.
        -12    1    3    3    0    0  0.15146502088E+02  0.63485047468E+01  0.18989114748E+02  0.25105906017E+02  0.00000000000E+00 0.  1.
</event>
<event>
 7    1  0.1375918E-013  0.7246157E+02  0.7816164E-02  0.1226708E+00
        -11   -1    0    0    0    0  0.00000000000E+00  0.00000000000E+00  0.45593999997E+02  0.45594000000E+02  0.51100000000E-03 0. -1.
         11   -1    0    0    0    0 -0.00000000000E+00 -0.00000000000E+00 -0.45593999997E+02  0.45594000000E+02  0.51100000000E-03 0.  1.
    9900012    2    1    2    0    0 -0.44016085806E+01  0.29322777403E+01 -0.17964046097E+02  0.72461565128E+02  0.69999993269E+02 0.  0.
         12    1    1    2    0    0  0.44016085806E+01 -0.29322777403E+01  0.17964046097E+02  0.18726434872E+02  0.00000000000E+00 0. -1.
         11    1    3    3    0    0  0.14284580240E+02 -0.75368544168E+01 -0.19907698479E+02  0.25635324576E+02  0.51100000000E-03 0. -1.
        -11    1    3    3    0    0 -0.67613077621E+01  0.23118271096E+02  0.11822116898E+02  0.26831552123E+02  0.51100000000E-03 0.  1.
        -12    1    3    3    0    0 -0.11924881058E+02 -0.12649138939E+02 -0.98784645157E+01  0.19994688428E+02  0.00000000000E+00 0.  1.
</event>
<event>
 7    1  0.1375918E-013  0.7246156E+02  0.7816164E-02  0.1226708E+00
        -11   -1    0    0    0    0  0.00000000000E+00  0.00000000000E+00  0.45593999997E+02  0.45594000000E+02  0.51100000000E-03 0.  1.
         11   -1    0    0    0    0 -0.00000000000E+00 -0.00000000000E+00 -0.45593999997E+02  0.45594000000E+02  0.51100000000E-03 0. -1.
    9900012    2    1    2    0    0  0.82747521081E+01 -0.12616903895E+02 -0.11091517594E+02  0.72461560165E+02  0.69999986804E+02 0.  0.
         12    1    1    2    0    0 -0.82747521081E+01  0.12616903895E+02  0.11091517594E+02  0.18726439835E+02  0.00000000000E+00 0. -1.
         11    1    3    3    0    0  0.31633442736E+02 -0.65815026825E+00  0.10264159766E+02  0.33263506085E+02  0.51100000000E-03 0. -1.
        -11    1    3    3    0    0 -0.87156286047E+01  0.16161294519E+01  0.13446348048E+01  0.89656064714E+01  0.51100000000E-03 0.  1.
         12    1    3    3    0    0 -0.14643062023E+02 -0.13574883079E+02 -0.22700312165E+02  0.30232447609E+02  0.00000000000E+00 0. -1.
</event>
<event>
 7    1  0.1375918E-013  0.7246158E+02  0.7816164E-02  0.1226708E+00
        -11   -1    0    0    0    0  0.00000000000E+00  0.00000000000E+00  0.45593999997E+02  0.45594000000E+02  0.51100000000E-03 0.  1.
         11   -1    0    0    0    0 -0.00000000000E+00 -0.00000000000E+00 -0.45593999997E+02  0.45594000000E+02  0.51100000000E-03 0. -1.
    9900012    2    1    2    0    0  0.11538376104E+02  0.13405787228E+02  0.61505697551E+01  0.72461581159E+02  0.70000014153E+02 0.  0.
         12    1    1    2    0    0 -0.11538376104E+02 -0.13405787228E+02 -0.61505697551E+01  0.18726418841E+02  0.00000000000E+00 0. -1.
         11    1    3    3    0    0  0.11084909576E+02 -0.19372551125E+02  0.14946987476E+02  0.26862304299E+02  0.51100000000E-03 0. -1.
        -11    1    3    3    0    0 -0.21966738064E+01  0.32362055059E+02  0.38566166576E+01  0.32664988531E+02  0.51100000000E-03 0.  1.
         12    1    3    3    0    0  0.26501403340E+01  0.41628329393E+00 -0.12653034378E+02  0.12934288328E+02  0.00000000000E+00 0. -1.
</event>
<event>
 7    1  0.1375918E-013  0.7246166E+02  0.7816164E-02  0.1226708E+00
        -11   -1    0    0    0    0  0.00000000000E+00  0.00000000000E+00  0.45593999997E+02  0.45594000000E+02  0.51100000000E-03 0.  1.
         11   -1    0    0    0    0 -0.00000000000E+00 -0.00000000000E+00 -0.45593999997E+02  0.45594000000E+02  0.51100000000E-03 0. -1.
    9900012    2    1    2    0    0  0.53630472498E+01 -0.16832908238E+02  0.62102120887E+01  0.72461660002E+02  0.70000116860E+02 0.  0.
         12    1    1    2    0    0 -0.53630472498E+01  0.16832908238E+02 -0.62102120887E+01  0.18726339998E+02  0.00000000000E+00 0. -1.
         11    1    3    3    0    0  0.82388744423E+01 -0.28559518604E+02 -0.40178747264E+01  0.29994474034E+02  0.51100000000E-03 0. -1.
        -11    1    3    3    0    0 -0.40911327518E+01  0.56734383149E+01  0.25263289627E+02  0.26213719166E+02  0.51100000000E-03 0.  1.
         12    1    3    3    0    0  0.12153055592E+01  0.60531720516E+01 -0.15035202811E+02  0.16253466802E+02  0.00000000000E+00 0. -1.
</event>
<event>
 7    1  0.1375918E-013  0.7246156E+02  0.7816164E-02  0.1226708E+00
        -11   -1    0    0    0    0  0.00000000000E+00  0.00000000000E+00  0.45593999997E+02  0.45594000000E+02  0.51100000000E-03 0.  1.
         11   -1    0    0    0    0 -0.00000000000E+00 -0.00000000000E+00 -0.45593999997E+02  0.45594000000E+02  0.51100000000E-03 0. -1.
    9900012    2    1    2    0    0 -0.99613510307E+01  0.45396503252E+01  0.15193502153E+02  0.72461562883E+02  0.69999990345E+02 0.  0.
         12    1    1    2    0    0  0.99613510307E+01 -0.45396503252E+01 -0.15193502153E+02  0.18726437117E+02  0.00000000000E+00 0. -1.
         11    1    3    3    0    0  0.19805877569E+02  0.14191425205E+02  0.15939385175E+02  0.29115860552E+02  0.51100000000E-03 0. -1.
        -11    1    3    3    0    0 -0.30731133132E+02 -0.12163835873E+02  0.81591092728E+01  0.34043097848E+02  0.51100000000E-03 0.  1.
         12    1    3    3    0    0  0.96390453223E+00  0.25120609935E+01 -0.89049922951E+01  0.93026044825E+01  0.00000000000E+00 0. -1.
</event>
<event>
 7    1  0.1375918E-013  0.7246152E+02  0.7816164E-02  0.1226708E+00
        -11   -1    0    0    0    0  0.00000000000E+00  0.00000000000E+00  0.45593999997E+02  0.45594000000E+02  0.51100000000E-03 0. -1.
         11   -1    0    0    0    0 -0.00000000000E+00 -0.00000000000E+00 -0.45593999997E+02  0.45594000000E+02  0.51100000000E-03 0.  1.
    9900012    2    1    2    0    0  0.13993004192E+02 -0.65853452762E+00 -0.12427517944E+02  0.72461520451E+02  0.69999935070E+02 0.  0.
         12    1    1    2    0    0 -0.13993004192E+02  0.65853452762E+00  0.12427517944E+02  0.18726479549E+02  0.00000000000E+00 0. -1.
         11    1    3    3    0    0 -0.55028361983E+01 -0.83839618310E+01  0.20412331557E+02  0.22742807700E+02  0.51100000000E-03 0. -1.
        -11    1    3    3    0    0 -0.20978387563E+00  0.10137620497E+02 -0.27277992281E+02  0.29101618886E+02  0.51100000000E-03 0.  1.
        -12    1    3    3    0    0  0.19705624266E+02 -0.24121931940E+01 -0.55618572196E+01  0.20617093865E+02  0.00000000000E+00 0.  1.
</event>
<event>
 7    1  0.1375918E-013  0.7246147E+02  0.7816164E-02  0.1226708E+00
        -11   -1    0    0    0    0  0.00000000000E+00  0.00000000000E+00  0.45593999997E+02  0.45594000000E+02  0.51100000000E-03 0. -1.
         11   -1    0    0    0    0 -0.00000000000E+00 -0.00000000000E+00 -0.45593999997E+02  0.45594000000E+02  0.51100000000E-03 0.  1.
    9900012    2    1    2    0    0  0.45699622284E+01  0.16066077679E+02 -0.84663741663E+01  0.72461470736E+02  0.69999870306E+02 0.  0.
         12    1    1    2    0    0 -0.45699622284E+01 -0.16066077679E+02  0.84663741663E+01  0.18726529264E+02  0.00000000000E+00 0. -1.
         11    1    3    3    0    0  0.32709880747E+01 -0.29520197978E+01  0.47591023648E+01  0.64855870552E+01  0.51100000000E-03 0. -1.
        -11    1    3    3    0    0 -0.28797884750E+02  0.21626868292E+01  0.41396982011E+00  0.28881945082E+02  0.51100000000E-03 0.  1.
        -12    1    3    3    0    0  0.30096858904E+02  0.16855410648E+02 -0.13639446351E+02  0.37093938599E+02  0.00000000000E+00 0.  1.
</event>
<event>
 7    1  0.1375918E-013  0.7246164E+02  0.7816164E-02  0.1226708E+00
        -11   -1    0    0    0    0  0.00000000000E+00  0.00000000000E+00  0.45593999997E+02  0.45594000000E+02  0.51100000000E-03 0.  1.
         11   -1    0    0    0    0 -0.00000000000E+00 -0.00000000000E+00 -0.45593999997E+02  0.45594000000E+02  0.51100000000E-03 0. -1.
    9900012    2    1    2    0    0 -0.16750311454E+01 -0.17828957797E+02  0.54771327792E+01  0.72461642935E+02  0.70000094627E+02 0.  0.
         12    1    1    2    0    0  0.16750311454E+01  0.17828957797E+02 -0.54771327792E+01  0.18726357065E+02  0.00000000000E+00 0. -1.
         11    1    3    3    0    0  0.16711458860E+01 -0.66814289313E+01 -0.25954510800E+02  0.26852762470E+02  0.51100000000E-03 0. -1.
        -11    1    3    3    0    0  0.11084755156E+02  0.26020835685E+01  0.18898751608E+02  0.22063668062E+02  0.51100000000E-03 0.  1.
         12    1    3    3    0    0 -0.14430932187E+02 -0.13749612434E+02  0.12532891972E+02  0.23545212402E+02  0.00000000000E+00 0. -1.
</event>
<event>
 7    1  0.1375918E-013  0.7246156E+02  0.7816164E-02  0.1226708E+00
        -11   -1    0    0    0    0  0.00000000000E+00  0.00000000000E+00  0.45593999997E+02  0.45594000000E+02  0.51100000000E-03 0.  1.
         11   -1    0    0    0    0 -0.00000000000E+00 -0.00000000000E+00 -0.45593999997E+02  0.45594000000E+02  0.51100000000E-03 0. -1.
    9900012    2    1    2    0    0  0.13273106232E+02  0.43650801282E+01  0.12467966702E+02  0.72461562345E+02  0.69999989644E+02 0.  0.
         12    1    1    2    0    0 -0.13273106232E+02 -0.43650801282E+01 -0.12467966702E+02  0.18726437655E+02  0.00000000000E+00 0. -1.
         11    1    3    3    0    0  0.24578507397E+02  0.20754769785E+02  0.96144571693E+01  0.33575307618E+02  0.51100000000E-03 0.  1.
        -11    1    3    3    0    0 -0.13703195408E+02 -0.79718515476E+01 -0.13181818918E+02  0.20617670376E+02  0.51100000000E-03 0. -1.
         12    1    3    3    0    0  0.23977942432E+01 -0.84178381094E+01  0.16035328451E+02  0.18268584351E+02  0.00000000000E+00 0. -1.
</event>
<event>
 7    1  0.1375918E-013  0.7246160E+02  0.7816164E-02  0.1226708E+00
        -11   -1    0    0    0    0  0.00000000000E+00  0.00000000000E+00  0.45593999997E+02  0.45594000000E+02  0.51100000000E-03 0. -1.
         11   -1    0    0    0    0 -0.00000000000E+00 -0.00000000000E+00 -0.45593999997E+02  0.45594000000E+02  0.51100000000E-03 0.  1.
    9900012    2    1    2    0    0 -0.59422435532E+01 -0.46573143827E+01 -0.17137011391E+02  0.72461601651E+02  0.70000040848E+02 0.  0.
         12    1    1    2    0    0  0.59422435532E+01  0.46573143827E+01  0.17137011391E+02  0.18726398349E+02  0.00000000000E+00 0. -1.
         11    1    3    3    0    0  0.74389550364E+01 -0.88577136180E+00 -0.31695513810E+02  0.32568823112E+02  0.51100000000E-03 0.  1.
        -11    1    3    3    0    0  0.23572760213E+01 -0.13439221819E+02  0.16396348087E+02  0.21330955539E+02  0.51100000000E-03 0. -1.
         12    1    3    3    0    0 -0.15738474611E+02  0.96676787978E+01 -0.18378456678E+01  0.18561823001E+02  0.00000000000E+00 0. -1.
</event>
<event>
 7    1  0.1375918E-013  0.7246162E+02  0.7816164E-02  0.1226708E+00
        -11   -1    0    0    0    0  0.00000000000E+00  0.00000000000E+00  0.45593999997E+02  0.45594000000E+02  0.51100000000E-03 0.  1.
         11   -1    0    0    0    0 -0.00000000000E+00 -0.00000000000E+00 -0.45593999997E+02  0.45594000000E+02  0.51100000000E-03 0. -1.
    9900012    2    1    2    0    0  0.13303938213E+02  0.92218197139E+01  0.94149196557E+01  0.72461616395E+02  0.70000060055E+02 0.  0.
         12    1    1    2    0    0 -0.13303938213E+02 -0.92218197139E+01 -0.94149196557E+01  0.18726383605E+02  0.00000000000E+00 0. -1.
         11    1    3    3    0    0 -0.57121028100E+01  0.17300450904E+01 -0.27851035656E+02  0.28483352364E+02  0.51100000000E-03 0. -1.
        -11    1    3    3    0    0  0.19090232757E+02  0.38524304671E+01  0.28841374626E+02  0.34800906566E+02  0.51100000000E-03 0.  1.
        -12    1    3    3    0    0 -0.74191734597E-01  0.36393441563E+01  0.84245806861E+01  0.91773574649E+01  0.00000000000E+00 0.  1.
</event>
<event>
 7    1  0.1375918E-013  0.7246161E+02  0.7816164E-02  0.1226708E+00
        -11   -1    0    0    0    0  0.00000000000E+00  0.00000000000E+00  0.45593999997E+02  0.45594000000E+02  0.51100000000E-03 0.  1.
         11   -1    0    0    0    0 -0.00000000000E+00 -0.00000000000E+00 -0.45593999997E+02  0.45594000000E+02  0.51100000000E-03 0. -1.
    9900012    2    1    2    0    0 -0.98741051547E+00  0.14635027969E+02  0.11641251604E+02  0.72461607873E+02  0.70000048954E+02 0.  0.
         12    1    1    2    0    0  0.98741051547E+00 -0.14635027969E+02 -0.11641251604E+02  0.18726392127E+02  0.00000000000E+00 0. -1.
         11    1    3    3    0    0  0.25880875708E+02 -0.42029214715E+01  0.13472102629E+02  0.29478497686E+02  0.51100000000E-03 0. -1.
        -11    1    3    3    0    0 -0.32633883666E+02  0.17439902128E+02 -0.18944255893E+01  0.37050093089E+02  0.51100000000E-03 0.  1.
        -12    1    3    3    0    0  0.57655974429E+01  0.13980473129E+01  0.63574564387E-01  0.59330170983E+01  0.00000000000E+00 0.  1.
</event>
<event>
 7    1  0.1375918E-013  0.7246148E+02  0.7816164E-02  0.1226708E+00
        -11   -1    0    0    0    0  0.00000000000E+00  0.00000000000E+00  0.45593999997E+02  0.45594000000E+02  0.51100000000E-03 0. -1.
         11   -1    0    0    0    0 -0.00000000000E+00 -0.00000000000E+00 -0.45593999997E+02  0.45594000000E+02  0.51100000000E-03 0.  1.
    9900012    2    1    2    0    0  0.14954830726E+02  0.35128371299E+01 -0.10709596634E+02  0.72461482791E+02  0.69999886010E+02 0.  0.
         12    1    1    2    0    0 -0.14954830726E+02 -0.35128371299E+01  0.10709596634E+02  0.18726517209E+02  0.00000000000E+00 0. -1.
         11    1    3    3    0    0 -0.22005457731E+01 -0.13300624450E+02  0.20589322675E+02  0.24610347842E+02  0.51100000000E-03 0.  1.
        -11    1    3    3    0    0  0.28997034086E+01  0.76680474267E+01 -0.29732307299E+02  0.30841811373E+02  0.51100000000E-03 0. -1.
         12    1    3    3    0    0  0.14255673090E+02  0.91454141531E+01 -0.15666120094E+01  0.17009323575E+02  0.00000000000E+00 0. -1.
</event>
<event>
 7    1  0.1375918E-013  0.7246155E+02  0.7816164E-02  0.1226708E+00
        -11   -1    0    0    0    0  0.00000000000E+00  0.00000000000E+00  0.45593999997E+02  0.45594000000E+02  0.51100000000E-03 0. -1.
         11   -1    0    0    0    0 -0.00000000000E+00 -0.00000000000E+00 -0.45593999997E+02  0.45594000000E+02  0.51100000000E-03 0.  1.
    9900012    2    1    2    0    0  0.86765414126E+01 -0.12675867434E+02  0.10710739527E+02  0.72461550061E+02  0.69999973642E+02 0.  0.
         12    1    1    2    0    0 -0.86765414126E+01  0.12675867434E+02 -0.10710739527E+02  0.18726449939E+02  0.00000000000E+00 0. -1.
         11    1    3    3    0    0 -0.16082494181E+02 -0.10929012876E+02  0.13613497005E+02  0.23736411744E+02  0.51100000000E-03 0.  1.
        -11    1    3    3    0    0  0.28637294664E+02  0.84163931872E+01 -0.14189535051E+02  0.33049557110E+02  0.51100000000E-03 0. -1.
         12    1    3    3    0    0 -0.38782590709E+01 -0.10163247746E+02  0.11286777574E+02  0.15675581207E+02  0.00000000000E+00 0. -1.
</event>
<event>
 7    1  0.1375918E-013  0.7246163E+02  0.7816164E-02  0.1226708E+00
        -11   -1    0    0    0    0  0.00000000000E+00  0.00000000000E+00  0.45593999997E+02  0.45594000000E+02  0.51100000000E-03 0.  1.
         11   -1    0    0    0    0 -0.00000000000E+00 -0.00000000000E+00 -0.45593999997E+02  0.45594000000E+02  0.51100000000E-03 0. -1.
    9900012    2    1    2    0    0  0.15300852494E+02 -0.94734685988E+01  0.51782579281E+01  0.72461626899E+02  0.70000073738E+02 0.  0.
         12    1    1    2    0    0 -0.15300852494E+02  0.94734685988E+01 -0.51782579281E+01  0.18726373101E+02  0.00000000000E+00 0. -1.
         11    1    3    3    0    0  0.29588158351E+02 -0.12215483620E+02  0.17765480186E+02  0.36609963687E+02  0.51100000000E-03 0. -1.
        -11    1    3    3    0    0 -0.19593173514E+02  0.28061108345E+01  0.24138699113E+01  0.19939746101E+02  0.51100000000E-03 0.  1.
         12    1    3    3    0    0  0.53058676571E+01 -0.64095813196E-01 -0.15001092169E+02  0.15911917111E+02  0.00000000000E+00 0. -1.
</event>
<event>
 7    1  0.1375918E-013  0.7246157E+02  0.7816164E-02  0.1226708E+00
        -11   -1    0    0    0    0  0.00000000000E+00  0.00000000000E+00  0.45593999997E+02  0.45594000000E+02  0.51100000000E-03 0.  1.
         11   -1    0    0    0    0 -0.00000000000E+00 -0.00000000000E+00 -0.45593999997E+02  0.45594000000E+02  0.51100000000E-03 0. -1.
    9900012    2    1    2    0    0  0.40676956043E+01 -0.33650703551E+01  0.17966896583E+02  0.72461568977E+02  0.69999998284E+02 0.  0.
         12    1    1    2    0    0 -0.40676956043E+01  0.33650703551E+01 -0.17966896583E+02  0.18726431023E+02  0.00000000000E+00 0. -1.
         11    1    3    3    0    0  0.18387603182E+02 -0.19138137742E+02  0.23346781628E+02  0.35347481942E+02  0.51100000000E-03 0. -1.
        -11    1    3    3    0    0 -0.17419799878E+02  0.55271575058E+01  0.80246439257E+01  0.19959804816E+02  0.51100000000E-03 0.  1.
         12    1    3    3    0    0  0.30998923001E+01  0.10245909881E+02 -0.13404528970E+02  0.17154282220E+02  0.00000000000E+00 0. -1.
</event>
<event>
 7    1  0.1375918E-013  0.7246156E+02  0.7816164E-02  0.1226708E+00
        -11   -1    0    0    0    0  0.00000000000E+00  0.00000000000E+00  0.45593999997E+02  0.45594000000E+02  0.51100000000E-03 0. -1.
         11   -1    0    0    0    0 -0.00000000000E+00 -0.00000000000E+00 -0.45593999997E+02  0.45594000000E+02  0.51100000000E-03 0.  1.
    9900012    2    1    2    0    0 -0.21291432730E+01 -0.10104022743E+02 -0.15622255481E+02  0.72461564328E+02  0.69999992228E+02 0.  0.
         12    1    1    2    0    0  0.21291432730E+01  0.10104022743E+02  0.15622255481E+02  0.18726435672E+02  0.00000000000E+00 0. -1.
         11    1    3    3    0    0  0.12616809426E+02 -0.26795328043E+01  0.13055490731E+02  0.18352373542E+02  0.51100000000E-03 0. -1.
        -11    1    3    3    0    0 -0.23089635951E+02  0.10268366463E+02 -0.21799906300E+02  0.33373740472E+02  0.51100000000E-03 0.  1.
        -12    1    3    3    0    0  0.83436832515E+01 -0.17692856401E+02 -0.68778399123E+01  0.20735450313E+02  0.00000000000E+00 0.  1.
</event>
<event>
 8    1  0.1375918E-013  0.7246192E+02  0.7816164E-02  0.1226707E+00
        -11   -1    0    0    0    0  0.00000000000E+00  0.00000000000E+00  0.45593999997E+02  0.45594000000E+02  0.51100000000E-03 0.  1.
         11   -1    0    0    0    0 -0.00000000000E+00 -0.00000000000E+00 -0.45593999997E+02  0.45594000000E+02  0.51100000000E-03 0. -1.
    9900012    2    1    2    0    0  0.11450822292E+02 -0.76102142729E+00  0.14797484668E+02  0.72461920932E+02  0.70000456769E+02 0.  0.
        -24    2    3    3    0    0  0.73040441703E+01 -0.91941917966E+01  0.24405144660E+02  0.59022379941E+02  0.52441853743E+02 0.  0.
         12    1    1    2    0    0 -0.11450822292E+02  0.76102142729E+00 -0.14797484668E+02  0.18726079068E+02  0.00000000000E+00 0. -1.
         11    1    4    4    0    0 -0.20208305422E+02 -0.99095115045E+01  0.21872584611E+02  0.31384454498E+02  0.51100000000E-03 0. -1.
        -11    1    3    3    0    0  0.41467781215E+01  0.84331703693E+01 -0.96076599921E+01  0.13439540991E+02  0.51100000000E-03 0.  1.
        -12    1    4    4    0    0  0.27512349593E+02  0.71531970792E+00  0.25325600493E+01  0.27637925443E+02  0.00000000000E+00 0.  1.
</event>
<event>
 7    1  0.1375918E-013  0.7246149E+02  0.7816164E-02  0.1226708E+00
        -11   -1    0    0    0    0  0.00000000000E+00  0.00000000000E+00  0.45593999997E+02  0.45594000000E+02  0.51100000000E-03 0.  1.
         11   -1    0    0    0    0 -0.00000000000E+00 -0.00000000000E+00 -0.45593999997E+02  0.45594000000E+02  0.51100000000E-03 0. -1.
    9900012    2    1    2    0    0 -0.16523113384E+02 -0.84503894375E+01  0.25019308877E+01  0.72461494301E+02  0.69999901004E+02 0.  0.
         12    1    1    2    0    0  0.16523113384E+02  0.84503894375E+01 -0.25019308877E+01  0.18726505699E+02  0.00000000000E+00 0. -1.
         11    1    3    3    0    0  0.57685501628E+00 -0.19813561233E+02  0.70705382364E+01  0.21045248435E+02  0.51100000000E-03 0. -1.
        -11    1    3    3    0    0 -0.33330003268E+02  0.65507149276E+01 -0.57317493800E+01  0.34447843693E+02  0.51100000000E-03 0.  1.
        -12    1    3    3    0    0  0.16230034868E+02  0.48124568684E+01  0.11631420313E+01  0.16968402173E+02  0.00000000000E+00 0.  1.
</event>
<event>
 7    1  0.1375918E-013  0.7246157E+02  0.7816164E-02  0.1226708E+00
        -11   -1    0    0    0    0  0.00000000000E+00  0.00000000000E+00  0.45593999997E+02  0.45594000000E+02  0.51100000000E-03 0. -1.
         11   -1    0    0    0    0 -0.00000000000E+00 -0.00000000000E+00 -0.45593999997E+02  0.45594000000E+02  0.51100000000E-03 0.  1.
    9900012    2    1    2    0    0  0.80652506874E+01 -0.16877623084E+02 -0.88127019290E+00  0.72461573038E+02  0.70000003574E+02 0.  0.
         12    1    1    2    0    0 -0.80652506874E+01  0.16877623084E+02  0.88127019290E+00  0.18726426962E+02  0.00000000000E+00 0. -1.
         11    1    3    3    0    0  0.16145350801E+02 -0.27728112172E+02 -0.98101486713E+01  0.33552340818E+02  0.51100000000E-03 0. -1.
        -11    1    3    3    0    0  0.99947323788E+01  0.15312016768E+02  0.55438629314E-01  0.18285393256E+02  0.51100000000E-03 0.  1.
         12    1    3    3    0    0 -0.18074832492E+02 -0.44615276799E+01  0.88734398491E+01  0.20623838964E+02  0.00000000000E+00 0. -1.
</event>
<event>
 7    1  0.1375918E-013  0.7246157E+02  0.7816164E-02  0.1226708E+00
        -11   -1    0    0    0    0  0.00000000000E+00  0.00000000000E+00  0.45593999997E+02  0.45594000000E+02  0.51100000000E-03 0.  1.
         11   -1    0    0    0    0 -0.00000000000E+00 -0.00000000000E+00 -0.45593999997E+02  0.45594000000E+02  0.51100000000E-03 0. -1.
    9900012    2    1    2    0    0 -0.13418646013E+02  0.12121230475E+02  0.48677258445E+01  0.72461573647E+02  0.70000004368E+02 0.  0.
         12    1    1    2    0    0  0.13418646013E+02 -0.12121230475E+02 -0.48677258445E+01  0.18726426353E+02  0.00000000000E+00 0. -1.
         11    1    3    3    0    0 -0.11924792373E+02 -0.16798653001E+02  0.89234375762E+01  0.22450460000E+02  0.51100000000E-03 0. -1.
        -11    1    3    3    0    0 -0.14039057889E+02  0.32446935985E+02  0.24638756064E+01  0.35439659769E+02  0.51100000000E-03 0.  1.
        -12    1    3    3    0    0  0.12545204250E+02 -0.35270525087E+01 -0.65195873381E+01  0.14571453878E+02  0.00000000000E+00 0.  1.
</event>
<event>
 7    1  0.1375918E-013  0.7246157E+02  0.7816164E-02  0.1226708E+00
        -11   -1    0    0    0    0  0.00000000000E+00  0.00000000000E+00  0.45593999997E+02  0.45594000000E+02  0.51100000000E-03 0.  1.
         11   -1    0    0    0    0 -0.00000000000E+00 -0.00000000000E+00 -0.45593999997E+02  0.45594000000E+02  0.51100000000E-03 0. -1.
    9900012    2    1    2    0    0 -0.89596432935E+01 -0.16271372880E+02 -0.23761761263E+01  0.72461574918E+02  0.70000006024E+02 0.  0.
         12    1    1    2    0    0  0.89596432935E+01  0.16271372880E+02  0.23761761263E+01  0.18726425082E+02  0.00000000000E+00 0. -1.
         11    1    3    3    0    0  0.14044335110E+02 -0.25731587249E+02 -0.12359996964E+02  0.31813950654E+02  0.51100000000E-03 0. -1.
        -11    1    3    3    0    0 -0.14431272589E+02  0.11403971877E+02  0.20100198694E+02  0.27245737114E+02  0.51100000000E-03 0.  1.
         12    1    3    3    0    0 -0.85727058143E+01 -0.19437575076E+01 -0.10116377857E+02  0.13401887150E+02  0.00000000000E+00 0. -1.
</event>
<event>
 7    1  0.1375918E-013  0.7246157E+02  0.7816164E-02  0.1226708E+00
        -11   -1    0    0    0    0  0.00000000000E+00  0.00000000000E+00  0.45593999997E+02  0.45594000000E+02  0.51100000000E-03 0.  1.
         11   -1    0    0    0    0 -0.00000000000E+00 -0.00000000000E+00 -0.45593999997E+02  0.45594000000E+02  0.51100000000E-03 0. -1.
    9900012    2    1    2    0    0  0.24890252685E+01 -0.71980938892E+01  0.17107638243E+02  0.72461572453E+02  0.70000002812E+02 0.  0.
         12    1    1    2    0    0 -0.24890252685E+01  0.71980938892E+01 -0.17107638243E+02  0.18726427547E+02  0.00000000000E+00 0. -1.
         11    1    3    3    0    0 -0.45089308768E+01 -0.26160827924E+02  0.32595938587E+02  0.42038251485E+02  0.51100000000E-03 0. -1.
        -11    1    3    3    0    0 -0.45351164172E+01  0.97501444960E+01 -0.32067116731E+01  0.11221211994E+02  0.51100000000E-03 0.  1.
         12    1    3    3    0    0  0.11533072562E+02  0.92125895385E+01 -0.12281588671E+02  0.19202108973E+02  0.00000000000E+00 0. -1.
</event>
<event>
 7    1  0.1375918E-013  0.7246159E+02  0.7816164E-02  0.1226708E+00
        -11   -1    0    0    0    0  0.00000000000E+00  0.00000000000E+00  0.45593999997E+02  0.45594000000E+02  0.51100000000E-03 0. -1.
         11   -1    0    0    0    0 -0.00000000000E+00 -0.00000000000E+00 -0.45593999997E+02  0.45594000000E+02  0.51100000000E-03 0.  1.
    9900012    2    1    2    0    0 -0.41213956532E+01 -0.18015202557E+02 -0.30240882681E+01  0.72461587232E+02  0.70000022065E+02 0.  0.
         12    1    1    2    0    0  0.41213956532E+01  0.18015202557E+02  0.30240882681E+01  0.18726412768E+02  0.00000000000E+00 0. -1.
         11    1    3    3    0    0  0.22080407568E+02 -0.15138642126E+02  0.12658878067E+02  0.29613680588E+02  0.51100000000E-03 0. -1.
        -11    1    3    3    0    0 -0.24845875494E+02 -0.40955765071E+01  0.18231600384E+01  0.25247082778E+02  0.51100000000E-03 0.  1.
         12    1    3    3    0    0 -0.13559277264E+01  0.12190160765E+01 -0.17506126373E+02  0.17600823867E+02  0.00000000000E+00 0. -1.
</event>
<event>
 7    1  0.1375918E-013  0.7246157E+02  0.7816164E-02  0.1226708E+00
        -11   -1    0    0    0    0  0.00000000000E+00  0.00000000000E+00  0.45593999997E+02  0.45594000000E+02  0.51100000000E-03 0. -1.
         11   -1    0    0    0    0 -0.00000000000E+00 -0.00000000000E+00 -0.45593999997E+02  0.45594000000E+02  0.51100000000E-03 0.  1.
    9900012    2    1    2    0    0  0.53643911635E+01  0.90153553721E+01 -0.15512118358E+02  0.72461571056E+02  0.70000000992E+02 0.  0.
         12    1    1    2    0    0 -0.53643911635E+01 -0.90153553721E+01  0.15512118358E+02  0.18726428944E+02  0.00000000000E+00 0. -1.
         11    1    3    3    0    0  0.15973057779E+01  0.61236576714E+01  0.11235385905E+02  0.12895133412E+02  0.51100000000E-03 0. -1.
        -11    1    3    3    0    0  0.14550626863E+02 -0.88656579006E+00 -0.39701470026E+02  0.42293184598E+02  0.51100000000E-03 0.  1.
        -12    1    3    3    0    0 -0.10783541477E+02  0.37782634908E+01  0.12953965762E+02  0.17273253045E+02  0.00000000000E+00 0.  1.
</event>
<event>
 7    1  0.1375918E-013  0.7246153E+02  0.7816164E-02  0.1226708E+00
        -11   -1    0    0    0    0  0.00000000000E+00  0.00000000000E+00  0.45593999997E+02  0.45594000000E+02  0.51100000000E-03 0.  1.
         11   -1    0    0    0    0 -0.00000000000E+00 -0.00000000000E+00 -0.45593999997E+02  0.45594000000E+02  0.51100000000E-03 0. -1.
    9900012    2    1    2    0    0  0.87248064148E+01 -0.91880870890E+01  0.13789028679E+02  0.72461534684E+02  0.69999953611E+02 0.  0.
         12    1    1    2    0    0 -0.87248064148E+01  0.91880870890E+01 -0.13789028679E+02  0.18726465316E+02  0.00000000000E+00 0. -1.
         11    1    3    3    0    0  0.21197155328E+02  0.49188864182E+01  0.30592122791E+02  0.37541880809E+02  0.51100000000E-03 0. -1.
        -11    1    3    3    0    0 -0.68794828401E+01 -0.19767387766E+02 -0.65302414330E+01  0.21925349636E+02  0.51100000000E-03 0.  1.
         12    1    3    3    0    0 -0.55928660727E+01  0.56604142587E+01 -0.10272852679E+02  0.12994304239E+02  0.00000000000E+00 0. -1.
</event>
<event>
 7    1  0.1375918E-013  0.7246155E+02  0.7816164E-02  0.1226708E+00
        -11   -1    0    0    0    0  0.00000000000E+00  0.00000000000E+00  0.45593999997E+02  0.45594000000E+02  0.51100000000E-03 0.  1.
         11   -1    0    0    0    0 -0.00000000000E+00 -0.00000000000E+00 -0.45593999997E+02  0.45594000000E+02  0.51100000000E-03 0. -1.
    9900012    2    1    2    0    0 -0.12341002529E+02  0.14082308496E+02 -0.26077134973E+00  0.72461554589E+02  0.69999979541E+02 0.  0.
         12    1    1    2    0    0  0.12341002529E+02 -0.14082308496E+02  0.26077134973E+00  0.18726445411E+02  0.00000000000E+00 0. -1.
         11    1    3    3    0    0 -0.14696352246E+02 -0.12384456554E+02 -0.16675464125E+02  0.25444619029E+02  0.51100000000E-03 0. -1.
        -11    1    3    3    0    0  0.52107088440E+01  0.65643322493E+01  0.24081752380E+02  0.25498485102E+02  0.51100000000E-03 0.  1.
         12    1    3    3    0    0 -0.28553591275E+01  0.19902432801E+02 -0.76670596052E+01  0.21518450458E+02  0.00000000000E+00 0. -1.
</event>
<event>
 7    1  0.1375918E-013  0.7246159E+02  0.7816164E-02  0.1226708E+00
        -11   -1    0    0    0    0  0.00000000000E+00  0.00000000000E+00  0.45593999997E+02  0.45594000000E+02  0.51100000000E-03 0.  1.
         11   -1    0    0    0    0 -0.00000000000E+00 -0.00000000000E+00 -0.45593999997E+02  0.45594000000E+02  0.51100000000E-03 0. -1.
    9900012    2    1    2    0    0  0.11658779631E+02  0.12265739934E+02 -0.80189109467E+01  0.72461589469E+02  0.70000024978E+02 0.  0.
         12    1    1    2    0    0 -0.11658779631E+02 -0.12265739934E+02  0.80189109467E+01  0.18726410531E+02  0.00000000000E+00 0. -1.
         11    1    3    3    0    0 -0.22971763108E+02 -0.54377104784E+01 -0.53598022304E+01  0.24207397129E+02  0.51100000000E-03 0. -1.
        -11    1    3    3    0    0  0.14664605083E+02  0.94120017611E+01  0.12847109213E+02  0.21649125497E+02  0.51100000000E-03 0.  1.
         12    1    3    3    0    0  0.19965937657E+02  0.82914486513E+01 -0.15506217929E+02  0.26605066843E+02  0.00000000000E+00 0. -1.
</event>
<event>
 7    1  0.1375918E-013  0.7246151E+02  0.7816164E-02  0.1226708E+00
        -11   -1    0    0    0    0  0.00000000000E+00  0.00000000000E+00  0.45593999997E+02  0.45594000000E+02  0.51100000000E-03 0. -1.
         11   -1    0    0    0    0 -0.00000000000E+00 -0.00000000000E+00 -0.45593999997E+02  0.45594000000E+02  0.51100000000E-03 0.  1.
    9900012    2    1    2    0    0 -0.17259730288E+02  0.40595449879E+01 -0.60252074892E+01  0.72461512865E+02  0.69999925188E+02 0.  0.
         12    1    1    2    0    0  0.17259730288E+02 -0.40595449879E+01  0.60252074892E+01  0.18726487135E+02  0.00000000000E+00 0. -1.
         11    1    3    3    0    0 -0.36895464249E+01 -0.13966758676E+02 -0.17825115704E+02  0.22943797656E+02  0.51100000000E-03 0.  1.
        -11    1    3    3    0    0  0.14231392960E+01  0.27194967740E+02  0.15813635577E+02  0.31490675863E+02  0.51100000000E-03 0. -1.
         12    1    3    3    0    0 -0.14993323159E+02 -0.91686640760E+01 -0.40137273629E+01  0.18027039347E+02  0.00000000000E+00 0. -1.
</event>
<event>
 7    1  0.1375918E-013  0.7246156E+02  0.7816164E-02  0.1226708E+00
        -11   -1    0    0    0    0  0.00000000000E+00  0.00000000000E+00  0.45593999997E+02  0.45594000000E+02  0.51100000000E-03 0.  1.
         11   -1    0    0    0    0 -0.00000000000E+00 -0.00000000000E+00 -0.45593999997E+02  0.45594000000E+02  0.51100000000E-03 0. -1.
    9900012    2    1    2    0    0 -0.81643364606E+01  0.89961546289E+01  0.14251054266E+02  0.72461555179E+02  0.69999980309E+02 0.  0.
         12    1    1    2    0    0  0.81643364606E+01 -0.89961546289E+01 -0.14251054266E+02  0.18726444821E+02  0.00000000000E+00 0. -1.
         11    1    3    3    0    0 -0.14062707577E+02  0.13613821999E+02 -0.16926186829E+02  0.25876469903E+02  0.51100000000E-03 0. -1.
        -11    1    3    3    0    0  0.15529526666E+02  0.65706969902E+01  0.25903897677E+02  0.30908771773E+02  0.51100000000E-03 0.  1.
         12    1    3    3    0    0 -0.96311555487E+01 -0.11188364360E+02  0.52733434178E+01  0.15676313503E+02  0.00000000000E+00 0. -1.
</event>
<event>
 7    1  0.1375918E-013  0.7246169E+02  0.7816164E-02  0.1226708E+00
        -11   -1    0    0    0    0  0.00000000000E+00  0.00000000000E+00  0.45593999997E+02  0.45594000000E+02  0.51100000000E-03 0. -1.
         11   -1    0    0    0    0 -0.00000000000E+00 -0.00000000000E+00 -0.45593999997E+02  0.45594000000E+02  0.51100000000E-03 0.  1.
    9900012    2    1    2    0    0  0.11088266382E+02  0.14495697075E+02 -0.41952281733E+01  0.72461686308E+02  0.70000151129E+02 0.  0.
         12    1    1    2    0    0 -0.11088266382E+02 -0.14495697075E+02  0.41952281733E+01  0.18726313692E+02  0.00000000000E+00 0. -1.
         11    1    3    3    0    0 -0.15046892633E+02  0.66548623521E+01 -0.25317419464E+02  0.30193838765E+02  0.51100000000E-03 0. -1.
        -11    1    3    3    0    0  0.10219574098E+02 -0.65100234200E+01 -0.86438963445E-01  0.12117242740E+02  0.51100000000E-03 0.  1.
         12    1    3    3    0    0  0.15915584917E+02  0.14350858143E+02  0.21208630254E+02  0.30150604802E+02  0.00000000000E+00 0. -1.
</event>
<event>
 7    1  0.1375918E-013  0.7246150E+02  0.7816164E-02  0.1226708E+00
        -11   -1    0    0    0    0  0.00000000000E+00  0.00000000000E+00  0.45593999997E+02  0.45594000000E+02  0.51100000000E-03 0.  1.
         11   -1    0    0    0    0 -0.00000000000E+00 -0.00000000000E+00 -0.45593999997E+02  0.45594000000E+02  0.51100000000E-03 0. -1.
    9900012    2    1    2    0    0  0.13538360525E+02  0.48639693240E+01  0.11989013923E+02  0.72461498508E+02  0.69999906485E+02 0.  0.
         12    1    1    2    0    0 -0.13538360525E+02 -0.48639693240E+01 -0.11989013923E+02  0.18726501492E+02  0.00000000000E+00 0. -1.
         11    1    3    3    0    0  0.45968641779E+01  0.24600799900E+02 -0.69150423548E+01  0.25964366486E+02  0.51100000000E-03 0. -1.
        -11    1    3    3    0    0  0.20277728825E+02 -0.21381584303E+02  0.76631193888E+01  0.30448018534E+02  0.51100000000E-03 0.  1.
        -12    1    3    3    0    0 -0.11336232478E+02  0.16447537270E+01  0.11240936889E+02  0.16049113489E+02  0.00000000000E+00 0.  1.
</event>
<event>
 7    1  0.1375918E-013  0.7246156E+02  0.7816164E-02  0.1226708E+00
        -11   -1    0    0    0    0  0.00000000000E+00  0.00000000000E+00  0.45593999997E+02  0.45594000000E+02  0.51100000000E-03 0.  1.
         11   -1    0    0    0    0 -0.00000000000E+00 -0.00000000000E+00 -0.45593999997E+02  0.45594000000E+02  0.51100000000E-03 0. -1.
    9900012    2    1    2    0    0  0.99558090286E+01  0.13077121234E+02  0.89749897557E+01  0.72461556817E+02  0.69999982443E+02 0.  0.
         12    1    1    2    0    0 -0.99558090286E+01 -0.13077121234E+02 -0.89749897557E+01  0.18726443183E+02  0.00000000000E+00 0. -1.
         11    1    3    3    0    0 -0.42542359117E+01  0.20684880843E+02 -0.47941511351E+01  0.21655177303E+02  0.51100000000E-03 0. -1.
        -11    1    3    3    0    0  0.23098809751E+02 -0.14890028430E+02  0.23180860336E+02  0.35953028311E+02  0.51100000000E-03 0.  1.
        -12    1    3    3    0    0 -0.88887648107E+01  0.72822688205E+01 -0.94117194455E+01  0.14853351203E+02  0.00000000000E+00 0.  1.
</event>
<event>
 7    1  0.1375918E-013  0.7246155E+02  0.7816164E-02  0.1226708E+00
        -11   -1    0    0    0    0  0.00000000000E+00  0.00000000000E+00  0.45593999997E+02  0.45594000000E+02  0.51100000000E-03 0.  1.
         11   -1    0    0    0    0 -0.00000000000E+00 -0.00000000000E+00 -0.45593999997E+02  0.45594000000E+02  0.51100000000E-03 0. -1.
    9900012    2    1    2    0    0  0.16200846905E+02 -0.42436338703E+01  0.83787782783E+01  0.72461553613E+02  0.69999978269E+02 0.  0.
         12    1    1    2    0    0 -0.16200846905E+02  0.42436338703E+01 -0.83787782783E+01  0.18726446387E+02  0.00000000000E+00 0. -1.
         11    1    3    3    0    0  0.21537727099E+02 -0.18522629508E+02  0.23482283250E+02  0.36856195129E+02  0.51100000000E-03 0.  1.
        -11    1    3    3    0    0 -0.36185631055E+01  0.18479983227E+02 -0.20972550330E+02  0.28186018637E+02  0.51100000000E-03 0. -1.
        -12    1    3    3    0    0 -0.17183170887E+01 -0.42009875886E+01  0.58690453589E+01  0.74193398467E+01  0.00000000000E+00 0.  1.
</event>
<event>
 7    1  0.1375918E-013  0.7246157E+02  0.7816164E-02  0.1226708E+00
        -11   -1    0    0    0    0  0.00000000000E+00  0.00000000000E+00  0.45593999997E+02  0.45594000000E+02  0.51100000000E-03 0.  1.
         11   -1    0    0    0    0 -0.00000000000E+00 -0.00000000000E+00 -0.45593999997E+02  0.45594000000E+02  0.51100000000E-03 0. -1.
    9900012    2    1    2    0    0 -0.13223911523E+02  0.29572678160E+01 -0.12925239127E+02  0.72461572808E+02  0.70000003275E+02 0.  0.
         12    1    1    2    0    0  0.13223911523E+02 -0.29572678160E+01  0.12925239127E+02  0.18726427192E+02  0.00000000000E+00 0. -1.
         11    1    3    3    0    0  0.23017329074E+02 -0.76410933338E+01  0.11115326876E+02  0.26678347715E+02  0.51100000000E-03 0. -1.
        -11    1    3    3    0    0 -0.19393962913E+02  0.18653209178E+01 -0.15843845947E+02  0.25112400806E+02  0.51100000000E-03 0.  1.
         12    1    3    3    0    0 -0.16847277683E+02  0.87330402320E+01 -0.81967200555E+01  0.20670824286E+02  0.00000000000E+00 0. -1.
</event>
<event>
 7    1  0.1375918E-013  0.7246158E+02  0.7816164E-02  0.1226708E+00
        -11   -1    0    0    0    0  0.00000000000E+00  0.00000000000E+00  0.45593999997E+02  0.45594000000E+02  0.51100000000E-03 0. -1.
         11   -1    0    0    0    0 -0.00000000000E+00 -0.00000000000E+00 -0.45593999997E+02  0.45594000000E+02  0.51100000000E-03 0.  1.
    9900012    2    1    2    0    0 -0.15569246967E+01  0.17888951032E+02  0.53141578654E+01  0.72461578629E+02  0.70000010858E+02 0.  0.
         12    1    1    2    0    0  0.15569246967E+01 -0.17888951032E+02 -0.53141578654E+01  0.18726421371E+02  0.00000000000E+00 0. -1.
         11    1    3    3    0    0  0.13643140763E+02 -0.88893015751E+01  0.37993142001E+01  0.16720937803E+02  0.51100000000E-03 0. -1.
        -11    1    3    3    0    0 -0.19469243837E+02 -0.77215486615E+01  0.11430963235E+01  0.20975710686E+02  0.51100000000E-03 0.  1.
         12    1    3    3    0    0  0.42691783771E+01  0.34499801268E+02  0.37174734178E+00  0.34764930140E+02  0.00000000000E+00 0. -1.
</event>
<event>
 7    1  0.1375918E-013  0.7246155E+02  0.7816164E-02  0.1226708E+00
        -11   -1    0    0    0    0  0.00000000000E+00  0.00000000000E+00  0.45593999997E+02  0.45594000000E+02  0.51100000000E-03 0.  1.
         11   -1    0    0    0    0 -0.00000000000E+00 -0.00000000000E+00 -0.45593999997E+02  0.45594000000E+02  0.51100000000E-03 0. -1.
    9900012    2    1    2    0    0 -0.83568413616E+01 -0.14691285308E+02 -0.80628265790E+01  0.72461552553E+02  0.69999976889E+02 0.  0.
         12    1    1    2    0    0  0.83568413616E+01  0.14691285308E+02  0.80628265790E+01  0.18726447447E+02  0.00000000000E+00 0. -1.
         11    1    3    3    0    0 -0.24720398944E+02  0.99162258910E+01 -0.96823120336E+01  0.28340374494E+02  0.51100000000E-03 0.  1.
        -11    1    3    3    0    0  0.13278861077E+02 -0.19154243568E+02  0.16110972534E+02  0.28333313157E+02  0.51100000000E-03 0. -1.
         12    1    3    3    0    0  0.30846965056E+01 -0.54532676303E+01 -0.14491487080E+02  0.15787864902E+02  0.00000000000E+00 0. -1.
</event>
<event>
 7    1  0.1375918E-013  0.7246154E+02  0.7816164E-02  0.1226708E+00
        -11   -1    0    0    0    0  0.00000000000E+00  0.00000000000E+00  0.45593999997E+02  0.45594000000E+02  0.51100000000E-03 0.  1.
         11   -1    0    0    0    0 -0.00000000000E+00 -0.00000000000E+00 -0.45593999997E+02  0.45594000000E+02  0.51100000000E-03 0. -1.
    9900012    2    1    2    0    0  0.24835713401E+01  0.79311263642E+01  0.16781224236E+02  0.72461538005E+02  0.69999957937E+02 0.  0.
         12    1    1    2    0    0 -0.24835713401E+01 -0.79311263642E+01 -0.16781224236E+02  0.18726461995E+02  0.00000000000E+00 0. -1.
         11    1    3    3    0    0  0.17299629280E+01  0.22676915917E+02 -0.15118408271E+02  0.27309367553E+02  0.51100000000E-03 0. -1.
        -11    1    3    3    0    0  0.64509153623E+01  0.17284643020E+01  0.25852942044E+02  0.26701619997E+02  0.51100000000E-03 0.  1.
         12    1    3    3    0    0 -0.56973069502E+01 -0.16474253855E+02  0.60466904618E+01  0.18450550455E+02  0.00000000000E+00 0. -1.
</event>
<event>
 7    1  0.1375918E-013  0.7246159E+02  0.7816164E-02  0.1226708E+00
        -11   -1    0    0    0    0  0.00000000000E+00  0.00000000000E+00  0.45593999997E+02  0.45594000000E+02  0.51100000000E-03 0.  1.
         11   -1    0    0    0    0 -0.00000000000E+00 -0.00000000000E+00 -0.45593999997E+02  0.45594000000E+02  0.51100000000E-03 0. -1.
    9900012    2    1    2    0    0  0.16908315527E+02 -0.77438743945E+01  0.21953786329E+01  0.72461590522E+02  0.70000026350E+02 0.  0.
         12    1    1    2    0    0 -0.16908315527E+02  0.77438743945E+01 -0.21953786329E+01  0.18726409478E+02  0.00000000000E+00 0. -1.
         11    1    3    3    0    0  0.18525261580E+02 -0.22829402400E+02  0.20886852553E+02  0.36064214124E+02  0.51100000000E-03 0. -1.
        -11    1    3    3    0    0  0.26170898867E+01  0.19982249920E+02 -0.42850993556E+01  0.20603435346E+02  0.51100000000E-03 0.  1.
         12    1    3    3    0    0 -0.42340359396E+01 -0.48967219145E+01 -0.14406374565E+02  0.15793941052E+02  0.00000000000E+00 0. -1.
</event>
<event>
 7    1  0.1375918E-013  0.7246136E+02  0.7816164E-02  0.1226709E+00
        -11   -1    0    0    0    0  0.00000000000E+00  0.00000000000E+00  0.45593999997E+02  0.45594000000E+02  0.51100000000E-03 0.  1.
         11   -1    0    0    0    0 -0.00000000000E+00 -0.00000000000E+00 -0.45593999997E+02  0.45594000000E+02  0.51100000000E-03 0. -1.
    9900012    2    1    2    0    0  0.10119175958E+02  0.12858651911E+02  0.91073891272E+01  0.72461356207E+02  0.69999721111E+02 0.  0.
         12    1    1    2    0    0 -0.10119175958E+02 -0.12858651911E+02 -0.91073891272E+01  0.18726643793E+02  0.00000000000E+00 0. -1.
         11    1    3    3    0    0  0.74080386983E+01  0.29243300909E+02 -0.13897728284E+01  0.30199025716E+02  0.51100000000E-03 0. -1.
        -11    1    3    3    0    0  0.19003629720E+02 -0.12833917839E+02  0.11307576721E+02  0.25567727337E+02  0.51100000000E-03 0.  1.
        -12    1    3    3    0    0 -0.16292492461E+02 -0.35507311592E+01 -0.81041476508E+00  0.16694603153E+02  0.00000000000E+00 0.  1.
</event>
<event>
 7    1  0.1375918E-013  0.7246160E+02  0.7816164E-02  0.1226708E+00
        -11   -1    0    0    0    0  0.00000000000E+00  0.00000000000E+00  0.45593999997E+02  0.45594000000E+02  0.51100000000E-03 0.  1.
         11   -1    0    0    0    0 -0.00000000000E+00 -0.00000000000E+00 -0.45593999997E+02  0.45594000000E+02  0.51100000000E-03 0. -1.
    9900012    2    1    2    0    0 -0.92288936892E+01  0.15566875387E+02 -0.48143426174E+01  0.72461601978E+02  0.70000041274E+02 0.  0.
         12    1    1    2    0    0  0.92288936892E+01 -0.15566875387E+02  0.48143426174E+01  0.18726398022E+02  0.00000000000E+00 0. -1.
         11    1    3    3    0    0 -0.13194409224E+02  0.13940541388E+02 -0.30106730361E+02  0.35704990439E+02  0.51100000000E-03 0. -1.
        -11    1    3    3    0    0  0.67690167517E+01  0.13158933745E+02  0.14377296705E+02  0.20632105707E+02  0.51100000000E-03 0.  1.
         12    1    3    3    0    0 -0.28035012171E+01 -0.11532599745E+02  0.10915091039E+02  0.16124505832E+02  0.00000000000E+00 0. -1.
</event>
<event>
 7    1  0.1375918E-013  0.7246152E+02  0.7816164E-02  0.1226708E+00
        -11   -1    0    0    0    0  0.00000000000E+00  0.00000000000E+00  0.45593999997E+02  0.45594000000E+02  0.51100000000E-03 0.  1.
         11   -1    0    0    0    0 -0.00000000000E+00 -0.00000000000E+00 -0.45593999997E+02  0.45594000000E+02  0.51100000000E-03 0. -1.
    9900012    2    1    2    0    0 -0.10450129128E+02  0.15103134642E+02 -0.36566791420E+01  0.72461516690E+02  0.69999930171E+02 0.  0.
         12    1    1    2    0    0  0.10450129128E+02 -0.15103134642E+02  0.36566791420E+01  0.18726483310E+02  0.00000000000E+00 0. -1.
         11    1    3    3    0    0  0.20720737955E+02  0.12536208306E+02 -0.11233628296E+02  0.26696439932E+02  0.51100000000E-03 0. -1.
        -11    1    3    3    0    0 -0.30450408318E+02  0.25678796320E+01  0.17901188536E+02  0.35415729892E+02  0.51100000000E-03 0.  1.
         12    1    3    3    0    0 -0.72045876504E+00 -0.95329690965E-03 -0.10324239382E+02  0.10349346866E+02  0.00000000000E+00 0. -1.
</event>
<event>
 7    1  0.1375918E-013  0.7246117E+02  0.7816164E-02  0.1226709E+00
        -11   -1    0    0    0    0  0.00000000000E+00  0.00000000000E+00  0.45593999997E+02  0.45594000000E+02  0.51100000000E-03 0.  1.
         11   -1    0    0    0    0 -0.00000000000E+00 -0.00000000000E+00 -0.45593999997E+02  0.45594000000E+02  0.51100000000E-03 0. -1.
    9900012    2    1    2    0    0 -0.17364748099E+02  0.67100161269E+01 -0.20335666271E+01  0.72461169350E+02  0.69999477693E+02 0.  0.
         12    1    1    2    0    0  0.17364748099E+02 -0.67100161269E+01  0.20335666271E+01  0.18726830650E+02  0.00000000000E+00 0. -1.
         11    1    3    3    0    0 -0.18023695205E+02 -0.18019457124E+02  0.12000894918E-01  0.25486360434E+02  0.51100000000E-03 0. -1.
        -11    1    3    3    0    0  0.11937872327E+01  0.14250535475E+02 -0.20943104799E+02  0.25359742273E+02  0.51100000000E-03 0.  1.
        -12    1    3    3    0    0 -0.53484012714E+00  0.10478937775E+02  0.18897537277E+02  0.21615066643E+02  0.00000000000E+00 0.  1.
</event>
<event>
 7    1  0.1375918E-013  0.7246153E+02  0.7816164E-02  0.1226708E+00
        -11   -1    0    0    0    0  0.00000000000E+00  0.00000000000E+00  0.45593999997E+02  0.45594000000E+02  0.51100000000E-03 0.  1.
         11   -1    0    0    0    0 -0.00000000000E+00 -0.00000000000E+00 -0.45593999997E+02  0.45594000000E+02  0.51100000000E-03 0. -1.
    9900012    2    1    2    0    0 -0.15257097685E+02  0.92744166746E+01  0.56468481497E+01  0.72461528670E+02  0.69999945777E+02 0.  0.
         12    1    1    2    0    0  0.15257097685E+02 -0.92744166746E+01 -0.56468481497E+01  0.18726471330E+02  0.00000000000E+00 0. -1.
         11    1    3    3    0    0 -0.69001813185E+01  0.18070545796E+02 -0.16930461654E+02  0.25705984900E+02  0.51100000000E-03 0. -1.
        -11    1    3    3    0    0  0.80276712002E+01 -0.17715024094E+02  0.20044943661E+02  0.27929650019E+02  0.51100000000E-03 0.  1.
        -12    1    3    3    0    0 -0.16384587567E+02  0.89188949721E+01  0.25323661421E+01  0.18825893752E+02  0.00000000000E+00 0.  1.
</event>
<event>
 7    1  0.1375918E-013  0.7246161E+02  0.7816164E-02  0.1226708E+00
        -11   -1    0    0    0    0  0.00000000000E+00  0.00000000000E+00  0.45593999997E+02  0.45594000000E+02  0.51100000000E-03 0.  1.
         11   -1    0    0    0    0 -0.00000000000E+00 -0.00000000000E+00 -0.45593999997E+02  0.45594000000E+02  0.51100000000E-03 0. -1.
    9900012    2    1    2    0    0  0.88020960270E+01 -0.57092833447E+01  0.15511446096E+02  0.72461607642E+02  0.70000048652E+02 0.  0.
         12    1    1    2    0    0 -0.88020960270E+01  0.57092833447E+01 -0.15511446096E+02  0.18726392358E+02  0.00000000000E+00 0. -1.
         11    1    3    3    0    0  0.12768799759E+02 -0.61485830122E+01 -0.13954990048E+02  0.19889421003E+02  0.51100000000E-03 0. -1.
        -11    1    3    3    0    0 -0.52201092458E+01 -0.20626991108E+02  0.20810668261E+02  0.29762496811E+02  0.51100000000E-03 0.  1.
         12    1    3    3    0    0  0.12534055139E+01  0.21066290775E+02  0.86557678831E+01  0.22809689828E+02  0.00000000000E+00 0. -1.
</event>
<event>
 7    1  0.1375918E-013  0.7246158E+02  0.7816164E-02  0.1226708E+00
        -11   -1    0    0    0    0  0.00000000000E+00  0.00000000000E+00  0.45593999997E+02  0.45594000000E+02  0.51100000000E-03 0.  1.
         11   -1    0    0    0    0 -0.00000000000E+00 -0.00000000000E+00 -0.45593999997E+02  0.45594000000E+02  0.51100000000E-03 0. -1.
    9900012    2    1    2    0    0  0.94894984880E+01  0.73117553278E+00  0.16127421396E+02  0.72461576954E+02  0.70000008675E+02 0.  0.
         12    1    1    2    0    0 -0.94894984880E+01 -0.73117553278E+00 -0.16127421396E+02  0.18726423046E+02  0.00000000000E+00 0. -1.
         11    1    3    3    0    0 -0.11117144168E+02 -0.35891679813E+01  0.21543247097E+02  0.24506825926E+02  0.51100000000E-03 0. -1.
        -11    1    3    3    0    0  0.57495141559E+01 -0.51153060474E+01 -0.22284642002E+02  0.23576016169E+02  0.51100000000E-03 0.  1.
        -12    1    3    3    0    0  0.14857128500E+02  0.94356495615E+01  0.16868816301E+02  0.24378734859E+02  0.00000000000E+00 0.  1.
</event>
<event>
 7    1  0.1375918E-013  0.7246153E+02  0.7816164E-02  0.1226708E+00
        -11   -1    0    0    0    0  0.00000000000E+00  0.00000000000E+00  0.45593999997E+02  0.45594000000E+02  0.51100000000E-03 0. -1.
         11   -1    0    0    0    0 -0.00000000000E+00 -0.00000000000E+00 -0.45593999997E+02  0.45594000000E+02  0.51100000000E-03 0.  1.
    9900012    2    1    2    0    0  0.10919028066E+02 -0.18011723282E+01 -0.15106660625E+02  0.72461532343E+02  0.69999950562E+02 0.  0.
         12    1    1    2    0    0 -0.10919028066E+02  0.18011723282E+01  0.15106660625E+02  0.18726467657E+02  0.00000000000E+00 0. -1.
         11    1    3    3    0    0  0.32020661546E+02 -0.19969471821E+02  0.82940513684E+00  0.37746396964E+02  0.51100000000E-03 0. -1.
        -11    1    3    3    0    0 -0.10441864145E+02  0.11138938933E+01 -0.35000573571E+01  0.11069041882E+02  0.51100000000E-03 0.  1.
         12    1    3    3    0    0 -0.10659769335E+02  0.17054405599E+02 -0.12436008405E+02  0.23646093497E+02  0.00000000000E+00 0. -1.
</event>
<event>
 7    1  0.1375918E-013  0.7246154E+02  0.7816164E-02  0.1226708E+00
        -11   -1    0    0    0    0  0.00000000000E+00  0.00000000000E+00  0.45593999997E+02  0.45594000000E+02  0.51100000000E-03 0. -1.
         11   -1    0    0    0    0 -0.00000000000E+00 -0.00000000000E+00 -0.45593999997E+02  0.45594000000E+02  0.51100000000E-03 0.  1.
    9900012    2    1    2    0    0 -0.15655808909E+02 -0.89555442310E+01 -0.50372820860E+01  0.72461539152E+02  0.69999959432E+02 0.  0.
         12    1    1    2    0    0  0.15655808909E+02  0.89555442310E+01  0.50372820860E+01  0.18726460848E+02  0.00000000000E+00 0. -1.
         11    1    3    3    0    0  0.11945870060E+02 -0.15612096630E+02  0.14411068447E+02  0.24374582391E+02  0.51100000000E-03 0.  1.
        -11    1    3    3    0    0 -0.56595278831E+01 -0.19350252814E+01 -0.23436438253E+02  0.24187625286E+02  0.51100000000E-03 0. -1.
         12    1    3    3    0    0 -0.21942151086E+02  0.85915776804E+01  0.39880877200E+01  0.23899331476E+02  0.00000000000E+00 0. -1.
</event>
<event>
 7    1  0.1375918E-013  0.7246147E+02  0.7816164E-02  0.1226708E+00
        -11   -1    0    0    0    0  0.00000000000E+00  0.00000000000E+00  0.45593999997E+02  0.45594000000E+02  0.51100000000E-03 0.  1.
         11   -1    0    0    0    0 -0.00000000000E+00 -0.00000000000E+00 -0.45593999997E+02  0.45594000000E+02  0.51100000000E-03 0. -1.
    9900012    2    1    2    0    0  0.96833048636E+01 -0.11685590588E+02  0.10971032498E+02  0.72461468700E+02  0.69999867654E+02 0.  0.
         12    1    1    2    0    0 -0.96833048636E+01  0.11685590588E+02 -0.10971032498E+02  0.18726531300E+02  0.00000000000E+00 0. -1.
         11    1    3    3    0    0  0.10977024479E+02 -0.70341186253E+01  0.16321478649E+00  0.13038425157E+02  0.51100000000E-03 0. -1.
        -11    1    3    3    0    0 -0.66237469386E+01  0.23818036085E+02 -0.66548396614E+01  0.25601948317E+02  0.51100000000E-03 0.  1.
        -12    1    3    3    0    0  0.53300273232E+01 -0.28469508047E+02  0.17462657373E+02  0.33821095226E+02  0.00000000000E+00 0.  1.
</event>
<event>
 7    1  0.1375918E-013  0.7246158E+02  0.7816164E-02  0.1226708E+00
        -11   -1    0    0    0    0  0.00000000000E+00  0.00000000000E+00  0.45593999997E+02  0.45594000000E+02  0.51100000000E-03 0.  1.
         11   -1    0    0    0    0 -0.00000000000E+00 -0.00000000000E+00 -0.45593999997E+02  0.45594000000E+02  0.51100000000E-03 0. -1.
    9900012    2    1    2    0    0 -0.99845588370E+01  0.22210068395E+01 -0.15686126164E+02  0.72461579077E+02  0.70000011441E+02 0.  0.
         12    1    1    2    0    0  0.99845588370E+01 -0.22210068395E+01  0.15686126164E+02  0.18726420923E+02  0.00000000000E+00 0. -1.
         11    1    3    3    0    0 -0.10440624721E+02  0.28710644869E+02 -0.24636108856E+02  0.39245963273E+02  0.51100000000E-03 0. -1.
        -11    1    3    3    0    0 -0.72419726162E+01 -0.11210220211E+02 -0.10692226404E+01  0.13388743102E+02  0.51100000000E-03 0.  1.
         12    1    3    3    0    0  0.76980384999E+01 -0.15279417819E+02  0.10019205333E+02  0.19826872702E+02  0.00000000000E+00 0. -1.
</event>
<event>
 7    1  0.1375918E-013  0.7246178E+02  0.7816164E-02  0.1226707E+00
        -11   -1    0    0    0    0  0.00000000000E+00  0.00000000000E+00  0.45593999997E+02  0.45594000000E+02  0.51100000000E-03 0. -1.
         11   -1    0    0    0    0 -0.00000000000E+00 -0.00000000000E+00 -0.45593999997E+02  0.45594000000E+02  0.51100000000E-03 0.  1.
    9900012    2    1    2    0    0 -0.13238235753E+02  0.11845846080E+02  0.59242103535E+01  0.72461782455E+02  0.70000276379E+02 0.  0.
         12    1    1    2    0    0  0.13238235753E+02 -0.11845846080E+02 -0.59242103535E+01  0.18726217545E+02  0.00000000000E+00 0. -1.
         11    1    3    3    0    0  0.93838246649E+01  0.35014481703E+00  0.27071940259E+02  0.28654296647E+02  0.51100000000E-03 0. -1.
        -11    1    3    3    0    0 -0.90220635966E+01 -0.92867107230E+01 -0.10955677975E+02  0.16960763772E+02  0.51100000000E-03 0.  1.
         12    1    3    3    0    0 -0.13599996822E+02  0.20782411986E+02 -0.10192051930E+02  0.26846722036E+02  0.00000000000E+00 0. -1.
</event>
<event>
 7    1  0.1375918E-013  0.7246147E+02  0.7816164E-02  0.1226708E+00
        -11   -1    0    0    0    0  0.00000000000E+00  0.00000000000E+00  0.45593999997E+02  0.45594000000E+02  0.51100000000E-03 0.  1.
         11   -1    0    0    0    0 -0.00000000000E+00 -0.00000000000E+00 -0.45593999997E+02  0.45594000000E+02  0.51100000000E-03 0. -1.
    9900012    2    1    2    0    0 -0.15904026919E+01 -0.18651809331E+02  0.51345208990E+00  0.72461467884E+02  0.69999866592E+02 0.  0.
         12    1    1    2    0    0  0.15904026919E+01  0.18651809331E+02 -0.51345208990E+00  0.18726532116E+02  0.00000000000E+00 0. -1.
         11    1    3    3    0    0  0.36839473631E+01  0.19213525052E+02 -0.56355089373E+01  0.20359026851E+02  0.51100000000E-03 0. -1.
        -11    1    3    3    0    0 -0.73087987232E+01 -0.19528703022E+02  0.20107936566E+02  0.28967531716E+02  0.51100000000E-03 0.  1.
        -12    1    3    3    0    0  0.20344486683E+01 -0.18336631360E+02 -0.13958975539E+02  0.23134909317E+02  0.00000000000E+00 0.  1.
</event>
<event>
 7    1  0.1375918E-013  0.7246176E+02  0.7816164E-02  0.1226708E+00
        -11   -1    0    0    0    0  0.00000000000E+00  0.00000000000E+00  0.45593999997E+02  0.45594000000E+02  0.51100000000E-03 0.  1.
         11   -1    0    0    0    0 -0.00000000000E+00 -0.00000000000E+00 -0.45593999997E+02  0.45594000000E+02  0.51100000000E-03 0. -1.
    9900012    2    1    2    0    0  0.18002674510E+02 -0.51381171744E+01 -0.41910578779E+00  0.72461756723E+02  0.70000242857E+02 0.  0.
         12    1    1    2    0    0 -0.18002674510E+02  0.51381171744E+01  0.41910578779E+00  0.18726243277E+02  0.00000000000E+00 0. -1.
         11    1    3    3    0    0  0.13721077040E+02 -0.17949289436E+02 -0.96182067966E+01  0.24555138945E+02  0.51100000000E-03 0. -1.
        -11    1    3    3    0    0  0.33129150030E+01  0.28759321876E+02  0.12597461659E+02  0.31571665162E+02  0.51100000000E-03 0.  1.
        -12    1    3    3    0    0  0.96868246781E+00 -0.15948149614E+02 -0.33983606505E+01  0.16334952616E+02  0.00000000000E+00 0.  1.
</event>
<event>
 7    1  0.1375918E-013  0.7246156E+02  0.7816164E-02  0.1226708E+00
        -11   -1    0    0    0    0  0.00000000000E+00  0.00000000000E+00  0.45593999997E+02  0.45594000000E+02  0.51100000000E-03 0. -1.
         11   -1    0    0    0    0 -0.00000000000E+00 -0.00000000000E+00 -0.45593999997E+02  0.45594000000E+02  0.51100000000E-03 0.  1.
    9900012    2    1    2    0    0  0.18297764447E+02 -0.19445820239E+01 -0.34770826343E+01  0.72461556487E+02  0.69999982014E+02 0.  0.
         12    1    1    2    0    0 -0.18297764447E+02  0.19445820239E+01  0.34770826343E+01  0.18726443513E+02  0.00000000000E+00 0. -1.
         11    1    3    3    0    0  0.38417460390E+01  0.21028930285E+02  0.32937690778E+01  0.21629235691E+02  0.51100000000E-03 0.  1.
        -11    1    3    3    0    0  0.27306564707E+02 -0.14648166044E+02  0.51691189920E+01  0.31415554045E+02  0.51100000000E-03 0. -1.
        -12    1    3    3    0    0 -0.12850546300E+02 -0.83253462653E+01 -0.11939970704E+02  0.19416766751E+02  0.00000000000E+00 0.  1.
</event>
<event>
 7    1  0.1375918E-013  0.7246155E+02  0.7816164E-02  0.1226708E+00
        -11   -1    0    0    0    0  0.00000000000E+00  0.00000000000E+00  0.45593999997E+02  0.45594000000E+02  0.51100000000E-03 0.  1.
         11   -1    0    0    0    0 -0.00000000000E+00 -0.00000000000E+00 -0.45593999997E+02  0.45594000000E+02  0.51100000000E-03 0. -1.
    9900012    2    1    2    0    0  0.12418162382E+02  0.12132315979E+02  0.70196902950E+01  0.72461550796E+02  0.69999974600E+02 0.  0.
         12    1    1    2    0    0 -0.12418162382E+02 -0.12132315979E+02 -0.70196902950E+01  0.18726449204E+02  0.00000000000E+00 0. -1.
         11    1    3    3    0    0 -0.22194978311E+02  0.10001995714E+02 -0.15888663332E+02  0.29070717281E+02  0.51100000000E-03 0. -1.
        -11    1    3    3    0    0  0.20350020770E+02  0.29682098871E+01  0.20242767627E+02  0.28856598149E+02  0.51100000000E-03 0.  1.
        -12    1    3    3    0    0  0.14263119923E+02 -0.83788962201E+00  0.26655860003E+01  0.14534235366E+02  0.00000000000E+00 0.  1.
</event>
<event>
 7    1  0.1375918E-013  0.7246159E+02  0.7816164E-02  0.1226708E+00
        -11   -1    0    0    0    0  0.00000000000E+00  0.00000000000E+00  0.45593999997E+02  0.45594000000E+02  0.51100000000E-03 0. -1.
         11   -1    0    0    0    0 -0.00000000000E+00 -0.00000000000E+00 -0.45593999997E+02  0.45594000000E+02  0.51100000000E-03 0.  1.
    9900012    2    1    2    0    0  0.11147136447E+02 -0.39325596052E+01 -0.14524277433E+02  0.72461593218E+02  0.70000029862E+02 0.  0.
         12    1    1    2    0    0 -0.11147136447E+02  0.39325596052E+01  0.14524277433E+02  0.18726406782E+02  0.00000000000E+00 0. -1.
         11    1    3    3    0    0 -0.93886847514E+00 -0.15265131949E+02 -0.28783734957E+02  0.32594618049E+02  0.51100000000E-03 0. -1.
        -11    1    3    3    0    0  0.39328034626E+01 -0.11224259798E+02  0.99311167317E+01  0.15494451616E+02  0.51100000000E-03 0.  1.
         12    1    3    3    0    0  0.81532014597E+01  0.22556832142E+02  0.43283407925E+01  0.24372523553E+02  0.00000000000E+00 0. -1.
</event>
<event>
 7    1  0.1375918E-013  0.7246154E+02  0.7816164E-02  0.1226708E+00
        -11   -1    0    0    0    0  0.00000000000E+00  0.00000000000E+00  0.45593999997E+02  0.45594000000E+02  0.51100000000E-03 0.  1.
         11   -1    0    0    0    0 -0.00000000000E+00 -0.00000000000E+00 -0.45593999997E+02  0.45594000000E+02  0.51100000000E-03 0. -1.
    9900012    2    1    2    0    0 -0.10103806249E+02  0.75175176129E+01  0.13859309750E+02  0.72461536411E+02  0.69999955861E+02 0.  0.
         12    1    1    2    0    0  0.10103806249E+02 -0.75175176129E+01 -0.13859309750E+02  0.18726463589E+02  0.00000000000E+00 0. -1.
         11    1    3    3    0    0  0.80167714541E+01 -0.27288659312E+01  0.15053846609E+02  0.17272337185E+02  0.51100000000E-03 0. -1.
        -11    1    3    3    0    0  0.10411622589E+01  0.13976481831E+02 -0.22364069619E+02  0.26392757973E+02  0.51100000000E-03 0.  1.
        -12    1    3    3    0    0 -0.19161739962E+02 -0.37300982874E+01  0.21169532760E+02  0.28796441254E+02  0.00000000000E+00 0.  1.
</event>
<event>
 7    1  0.1375918E-013  0.7246158E+02  0.7816164E-02  0.1226708E+00
        -11   -1    0    0    0    0  0.00000000000E+00  0.00000000000E+00  0.45593999997E+02  0.45594000000E+02  0.51100000000E-03 0.  1.
         11   -1    0    0    0    0 -0.00000000000E+00 -0.00000000000E+00 -0.45593999997E+02  0.45594000000E+02  0.51100000000E-03 0. -1.
    9900012    2    1    2    0    0  0.10383980552E+02 -0.31371708711E+01  0.15264661248E+02  0.72461580796E+02  0.70000013680E+02 0.  0.
         12    1    1    2    0    0 -0.10383980552E+02  0.31371708711E+01 -0.15264661248E+02  0.18726419204E+02  0.00000000000E+00 0. -1.
         11    1    3    3    0    0  0.54775068805E+01 -0.81773332886E+01 -0.10107070597E+02  0.14107612755E+02  0.51100000000E-03 0. -1.
        -11    1    3    3    0    0  0.20063118170E+02  0.22018778547E+02  0.14604016127E+02  0.33175783438E+02  0.51100000000E-03 0.  1.
        -12    1    3    3    0    0 -0.15156644498E+02 -0.16978616130E+02  0.10767715718E+02  0.25178184603E+02  0.00000000000E+00 0.  1.
</event>
<event>
 7    1  0.1375918E-013  0.7246161E+02  0.7816164E-02  0.1226708E+00
        -11   -1    0    0    0    0  0.00000000000E+00  0.00000000000E+00  0.45593999997E+02  0.45594000000E+02  0.51100000000E-03 0. -1.
         11   -1    0    0    0    0 -0.00000000000E+00 -0.00000000000E+00 -0.45593999997E+02  0.45594000000E+02  0.51100000000E-03 0.  1.
    9900012    2    1    2    0    0  0.52210316440E+01 -0.93690059535E+01  0.15350580004E+02  0.72461608184E+02  0.70000049359E+02 0.  0.
         12    1    1    2    0    0 -0.52210316440E+01  0.93690059535E+01 -0.15350580004E+02  0.18726391816E+02  0.00000000000E+00 0. -1.
         11    1    3    3    0    0 -0.35470758514E+01  0.67622831996E+01  0.17742392603E+01  0.78395246272E+01  0.51100000000E-03 0. -1.
        -11    1    3    3    0    0  0.17980554608E+02 -0.16484326232E+02 -0.18902606047E+02  0.30860036795E+02  0.51100000000E-03 0.  1.
        -12    1    3    3    0    0 -0.92124471128E+01  0.35303707899E+00  0.32478946790E+02  0.33762046762E+02  0.00000000000E+00 0.  1.
</event>
<event>
 7    1  0.1375918E-013  0.7246155E+02  0.7816164E-02  0.1226708E+00
        -11   -1    0    0    0    0  0.00000000000E+00  0.00000000000E+00  0.45593999997E+02  0.45594000000E+02  0.51100000000E-03 0. -1.
         11   -1    0    0    0    0 -0.00000000000E+00 -0.00000000000E+00 -0.45593999997E+02  0.45594000000E+02  0.51100000000E-03 0.  1.
    9900012    2    1    2    0    0  0.12983241333E+02  0.13490747955E+02 -0.33925743600E+00  0.72461549949E+02  0.69999973496E+02 0.  0.
         12    1    1    2    0    0 -0.12983241333E+02 -0.13490747955E+02  0.33925743600E+00  0.18726450051E+02  0.00000000000E+00 0. -1.
         11    1    3    3    0    0 -0.24923039356E+01 -0.17688779718E+01  0.23856026617E+01  0.38770618395E+01  0.51100000000E-03 0. -1.
        -11    1    3    3    0    0  0.34140908420E+02  0.27043615928E+02 -0.11147846179E+02  0.44958127907E+02  0.51100000000E-03 0.  1.
        -12    1    3    3    0    0 -0.18665363151E+02 -0.11783990001E+02  0.84229860809E+01  0.23626360203E+02  0.00000000000E+00 0.  1.
</event>
<event>
 7    1  0.1375918E-013  0.7246154E+02  0.7816164E-02  0.1226708E+00
        -11   -1    0    0    0    0  0.00000000000E+00  0.00000000000E+00  0.45593999997E+02  0.45594000000E+02  0.51100000000E-03 0. -1.
         11   -1    0    0    0    0 -0.00000000000E+00 -0.00000000000E+00 -0.45593999997E+02  0.45594000000E+02  0.51100000000E-03 0.  1.
    9900012    2    1    2    0    0  0.12819582649E+02 -0.12113621682E+02  0.62927620639E+01  0.72461537869E+02  0.69999957760E+02 0.  0.
         12    1    1    2    0    0 -0.12819582649E+02  0.12113621682E+02 -0.62927620639E+01  0.18726462131E+02  0.00000000000E+00 0. -1.
         11    1    3    3    0    0  0.29850198800E+02 -0.64163122451E+01  0.69947107638E+01  0.31322985333E+02  0.51100000000E-03 0. -1.
        -11    1    3    3    0    0 -0.79466624230E+01  0.50859015015E+01 -0.17089128428E+02  0.19520608301E+02  0.51100000000E-03 0.  1.
        -12    1    3    3    0    0 -0.90839537282E+01 -0.10783210939E+02  0.16387179728E+02  0.21617944235E+02  0.00000000000E+00 0.  1.
</event>
<event>
 7    1  0.1375918E-013  0.7246160E+02  0.7816164E-02  0.1226708E+00
        -11   -1    0    0    0    0  0.00000000000E+00  0.00000000000E+00  0.45593999997E+02  0.45594000000E+02  0.51100000000E-03 0.  1.
         11   -1    0    0    0    0 -0.00000000000E+00 -0.00000000000E+00 -0.45593999997E+02  0.45594000000E+02  0.51100000000E-03 0. -1.
    9900012    2    1    2    0    0 -0.16894174471E+02 -0.63940425813E+01  0.49377118295E+01  0.72461603932E+02  0.70000043819E+02 0.  0.
         12    1    1    2    0    0  0.16894174471E+02  0.63940425813E+01 -0.49377118295E+01  0.18726396068E+02  0.00000000000E+00 0. -1.
         11    1    3    3    0    0  0.11741928821E+02 -0.12131251429E+02  0.12956355279E+02  0.21281618737E+02  0.51100000000E-03 0. -1.
        -11    1    3    3    0    0 -0.57773352462E+01  0.94570446246E+01 -0.21639389392E+02  0.24312064271E+02  0.51100000000E-03 0.  1.
        -12    1    3    3    0    0 -0.22858768046E+02 -0.37198357774E+01  0.13620745943E+02  0.26867920925E+02  0.00000000000E+00 0.  1.
</event>
<event>
 8    1  0.1375918E-013  0.7246158E+02  0.7816164E-02  0.1226708E+00
        -11   -1    0    0    0    0  0.00000000000E+00  0.00000000000E+00  0.45593999997E+02  0.45594000000E+02  0.51100000000E-03 0. -1.
         11   -1    0    0    0    0 -0.00000000000E+00 -0.00000000000E+00 -0.45593999997E+02  0.45594000000E+02  0.51100000000E-03 0.  1.
    9900012    2    1    2    0    0  0.34186959625E+01 -0.10873825392E+02 -0.14857695766E+02  0.72461583252E+02  0.70000016880E+02 0.  0.
         24    2    3    3    0    0  0.13537605690E+02 -0.20061606939E+02 -0.19454562671E+02  0.58041498320E+02  0.49036727845E+02 0.  0.
         12    1    1    2    0    0 -0.34186959625E+01  0.10873825392E+02  0.14857695766E+02  0.18726416748E+02  0.00000000000E+00 0. -1.
         11    1    3    3    0    0 -0.10118909728E+02  0.91877815471E+01  0.45968669050E+01  0.14420084932E+02  0.51100000000E-03 0. -1.
        -11    1    4    4    0    0 -0.57548780371E+00 -0.29885439104E+01 -0.32294854663E+02  0.32437944122E+02  0.51100000000E-03 0.  1.
         12    1    4    4    0    0  0.14113093494E+02 -0.17073063029E+02  0.12840291992E+02  0.25603554198E+02  0.00000000000E+00 0. -1.
</event>
<event>
 7    1  0.1375918E-013  0.7246158E+02  0.7816164E-02  0.1226708E+00
        -11   -1    0    0    0    0  0.00000000000E+00  0.00000000000E+00  0.45593999997E+02  0.45594000000E+02  0.51100000000E-03 0. -1.
         11   -1    0    0    0    0 -0.00000000000E+00 -0.00000000000E+00 -0.45593999997E+02  0.45594000000E+02  0.51100000000E-03 0.  1.
    9900012    2    1    2    0    0  0.15867683927E+02 -0.96553322693E+01 -0.23811945727E+01  0.72461576902E+02  0.70000008608E+02 0.  0.
         12    1    1    2    0    0 -0.15867683927E+02  0.96553322693E+01  0.23811945727E+01  0.18726423098E+02  0.00000000000E+00 0. -1.
         11    1    3    3    0    0  0.28831177092E+02  0.51069173904E+01  0.98918985137E+01  0.30905776713E+02  0.51100000000E-03 0. -1.
        -11    1    3    3    0    0 -0.10818850885E+01 -0.24314588508E+02 -0.59788629798E+01  0.25062252342E+02  0.51100000000E-03 0.  1.
        -12    1    3    3    0    0 -0.11881608076E+02  0.95523388483E+01 -0.62942301066E+01  0.16493547847E+02  0.00000000000E+00 0.  1.
</event>
<event>
 7    1  0.1375918E-013  0.7246155E+02  0.7816164E-02  0.1226708E+00
        -11   -1    0    0    0    0  0.00000000000E+00  0.00000000000E+00  0.45593999997E+02  0.45594000000E+02  0.51100000000E-03 0.  1.
         11   -1    0    0    0    0 -0.00000000000E+00 -0.00000000000E+00 -0.45593999997E+02  0.45594000000E+02  0.51100000000E-03 0. -1.
    9900012    2    1    2    0    0 -0.71349905022E+01 -0.80602645247E+01 -0.15323314050E+02  0.72461550600E+02  0.69999974344E+02 0.  0.
         12    1    1    2    0    0  0.71349905022E+01  0.80602645247E+01  0.15323314050E+02  0.18726449400E+02  0.00000000000E+00 0. -1.
         11    1    3    3    0    0 -0.38618251841E+01 -0.27498349522E+02  0.54356366269E+01  0.28295212775E+02  0.51100000000E-03 0. -1.
        -11    1    3    3    0    0  0.29585442124E+01  0.21809796997E+02 -0.27136178781E+02  0.34939840126E+02  0.51100000000E-03 0.  1.
         12    1    3    3    0    0 -0.62317095305E+01 -0.23717119996E+01  0.63772281046E+01  0.92264976984E+01  0.00000000000E+00 0. -1.
</event>
<event>
 7    1  0.1375918E-013  0.7246157E+02  0.7816164E-02  0.1226708E+00
        -11   -1    0    0    0    0  0.00000000000E+00  0.00000000000E+00  0.45593999997E+02  0.45594000000E+02  0.51100000000E-03 0.  1.
         11   -1    0    0    0    0 -0.00000000000E+00 -0.00000000000E+00 -0.45593999997E+02  0.45594000000E+02  0.51100000000E-03 0. -1.
    9900012    2    1    2    0    0  0.13028797707E+02  0.86558936619E+01  0.10295871211E+02  0.72461574053E+02  0.70000004896E+02 0.  0.
         12    1    1    2    0    0 -0.13028797707E+02 -0.86558936619E+01 -0.10295871211E+02  0.18726425947E+02  0.00000000000E+00 0. -1.
         11    1    3    3    0    0  0.18116520272E+02  0.39956788866E+01 -0.23867054017E+02  0.30229290833E+02  0.51100000000E-03 0. -1.
        -11    1    3    3    0    0 -0.84327742690E+01 -0.77697500155E+01  0.20300871281E+02  0.23315361293E+02  0.51100000000E-03 0.  1.
        -12    1    3    3    0    0  0.33450517034E+01  0.12429964791E+02  0.13862053946E+02  0.18916921927E+02  0.00000000000E+00 0.  1.
</event>
<event>
 7    1  0.1375918E-013  0.7246147E+02  0.7816164E-02  0.1226708E+00
        -11   -1    0    0    0    0  0.00000000000E+00  0.00000000000E+00  0.45593999997E+02  0.45594000000E+02  0.51100000000E-03 0. -1.
         11   -1    0    0    0    0 -0.00000000000E+00 -0.00000000000E+00 -0.45593999997E+02  0.45594000000E+02  0.51100000000E-03 0.  1.
    9900012    2    1    2    0    0  0.38873263418E+01  0.12591973356E+02 -0.13304651520E+02  0.72461471994E+02  0.69999871945E+02 0.  0.
         12    1    1    2    0    0 -0.38873263418E+01 -0.12591973356E+02  0.13304651520E+02  0.18726528006E+02  0.00000000000E+00 0. -1.
         11    1    3    3    0    0  0.16857267418E+02  0.21370078544E+02  0.18759922305E+02  0.33057259519E+02  0.51100000000E-03 0. -1.
        -11    1    3    3    0    0 -0.62815511773E+01 -0.13324239486E+02 -0.19039363621E+02  0.24072611209E+02  0.51100000000E-03 0.  1.
         12    1    3    3    0    0 -0.66883898984E+01  0.45461342984E+01 -0.13025210204E+02  0.15331601265E+02  0.00000000000E+00 0. -1.
</event>
<event>
 7    1  0.1375918E-013  0.7246166E+02  0.7816164E-02  0.1226708E+00
        -11   -1    0    0    0    0  0.00000000000E+00  0.00000000000E+00  0.45593999997E+02  0.45594000000E+02  0.51100000000E-03 0.  1.
         11   -1    0    0    0    0 -0.00000000000E+00 -0.00000000000E+00 -0.45593999997E+02  0.45594000000E+02  0.51100000000E-03 0. -1.
    9900012    2    1    2    0    0 -0.17407364464E+02  0.19993131642E+01  0.66077297354E+01  0.72461663386E+02  0.70000121270E+02 0.  0.
         12    1    1    2    0    0  0.17407364464E+02 -0.19993131642E+01 -0.66077297354E+01  0.18726336614E+02  0.00000000000E+00 0. -1.
         11    1    3    3    0    0  0.13844238405E+02 -0.31074600938E+01 -0.24958369701E-01  0.14188723284E+02  0.51100000000E-03 0. -1.
        -11    1    3    3    0    0 -0.18604652214E+02  0.93272199726E+01  0.26901596470E+02  0.34012145027E+02  0.51100000000E-03 0.  1.
        -12    1    3    3    0    0 -0.12646950655E+02 -0.42204467146E+01 -0.20268908365E+02  0.24260795075E+02  0.00000000000E+00 0.  1.
</event>
<event>
 7    1  0.1375918E-013  0.7246170E+02  0.7816164E-02  0.1226708E+00
        -11   -1    0    0    0    0  0.00000000000E+00  0.00000000000E+00  0.45593999997E+02  0.45594000000E+02  0.51100000000E-03 0.  1.
         11   -1    0    0    0    0 -0.00000000000E+00 -0.00000000000E+00 -0.45593999997E+02  0.45594000000E+02  0.51100000000E-03 0. -1.
    9900012    2    1    2    0    0 -0.88033036027E+00  0.12858823975E+02  0.13584922017E+02  0.72461696527E+02  0.70000164441E+02 0.  0.
         12    1    1    2    0    0  0.88033036027E+00 -0.12858823975E+02 -0.13584922017E+02  0.18726303473E+02  0.00000000000E+00 0. -1.
         11    1    3    3    0    0 -0.89111272365E+01 -0.13381663602E+01 -0.20602306065E+02  0.22486749283E+02  0.51100000000E-03 0. -1.
        -11    1    3    3    0    0 -0.83578524202E+01  0.15363298803E+01  0.26591762591E+02  0.27916587265E+02  0.51100000000E-03 0.  1.
         12    1    3    3    0    0  0.16388649296E+02  0.12660660455E+02  0.75954654916E+01  0.22058359979E+02  0.00000000000E+00 0. -1.
</event>
<event>
 7    1  0.1375918E-013  0.7246151E+02  0.7816164E-02  0.1226708E+00
        -11   -1    0    0    0    0  0.00000000000E+00  0.00000000000E+00  0.45593999997E+02  0.45594000000E+02  0.51100000000E-03 0. -1.
         11   -1    0    0    0    0 -0.00000000000E+00 -0.00000000000E+00 -0.45593999997E+02  0.45594000000E+02  0.51100000000E-03 0.  1.
    9900012    2    1    2    0    0 -0.42706535524E+01  0.13639345856E+02 -0.12100044202E+02  0.72461513227E+02  0.69999925660E+02 0.  0.
         12    1    1    2    0    0  0.42706535524E+01 -0.13639345856E+02  0.12100044202E+02  0.18726486773E+02  0.00000000000E+00 0. -1.
         11    1    3    3    0    0 -0.15574923690E+02 -0.63552460962E+01  0.11269031243E+02  0.20247431104E+02  0.51100000000E-03 0. -1.
        -11    1    3    3    0    0  0.24651391436E+02  0.31940868093E+01 -0.15835553422E+02  0.29473005322E+02  0.51100000000E-03 0.  1.
         12    1    3    3    0    0 -0.13347121298E+02  0.16800505143E+02 -0.75335220234E+01  0.22741076801E+02  0.00000000000E+00 0. -1.
</event>
<event>
 7    1  0.1375918E-013  0.7246158E+02  0.7816164E-02  0.1226708E+00
        -11   -1    0    0    0    0  0.00000000000E+00  0.00000000000E+00  0.45593999997E+02  0.45594000000E+02  0.51100000000E-03 0. -1.
         11   -1    0    0    0    0 -0.00000000000E+00 -0.00000000000E+00 -0.45593999997E+02  0.45594000000E+02  0.51100000000E-03 0.  1.
    9900012    2    1    2    0    0 -0.20069622716E+01 -0.16754040881E+02 -0.81211469387E+01  0.72461579867E+02  0.70000012471E+02 0.  0.
         12    1    1    2    0    0  0.20069622716E+01  0.16754040881E+02  0.81211469387E+01  0.18726420133E+02  0.00000000000E+00 0. -1.
         11    1    3    3    0    0  0.21498005687E+02  0.28131630048E+01  0.25366915258E+01  0.21829176319E+02  0.51100000000E-03 0. -1.
        -11    1    3    3    0    0 -0.13276130246E+02 -0.29869959433E+02 -0.11088069126E+00  0.32687649130E+02  0.51100000000E-03 0.  1.
        -12    1    3    3    0    0 -0.10228837713E+02  0.10302755548E+02 -0.10546957773E+02  0.17944754418E+02  0.00000000000E+00 0.  1.
</event>
<event>
 7    1  0.1375918E-013  0.7246156E+02  0.7816164E-02  0.1226708E+00
        -11   -1    0    0    0    0  0.00000000000E+00  0.00000000000E+00  0.45593999997E+02  0.45594000000E+02  0.51100000000E-03 0.  1.
         11   -1    0    0    0    0 -0.00000000000E+00 -0.00000000000E+00 -0.45593999997E+02  0.45594000000E+02  0.51100000000E-03 0. -1.
    9900012    2    1    2    0    0  0.15603090679E+01 -0.18615938095E+02  0.13007578796E+01  0.72461556488E+02  0.69999982015E+02 0.  0.
         12    1    1    2    0    0 -0.15603090679E+01  0.18615938095E+02 -0.13007578796E+01  0.18726443512E+02  0.00000000000E+00 0. -1.
         11    1    3    3    0    0 -0.73125989533E+00  0.13291082240E+02 -0.20018318332E+02  0.24039980808E+02  0.51100000000E-03 0. -1.
        -11    1    3    3    0    0  0.83794703542E+01 -0.33959129601E+02  0.22897693152E+02  0.41806008643E+02  0.51100000000E-03 0.  1.
        -12    1    3    3    0    0 -0.60879013909E+01  0.20521092663E+01 -0.15786169405E+01  0.66155670378E+01  0.00000000000E+00 0.  1.
</event>
<event>
 7    1  0.1375918E-013  0.7246153E+02  0.7816164E-02  0.1226708E+00
        -11   -1    0    0    0    0  0.00000000000E+00  0.00000000000E+00  0.45593999997E+02  0.45594000000E+02  0.51100000000E-03 0.  1.
         11   -1    0    0    0    0 -0.00000000000E+00 -0.00000000000E+00 -0.45593999997E+02  0.45594000000E+02  0.51100000000E-03 0. -1.
    9900012    2    1    2    0    0  0.15566787870E+02 -0.10027377475E+02 -0.27942154360E+01  0.72461526132E+02  0.69999942471E+02 0.  0.
         12    1    1    2    0    0 -0.15566787870E+02  0.10027377475E+02  0.27942154360E+01  0.18726473868E+02  0.00000000000E+00 0. -1.
         11    1    3    3    0    0  0.12925396079E+02  0.60918679744E+01 -0.21236798780E+02  0.25596451744E+02  0.51100000000E-03 0. -1.
        -11    1    3    3    0    0  0.16628703989E+02 -0.18547971935E+02  0.20826453254E+02  0.32469712267E+02  0.51100000000E-03 0.  1.
        -12    1    3    3    0    0 -0.13987312198E+02  0.24287264862E+01 -0.23838699094E+01  0.14395362121E+02  0.00000000000E+00 0.  1.
</event>
<event>
 7    1  0.1375918E-013  0.7246153E+02  0.7816164E-02  0.1226708E+00
        -11   -1    0    0    0    0  0.00000000000E+00  0.00000000000E+00  0.45593999997E+02  0.45594000000E+02  0.51100000000E-03 0.  1.
         11   -1    0    0    0    0 -0.00000000000E+00 -0.00000000000E+00 -0.45593999997E+02  0.45594000000E+02  0.51100000000E-03 0. -1.
    9900012    2    1    2    0    0 -0.76997628654E+01  0.13513379040E+02  0.10429897003E+02  0.72461534429E+02  0.69999953279E+02 0.  0.
         12    1    1    2    0    0  0.76997628654E+01 -0.13513379040E+02 -0.10429897003E+02  0.18726465571E+02  0.00000000000E+00 0. -1.
         11    1    3    3    0    0  0.14620858297E+02  0.77880828121E+01 -0.50535298605E+01  0.17319408060E+02  0.51100000000E-03 0. -1.
        -11    1    3    3    0    0 -0.11830688773E+02 -0.81528041829E+01  0.29492544964E+02  0.32806152191E+02  0.51100000000E-03 0.  1.
        -12    1    3    3    0    0 -0.10489932390E+02  0.13878100411E+02 -0.14009118100E+02  0.22335974179E+02  0.00000000000E+00 0.  1.
</event>
<event>
 7    1  0.1375918E-013  0.7246159E+02  0.7816164E-02  0.1226708E+00
        -11   -1    0    0    0    0  0.00000000000E+00  0.00000000000E+00  0.45593999997E+02  0.45594000000E+02  0.51100000000E-03 0.  1.
         11   -1    0    0    0    0 -0.00000000000E+00 -0.00000000000E+00 -0.45593999997E+02  0.45594000000E+02  0.51100000000E-03 0. -1.
    9900012    2    1    2    0    0 -0.88906637549E+01 -0.14756210764E+02  0.73408933803E+01  0.72461591542E+02  0.70000027679E+02 0.  0.
         12    1    1    2    0    0  0.88906637549E+01  0.14756210764E+02 -0.73408933803E+01  0.18726408458E+02  0.00000000000E+00 0. -1.
         11    1    3    3    0    0 -0.12290499951E+02  0.11056912970E+02 -0.34887541288E+01  0.16896245711E+02  0.51100000000E-03 0. -1.
        -11    1    3    3    0    0 -0.51750295765E+01 -0.38273894250E+02  0.11865705191E+02  0.40403797744E+02  0.51100000000E-03 0.  1.
        -12    1    3    3    0    0  0.85748657731E+01  0.12460770516E+02 -0.10360576819E+01  0.15161548087E+02  0.00000000000E+00 0.  1.
</event>
<event>
 7    1  0.1375918E-013  0.7246163E+02  0.7816164E-02  0.1226708E+00
        -11   -1    0    0    0    0  0.00000000000E+00  0.00000000000E+00  0.45593999997E+02  0.45594000000E+02  0.51100000000E-03 0. -1.
         11   -1    0    0    0    0 -0.00000000000E+00 -0.00000000000E+00 -0.45593999997E+02  0.45594000000E+02  0.51100000000E-03 0.  1.
    9900012    2    1    2    0    0  0.18613248936E+02 -0.15659292416E+01  0.13310173884E+01  0.72461634158E+02  0.70000083195E+02 0.  0.
         12    1    1    2    0    0 -0.18613248936E+02  0.15659292416E+01 -0.13310173884E+01  0.18726365842E+02  0.00000000000E+00 0. -1.
         11    1    3    3    0    0  0.16542989916E+01 -0.97288613089E+01  0.51681690210E+01  0.11139902101E+02  0.51100000000E-03 0. -1.
        -11    1    3    3    0    0  0.26361099837E+02 -0.38816741329E+01 -0.24110873766E+02  0.35934791118E+02  0.51100000000E-03 0.  1.
        -12    1    3    3    0    0 -0.94021498927E+01  0.12044606200E+02  0.20273722133E+02  0.25386940939E+02  0.00000000000E+00 0.  1.
</event>
<event>
 7    1  0.1375918E-013  0.7246143E+02  0.7816164E-02  0.1226708E+00
        -11   -1    0    0    0    0  0.00000000000E+00  0.00000000000E+00  0.45593999997E+02  0.45594000000E+02  0.51100000000E-03 0.  1.
         11   -1    0    0    0    0 -0.00000000000E+00 -0.00000000000E+00 -0.45593999997E+02  0.45594000000E+02  0.51100000000E-03 0. -1.
    9900012    2    1    2    0    0 -0.15299049093E+02 -0.39057159121E+01  0.10068207025E+02  0.72461432973E+02  0.69999821113E+02 0.  0.
         12    1    1    2    0    0  0.15299049093E+02  0.39057159121E+01 -0.10068207025E+02  0.18726567027E+02  0.00000000000E+00 0. -1.
         11    1    3    3    0    0 -0.55753139021E+01 -0.71697765359E+01 -0.26691700975E+02  0.28194622215E+02  0.51100000000E-03 0. -1.
        -11    1    3    3    0    0 -0.12791665337E+02  0.93801194197E+00  0.77143964448E+01  0.14967246950E+02  0.51100000000E-03 0.  1.
         12    1    3    3    0    0  0.30679301466E+01  0.23260486818E+01  0.29045511554E+02  0.29299563807E+02  0.00000000000E+00 0. -1.
</event>
<event>
 7    1  0.1375918E-013  0.7246162E+02  0.7816164E-02  0.1226708E+00
        -11   -1    0    0    0    0  0.00000000000E+00  0.00000000000E+00  0.45593999997E+02  0.45594000000E+02  0.51100000000E-03 0.  1.
         11   -1    0    0    0    0 -0.00000000000E+00 -0.00000000000E+00 -0.45593999997E+02  0.45594000000E+02  0.51100000000E-03 0. -1.
    9900012    2    1    2    0    0 -0.14427214762E+02 -0.11172346244E+02  0.42084825791E+01  0.72461623629E+02  0.70000069478E+02 0.  0.
         12    1    1    2    0    0  0.14427214762E+02  0.11172346244E+02 -0.42084825791E+01  0.18726376371E+02  0.00000000000E+00 0. -1.
         11    1    3    3    0    0  0.45586102935E+00 -0.32939547739E+01  0.33051160787E+00  0.33417339084E+01  0.51100000000E-03 0. -1.
        -11    1    3    3    0    0 -0.46921221627E+01  0.95090088863E+01  0.32459356509E+02  0.34147431611E+02  0.51100000000E-03 0.  1.
        -12    1    3    3    0    0 -0.10190953629E+02 -0.17387400356E+02 -0.28581385537E+02  0.34972458110E+02  0.00000000000E+00 0.  1.
</event>
<event>
 7    1  0.1375918E-013  0.7246152E+02  0.7816164E-02  0.1226708E+00
        -11   -1    0    0    0    0  0.00000000000E+00  0.00000000000E+00  0.45593999997E+02  0.45594000000E+02  0.51100000000E-03 0.  1.
         11   -1    0    0    0    0 -0.00000000000E+00 -0.00000000000E+00 -0.45593999997E+02  0.45594000000E+02  0.51100000000E-03 0. -1.
    9900012    2    1    2    0    0  0.13046742823E+02 -0.11899063822E+02  0.62350461829E+01  0.72461520912E+02  0.69999935670E+02 0.  0.
         12    1    1    2    0    0 -0.13046742823E+02  0.11899063822E+02 -0.62350461829E+01  0.18726479088E+02  0.00000000000E+00 0. -1.
         11    1    3    3    0    0  0.25880400825E+02  0.10953126462E+02 -0.75417104165E+01  0.29097139420E+02  0.51100000000E-03 0. -1.
        -11    1    3    3    0    0  0.10891961649E+01 -0.23850772674E+02  0.16656776208E+02  0.29111748476E+02  0.51100000000E-03 0.  1.
        -12    1    3    3    0    0 -0.13922854167E+02  0.99858238987E+00 -0.28800196083E+01  0.14252633016E+02  0.00000000000E+00 0.  1.
</event>
<event>
 7    1  0.1375918E-013  0.7246153E+02  0.7816164E-02  0.1226708E+00
        -11   -1    0    0    0    0  0.00000000000E+00  0.00000000000E+00  0.45593999997E+02  0.45594000000E+02  0.51100000000E-03 0.  1.
         11   -1    0    0    0    0 -0.00000000000E+00 -0.00000000000E+00 -0.45593999997E+02  0.45594000000E+02  0.51100000000E-03 0. -1.
    9900012    2    1    2    0    0  0.67886009588E+01 -0.11463939889E+02 -0.13159552157E+02  0.72461525860E+02  0.69999942115E+02 0.  0.
         12    1    1    2    0    0 -0.67886009588E+01  0.11463939889E+02  0.13159552157E+02  0.18726474140E+02  0.00000000000E+00 0. -1.
         11    1    3    3    0    0  0.30653607302E+02  0.12290091994E+02 -0.53605056508E+01  0.33457809596E+02  0.51100000000E-03 0. -1.
        -11    1    3    3    0    0 -0.10155598068E+02 -0.22179069182E+02 -0.43319108978E+01  0.24775244382E+02  0.51100000000E-03 0.  1.
         12    1    3    3    0    0 -0.13709408275E+02 -0.15749627008E+01 -0.34671356084E+01  0.14228471881E+02  0.00000000000E+00 0. -1.
</event>
<event>
 7    1  0.1375918E-013  0.7246175E+02  0.7816164E-02  0.1226708E+00
        -11   -1    0    0    0    0  0.00000000000E+00  0.00000000000E+00  0.45593999997E+02  0.45594000000E+02  0.51100000000E-03 0.  1.
         11   -1    0    0    0    0 -0.00000000000E+00 -0.00000000000E+00 -0.45593999997E+02  0.45594000000E+02  0.51100000000E-03 0. -1.
    9900012    2    1    2    0    0 -0.11113442178E+02 -0.73336515012E+01  0.13167430915E+02  0.72461754293E+02  0.70000239692E+02 0.  0.
         12    1    1    2    0    0  0.11113442178E+02  0.73336515012E+01 -0.13167430915E+02  0.18726245707E+02  0.00000000000E+00 0. -1.
         11    1    3    3    0    0  0.15299254171E+02  0.12289726662E+02  0.17039274741E+02  0.25989256311E+02  0.51100000000E-03 0.  1.
        -11    1    3    3    0    0 -0.34040777305E+02 -0.14773857125E+02 -0.15544213663E+01  0.37141050065E+02  0.51100000000E-03 0. -1.
        -12    1    3    3    0    0  0.76280809563E+01 -0.48495210383E+01 -0.23174224589E+01  0.93314479171E+01  0.00000000000E+00 0.  1.
</event>
<event>
 7    1  0.1375918E-013  0.7246157E+02  0.7816164E-02  0.1226708E+00
        -11   -1    0    0    0    0  0.00000000000E+00  0.00000000000E+00  0.45593999997E+02  0.45594000000E+02  0.51100000000E-03 0. -1.
         11   -1    0    0    0    0 -0.00000000000E+00 -0.00000000000E+00 -0.45593999997E+02  0.45594000000E+02  0.51100000000E-03 0.  1.
    9900012    2    1    2    0    0  0.14369823692E+01  0.18663147241E+02 -0.54878556056E+00  0.72461570846E+02  0.70000000718E+02 0.  0.
         12    1    1    2    0    0 -0.14369823692E+01 -0.18663147241E+02  0.54878556056E+00  0.18726429154E+02  0.00000000000E+00 0. -1.
         11    1    3    3    0    0  0.24028653531E+01 -0.13741211304E+02 -0.31612601734E+01  0.14303433719E+02  0.51100000000E-03 0. -1.
        -11    1    3    3    0    0  0.68171710809E+01  0.38671626143E+02 -0.11453318855E+02  0.40904119635E+02  0.51100000000E-03 0.  1.
        -12    1    3    3    0    0 -0.77830540648E+01 -0.62672675978E+01  0.14065793468E+02  0.17254017491E+02  0.00000000000E+00 0.  1.
</event>
<event>
 7    1  0.1375918E-013  0.7246163E+02  0.7816164E-02  0.1226708E+00
        -11   -1    0    0    0    0  0.00000000000E+00  0.00000000000E+00  0.45593999997E+02  0.45594000000E+02  0.51100000000E-03 0.  1.
         11   -1    0    0    0    0 -0.00000000000E+00 -0.00000000000E+00 -0.45593999997E+02  0.45594000000E+02  0.51100000000E-03 0. -1.
    9900012    2    1    2    0    0  0.69908217877E+01  0.17117105154E+02  0.29681885046E+01  0.72461627657E+02  0.70000074726E+02 0.  0.
         12    1    1    2    0    0 -0.69908217877E+01 -0.17117105154E+02 -0.29681885046E+01  0.18726372343E+02  0.00000000000E+00 0. -1.
         11    1    3    3    0    0 -0.10392137549E+02  0.22198832627E+00 -0.14917911257E+02  0.18182130739E+02  0.51100000000E-03 0. -1.
        -11    1    3    3    0    0 -0.59926440199E+00  0.60667758137E+01  0.29613743693E+02  0.30234726762E+02  0.51100000000E-03 0.  1.
        -12    1    3    3    0    0  0.17982223739E+02  0.10828341014E+02 -0.11727643931E+02  0.24044770157E+02  0.00000000000E+00 0.  1.
</event>
<event>
 7    1  0.1375918E-013  0.7246148E+02  0.7816164E-02  0.1226708E+00
        -11   -1    0    0    0    0  0.00000000000E+00  0.00000000000E+00  0.45593999997E+02  0.45594000000E+02  0.51100000000E-03 0. -1.
         11   -1    0    0    0    0 -0.00000000000E+00 -0.00000000000E+00 -0.45593999997E+02  0.45594000000E+02  0.51100000000E-03 0.  1.
    9900012    2    1    2    0    0 -0.26553612149E+01 -0.38513509553E+01 -0.18132807300E+02  0.72461480090E+02  0.69999882492E+02 0.  0.
         12    1    1    2    0    0  0.26553612149E+01  0.38513509553E+01  0.18132807300E+02  0.18726519910E+02  0.00000000000E+00 0. -1.
         11    1    3    3    0    0 -0.14741288476E+01 -0.23995128546E+02 -0.46946783027E+01  0.24494473957E+02  0.51100000000E-03 0. -1.
        -11    1    3    3    0    0 -0.12924859094E+02  0.23920225643E+02  0.30671417063E+01  0.27361223217E+02  0.51100000000E-03 0.  1.
         12    1    3    3    0    0  0.11743626727E+02 -0.37764480522E+01 -0.16505270704E+02  0.20605782916E+02  0.00000000000E+00 0. -1.
</event>
<event>
 7    1  0.1375918E-013  0.7246162E+02  0.7816164E-02  0.1226708E+00
        -11   -1    0    0    0    0  0.00000000000E+00  0.00000000000E+00  0.45593999997E+02  0.45594000000E+02  0.51100000000E-03 0.  1.
         11   -1    0    0    0    0 -0.00000000000E+00 -0.00000000000E+00 -0.45593999997E+02  0.45594000000E+02  0.51100000000E-03 0. -1.
    9900012    2    1    2    0    0 -0.67793426391E+01 -0.60731949111E+01  0.16365642689E+02  0.72461616375E+02  0.70000060029E+02 0.  0.
         12    1    1    2    0    0  0.67793426391E+01  0.60731949111E+01 -0.16365642689E+02  0.18726383625E+02  0.00000000000E+00 0. -1.
         11    1    3    3    0    0  0.91793292082E+01 -0.35383615779E+02  0.74236718437E+01  0.37301089183E+02  0.51100000000E-03 0. -1.
        -11    1    3    3    0    0 -0.79066681387E+01  0.96784818755E+01  0.11275547272E+01  0.12548298386E+02  0.51100000000E-03 0.  1.
         12    1    3    3    0    0 -0.80520037086E+01  0.19631938992E+02  0.78144161178E+01  0.22612228806E+02  0.00000000000E+00 0. -1.
</event>
<event>
 7    1  0.1375918E-013  0.7246147E+02  0.7816164E-02  0.1226708E+00
        -11   -1    0    0    0    0  0.00000000000E+00  0.00000000000E+00  0.45593999997E+02  0.45594000000E+02  0.51100000000E-03 0. -1.
         11   -1    0    0    0    0 -0.00000000000E+00 -0.00000000000E+00 -0.45593999997E+02  0.45594000000E+02  0.51100000000E-03 0.  1.
    9900012    2    1    2    0    0  0.13727530708E+02  0.12071026747E+02 -0.40654602610E+01  0.72461474609E+02  0.69999875352E+02 0.  0.
         12    1    1    2    0    0 -0.13727530708E+02 -0.12071026747E+02  0.40654602610E+01  0.18726525391E+02  0.00000000000E+00 0. -1.
         11    1    3    3    0    0 -0.20341682602E+02  0.26147613683E+02 -0.42402655788E+00  0.33130975705E+02  0.51100000000E-03 0. -1.
        -11    1    3    3    0    0  0.25369179473E+02 -0.38202574192E+01 -0.13788125324E+01  0.25692231474E+02  0.51100000000E-03 0.  1.
         12    1    3    3    0    0  0.87000338377E+01 -0.10256329517E+02 -0.22626211706E+01  0.13638267430E+02  0.00000000000E+00 0. -1.
</event>
<event>
 7    1  0.1375918E-013  0.7246167E+02  0.7816164E-02  0.1226708E+00
        -11   -1    0    0    0    0  0.00000000000E+00  0.00000000000E+00  0.45593999997E+02  0.45594000000E+02  0.51100000000E-03 0.  1.
         11   -1    0    0    0    0 -0.00000000000E+00 -0.00000000000E+00 -0.45593999997E+02  0.45594000000E+02  0.51100000000E-03 0. -1.
    9900012    2    1    2    0    0  0.35235986832E-01  0.78087864471E+01  0.17020487031E+02  0.72461671847E+02  0.70000132290E+02 0.  0.
         12    1    1    2    0    0 -0.35235986832E-01 -0.78087864471E+01 -0.17020487031E+02  0.18726328153E+02  0.00000000000E+00 0. -1.
         11    1    3    3    0    0  0.19153117169E+02 -0.15706937725E+02 -0.61925550872E+01  0.25532284049E+02  0.51100000000E-03 0. -1.
        -11    1    3    3    0    0 -0.23715023638E+02  0.15577309474E+02  0.85508715085E+01  0.29633972403E+02  0.51100000000E-03 0.  1.
        -12    1    3    3    0    0  0.45971424558E+01  0.79384146986E+01  0.14662170609E+02  0.17295415394E+02  0.00000000000E+00 0.  1.
</event>
<event>
 7    1  0.1375918E-013  0.7246153E+02  0.7816164E-02  0.1226708E+00
        -11   -1    0    0    0    0  0.00000000000E+00  0.00000000000E+00  0.45593999997E+02  0.45594000000E+02  0.51100000000E-03 0.  1.
         11   -1    0    0    0    0 -0.00000000000E+00 -0.00000000000E+00 -0.45593999997E+02  0.45594000000E+02  0.51100000000E-03 0. -1.
    9900012    2    1    2    0    0 -0.23919065848E+01  0.15850226522E+02  0.96814068819E+01  0.72461533779E+02  0.69999952432E+02 0.  0.
         12    1    1    2    0    0  0.23919065848E+01 -0.15850226522E+02 -0.96814068819E+01  0.18726466221E+02  0.00000000000E+00 0. -1.
         11    1    3    3    0    0  0.13979974803E+00 -0.24277091796E+02 -0.41731629925E+01  0.24633554751E+02  0.51100000000E-03 0. -1.
        -11    1    3    3    0    0 -0.68642604499E+01  0.35498186257E+02  0.43693744322E+01  0.36418823872E+02  0.51100000000E-03 0.  1.
         12    1    3    3    0    0  0.43325541171E+01  0.46291320609E+01  0.94851954421E+01  0.11409155157E+02  0.00000000000E+00 0. -1.
</event>
<event>
 7    1  0.1375918E-013  0.7246155E+02  0.7816164E-02  0.1226708E+00
        -11   -1    0    0    0    0  0.00000000000E+00  0.00000000000E+00  0.45593999997E+02  0.45594000000E+02  0.51100000000E-03 0.  1.
         11   -1    0    0    0    0 -0.00000000000E+00 -0.00000000000E+00 -0.45593999997E+02  0.45594000000E+02  0.51100000000E-03 0. -1.
    9900012    2    1    2    0    0  0.11637589163E+01  0.13538180971E+02  0.12885769972E+02  0.72461554886E+02  0.69999979928E+02 0.  0.
         12    1    1    2    0    0 -0.11637589163E+01 -0.13538180971E+02 -0.12885769972E+02  0.18726445114E+02  0.00000000000E+00 0. -1.
         11    1    3    3    0    0  0.18770258611E+01  0.68616550063E+01  0.32539294823E+02  0.33307825557E+02  0.51100000000E-03 0. -1.
        -11    1    3    3    0    0  0.46510357904E+01 -0.12804317137E+02 -0.87908105041E+01  0.16212989263E+02  0.51100000000E-03 0.  1.
         12    1    3    3    0    0 -0.53643027352E+01  0.19480843102E+02 -0.10862714347E+02  0.22940740066E+02  0.00000000000E+00 0. -1.
</event>
<event>
 7    1  0.1375918E-013  0.7246156E+02  0.7816164E-02  0.1226708E+00
        -11   -1    0    0    0    0  0.00000000000E+00  0.00000000000E+00  0.45593999997E+02  0.45594000000E+02  0.51100000000E-03 0.  1.
         11   -1    0    0    0    0 -0.00000000000E+00 -0.00000000000E+00 -0.45593999997E+02  0.45594000000E+02  0.51100000000E-03 0. -1.
    9900012    2    1    2    0    0 -0.66189068436E+01  0.71703173031E+00  0.17503011259E+02  0.72461562393E+02  0.69999989707E+02 0.  0.
         12    1    1    2    0    0  0.66189068436E+01 -0.71703173031E+00 -0.17503011259E+02  0.18726437607E+02  0.00000000000E+00 0. -1.
         11    1    3    3    0    0  0.12377130792E+02  0.11702881282E+02 -0.19282450854E+02  0.25728655389E+02  0.51100000000E-03 0. -1.
        -11    1    3    3    0    0 -0.20928170063E+02 -0.97859302978E+01  0.22436478502E+02  0.32204786940E+02  0.51100000000E-03 0.  1.
         12    1    3    3    0    0  0.19321324280E+01 -0.11999192543E+01  0.14348983611E+02  0.14528120064E+02  0.00000000000E+00 0. -1.
</event>
<event>
 7    1  0.1375918E-013  0.7246204E+02  0.7816164E-02  0.1226707E+00
        -11   -1    0    0    0    0  0.00000000000E+00  0.00000000000E+00  0.45593999997E+02  0.45594000000E+02  0.51100000000E-03 0.  1.
         11   -1    0    0    0    0 -0.00000000000E+00 -0.00000000000E+00 -0.45593999997E+02  0.45594000000E+02  0.51100000000E-03 0. -1.
    9900012    2    1    2    0    0  0.61862301717E+01 -0.11322986640E+02  0.13571376192E+02  0.72462036155E+02  0.70000606867E+02 0.  0.
         12    1    1    2    0    0 -0.61862301717E+01  0.11322986640E+02 -0.13571376192E+02  0.18725963845E+02  0.00000000000E+00 0. -1.
         11    1    3    3    0    0  0.12522040000E+02 -0.21293890202E+02  0.13521642607E+02  0.28161428670E+02  0.51100000000E-03 0. -1.
        -11    1    3    3    0    0 -0.84288603669E+01 -0.31077610747E+01 -0.19047536718E+02  0.21059736971E+02  0.51100000000E-03 0.  1.
        -12    1    3    3    0    0  0.20930505389E+01  0.13078664636E+02  0.19097270303E+02  0.23240870514E+02  0.00000000000E+00 0.  1.
</event>
<event>
 7    1  0.1375918E-013  0.7246157E+02  0.7816164E-02  0.1226708E+00
        -11   -1    0    0    0    0  0.00000000000E+00  0.00000000000E+00  0.45593999997E+02  0.45594000000E+02  0.51100000000E-03 0.  1.
         11   -1    0    0    0    0 -0.00000000000E+00 -0.00000000000E+00 -0.45593999997E+02  0.45594000000E+02  0.51100000000E-03 0. -1.
    9900012    2    1    2    0    0  0.16370480445E+02 -0.47879925388E+01 -0.77305642961E+01  0.72461571433E+02  0.70000001483E+02 0.  0.
         12    1    1    2    0    0 -0.16370480445E+02  0.47879925388E+01  0.77305642961E+01  0.18726428567E+02  0.00000000000E+00 0. -1.
         11    1    3    3    0    0  0.21036993383E+01  0.77385696532E+00 -0.25206044688E+02  0.25305515102E+02  0.51100000000E-03 0. -1.
        -11    1    3    3    0    0  0.28061248908E+02 -0.73234321563E+01  0.16129081059E+02  0.33184538642E+02  0.51100000000E-03 0.  1.
         12    1    3    3    0    0 -0.13794467801E+02  0.17615826522E+01  0.13463993327E+01  0.13971517689E+02  0.00000000000E+00 0. -1.
</event>
<event>
 7    1  0.1375918E-013  0.7246154E+02  0.7816164E-02  0.1226708E+00
        -11   -1    0    0    0    0  0.00000000000E+00  0.00000000000E+00  0.45593999997E+02  0.45594000000E+02  0.51100000000E-03 0.  1.
         11   -1    0    0    0    0 -0.00000000000E+00 -0.00000000000E+00 -0.45593999997E+02  0.45594000000E+02  0.51100000000E-03 0. -1.
    9900012    2    1    2    0    0 -0.15335956980E+01  0.69498463828E+01  0.17321316303E+02  0.72461540672E+02  0.69999961411E+02 0.  0.
         12    1    1    2    0    0  0.15335956980E+01 -0.69498463828E+01 -0.17321316303E+02  0.18726459328E+02  0.00000000000E+00 0. -1.
         11    1    3    3    0    0  0.25643487633E+02 -0.17516623066E+02 -0.59069131653E+00  0.31060738210E+02  0.51100000000E-03 0.  1.
        -11    1    3    3    0    0 -0.20278784283E+02  0.22052843176E+02  0.13467270306E+02  0.32846983939E+02  0.51100000000E-03 0. -1.
        -12    1    3    3    0    0 -0.68982990481E+01  0.24136262728E+01  0.44447373135E+01  0.85538185232E+01  0.00000000000E+00 0.  1.
</event>
<event>
 7    1  0.1375918E-013  0.7246154E+02  0.7816164E-02  0.1226708E+00
        -11   -1    0    0    0    0  0.00000000000E+00  0.00000000000E+00  0.45593999997E+02  0.45594000000E+02  0.51100000000E-03 0. -1.
         11   -1    0    0    0    0 -0.00000000000E+00 -0.00000000000E+00 -0.45593999997E+02  0.45594000000E+02  0.51100000000E-03 0.  1.
    9900012    2    1    2    0    0 -0.62069164497E+01  0.17498888377E+02  0.24378895091E+01  0.72461542473E+02  0.69999963758E+02 0.  0.
         12    1    1    2    0    0  0.62069164497E+01 -0.17498888377E+02 -0.24378895091E+01  0.18726457527E+02  0.00000000000E+00 0. -1.
         11    1    3    3    0    0 -0.39191872475E+01  0.29362935299E+01  0.15628683631E+02  0.16377960822E+02  0.51100000000E-03 0. -1.
        -11    1    3    3    0    0 -0.20988990925E+02 -0.44661011055E+01 -0.19132856660E+02  0.28749782667E+02  0.51100000000E-03 0.  1.
        -12    1    3    3    0    0  0.18701261723E+02  0.19028695953E+02  0.59420625382E+01  0.27333798984E+02  0.00000000000E+00 0.  1.
</event>
<event>
 7    1  0.1375918E-013  0.7246154E+02  0.7816164E-02  0.1226708E+00
        -11   -1    0    0    0    0  0.00000000000E+00  0.00000000000E+00  0.45593999997E+02  0.45594000000E+02  0.51100000000E-03 0. -1.
         11   -1    0    0    0    0 -0.00000000000E+00 -0.00000000000E+00 -0.45593999997E+02  0.45594000000E+02  0.51100000000E-03 0.  1.
    9900012    2    1    2    0    0 -0.15928111441E+02 -0.96971415211E+01  0.17149615227E+01  0.72461537953E+02  0.69999957870E+02 0.  0.
         12    1    1    2    0    0  0.15928111441E+02  0.96971415211E+01 -0.17149615227E+01  0.18726462047E+02  0.00000000000E+00 0. -1.
         11    1    3    3    0    0  0.44917560634E+00 -0.25561211673E+02  0.20618743725E+02  0.32843719247E+02  0.51100000000E-03 0. -1.
        -11    1    3    3    0    0  0.26457816184E+01  0.42108693929E+01 -0.16437464659E+02  0.17173288156E+02  0.51100000000E-03 0.  1.
        -12    1    3    3    0    0 -0.19023068666E+02  0.11653200759E+02 -0.24663175433E+01  0.22444530550E+02  0.00000000000E+00 0.  1.
</event>
<event>
 7    1  0.1375918E-013  0.7246153E+02  0.7816164E-02  0.1226708E+00
        -11   -1    0    0    0    0  0.00000000000E+00  0.00000000000E+00  0.45593999997E+02  0.45594000000E+02  0.51100000000E-03 0.  1.
         11   -1    0    0    0    0 -0.00000000000E+00 -0.00000000000E+00 -0.45593999997E+02  0.45594000000E+02  0.51100000000E-03 0. -1.
    9900012    2    1    2    0    0 -0.10130824618E+02  0.11272010384E+02 -0.10999490112E+02  0.72461531880E+02  0.69999949958E+02 0.  0.
         12    1    1    2    0    0  0.10130824618E+02 -0.11272010384E+02  0.10999490112E+02  0.18726468120E+02  0.00000000000E+00 0. -1.
         11    1    3    3    0    0 -0.33033277966E+02 -0.11458136756E+01 -0.17392715929E+02  0.37349925165E+02  0.51100000000E-03 0.  1.
        -11    1    3    3    0    0  0.22492247132E+02  0.78717731972E+01 -0.36235424204E+01  0.24103859738E+02  0.51100000000E-03 0. -1.
        -12    1    3    3    0    0  0.41020621507E+00  0.45460508620E+01  0.10016768238E+02  0.11007746977E+02  0.00000000000E+00 0.  1.
</event>
<event>
 7    1  0.1375918E-013  0.7246157E+02  0.7816164E-02  0.1226708E+00
        -11   -1    0    0    0    0  0.00000000000E+00  0.00000000000E+00  0.45593999997E+02  0.45594000000E+02  0.51100000000E-03 0. -1.
         11   -1    0    0    0    0 -0.00000000000E+00 -0.00000000000E+00 -0.45593999997E+02  0.45594000000E+02  0.51100000000E-03 0.  1.
    9900012    2    1    2    0    0 -0.33425428959E+01 -0.13625688478E+01 -0.18375250712E+02  0.72461574137E+02  0.70000005006E+02 0.  0.
         12    1    1    2    0    0  0.33425428959E+01  0.13625688478E+01  0.18375250712E+02  0.18726425863E+02  0.00000000000E+00 0. -1.
         11    1    3    3    0    0  0.15427344378E+01 -0.11605388395E+02  0.12603990601E+02  0.17202489607E+02  0.51100000000E-03 0. -1.
        -11    1    3    3    0    0  0.10568204919E+00 -0.10161145498E+02 -0.32642707417E+02  0.34187810610E+02  0.51100000000E-03 0.  1.
        -12    1    3    3    0    0 -0.49909593829E+01  0.20403965046E+02  0.16634661047E+01  0.21071273920E+02  0.00000000000E+00 0.  1.
</event>
<event>
 7    1  0.1375918E-013  0.7246161E+02  0.7816164E-02  0.1226708E+00
        -11   -1    0    0    0    0  0.00000000000E+00  0.00000000000E+00  0.45593999997E+02  0.45594000000E+02  0.51100000000E-03 0.  1.
         11   -1    0    0    0    0 -0.00000000000E+00 -0.00000000000E+00 -0.45593999997E+02  0.45594000000E+02  0.51100000000E-03 0. -1.
    9900012    2    1    2    0    0 -0.53482289514E+01 -0.17929062631E+02  0.78923805121E+00  0.72461608558E+02  0.70000049845E+02 0.  0.
         12    1    1    2    0    0  0.53482289514E+01  0.17929062631E+02 -0.78923805121E+00  0.18726391442E+02  0.00000000000E+00 0. -1.
         11    1    3    3    0    0  0.21404176568E+02  0.51450797505E+01 -0.97596173588E+01  0.24080297993E+02  0.51100000000E-03 0. -1.
        -11    1    3    3    0    0 -0.30929353342E+02 -0.11023449885E+02  0.17404087201E+01  0.32881155215E+02  0.51100000000E-03 0.  1.
         12    1    3    3    0    0  0.41769478228E+01 -0.12050692497E+02  0.88084466899E+01  0.15500155349E+02  0.00000000000E+00 0. -1.
</event>
<event>
 7    1  0.1375918E-013  0.7246158E+02  0.7816164E-02  0.1226708E+00
        -11   -1    0    0    0    0  0.00000000000E+00  0.00000000000E+00  0.45593999997E+02  0.45594000000E+02  0.51100000000E-03 0. -1.
         11   -1    0    0    0    0 -0.00000000000E+00 -0.00000000000E+00 -0.45593999997E+02  0.45594000000E+02  0.51100000000E-03 0.  1.
    9900012    2    1    2    0    0 -0.59073225747E+01 -0.79455047941E+01 -0.15895014494E+02  0.72461575029E+02  0.70000006168E+02 0.  0.
         12    1    1    2    0    0  0.59073225747E+01  0.79455047941E+01  0.15895014494E+02  0.18726424971E+02  0.00000000000E+00 0. -1.
         11    1    3    3    0    0  0.18421706518E+02 -0.25213666328E+01 -0.21627422957E+02  0.28521254964E+02  0.51100000000E-03 0.  1.
        -11    1    3    3    0    0 -0.99340894084E+01 -0.14524342258E+02  0.16226720810E+02  0.23936355589E+02  0.51100000000E-03 0. -1.
         12    1    3    3    0    0 -0.14394939684E+02  0.91002040969E+01 -0.10494312346E+02  0.20003964476E+02  0.00000000000E+00 0. -1.
</event>
<event>
 7    1  0.1375918E-013  0.7246188E+02  0.7816164E-02  0.1226707E+00
        -11   -1    0    0    0    0  0.00000000000E+00  0.00000000000E+00  0.45593999997E+02  0.45594000000E+02  0.51100000000E-03 0.  1.
         11   -1    0    0    0    0 -0.00000000000E+00 -0.00000000000E+00 -0.45593999997E+02  0.45594000000E+02  0.51100000000E-03 0. -1.
    9900012    2    1    2    0    0  0.36589292313E+01  0.64473541710E+01  0.17196264333E+02  0.72461877980E+02  0.70000400816E+02 0.  0.
         12    1    1    2    0    0 -0.36589292313E+01 -0.64473541710E+01 -0.17196264333E+02  0.18726122020E+02  0.00000000000E+00 0. -1.
         11    1    3    3    0    0  0.49485666623E+01 -0.13923496146E+02 -0.69895930831E+01  0.16346451256E+02  0.51100000000E-03 0. -1.
        -11    1    3    3    0    0  0.19384445771E+02  0.21065769925E+02  0.76476706529E+01  0.29631238028E+02  0.51100000000E-03 0.  1.
         12    1    3    3    0    0 -0.20674083202E+02 -0.69491960843E+00  0.16538186763E+02  0.26484188696E+02  0.00000000000E+00 0. -1.
</event>
<event>
 7    1  0.1375918E-013  0.7246153E+02  0.7816164E-02  0.1226708E+00
        -11   -1    0    0    0    0  0.00000000000E+00  0.00000000000E+00  0.45593999997E+02  0.45594000000E+02  0.51100000000E-03 0.  1.
         11   -1    0    0    0    0 -0.00000000000E+00 -0.00000000000E+00 -0.45593999997E+02  0.45594000000E+02  0.51100000000E-03 0. -1.
    9900012    2    1    2    0    0  0.16741211459E+02 -0.55416956056E+01  0.63009724553E+01  0.72461526622E+02  0.69999943109E+02 0.  0.
         12    1    1    2    0    0 -0.16741211459E+02  0.55416956056E+01 -0.63009724553E+01  0.18726473378E+02  0.00000000000E+00 0. -1.
         11    1    3    3    0    0 -0.15275326230E+02  0.49002767638E+01 -0.24882560816E+01  0.16233906566E+02  0.51100000000E-03 0.  1.
        -11    1    3    3    0    0  0.31820002982E+02 -0.21707923325E+02 -0.45263144910E+01  0.38784456268E+02  0.51100000000E-03 0. -1.
        -12    1    3    3    0    0  0.19653470714E+00  0.11265950955E+02  0.13315543028E+02  0.17443163788E+02  0.00000000000E+00 0.  1.
</event>
<event>
 7    1  0.1375918E-013  0.7246156E+02  0.7816164E-02  0.1226708E+00
        -11   -1    0    0    0    0  0.00000000000E+00  0.00000000000E+00  0.45593999997E+02  0.45594000000E+02  0.51100000000E-03 0.  1.
         11   -1    0    0    0    0 -0.00000000000E+00 -0.00000000000E+00 -0.45593999997E+02  0.45594000000E+02  0.51100000000E-03 0. -1.
    9900012    2    1    2    0    0  0.13613018327E+02 -0.10899769127E+02  0.68235197414E+01  0.72461557288E+02  0.69999983057E+02 0.  0.
         12    1    1    2    0    0 -0.13613018327E+02  0.10899769127E+02 -0.68235197414E+01  0.18726442712E+02  0.00000000000E+00 0. -1.
         11    1    3    3    0    0  0.17176352666E+01  0.21746032957E+02 -0.16120773479E+02  0.27124150827E+02  0.51100000000E-03 0. -1.
        -11    1    3    3    0    0  0.10266472718E+02 -0.72431942074E+01  0.27914473869E+01  0.12870761561E+02  0.51100000000E-03 0.  1.
         12    1    3    3    0    0  0.16289103428E+01 -0.25402607877E+02  0.20152845834E+02  0.32466644899E+02  0.00000000000E+00 0. -1.
</event>
<event>
 7    1  0.1375918E-013  0.7246164E+02  0.7816164E-02  0.1226708E+00
        -11   -1    0    0    0    0  0.00000000000E+00  0.00000000000E+00  0.45593999997E+02  0.45594000000E+02  0.51100000000E-03 0.  1.
         11   -1    0    0    0    0 -0.00000000000E+00 -0.00000000000E+00 -0.45593999997E+02  0.45594000000E+02  0.51100000000E-03 0. -1.
    9900012    2    1    2    0    0 -0.86683026245E+01  0.11346069497E+02  0.12116257577E+02  0.72461642610E+02  0.70000094205E+02 0.  0.
         12    1    1    2    0    0  0.86683026245E+01 -0.11346069497E+02 -0.12116257577E+02  0.18726357390E+02  0.00000000000E+00 0. -1.
         11    1    3    3    0    0 -0.47860205818E+01 -0.24367171343E+02 -0.55759982446E+01  0.25451066559E+02  0.51100000000E-03 0. -1.
        -11    1    3    3    0    0 -0.12854807160E+02  0.15180531861E+02  0.13941809049E+02  0.24291328793E+02  0.51100000000E-03 0.  1.
         12    1    3    3    0    0  0.89725251177E+01  0.20532708980E+02  0.37504467731E+01  0.22719247259E+02  0.00000000000E+00 0. -1.
</event>
<event>
 7    1  0.1375918E-013  0.7246162E+02  0.7816164E-02  0.1226708E+00
        -11   -1    0    0    0    0  0.00000000000E+00  0.00000000000E+00  0.45593999997E+02  0.45594000000E+02  0.51100000000E-03 0. -1.
         11   -1    0    0    0    0 -0.00000000000E+00 -0.00000000000E+00 -0.45593999997E+02  0.45594000000E+02  0.51100000000E-03 0.  1.
    9900012    2    1    2    0    0 -0.17313435139E+02  0.48750665773E+01 -0.52111463809E+01  0.72461618688E+02  0.70000063041E+02 0.  0.
         12    1    1    2    0    0  0.17313435139E+02 -0.48750665773E+01  0.52111463809E+01  0.18726381312E+02  0.00000000000E+00 0. -1.
         11    1    3    3    0    0 -0.29023813534E+02 -0.50510336848E+01  0.12879891273E+01  0.29488194410E+02  0.51100000000E-03 0. -1.
        -11    1    3    3    0    0  0.87176261599E-01  0.23432324346E+02 -0.87498837861E+01  0.25012834515E+02  0.51100000000E-03 0.  1.
        -12    1    3    3    0    0  0.11623202133E+02 -0.13506224084E+02  0.22507482779E+01  0.17960589763E+02  0.00000000000E+00 0.  1.
</event>
<event>
 7    1  0.1375918E-013  0.7246158E+02  0.7816164E-02  0.1226708E+00
        -11   -1    0    0    0    0  0.00000000000E+00  0.00000000000E+00  0.45593999997E+02  0.45594000000E+02  0.51100000000E-03 0. -1.
         11   -1    0    0    0    0 -0.00000000000E+00 -0.00000000000E+00 -0.45593999997E+02  0.45594000000E+02  0.51100000000E-03 0.  1.
    9900012    2    1    2    0    0  0.16562500035E+02  0.74866461686E+01 -0.45069369674E+01  0.72461581252E+02  0.70000014275E+02 0.  0.
         12    1    1    2    0    0 -0.16562500035E+02 -0.74866461686E+01  0.45069369674E+01  0.18726418748E+02  0.00000000000E+00 0. -1.
         11    1    3    3    0    0  0.31993932448E+02  0.18691206159E+02  0.39794932102E+01  0.37266731378E+02  0.51100000000E-03 0.  1.
        -11    1    3    3    0    0 -0.21003831256E+02 -0.31735997974E+01  0.14047228267E+01  0.21288633342E+02  0.51100000000E-03 0. -1.
        -12    1    3    3    0    0  0.55723988436E+01 -0.80309601929E+01 -0.98911530043E+01  0.13906216532E+02  0.00000000000E+00 0.  1.
</event>
<event>
 7    1  0.1375918E-013  0.7246155E+02  0.7816164E-02  0.1226708E+00
        -11   -1    0    0    0    0  0.00000000000E+00  0.00000000000E+00  0.45593999997E+02  0.45594000000E+02  0.51100000000E-03 0.  1.
         11   -1    0    0    0    0 -0.00000000000E+00 -0.00000000000E+00 -0.45593999997E+02  0.45594000000E+02  0.51100000000E-03 0. -1.
    9900012    2    1    2    0    0  0.73662783068E+01 -0.17035508581E+02 -0.24918803934E+01  0.72461546075E+02  0.69999968450E+02 0.  0.
         12    1    1    2    0    0 -0.73662783068E+01  0.17035508581E+02  0.24918803934E+01  0.18726453925E+02  0.00000000000E+00 0. -1.
         11    1    3    3    0    0  0.26732411658E+01  0.59108947632E+01  0.14836878745E+01  0.66547896437E+01  0.51100000000E-03 0. -1.
        -11    1    3    3    0    0 -0.19630948994E+02 -0.32778941020E+02 -0.86063705945E+01  0.39165070508E+02  0.51100000000E-03 0.  1.
        -12    1    3    3    0    0  0.24323986135E+02  0.98325376762E+01  0.46308023266E+01  0.26641685923E+02  0.00000000000E+00 0.  1.
</event>
<event>
 7    1  0.1375918E-013  0.7246191E+02  0.7816164E-02  0.1226707E+00
        -11   -1    0    0    0    0  0.00000000000E+00  0.00000000000E+00  0.45593999997E+02  0.45594000000E+02  0.51100000000E-03 0. -1.
         11   -1    0    0    0    0 -0.00000000000E+00 -0.00000000000E+00 -0.45593999997E+02  0.45594000000E+02  0.51100000000E-03 0.  1.
    9900012    2    1    2    0    0 -0.21756911256E+01 -0.57996841013E+01 -0.17671911409E+02  0.72461910702E+02  0.70000443442E+02 0.  0.
         12    1    1    2    0    0  0.21756911256E+01  0.57996841013E+01  0.17671911409E+02  0.18726089298E+02  0.00000000000E+00 0. -1.
         11    1    3    3    0    0 -0.14691931444E+02 -0.28985595827E+02 -0.10586822726E+02  0.34177455006E+02  0.51100000000E-03 0. -1.
        -11    1    3    3    0    0  0.28820086898E+01  0.78198432877E+01 -0.16026265609E+02  0.18063695988E+02  0.51100000000E-03 0.  1.
         12    1    3    3    0    0  0.96342316283E+01  0.15366068438E+02  0.89411769259E+01  0.20220759707E+02  0.00000000000E+00 0. -1.
</event>
<event>
 7    1  0.1375918E-013  0.7246151E+02  0.7816164E-02  0.1226708E+00
        -11   -1    0    0    0    0  0.00000000000E+00  0.00000000000E+00  0.45593999997E+02  0.45594000000E+02  0.51100000000E-03 0.  1.
         11   -1    0    0    0    0 -0.00000000000E+00 -0.00000000000E+00 -0.45593999997E+02  0.45594000000E+02  0.51100000000E-03 0. -1.
    9900012    2    1    2    0    0 -0.11415774928E+02 -0.12022060493E+02 -0.87081393696E+01  0.72461506816E+02  0.69999917307E+02 0.  0.
         12    1    1    2    0    0  0.11415774928E+02  0.12022060493E+02  0.87081393696E+01  0.18726493184E+02  0.00000000000E+00 0. -1.
         11    1    3    3    0    0  0.21770215328E+02 -0.15865988995E+01 -0.43089977857E+01  0.22249202990E+02  0.51100000000E-03 0. -1.
        -11    1    3    3    0    0 -0.27525490265E+02 -0.75409155432E+01  0.13240780356E+02  0.31461663756E+02  0.51100000000E-03 0.  1.
        -12    1    3    3    0    0 -0.56604999909E+01 -0.28945460501E+01 -0.17639921940E+02  0.18750640070E+02  0.00000000000E+00 0.  1.
</event>
<event>
 7    1  0.1375918E-013  0.7246156E+02  0.7816164E-02  0.1226708E+00
        -11   -1    0    0    0    0  0.00000000000E+00  0.00000000000E+00  0.45593999997E+02  0.45594000000E+02  0.51100000000E-03 0.  1.
         11   -1    0    0    0    0 -0.00000000000E+00 -0.00000000000E+00 -0.45593999997E+02  0.45594000000E+02  0.51100000000E-03 0. -1.
    9900012    2    1    2    0    0 -0.13954059798E+02 -0.97854059948E+01  0.77594741574E+01  0.72461564286E+02  0.69999992174E+02 0.  0.
         12    1    1    2    0    0  0.13954059798E+02  0.97854059948E+01 -0.77594741574E+01  0.18726435714E+02  0.00000000000E+00 0. -1.
         11    1    3    3    0    0 -0.10571802625E+02 -0.26440563546E+02 -0.19018854953E+02  0.34243003013E+02  0.51100000000E-03 0. -1.
        -11    1    3    3    0    0 -0.12141852361E+02  0.10772510179E+02  0.12618305301E+02  0.20559503478E+02  0.51100000000E-03 0.  1.
         12    1    3    3    0    0  0.87595951871E+01  0.58826473719E+01  0.14160023810E+02  0.17659057796E+02  0.00000000000E+00 0. -1.
</event>
<event>
 7    1  0.1375918E-013  0.7246156E+02  0.7816164E-02  0.1226708E+00
        -11   -1    0    0    0    0  0.00000000000E+00  0.00000000000E+00  0.45593999997E+02  0.45594000000E+02  0.51100000000E-03 0. -1.
         11   -1    0    0    0    0 -0.00000000000E+00 -0.00000000000E+00 -0.45593999997E+02  0.45594000000E+02  0.51100000000E-03 0.  1.
    9900012    2    1    2    0    0 -0.30440829741E+01 -0.89257195335E+01 -0.16178528397E+02  0.72461556359E+02  0.69999981847E+02 0.  0.
         12    1    1    2    0    0  0.30440829741E+01  0.89257195335E+01  0.16178528397E+02  0.18726443641E+02  0.00000000000E+00 0. -1.
         11    1    3    3    0    0  0.73208555111E+01  0.84975375520E+01 -0.40071221400E+01  0.11910503682E+02  0.51100000000E-03 0. -1.
        -11    1    3    3    0    0 -0.12297211824E+02 -0.15747996965E+02 -0.33534371367E+02  0.39035559305E+02  0.51100000000E-03 0.  1.
        -12    1    3    3    0    0  0.19322733391E+01 -0.16752601205E+01  0.21362965110E+02  0.21515493372E+02  0.00000000000E+00 0.  1.
</event>
<event>
 7    1  0.1375918E-013  0.7246157E+02  0.7816164E-02  0.1226708E+00
        -11   -1    0    0    0    0  0.00000000000E+00  0.00000000000E+00  0.45593999997E+02  0.45594000000E+02  0.51100000000E-03 0. -1.
         11   -1    0    0    0    0 -0.00000000000E+00 -0.00000000000E+00 -0.45593999997E+02  0.45594000000E+02  0.51100000000E-03 0.  1.
    9900012    2    1    2    0    0 -0.10190845602E+02 -0.70239043295E+01 -0.14053128810E+02  0.72461574942E+02  0.70000006054E+02 0.  0.
         12    1    1    2    0    0  0.10190845602E+02  0.70239043295E+01  0.14053128810E+02  0.18726425058E+02  0.00000000000E+00 0. -1.
         11    1    3    3    0    0 -0.18654577864E+02  0.15705423611E+02  0.15545633621E+02  0.28919203499E+02  0.51100000000E-03 0. -1.
        -11    1    3    3    0    0  0.94404494847E+01 -0.21263477474E+02 -0.12610138359E+02  0.26462674666E+02  0.51100000000E-03 0.  1.
        -12    1    3    3    0    0 -0.97671722239E+00 -0.14658504659E+01 -0.16988624072E+02  0.17079696777E+02  0.00000000000E+00 0.  1.
</event>
<event>
 7    1  0.1375918E-013  0.7246159E+02  0.7816164E-02  0.1226708E+00
        -11   -1    0    0    0    0  0.00000000000E+00  0.00000000000E+00  0.45593999997E+02  0.45594000000E+02  0.51100000000E-03 0.  1.
         11   -1    0    0    0    0 -0.00000000000E+00 -0.00000000000E+00 -0.45593999997E+02  0.45594000000E+02  0.51100000000E-03 0. -1.
    9900012    2    1    2    0    0  0.16673033153E+01 -0.14621837379E+02  0.11580173627E+02  0.72461589508E+02  0.70000025029E+02 0.  0.
         12    1    1    2    0    0 -0.16673033153E+01  0.14621837379E+02 -0.11580173627E+02  0.18726410492E+02  0.00000000000E+00 0. -1.
         11    1    3    3    0    0 -0.19138701805E+02 -0.11321261959E+02 -0.15238450916E+02  0.26956840796E+02  0.51100000000E-03 0. -1.
        -11    1    3    3    0    0 -0.66083732514E+00 -0.94447367114E+01  0.20049296228E+02  0.22172371028E+02  0.51100000000E-03 0.  1.
         12    1    3    3    0    0  0.21466842445E+02  0.61441612910E+01  0.67693283153E+01  0.23332377684E+02  0.00000000000E+00 0. -1.
</event>
<event>
 7    1  0.1375918E-013  0.7246163E+02  0.7816164E-02  0.1226708E+00
        -11   -1    0    0    0    0  0.00000000000E+00  0.00000000000E+00  0.45593999997E+02  0.45594000000E+02  0.51100000000E-03 0.  1.
         11   -1    0    0    0    0 -0.00000000000E+00 -0.00000000000E+00 -0.45593999997E+02  0.45594000000E+02  0.51100000000E-03 0. -1.
    9900012    2    1    2    0    0  0.52355070910E+01 -0.10258444432E+02  0.14765862648E+02  0.72461630454E+02  0.70000078369E+02 0.  0.
         12    1    1    2    0    0 -0.52355070910E+01  0.10258444432E+02 -0.14765862648E+02  0.18726369546E+02  0.00000000000E+00 0. -1.
         11    1    3    3    0    0 -0.14725964005E+02 -0.72933068287E+01 -0.19898825810E+02  0.25807161976E+02  0.51100000000E-03 0. -1.
        -11    1    3    3    0    0  0.21680166593E+01  0.93253100516E+01  0.11517141545E+02  0.14976857261E+02  0.51100000000E-03 0.  1.
         12    1    3    3    0    0  0.17793454436E+02 -0.12290447655E+02  0.23147546913E+02  0.31677611217E+02  0.00000000000E+00 0. -1.
</event>
<event>
 7    1  0.1375918E-013  0.7246158E+02  0.7816164E-02  0.1226708E+00
        -11   -1    0    0    0    0  0.00000000000E+00  0.00000000000E+00  0.45593999997E+02  0.45594000000E+02  0.51100000000E-03 0. -1.
         11   -1    0    0    0    0 -0.00000000000E+00 -0.00000000000E+00 -0.45593999997E+02  0.45594000000E+02  0.51100000000E-03 0.  1.
    9900012    2    1    2    0    0  0.16691068320E+02  0.76069692328E+01 -0.37710963889E+01  0.72461577209E+02  0.70000009007E+02 0.  0.
         12    1    1    2    0    0 -0.16691068320E+02 -0.76069692328E+01  0.37710963889E+01  0.18726422791E+02  0.00000000000E+00 0. -1.
         11    1    3    3    0    0  0.69692578286E+01  0.22668622605E+02 -0.28686455831E+02  0.37220286860E+02  0.51100000000E-03 0. -1.
        -11    1    3    3    0    0  0.11639103611E+02 -0.66277176378E+01  0.64825324416E+01  0.14880141164E+02  0.51100000000E-03 0.  1.
         12    1    3    3    0    0 -0.19172931191E+01 -0.84339357347E+01  0.18432827001E+02  0.20361149185E+02  0.00000000000E+00 0. -1.
</event>
<event>
 7    1  0.1375918E-013  0.7246176E+02  0.7816164E-02  0.1226708E+00
        -11   -1    0    0    0    0  0.00000000000E+00  0.00000000000E+00  0.45593999997E+02  0.45594000000E+02  0.51100000000E-03 0. -1.
         11   -1    0    0    0    0 -0.00000000000E+00 -0.00000000000E+00 -0.45593999997E+02  0.45594000000E+02  0.51100000000E-03 0.  1.
    9900012    2    1    2    0    0  0.76404825488E+01 -0.16433945932E+02  0.47138797483E+01  0.72461755989E+02  0.70000241901E+02 0.  0.
         12    1    1    2    0    0 -0.76404825488E+01  0.16433945932E+02 -0.47138797483E+01  0.18726244011E+02  0.00000000000E+00 0. -1.
         11    1    3    3    0    0  0.24861964635E+02  0.13086650163E+02 -0.14031874012E+02  0.31404954809E+02  0.51100000000E-03 0. -1.
        -11    1    3    3    0    0 -0.88036257334E+01 -0.25384727222E+02  0.16055298815E+02  0.31299533902E+02  0.51100000000E-03 0.  1.
         12    1    3    3    0    0 -0.84178563527E+01 -0.41358688738E+01  0.26904549456E+01  0.97572672778E+01  0.00000000000E+00 0. -1.
</event>
<event>
 7    1  0.1375918E-013  0.7246156E+02  0.7816164E-02  0.1226708E+00
        -11   -1    0    0    0    0  0.00000000000E+00  0.00000000000E+00  0.45593999997E+02  0.45594000000E+02  0.51100000000E-03 0.  1.
         11   -1    0    0    0    0 -0.00000000000E+00 -0.00000000000E+00 -0.45593999997E+02  0.45594000000E+02  0.51100000000E-03 0. -1.
    9900012    2    1    2    0    0 -0.22408627271E+01  0.18014531194E+02  0.45972515361E+01  0.72461560894E+02  0.69999987754E+02 0.  0.
         12    1    1    2    0    0  0.22408627271E+01 -0.18014531194E+02 -0.45972515361E+01  0.18726439106E+02  0.00000000000E+00 0. -1.
         11    1    3    3    0    0  0.51031204308E+01  0.21628497610E+02 -0.11402891757E+02  0.24977183342E+02  0.51100000000E-03 0. -1.
        -11    1    3    3    0    0 -0.11918308549E+01 -0.68458586566E+01  0.30565861037E+02  0.31345782854E+02  0.51100000000E-03 0.  1.
         12    1    3    3    0    0 -0.61521523030E+01  0.32318922407E+01 -0.14565717744E+02  0.16138594698E+02  0.00000000000E+00 0. -1.
</event>
<event>
 7    1  0.1375918E-013  0.7246166E+02  0.7816164E-02  0.1226708E+00
        -11   -1    0    0    0    0  0.00000000000E+00  0.00000000000E+00  0.45593999997E+02  0.45594000000E+02  0.51100000000E-03 0.  1.
         11   -1    0    0    0    0 -0.00000000000E+00 -0.00000000000E+00 -0.45593999997E+02  0.45594000000E+02  0.51100000000E-03 0. -1.
    9900012    2    1    2    0    0 -0.17212961497E+02 -0.52507735855E+01  0.51787041171E+01  0.72461664451E+02  0.70000122657E+02 0.  0.
         12    1    1    2    0    0  0.17212961497E+02  0.52507735855E+01 -0.51787041171E+01  0.18726335549E+02  0.00000000000E+00 0. -1.
         11    1    3    3    0    0 -0.13116172723E+02 -0.24902241175E+02  0.20486941444E+02  0.34811928593E+02  0.51100000000E-03 0. -1.
        -11    1    3    3    0    0  0.10710770491E+02  0.11497743966E+02 -0.13375646610E+02  0.20635567434E+02  0.51100000000E-03 0.  1.
         12    1    3    3    0    0 -0.14807559265E+02  0.81537236226E+01 -0.19325907168E+01  0.17014168424E+02  0.00000000000E+00 0. -1.
</event>
<event>
 7    1  0.1375918E-013  0.7246158E+02  0.7816164E-02  0.1226708E+00
        -11   -1    0    0    0    0  0.00000000000E+00  0.00000000000E+00  0.45593999997E+02  0.45594000000E+02  0.51100000000E-03 0.  1.
         11   -1    0    0    0    0 -0.00000000000E+00 -0.00000000000E+00 -0.45593999997E+02  0.45594000000E+02  0.51100000000E-03 0. -1.
    9900012    2    1    2    0    0  0.25602093486E+01 -0.16071089343E+02 -0.92652224918E+01  0.72461576626E+02  0.70000008248E+02 0.  0.
         12    1    1    2    0    0 -0.25602093486E+01  0.16071089343E+02  0.92652224918E+01  0.18726423374E+02  0.00000000000E+00 0. -1.
         11    1    3    3    0    0  0.14646733709E+02  0.18736855434E+02 -0.18584821357E+01  0.23854779731E+02  0.51100000000E-03 0. -1.
        -11    1    3    3    0    0 -0.72451882845E+01 -0.40090897152E+02 -0.75774775609E+01  0.41439002814E+02  0.51100000000E-03 0.  1.
        -12    1    3    3    0    0 -0.48413360756E+01  0.52829523754E+01  0.17073720475E+00  0.71677940812E+01  0.00000000000E+00 0.  1.
</event>
<event>
 7    1  0.1375918E-013  0.7246168E+02  0.7816164E-02  0.1226708E+00
        -11   -1    0    0    0    0  0.00000000000E+00  0.00000000000E+00  0.45593999997E+02  0.45594000000E+02  0.51100000000E-03 0.  1.
         11   -1    0    0    0    0 -0.00000000000E+00 -0.00000000000E+00 -0.45593999997E+02  0.45594000000E+02  0.51100000000E-03 0. -1.
    9900012    2    1    2    0    0  0.76008889978E+01  0.16787883008E+02 -0.33269284567E+01  0.72461682092E+02  0.70000145637E+02 0.  0.
         12    1    1    2    0    0 -0.76008889978E+01 -0.16787883008E+02  0.33269284567E+01  0.18726317908E+02  0.00000000000E+00 0. -1.
         11    1    3    3    0    0 -0.65741654155E+01  0.19122507732E+01 -0.30380413402E+02  0.31142348542E+02  0.51100000000E-03 0. -1.
        -11    1    3    3    0    0  0.85325530077E+01 -0.54540027525E+01  0.91692068427E+01  0.13661074674E+02  0.51100000000E-03 0.  1.
         12    1    3    3    0    0  0.56425014056E+01  0.20329634987E+02  0.17884278103E+02  0.27658258877E+02  0.00000000000E+00 0. -1.
</event>
<event>
 7    1  0.1375918E-013  0.7246164E+02  0.7816164E-02  0.1226708E+00
        -11   -1    0    0    0    0  0.00000000000E+00  0.00000000000E+00  0.45593999997E+02  0.45594000000E+02  0.51100000000E-03 0. -1.
         11   -1    0    0    0    0 -0.00000000000E+00 -0.00000000000E+00 -0.45593999997E+02  0.45594000000E+02  0.51100000000E-03 0.  1.
    9900012    2    1    2    0    0  0.17354892718E+02 -0.29853510410E+01 -0.63696191084E+01  0.72461637041E+02  0.70000086949E+02 0.  0.
         12    1    1    2    0    0 -0.17354892718E+02  0.29853510410E+01  0.63696191084E+01  0.18726362959E+02  0.00000000000E+00 0. -1.
         11    1    3    3    0    0 -0.16005063387E+02  0.12444748259E+02 -0.32728125480E+00  0.20276610332E+02  0.51100000000E-03 0. -1.
        -11    1    3    3    0    0  0.24093693783E+02  0.32389466037E+01  0.95882145668E+01  0.26132943081E+02  0.51100000000E-03 0.  1.
        -12    1    3    3    0    0  0.92662623220E+01 -0.18669045904E+02 -0.15630552420E+02  0.26052083628E+02  0.00000000000E+00 0.  1.
</event>
<event>
 7    1  0.1375918E-013  0.7246157E+02  0.7816164E-02  0.1226708E+00
        -11   -1    0    0    0    0  0.00000000000E+00  0.00000000000E+00  0.45593999997E+02  0.45594000000E+02  0.51100000000E-03 0. -1.
         11   -1    0    0    0    0 -0.00000000000E+00 -0.00000000000E+00 -0.45593999997E+02  0.45594000000E+02  0.51100000000E-03 0.  1.
    9900012    2    1    2    0    0 -0.11131962430E+02 -0.10945335938E+02  0.10342057594E+02  0.72461571574E+02  0.70000001666E+02 0.  0.
         12    1    1    2    0    0  0.11131962430E+02  0.10945335938E+02 -0.10342057594E+02  0.18726428426E+02  0.00000000000E+00 0. -1.
         11    1    3    3    0    0  0.23255353805E+00  0.17031716813E+02 -0.68539966453E+01  0.18360575400E+02  0.51100000000E-03 0. -1.
        -11    1    3    3    0    0 -0.21658395586E+02 -0.33284013180E+02  0.13042630533E+02  0.41797390399E+02  0.51100000000E-03 0.  1.
         12    1    3    3    0    0  0.10293879618E+02  0.53069604284E+01  0.41534237060E+01  0.12303605775E+02  0.00000000000E+00 0. -1.
</event>
<event>
 7    1  0.1375918E-013  0.7246160E+02  0.7816164E-02  0.1226708E+00
        -11   -1    0    0    0    0  0.00000000000E+00  0.00000000000E+00  0.45593999997E+02  0.45594000000E+02  0.51100000000E-03 0.  1.
         11   -1    0    0    0    0 -0.00000000000E+00 -0.00000000000E+00 -0.45593999997E+02  0.45594000000E+02  0.51100000000E-03 0. -1.
    9900012    2    1    2    0    0 -0.13653455140E+02  0.41294840316E+00  0.12809790285E+02  0.72461599097E+02  0.70000037521E+02 0.  0.
         12    1    1    2    0    0  0.13653455140E+02 -0.41294840316E+00 -0.12809790285E+02  0.18726400903E+02  0.00000000000E+00 0. -1.
         11    1    3    3    0    0  0.25959383669E+02  0.10486420111E+02 -0.10600826422E+00  0.27997604277E+02  0.51100000000E-03 0. -1.
        -11    1    3    3    0    0 -0.67800001171E+01  0.63655931213E+00  0.63476452225E+01  0.93094688075E+01  0.51100000000E-03 0.  1.
         12    1    3    3    0    0 -0.32832838692E+02 -0.10710031020E+02  0.65681533264E+01  0.35154526012E+02  0.00000000000E+00 0. -1.
</event>
<event>
 7    1  0.1375918E-013  0.7246157E+02  0.7816164E-02  0.1226708E+00
        -11   -1    0    0    0    0  0.00000000000E+00  0.00000000000E+00  0.45593999997E+02  0.45594000000E+02  0.51100000000E-03 0. -1.
         11   -1    0    0    0    0 -0.00000000000E+00 -0.00000000000E+00 -0.45593999997E+02  0.45594000000E+02  0.51100000000E-03 0.  1.
    9900012    2    1    2    0    0  0.26481264381E+01 -0.18266185129E+02 -0.31643206658E+01  0.72461574338E+02  0.70000005268E+02 0.  0.
         12    1    1    2    0    0 -0.26481264381E+01  0.18266185129E+02  0.31643206658E+01  0.18726425662E+02  0.00000000000E+00 0. -1.
         11    1    3    3    0    0 -0.14332645237E+02 -0.96322778284E+01  0.12078230441E+02  0.21073422752E+02  0.51100000000E-03 0. -1.
        -11    1    3    3    0    0  0.13746038370E+01  0.93315023010E+01 -0.24190441408E+02  0.25964281747E+02  0.51100000000E-03 0.  1.
        -12    1    3    3    0    0  0.15606167838E+02 -0.17965409601E+02  0.89478903009E+01  0.25423869839E+02  0.00000000000E+00 0.  1.
</event>
<event>
 7    1  0.1375918E-013  0.7246156E+02  0.7816164E-02  0.1226708E+00
        -11   -1    0    0    0    0  0.00000000000E+00  0.00000000000E+00  0.45593999997E+02  0.45594000000E+02  0.51100000000E-03 0.  1.
         11   -1    0    0    0    0 -0.00000000000E+00 -0.00000000000E+00 -0.45593999997E+02  0.45594000000E+02  0.51100000000E-03 0. -1.
    9900012    2    1    2    0    0  0.78928099736E+01  0.10153499751E+01  0.16951462343E+02  0.72461562527E+02  0.69999989882E+02 0.  0.
         12    1    1    2    0    0 -0.78928099736E+01 -0.10153499751E+01 -0.16951462343E+02  0.18726437473E+02  0.00000000000E+00 0. -1.
         11    1    3    3    0    0 -0.20001754006E+02  0.11005078379E+02  0.22378007311E+02  0.31968064141E+02  0.51100000000E-03 0.  1.
        -11    1    3    3    0    0  0.27289484677E+02 -0.60927253255E-01  0.30038460053E+01  0.27454376284E+02  0.51100000000E-03 0. -1.
        -12    1    3    3    0    0  0.60507930271E+00 -0.99288011508E+01 -0.84303909732E+01  0.13039122103E+02  0.00000000000E+00 0.  1.
</event>
<event>
 7    1  0.1375918E-013  0.7246157E+02  0.7816164E-02  0.1226708E+00
        -11   -1    0    0    0    0  0.00000000000E+00  0.00000000000E+00  0.45593999997E+02  0.45594000000E+02  0.51100000000E-03 0. -1.
         11   -1    0    0    0    0 -0.00000000000E+00 -0.00000000000E+00 -0.45593999997E+02  0.45594000000E+02  0.51100000000E-03 0.  1.
    9900012    2    1    2    0    0  0.93311906991E+01  0.16235547641E+02 -0.12240969037E+00  0.72461571851E+02  0.70000002028E+02 0.  0.
         12    1    1    2    0    0 -0.93311906991E+01 -0.16235547641E+02  0.12240969037E+00  0.18726428149E+02  0.00000000000E+00 0. -1.
         11    1    3    3    0    0  0.30286765506E+02 -0.84804442445E+01  0.31404025854E+01  0.31608040560E+02  0.51100000000E-03 0. -1.
        -11    1    3    3    0    0 -0.11773496997E+02  0.14639298048E+02 -0.14058355438E+02  0.23464049880E+02  0.51100000000E-03 0.  1.
         12    1    3    3    0    0 -0.91820778098E+01  0.10076693837E+02  0.10795543162E+02  0.17389481412E+02  0.00000000000E+00 0. -1.
</event>
<event>
 7    1  0.1375918E-013  0.7246160E+02  0.7816164E-02  0.1226708E+00
        -11   -1    0    0    0    0  0.00000000000E+00  0.00000000000E+00  0.45593999997E+02  0.45594000000E+02  0.51100000000E-03 0. -1.
         11   -1    0    0    0    0 -0.00000000000E+00 -0.00000000000E+00 -0.45593999997E+02  0.45594000000E+02  0.51100000000E-03 0.  1.
    9900012    2    1    2    0    0  0.34929957266E+00 -0.48678197207E+01 -0.18079283587E+02  0.72461596874E+02  0.70000034624E+02 0.  0.
         12    1    1    2    0    0 -0.34929957266E+00  0.48678197207E+01  0.18079283587E+02  0.18726403126E+02  0.00000000000E+00 0. -1.
         11    1    3    3    0    0  0.80102068310E+01  0.25183295142E+02 -0.57068657897E+01  0.27035718690E+02  0.51100000000E-03 0.  1.
        -11    1    3    3    0    0  0.65656730859E+01 -0.21281307871E+02  0.33003214912E+01  0.22514312114E+02  0.51100000000E-03 0. -1.
        -12    1    3    3    0    0 -0.14226580344E+02 -0.87698069915E+01 -0.15672739289E+02  0.22911566070E+02  0.00000000000E+00 0.  1.
</event>
<event>
 7    1  0.1375918E-013  0.7246156E+02  0.7816164E-02  0.1226708E+00
        -11   -1    0    0    0    0  0.00000000000E+00  0.00000000000E+00  0.45593999997E+02  0.45594000000E+02  0.51100000000E-03 0.  1.
         11   -1    0    0    0    0 -0.00000000000E+00 -0.00000000000E+00 -0.45593999997E+02  0.45594000000E+02  0.51100000000E-03 0. -1.
    9900012    2    1    2    0    0 -0.31278198721E+01  0.16801880603E+02  0.76546033604E+01  0.72461564099E+02  0.69999991930E+02 0.  0.
         12    1    1    2    0    0  0.31278198721E+01 -0.16801880603E+02 -0.76546033604E+01  0.18726435901E+02  0.00000000000E+00 0. -1.
         11    1    3    3    0    0 -0.12214719680E+01 -0.18505277187E+01 -0.20623107420E+02  0.20741962456E+02  0.51100000000E-03 0. -1.
        -11    1    3    3    0    0 -0.14848867716E+02  0.56803861276E+01  0.29333554449E+02  0.33364847907E+02  0.51100000000E-03 0.  1.
        -12    1    3    3    0    0  0.12942519812E+02  0.12972022194E+02 -0.10558436685E+01  0.18354753737E+02  0.00000000000E+00 0.  1.
</event>
<event>
 7    1  0.1375918E-013  0.7246154E+02  0.7816164E-02  0.1226708E+00
        -11   -1    0    0    0    0  0.00000000000E+00  0.00000000000E+00  0.45593999997E+02  0.45594000000E+02  0.51100000000E-03 0. -1.
         11   -1    0    0    0    0 -0.00000000000E+00 -0.00000000000E+00 -0.45593999997E+02  0.45594000000E+02  0.51100000000E-03 0.  1.
    9900012    2    1    2    0    0 -0.39811536755E+01 -0.15520578500E+02 -0.96923879970E+01  0.72461539399E+02  0.69999959753E+02 0.  0.
         12    1    1    2    0    0  0.39811536755E+01  0.15520578500E+02  0.96923879970E+01  0.18726460601E+02  0.00000000000E+00 0. -1.
         11    1    3    3    0    0  0.46121222880E+01  0.19536858164E+02  0.12179862991E+01  0.20110792868E+02  0.51100000000E-03 0. -1.
        -11    1    3    3    0    0 -0.27637975281E+01 -0.24268233824E+02 -0.24119274724E+02  0.34326741226E+02  0.51100000000E-03 0.  1.
        -12    1    3    3    0    0 -0.58294784355E+01 -0.10789202839E+02  0.13208900428E+02  0.18024005305E+02  0.00000000000E+00 0.  1.
</event>
<event>
 7    1  0.1375918E-013  0.7246156E+02  0.7816164E-02  0.1226708E+00
        -11   -1    0    0    0    0  0.00000000000E+00  0.00000000000E+00  0.45593999997E+02  0.45594000000E+02  0.51100000000E-03 0. -1.
         11   -1    0    0    0    0 -0.00000000000E+00 -0.00000000000E+00 -0.45593999997E+02  0.45594000000E+02  0.51100000000E-03 0.  1.
    9900012    2    1    2    0    0 -0.11170603809E+02 -0.24277694060E+01 -0.14832498418E+02  0.72461562456E+02  0.69999989790E+02 0.  0.
         12    1    1    2    0    0  0.11170603809E+02  0.24277694060E+01  0.14832498418E+02  0.18726437544E+02  0.00000000000E+00 0. -1.
         11    1    3    3    0    0 -0.63148148330E+01 -0.17384099072E+02 -0.17900493235E+02  0.25739297683E+02  0.51100000000E-03 0. -1.
        -11    1    3    3    0    0 -0.14669268624E+02  0.13428243195E+02  0.19287190991E+02  0.27703806487E+02  0.51100000000E-03 0.  1.
        -12    1    3    3    0    0  0.98134796474E+01  0.15280864702E+01 -0.16219196174E+02  0.19018458286E+02  0.00000000000E+00 0.  1.
</event>
<event>
 7    1  0.1375918E-013  0.7246165E+02  0.7816164E-02  0.1226708E+00
        -11   -1    0    0    0    0  0.00000000000E+00  0.00000000000E+00  0.45593999997E+02  0.45594000000E+02  0.51100000000E-03 0. -1.
         11   -1    0    0    0    0 -0.00000000000E+00 -0.00000000000E+00 -0.45593999997E+02  0.45594000000E+02  0.51100000000E-03 0.  1.
    9900012    2    1    2    0    0 -0.17315240457E+02 -0.59674457744E+01 -0.39049207976E+01  0.72461645106E+02  0.70000097457E+02 0.  0.
         12    1    1    2    0    0  0.17315240457E+02  0.59674457744E+01  0.39049207976E+01  0.18726354894E+02  0.00000000000E+00 0. -1.
         11    1    3    3    0    0  0.85066953974E+01  0.27869725011E+01  0.22380959608E+02  0.24104738860E+02  0.51100000000E-03 0. -1.
        -11    1    3    3    0    0  0.27489004574E+01  0.33653694355E+01 -0.14536570880E+02  0.15172147455E+02  0.51100000000E-03 0.  1.
         12    1    3    3    0    0 -0.28570836312E+02 -0.12119787711E+02 -0.11749309525E+02  0.33184758791E+02  0.00000000000E+00 0. -1.
</event>
<event>
 7    1  0.1375918E-013  0.7246156E+02  0.7816164E-02  0.1226708E+00
        -11   -1    0    0    0    0  0.00000000000E+00  0.00000000000E+00  0.45593999997E+02  0.45594000000E+02  0.51100000000E-03 0.  1.
         11   -1    0    0    0    0 -0.00000000000E+00 -0.00000000000E+00 -0.45593999997E+02  0.45594000000E+02  0.51100000000E-03 0. -1.
    9900012    2    1    2    0    0  0.37055686034E+00 -0.10923132788E+01  0.18690883051E+02  0.72461559604E+02  0.69999986074E+02 0.  0.
         12    1    1    2    0    0 -0.37055686034E+00  0.10923132788E+01 -0.18690883051E+02  0.18726440396E+02  0.00000000000E+00 0. -1.
         11    1    3    3    0    0 -0.42046340059E+01  0.46103667095E+01 -0.18840449617E+02  0.19846837792E+02  0.51100000000E-03 0. -1.
        -11    1    3    3    0    0  0.55460039518E+01 -0.20750397611E+02  0.18607636357E+02  0.28417974803E+02  0.51100000000E-03 0.  1.
         12    1    3    3    0    0 -0.97081308558E+00  0.15047717623E+02  0.18923696311E+02  0.24196747008E+02  0.00000000000E+00 0. -1.
</event>
<event>
 7    1  0.1375918E-013  0.7246171E+02  0.7816164E-02  0.1226708E+00
        -11   -1    0    0    0    0  0.00000000000E+00  0.00000000000E+00  0.45593999997E+02  0.45594000000E+02  0.51100000000E-03 0.  1.
         11   -1    0    0    0    0 -0.00000000000E+00 -0.00000000000E+00 -0.45593999997E+02  0.45594000000E+02  0.51100000000E-03 0. -1.
    9900012    2    1    2    0    0  0.62924722199E+01  0.17636879566E+02 -0.13849545867E+00  0.72461710766E+02  0.70000182991E+02 0.  0.
         12    1    1    2    0    0 -0.62924722199E+01 -0.17636879566E+02  0.13849545867E+00  0.18726289234E+02  0.00000000000E+00 0. -1.
         11    1    3    3    0    0 -0.15297869142E+02  0.51137831665E+01 -0.66796542963E+01  0.17458332118E+02  0.51100000000E-03 0. -1.
        -11    1    3    3    0    0  0.32349551550E+02  0.20220076088E+02 -0.36229872117E+01  0.38320634117E+02  0.51100000000E-03 0.  1.
        -12    1    3    3    0    0 -0.10759210188E+02 -0.76969796882E+01  0.10164146049E+02  0.16682744532E+02  0.00000000000E+00 0.  1.
</event>
<event>
 7    1  0.1375918E-013  0.7246161E+02  0.7816164E-02  0.1226708E+00
        -11   -1    0    0    0    0  0.00000000000E+00  0.00000000000E+00  0.45593999997E+02  0.45594000000E+02  0.51100000000E-03 0. -1.
         11   -1    0    0    0    0 -0.00000000000E+00 -0.00000000000E+00 -0.45593999997E+02  0.45594000000E+02  0.51100000000E-03 0.  1.
    9900012    2    1    2    0    0  0.17711731759E+02 -0.34096225263E+00 -0.60709011453E+01  0.72461613860E+02  0.70000056752E+02 0.  0.
         12    1    1    2    0    0 -0.17711731759E+02  0.34096225263E+00  0.60709011453E+01  0.18726386140E+02  0.00000000000E+00 0. -1.
         11    1    3    3    0    0 -0.49117076429E+01 -0.89697507072E+01 -0.27528521045E+02  0.29366660874E+02  0.51100000000E-03 0.  1.
        -11    1    3    3    0    0  0.94052816438E+01  0.34577450021E+01  0.26263104779E+02  0.28109891430E+02  0.51100000000E-03 0. -1.
         12    1    3    3    0    0  0.13218157758E+02  0.51710434525E+01 -0.48054848797E+01  0.14985061556E+02  0.00000000000E+00 0. -1.
</event>
<event>
 7    1  0.1375918E-013  0.7246174E+02  0.7816164E-02  0.1226708E+00
        -11   -1    0    0    0    0  0.00000000000E+00  0.00000000000E+00  0.45593999997E+02  0.45594000000E+02  0.51100000000E-03 0. -1.
         11   -1    0    0    0    0 -0.00000000000E+00 -0.00000000000E+00 -0.45593999997E+02  0.45594000000E+02  0.51100000000E-03 0.  1.
    9900012    2    1    2    0    0 -0.50953669845E+01  0.16749510156E+02 -0.66455866429E+01  0.72461743647E+02  0.70000225823E+02 0.  0.
         12    1    1    2    0    0  0.50953669845E+01 -0.16749510156E+02  0.66455866429E+01  0.18726256353E+02  0.00000000000E+00 0. -1.
         11    1    3    3    0    0  0.89351116146E+01 -0.54508100915E+01 -0.14232668394E+02  0.17666816354E+02  0.51100000000E-03 0.  1.
        -11    1    3    3    0    0 -0.64227773540E+01  0.36767609907E+02  0.17865929432E+01  0.37367112838E+02  0.51100000000E-03 0. -1.
         12    1    3    3    0    0 -0.76077012451E+01 -0.14567289659E+02  0.58004888075E+01  0.17427814455E+02  0.00000000000E+00 0. -1.
</event>
<event>
 7    1  0.1375918E-013  0.7246156E+02  0.7816164E-02  0.1226708E+00
        -11   -1    0    0    0    0  0.00000000000E+00  0.00000000000E+00  0.45593999997E+02  0.45594000000E+02  0.51100000000E-03 0. -1.
         11   -1    0    0    0    0 -0.00000000000E+00 -0.00000000000E+00 -0.45593999997E+02  0.45594000000E+02  0.51100000000E-03 0.  1.
    9900012    2    1    2    0    0 -0.10085864813E+02 -0.12186834019E+02 -0.10021774261E+02  0.72461560088E+02  0.69999986705E+02 0.  0.
         12    1    1    2    0    0  0.10085864813E+02  0.12186834019E+02  0.10021774261E+02  0.18726439912E+02  0.00000000000E+00 0. -1.
         11    1    3    3    0    0  0.65484084897E+01 -0.18705451962E+01 -0.46305921379E+01  0.82354706537E+01  0.51100000000E-03 0. -1.
        -11    1    3    3    0    0 -0.26318341474E+02 -0.30845165658E+02 -0.81577502488E+01  0.41359741679E+02  0.51100000000E-03 0.  1.
        -12    1    3    3    0    0  0.96840681712E+01  0.20528876835E+02  0.27665681258E+01  0.22866347755E+02  0.00000000000E+00 0.  1.
</event>
<event>
 7    1  0.1375918E-013  0.7246153E+02  0.7816164E-02  0.1226708E+00
        -11   -1    0    0    0    0  0.00000000000E+00  0.00000000000E+00  0.45593999997E+02  0.45594000000E+02  0.51100000000E-03 0. -1.
         11   -1    0    0    0    0 -0.00000000000E+00 -0.00000000000E+00 -0.45593999997E+02  0.45594000000E+02  0.51100000000E-03 0.  1.
    9900012    2    1    2    0    0  0.49452515032E+01 -0.10279209949E+02 -0.14851361549E+02  0.72461531848E+02  0.69999949916E+02 0.  0.
         12    1    1    2    0    0 -0.49452515032E+01  0.10279209949E+02  0.14851361549E+02  0.18726468152E+02  0.00000000000E+00 0. -1.
         11    1    3    3    0    0 -0.10497877624E+02  0.89300623628E+01  0.18344080428E+02  0.22944645027E+02  0.51100000000E-03 0. -1.
        -11    1    3    3    0    0  0.86468285254E+01 -0.23255235019E+02 -0.33397454278E+02  0.41604850100E+02  0.51100000000E-03 0.  1.
         12    1    3    3    0    0  0.67963006018E+01  0.40459627075E+01  0.20201230168E+00  0.79120367208E+01  0.00000000000E+00 0. -1.
</event>
<event>
 7    1  0.1375918E-013  0.7246159E+02  0.7816164E-02  0.1226708E+00
        -11   -1    0    0    0    0  0.00000000000E+00  0.00000000000E+00  0.45593999997E+02  0.45594000000E+02  0.51100000000E-03 0. -1.
         11   -1    0    0    0    0 -0.00000000000E+00 -0.00000000000E+00 -0.45593999997E+02  0.45594000000E+02  0.51100000000E-03 0.  1.
    9900012    2    1    2    0    0 -0.87023321446E+01 -0.12640327122E+02 -0.10731726269E+02  0.72461590755E+02  0.70000026654E+02 0.  0.
         12    1    1    2    0    0  0.87023321446E+01  0.12640327122E+02  0.10731726269E+02  0.18726409245E+02  0.00000000000E+00 0. -1.
         11    1    3    3    0    0  0.59176822273E+01  0.11394435604E+02  0.61150716823E+01  0.14221330022E+02  0.51100000000E-03 0. -1.
        -11    1    3    3    0    0  0.12006343282E+02 -0.25094052992E+02 -0.14810097623E+02  0.31515119648E+02  0.51100000000E-03 0.  1.
        -12    1    3    3    0    0 -0.26626357654E+02  0.10592902663E+01 -0.20367003283E+01  0.26725141085E+02  0.00000000000E+00 0.  1.
</event>
<event>
 7    1  0.1375918E-013  0.7246157E+02  0.7816164E-02  0.1226708E+00
        -11   -1    0    0    0    0  0.00000000000E+00  0.00000000000E+00  0.45593999997E+02  0.45594000000E+02  0.51100000000E-03 0. -1.
         11   -1    0    0    0    0 -0.00000000000E+00 -0.00000000000E+00 -0.45593999997E+02  0.45594000000E+02  0.51100000000E-03 0.  1.
    9900012    2    1    2    0    0 -0.92541067272E+01 -0.15338387914E+02 -0.54566134645E+01  0.72461567728E+02  0.69999996657E+02 0.  0.
         12    1    1    2    0    0  0.92541067272E+01  0.15338387914E+02  0.54566134645E+01  0.18726432272E+02  0.00000000000E+00 0. -1.
         11    1    3    3    0    0 -0.27769541815E+01  0.10315185612E+02 -0.25438340661E+01  0.10981148426E+02  0.51100000000E-03 0. -1.
        -11    1    3    3    0    0 -0.64387302464E+01 -0.30200979127E+02 -0.24500657153E+02  0.39418759349E+02  0.51100000000E-03 0.  1.
        -12    1    3    3    0    0 -0.38422299249E-01  0.45474056005E+01  0.21587877755E+02  0.22061659954E+02  0.00000000000E+00 0.  1.
</event>
<event>
 7    1  0.1375918E-013  0.7246135E+02  0.7816164E-02  0.1226709E+00
        -11   -1    0    0    0    0  0.00000000000E+00  0.00000000000E+00  0.45593999997E+02  0.45594000000E+02  0.51100000000E-03 0. -1.
         11   -1    0    0    0    0 -0.00000000000E+00 -0.00000000000E+00 -0.45593999997E+02  0.45594000000E+02  0.51100000000E-03 0.  1.
    9900012    2    1    2    0    0  0.15465313989E+02 -0.26191505634E+01 -0.10229935673E+02  0.72461348662E+02  0.69999711282E+02 0.  0.
         12    1    1    2    0    0 -0.15465313989E+02  0.26191505634E+01  0.10229935673E+02  0.18726651338E+02  0.00000000000E+00 0. -1.
         11    1    3    3    0    0  0.38259383091E+01  0.14179890775E+02  0.84422864517E+01  0.16940463604E+02  0.51100000000E-03 0. -1.
        -11    1    3    3    0    0  0.10801909350E+02 -0.29096666447E+01 -0.33421384970E+02  0.35243955215E+02  0.51100000000E-03 0.  1.
        -12    1    3    3    0    0  0.83746633032E+00 -0.13889374693E+02  0.14749162846E+02  0.20276929843E+02  0.00000000000E+00 0.  1.
</event>
<event>
 7    1  0.1375918E-013  0.7246149E+02  0.7816164E-02  0.1226708E+00
        -11   -1    0    0    0    0  0.00000000000E+00  0.00000000000E+00  0.45593999997E+02  0.45594000000E+02  0.51100000000E-03 0. -1.
         11   -1    0    0    0    0 -0.00000000000E+00 -0.00000000000E+00 -0.45593999997E+02  0.45594000000E+02  0.51100000000E-03 0.  1.
    9900012    2    1    2    0    0  0.51040881828E+01 -0.34219168034E+00 -0.18014259310E+02  0.72461485380E+02  0.69999889384E+02 0.  0.
         12    1    1    2    0    0 -0.51040881828E+01  0.34219168034E+00  0.18014259310E+02  0.18726514620E+02  0.00000000000E+00 0. -1.
         11    1    3    3    0    0 -0.96032012788E+01  0.22141164822E+02 -0.10431554441E+02  0.26292013670E+02  0.51100000000E-03 0.  1.
        -11    1    3    3    0    0  0.22729141548E+02 -0.20413022774E+02 -0.15891481301E+02  0.34436093746E+02  0.51100000000E-03 0. -1.
         12    1    3    3    0    0 -0.80218520863E+01 -0.20703337284E+01  0.83087764329E+01  0.11733377964E+02  0.00000000000E+00 0. -1.
</event>
<event>
 7    1  0.1375918E-013  0.7246160E+02  0.7816164E-02  0.1226708E+00
        -11   -1    0    0    0    0  0.00000000000E+00  0.00000000000E+00  0.45593999997E+02  0.45594000000E+02  0.51100000000E-03 0. -1.
         11   -1    0    0    0    0 -0.00000000000E+00 -0.00000000000E+00 -0.45593999997E+02  0.45594000000E+02  0.51100000000E-03 0.  1.
    9900012    2    1    2    0    0  0.12943313980E+02 -0.12620809768E+01 -0.13474269064E+02  0.72461597463E+02  0.70000035392E+02 0.  0.
         12    1    1    2    0    0 -0.12943313980E+02  0.12620809768E+01  0.13474269064E+02  0.18726402537E+02  0.00000000000E+00 0. -1.
         11    1    3    3    0    0  0.35333059563E+02 -0.27706657332E+01 -0.96114217008E+01  0.36721670905E+02  0.51100000000E-03 0. -1.
        -11    1    3    3    0    0 -0.11654985180E+02 -0.12872107808E+02 -0.38875096989E+01  0.17794453374E+02  0.51100000000E-03 0.  1.
        -12    1    3    3    0    0 -0.10734760403E+02  0.14380692564E+02  0.24662335731E-01  0.17945473183E+02  0.00000000000E+00 0.  1.
</event>
<event>
 7    1  0.1375918E-013  0.7246186E+02  0.7816164E-02  0.1226707E+00
        -11   -1    0    0    0    0  0.00000000000E+00  0.00000000000E+00  0.45593999997E+02  0.45594000000E+02  0.51100000000E-03 0. -1.
         11   -1    0    0    0    0 -0.00000000000E+00 -0.00000000000E+00 -0.45593999997E+02  0.45594000000E+02  0.51100000000E-03 0.  1.
    9900012    2    1    2    0    0 -0.31927286123E+01 -0.51444202132E+01 -0.17720322198E+02  0.72461858002E+02  0.70000374792E+02 0.  0.
         12    1    1    2    0    0  0.31927286123E+01  0.51444202132E+01  0.17720322198E+02  0.18726141998E+02  0.00000000000E+00 0. -1.
         11    1    3    3    0    0 -0.81237674265E+01 -0.86954261323E+01 -0.30445347586E+02  0.32688304066E+02  0.51100000000E-03 0.  1.
        -11    1    3    3    0    0  0.18648049318E+02 -0.74457278064E+01  0.74721080580E+01  0.21424775495E+02  0.51100000000E-03 0. -1.
         12    1    3    3    0    0 -0.13717010504E+02  0.10996733726E+02  0.52529173306E+01  0.18348778441E+02  0.00000000000E+00 0. -1.
</event>
<event>
 7    1  0.1375918E-013  0.7246158E+02  0.7816164E-02  0.1226708E+00
        -11   -1    0    0    0    0  0.00000000000E+00  0.00000000000E+00  0.45593999997E+02  0.45594000000E+02  0.51100000000E-03 0. -1.
         11   -1    0    0    0    0 -0.00000000000E+00 -0.00000000000E+00 -0.45593999997E+02  0.45594000000E+02  0.51100000000E-03 0.  1.
    9900012    2    1    2    0    0  0.14195858275E+02 -0.56612415936E+01  0.10821592455E+02  0.72461577176E+02  0.70000008964E+02 0.  0.
         12    1    1    2    0    0 -0.14195858275E+02  0.56612415936E+01 -0.10821592455E+02  0.18726422824E+02  0.00000000000E+00 0. -1.
         11    1    3    3    0    0  0.36535618827E+02 -0.36439405045E+01 -0.28772316507E+01  0.36829447562E+02  0.51100000000E-03 0.  1.
        -11    1    3    3    0    0 -0.17301368120E+02 -0.11979422581E+02  0.54113365630E+01  0.21728471366E+02  0.51100000000E-03 0. -1.
        -12    1    3    3    0    0 -0.50383924319E+01  0.99621214922E+01  0.82874875423E+01  0.13903658248E+02  0.00000000000E+00 0.  1.
</event>
<event>
 7    1  0.1375918E-013  0.7246157E+02  0.7816164E-02  0.1226708E+00
        -11   -1    0    0    0    0  0.00000000000E+00  0.00000000000E+00  0.45593999997E+02  0.45594000000E+02  0.51100000000E-03 0.  1.
         11   -1    0    0    0    0 -0.00000000000E+00 -0.00000000000E+00 -0.45593999997E+02  0.45594000000E+02  0.51100000000E-03 0. -1.
    9900012    2    1    2    0    0 -0.17697206687E+02 -0.51421553375E+01  0.33235964250E+01  0.72461570035E+02  0.69999999663E+02 0.  0.
         12    1    1    2    0    0  0.17697206687E+02  0.51421553375E+01 -0.33235964250E+01  0.18726429965E+02  0.00000000000E+00 0. -1.
         11    1    3    3    0    0  0.98978902540E+01  0.80357132850E+01 -0.17423402045E+02  0.21589716500E+02  0.51100000000E-03 0. -1.
        -11    1    3    3    0    0 -0.20566687933E+02 -0.24536593778E+02  0.94606231661E+01  0.33384674294E+02  0.51100000000E-03 0.  1.
        -12    1    3    3    0    0 -0.70284090076E+01  0.11358725155E+02  0.11286375304E+02  0.17487179242E+02  0.00000000000E+00 0.  1.
</event>
<event>
 7    1  0.1375918E-013  0.7246162E+02  0.7816164E-02  0.1226708E+00
        -11   -1    0    0    0    0  0.00000000000E+00  0.00000000000E+00  0.45593999997E+02  0.45594000000E+02  0.51100000000E-03 0.  1.
         11   -1    0    0    0    0 -0.00000000000E+00 -0.00000000000E+00 -0.45593999997E+02  0.45594000000E+02  0.51100000000E-03 0. -1.
    9900012    2    1    2    0    0 -0.87001510641E+01  0.12930597872E+02  0.10381926836E+02  0.72461617683E+02  0.70000061732E+02 0.  0.
         12    1    1    2    0    0  0.87001510641E+01 -0.12930597872E+02 -0.10381926836E+02  0.18726382317E+02  0.00000000000E+00 0. -1.
         11    1    3    3    0    0  0.17719335213E+02 -0.19513722013E+01  0.15883429775E+02  0.23876055694E+02  0.51100000000E-03 0. -1.
        -11    1    3    3    0    0 -0.22670586083E+02 -0.59009620190E+01 -0.12223385019E+02  0.26423246728E+02  0.51100000000E-03 0.  1.
         12    1    3    3    0    0 -0.37489001942E+01  0.20782932092E+02  0.67218820791E+01  0.22162315260E+02  0.00000000000E+00 0. -1.
</event>
<event>
 7    1  0.1375918E-013  0.7246159E+02  0.7816164E-02  0.1226708E+00
        -11   -1    0    0    0    0  0.00000000000E+00  0.00000000000E+00  0.45593999997E+02  0.45594000000E+02  0.51100000000E-03 0.  1.
         11   -1    0    0    0    0 -0.00000000000E+00 -0.00000000000E+00 -0.45593999997E+02  0.45594000000E+02  0.51100000000E-03 0. -1.
    9900012    2    1    2    0    0 -0.14167038217E+01 -0.13412391403E+02  0.12991507311E+02  0.72461586700E+02  0.70000021371E+02 0.  0.
         12    1    1    2    0    0  0.14167038217E+01  0.13412391403E+02 -0.12991507311E+02  0.18726413300E+02  0.00000000000E+00 0. -1.
         11    1    3    3    0    0 -0.28274306276E+02 -0.56735603066E+01  0.10303727141E+02  0.30623397512E+02  0.51100000000E-03 0. -1.
        -11    1    3    3    0    0  0.50625296877E+01 -0.64681029087E+01  0.14759384227E+02  0.16890973480E+02  0.51100000000E-03 0.  1.
         12    1    3    3    0    0  0.21795072767E+02 -0.12707281881E+01 -0.12071604057E+02  0.24947215707E+02  0.00000000000E+00 0. -1.
</event>
<event>
 7    1  0.1375918E-013  0.7246152E+02  0.7816164E-02  0.1226708E+00
        -11   -1    0    0    0    0  0.00000000000E+00  0.00000000000E+00  0.45593999997E+02  0.45594000000E+02  0.51100000000E-03 0. -1.
         11   -1    0    0    0    0 -0.00000000000E+00 -0.00000000000E+00 -0.45593999997E+02  0.45594000000E+02  0.51100000000E-03 0.  1.
    9900012    2    1    2    0    0 -0.16367504724E+02 -0.84531744035E+01 -0.33659604797E+01  0.72461519863E+02  0.69999934303E+02 0.  0.
         12    1    1    2    0    0  0.16367504724E+02  0.84531744035E+01  0.33659604797E+01  0.18726480137E+02  0.00000000000E+00 0. -1.
         11    1    3    3    0    0  0.20996455163E+02 -0.27769122624E+01 -0.33175329366E+01  0.21437546412E+02  0.51100000000E-03 0. -1.
        -11    1    3    3    0    0 -0.18426804324E+02  0.78966722634E+01  0.13408252321E+02  0.24118162886E+02  0.51100000000E-03 0.  1.
        -12    1    3    3    0    0 -0.18937155563E+02 -0.13572934404E+02 -0.13456679864E+02  0.26905810564E+02  0.00000000000E+00 0.  1.
</event>
<event>
 7    1  0.1375918E-013  0.7246159E+02  0.7816164E-02  0.1226708E+00
        -11   -1    0    0    0    0  0.00000000000E+00  0.00000000000E+00  0.45593999997E+02  0.45594000000E+02  0.51100000000E-03 0.  1.
         11   -1    0    0    0    0 -0.00000000000E+00 -0.00000000000E+00 -0.45593999997E+02  0.45594000000E+02  0.51100000000E-03 0. -1.
    9900012    2    1    2    0    0 -0.66060886992E+01 -0.38197801592E+01  0.17101086850E+02  0.72461593516E+02  0.70000030250E+02 0.  0.
         12    1    1    2    0    0  0.66060886992E+01  0.38197801592E+01 -0.17101086850E+02  0.18726406484E+02  0.00000000000E+00 0. -1.
         11    1    3    3    0    0 -0.62703064179E+01 -0.16305272468E+02  0.62397867658E+01  0.18550298973E+02  0.51100000000E-03 0. -1.
        -11    1    3    3    0    0  0.14105922846E+02  0.14209041428E+02 -0.14468781780E+02  0.24702622616E+02  0.51100000000E-03 0.  1.
        -12    1    3    3    0    0 -0.14441705127E+02 -0.17235491190E+01  0.25330081864E+02  0.29208671927E+02  0.00000000000E+00 0.  1.
</event>
<event>
 7    1  0.1375918E-013  0.7246130E+02  0.7816164E-02  0.1226709E+00
        -11   -1    0    0    0    0  0.00000000000E+00  0.00000000000E+00  0.45593999997E+02  0.45594000000E+02  0.51100000000E-03 0.  1.
         11   -1    0    0    0    0 -0.00000000000E+00 -0.00000000000E+00 -0.45593999997E+02  0.45594000000E+02  0.51100000000E-03 0. -1.
    9900012    2    1    2    0    0 -0.10609487397E+02  0.13379477974E+02  0.76887966322E+01  0.72461301217E+02  0.69999649475E+02 0.  0.
         12    1    1    2    0    0  0.10609487397E+02 -0.13379477974E+02 -0.76887966322E+01  0.18726698783E+02  0.00000000000E+00 0. -1.
         11    1    3    3    0    0 -0.24689650449E+02  0.78371796904E+01 -0.22026311439E+02  0.34002332577E+02  0.51100000000E-03 0. -1.
        -11    1    3    3    0    0  0.15340243671E+01  0.82722625550E+01  0.32048500606E+01  0.90030340836E+01  0.51100000000E-03 0.  1.
         12    1    3    3    0    0  0.12546138685E+02 -0.27299642718E+01  0.26510258010E+02  0.29455934556E+02  0.00000000000E+00 0. -1.
</event>
<event>
 7    1  0.1375918E-013  0.7246156E+02  0.7816164E-02  0.1226708E+00
        -11   -1    0    0    0    0  0.00000000000E+00  0.00000000000E+00  0.45593999997E+02  0.45594000000E+02  0.51100000000E-03 0.  1.
         11   -1    0    0    0    0 -0.00000000000E+00 -0.00000000000E+00 -0.45593999997E+02  0.45594000000E+02  0.51100000000E-03 0. -1.
    9900012    2    1    2    0    0  0.52242586309E+01  0.67354823551E+01  0.16673935926E+02  0.72461555061E+02  0.69999980156E+02 0.  0.
         12    1    1    2    0    0 -0.52242586309E+01 -0.67354823551E+01 -0.16673935926E+02  0.18726444939E+02  0.00000000000E+00 0. -1.
         11    1    3    3    0    0  0.53383641741E+01  0.23415581805E+02 -0.14294595691E+01  0.24058906007E+02  0.51100000000E-03 0. -1.
        -11    1    3    3    0    0 -0.10510383967E+02 -0.10496552690E+02  0.28703364770E+02  0.32319172930E+02  0.51100000000E-03 0.  1.
         12    1    3    3    0    0  0.10396278423E+02 -0.61835467597E+01 -0.10599969276E+02  0.16083476124E+02  0.00000000000E+00 0. -1.
</event>
<event>
 7    1  0.1375918E-013  0.7246158E+02  0.7816164E-02  0.1226708E+00
        -11   -1    0    0    0    0  0.00000000000E+00  0.00000000000E+00  0.45593999997E+02  0.45594000000E+02  0.51100000000E-03 0.  1.
         11   -1    0    0    0    0 -0.00000000000E+00 -0.00000000000E+00 -0.45593999997E+02  0.45594000000E+02  0.51100000000E-03 0. -1.
    9900012    2    1    2    0    0 -0.71704744565E+01 -0.15258476931E+02  0.81512006850E+01  0.72461577630E+02  0.70000009556E+02 0.  0.
         12    1    1    2    0    0  0.71704744565E+01  0.15258476931E+02 -0.81512006850E+01  0.18726422370E+02  0.00000000000E+00 0. -1.
         11    1    3    3    0    0 -0.34752940391E+01 -0.32753091454E+02  0.48518210404E+01  0.33292384055E+02  0.51100000000E-03 0.  1.
        -11    1    3    3    0    0 -0.54390288364E+01  0.27836248023E+02  0.73296383629E+00  0.28372116152E+02  0.51100000000E-03 0. -1.
         12    1    3    3    0    0  0.17438484191E+01 -0.10341633500E+02  0.25664158084E+01  0.10797077422E+02  0.00000000000E+00 0. -1.
</event>
<event>
 7    1  0.1375918E-013  0.7246146E+02  0.7816164E-02  0.1226708E+00
        -11   -1    0    0    0    0  0.00000000000E+00  0.00000000000E+00  0.45593999997E+02  0.45594000000E+02  0.51100000000E-03 0.  1.
         11   -1    0    0    0    0 -0.00000000000E+00 -0.00000000000E+00 -0.45593999997E+02  0.45594000000E+02  0.51100000000E-03 0. -1.
    9900012    2    1    2    0    0  0.14504421902E+02  0.11451686574E+02  0.30271993219E+01  0.72461459587E+02  0.69999855782E+02 0.  0.
         12    1    1    2    0    0 -0.14504421902E+02 -0.11451686574E+02 -0.30271993219E+01  0.18726540413E+02  0.00000000000E+00 0. -1.
         11    1    3    3    0    0 -0.18747863612E+02 -0.13854994796E+02 -0.38614111243E+01  0.23629510510E+02  0.51100000000E-03 0. -1.
        -11    1    3    3    0    0  0.11102837085E+02  0.14435783085E+02  0.14205235849E+02  0.23096613397E+02  0.51100000000E-03 0.  1.
         12    1    3    3    0    0  0.22149448430E+02  0.10870898285E+02 -0.73166254031E+01  0.25735335680E+02  0.00000000000E+00 0. -1.
</event>
<event>
 7    1  0.1375918E-013  0.7246114E+02  0.7816164E-02  0.1226709E+00
        -11   -1    0    0    0    0  0.00000000000E+00  0.00000000000E+00  0.45593999997E+02  0.45594000000E+02  0.51100000000E-03 0.  1.
         11   -1    0    0    0    0 -0.00000000000E+00 -0.00000000000E+00 -0.45593999997E+02  0.45594000000E+02  0.51100000000E-03 0. -1.
    9900012    2    1    2    0    0 -0.16502346572E+02  0.55876505307E+01  0.68662868370E+01  0.72461142928E+02  0.69999443274E+02 0.  0.
         12    1    1    2    0    0  0.16502346572E+02 -0.55876505307E+01 -0.68662868370E+01  0.18726857072E+02  0.00000000000E+00 0. -1.
         11    1    3    3    0    0 -0.19571074077E+02 -0.51468126322E+01  0.27157093462E+02  0.33867747878E+02  0.51100000000E-03 0. -1.
        -11    1    3    3    0    0  0.10587592238E+02 -0.52448784728E+01 -0.16313724774E+00  0.11816618535E+02  0.51100000000E-03 0.  1.
         12    1    3    3    0    0 -0.75188647328E+01  0.15979341636E+02 -0.20127669377E+02  0.26776776515E+02  0.00000000000E+00 0. -1.
</event>
<event>
 7    1  0.1375918E-013  0.7246153E+02  0.7816164E-02  0.1226708E+00
        -11   -1    0    0    0    0  0.00000000000E+00  0.00000000000E+00  0.45593999997E+02  0.45594000000E+02  0.51100000000E-03 0.  1.
         11   -1    0    0    0    0 -0.00000000000E+00 -0.00000000000E+00 -0.45593999997E+02  0.45594000000E+02  0.51100000000E-03 0. -1.
    9900012    2    1    2    0    0  0.73044401841E+01  0.41634382389E+01  0.16732954033E+02  0.72461526359E+02  0.69999942766E+02 0.  0.
         12    1    1    2    0    0 -0.73044401841E+01 -0.41634382389E+01 -0.16732954033E+02  0.18726473641E+02  0.00000000000E+00 0. -1.
         11    1    3    3    0    0 -0.75643190368E+00 -0.17229132288E+02  0.17657869030E+02  0.24682291781E+02  0.51100000000E-03 0. -1.
        -11    1    3    3    0    0  0.21023494671E+02  0.12216519925E+02 -0.13236289737E+02  0.27684473149E+02  0.51100000000E-03 0.  1.
        -12    1    3    3    0    0 -0.12962622583E+02  0.91760506027E+01  0.12311374741E+02  0.20094761429E+02  0.00000000000E+00 0.  1.
</event>
<event>
 7    1  0.1375918E-013  0.7246211E+02  0.7816164E-02  0.1226707E+00
        -11   -1    0    0    0    0  0.00000000000E+00  0.00000000000E+00  0.45593999997E+02  0.45594000000E+02  0.51100000000E-03 0.  1.
         11   -1    0    0    0    0 -0.00000000000E+00 -0.00000000000E+00 -0.45593999997E+02  0.45594000000E+02  0.51100000000E-03 0. -1.
    9900012    2    1    2    0    0 -0.91684739309E+01 -0.81190379185E+01  0.14166132611E+02  0.72462108724E+02  0.70000701401E+02 0.  0.
         12    1    1    2    0    0  0.91684739309E+01  0.81190379185E+01 -0.14166132611E+02  0.18725891276E+02  0.00000000000E+00 0. -1.
         11    1    3    3    0    0 -0.19342462245E+02 -0.18152372117E+02 -0.18289239112E+02  0.32220113698E+02  0.51100000000E-03 0. -1.
        -11    1    3    3    0    0  0.11999149969E+02  0.11447089577E+01  0.27211570254E+02  0.29761712225E+02  0.51100000000E-03 0.  1.
         12    1    3    3    0    0 -0.18251616550E+01  0.88886252412E+01  0.52438014685E+01  0.10480282801E+02  0.00000000000E+00 0. -1.
</event>
<event>
 7    1  0.1375918E-013  0.7246137E+02  0.7816164E-02  0.1226709E+00
        -11   -1    0    0    0    0  0.00000000000E+00  0.00000000000E+00  0.45593999997E+02  0.45594000000E+02  0.51100000000E-03 0.  1.
         11   -1    0    0    0    0 -0.00000000000E+00 -0.00000000000E+00 -0.45593999997E+02  0.45594000000E+02  0.51100000000E-03 0. -1.
    9900012    2    1    2    0    0  0.10215891953E+02  0.15637631701E+02  0.13367012477E+01  0.72461368060E+02  0.69999736551E+02 0.  0.
         12    1    1    2    0    0 -0.10215891953E+02 -0.15637631701E+02 -0.13367012477E+01  0.18726631940E+02  0.00000000000E+00 0. -1.
         11    1    3    3    0    0 -0.25099444639E+01 -0.23069216905E+02  0.98943257377E+01  0.25226697601E+02  0.51100000000E-03 0. -1.
        -11    1    3    3    0    0 -0.21772484586E+01  0.26358969021E+02 -0.88152198909E+01  0.27879091820E+02  0.51100000000E-03 0.  1.
         12    1    3    3    0    0  0.14903084875E+02  0.12347879584E+02  0.25759540090E+00  0.19355578638E+02  0.00000000000E+00 0. -1.
</event>
<event>
 7    1  0.1375918E-013  0.7246156E+02  0.7816164E-02  0.1226708E+00
        -11   -1    0    0    0    0  0.00000000000E+00  0.00000000000E+00  0.45593999997E+02  0.45594000000E+02  0.51100000000E-03 0.  1.
         11   -1    0    0    0    0 -0.00000000000E+00 -0.00000000000E+00 -0.45593999997E+02  0.45594000000E+02  0.51100000000E-03 0. -1.
    9900012    2    1    2    0    0  0.57094712502E+01  0.17538819823E+02 -0.32359600770E+01  0.72461556120E+02  0.69999981536E+02 0.  0.
         12    1    1    2    0    0 -0.57094712502E+01 -0.17538819823E+02  0.32359600770E+01  0.18726443880E+02  0.00000000000E+00 0. -1.
         11    1    3    3    0    0 -0.93633981932E+01 -0.12898859753E+02 -0.31539869308E+01  0.16248121199E+02  0.51100000000E-03 0. -1.
        -11    1    3    3    0    0 -0.44274164789E+01  0.32237852850E+02  0.10191449253E+02  0.34099073465E+02  0.51100000000E-03 0.  1.
         12    1    3    3    0    0  0.19500285922E+02 -0.18001732729E+01 -0.10273422399E+02  0.22114361457E+02  0.00000000000E+00 0. -1.
</event>
<event>
 7    1  0.1375918E-013  0.7246157E+02  0.7816164E-02  0.1226708E+00
        -11   -1    0    0    0    0  0.00000000000E+00  0.00000000000E+00  0.45593999997E+02  0.45594000000E+02  0.51100000000E-03 0.  1.
         11   -1    0    0    0    0 -0.00000000000E+00 -0.00000000000E+00 -0.45593999997E+02  0.45594000000E+02  0.51100000000E-03 0. -1.
    9900012    2    1    2    0    0  0.60391765123E+01  0.14614667783E+02  0.10030907480E+02  0.72461567552E+02  0.69999996428E+02 0.  0.
         12    1    1    2    0    0 -0.60391765123E+01 -0.14614667783E+02 -0.10030907480E+02  0.18726432448E+02  0.00000000000E+00 0. -1.
         11    1    3    3    0    0  0.13430305466E+02 -0.24923609023E+02  0.34755209858E+01  0.28524351668E+02  0.51100000000E-03 0. -1.
        -11    1    3    3    0    0 -0.28420882088E+01  0.49292159744E+01  0.70086816055E+01  0.90275275473E+01  0.51100000000E-03 0.  1.
         12    1    3    3    0    0 -0.45490407453E+01  0.34609060832E+02 -0.45329511110E+00  0.34909688337E+02  0.00000000000E+00 0. -1.
</event>
<event>
 7    1  0.1375918E-013  0.7246158E+02  0.7816164E-02  0.1226708E+00
        -11   -1    0    0    0    0  0.00000000000E+00  0.00000000000E+00  0.45593999997E+02  0.45594000000E+02  0.51100000000E-03 0.  1.
         11   -1    0    0    0    0 -0.00000000000E+00 -0.00000000000E+00 -0.45593999997E+02  0.45594000000E+02  0.51100000000E-03 0. -1.
    9900012    2    1    2    0    0  0.18677239207E+02  0.16181345453E+00 -0.13466173515E+01  0.72461579459E+02  0.70000011938E+02 0.  0.
         12    1    1    2    0    0 -0.18677239207E+02 -0.16181345453E+00  0.13466173515E+01  0.18726420541E+02  0.00000000000E+00 0. -1.
         11    1    3    3    0    0 -0.40410430987E+00  0.21792663163E+01 -0.97920120230E+01  0.10039721196E+02  0.51100000000E-03 0. -1.
        -11    1    3    3    0    0  0.39949992083E+02 -0.50111230171E+01  0.92966372191E+01  0.41322399316E+02  0.51100000000E-03 0.  1.
        -12    1    3    3    0    0 -0.20868648566E+02  0.29936701553E+01 -0.85124254763E+00  0.21099458947E+02  0.00000000000E+00 0.  1.
</event>
<event>
 7    1  0.1375918E-013  0.7246152E+02  0.7816164E-02  0.1226708E+00
        -11   -1    0    0    0    0  0.00000000000E+00  0.00000000000E+00  0.45593999997E+02  0.45594000000E+02  0.51100000000E-03 0.  1.
         11   -1    0    0    0    0 -0.00000000000E+00 -0.00000000000E+00 -0.45593999997E+02  0.45594000000E+02  0.51100000000E-03 0. -1.
    9900012    2    1    2    0    0 -0.24931534982E+00  0.36570589143E+01  0.18364228075E+02  0.72461518461E+02  0.69999932478E+02 0.  0.
         12    1    1    2    0    0  0.24931534982E+00 -0.36570589143E+01 -0.18364228075E+02  0.18726481539E+02  0.00000000000E+00 0. -1.
         11    1    3    3    0    0  0.34548179666E+01 -0.21284551962E+02 -0.88072404504E+01  0.23292389402E+02  0.51100000000E-03 0.  1.
        -11    1    3    3    0    0  0.54989564059E+01  0.22806963061E+02  0.31083920493E+02  0.38943628479E+02  0.51100000000E-03 0. -1.
        -12    1    3    3    0    0 -0.92030897223E+01  0.21346478157E+01 -0.39124519676E+01  0.10225500581E+02  0.00000000000E+00 0.  1.
</event>
<event>
 7    1  0.1375918E-013  0.7246158E+02  0.7816164E-02  0.1226708E+00
        -11   -1    0    0    0    0  0.00000000000E+00  0.00000000000E+00  0.45593999997E+02  0.45594000000E+02  0.51100000000E-03 0.  1.
         11   -1    0    0    0    0 -0.00000000000E+00 -0.00000000000E+00 -0.45593999997E+02  0.45594000000E+02  0.51100000000E-03 0. -1.
    9900012    2    1    2    0    0  0.16709275171E+02  0.45297601398E+01  0.71386376070E+01  0.72461581481E+02  0.70000014573E+02 0.  0.
         12    1    1    2    0    0 -0.16709275171E+02 -0.45297601398E+01 -0.71386376070E+01  0.18726418519E+02  0.00000000000E+00 0. -1.
         11    1    3    3    0    0  0.97334741534E+01 -0.24984723149E+02  0.17987748412E+02  0.32288326112E+02  0.51100000000E-03 0. -1.
        -11    1    3    3    0    0 -0.14100024029E+01  0.21832355053E+02 -0.16568281271E+02  0.27443538010E+02  0.51100000000E-03 0.  1.
         12    1    3    3    0    0  0.83858034202E+01  0.76821282356E+01  0.57191704659E+01  0.12729717359E+02  0.00000000000E+00 0. -1.
</event>
<event>
 7    1  0.1375918E-013  0.7246158E+02  0.7816164E-02  0.1226708E+00
        -11   -1    0    0    0    0  0.00000000000E+00  0.00000000000E+00  0.45593999997E+02  0.45594000000E+02  0.51100000000E-03 0.  1.
         11   -1    0    0    0    0 -0.00000000000E+00 -0.00000000000E+00 -0.45593999997E+02  0.45594000000E+02  0.51100000000E-03 0. -1.
    9900012    2    1    2    0    0  0.77973622793E+01  0.17921584075E+01  0.16931273999E+02  0.72461582043E+02  0.70000015305E+02 0.  0.
         12    1    1    2    0    0 -0.77973622793E+01 -0.17921584075E+01 -0.16931273999E+02  0.18726417957E+02  0.00000000000E+00 0. -1.
         11    1    3    3    0    0 -0.15569100785E+02 -0.28927953854E+01 -0.19621159161E+02  0.25214183538E+02  0.51100000000E-03 0. -1.
        -11    1    3    3    0    0  0.10281601427E+02 -0.68593976941E+01  0.13032067511E+02  0.17960997982E+02  0.51100000000E-03 0.  1.
         12    1    3    3    0    0  0.13084861638E+02  0.11544351487E+02  0.23520365649E+02  0.29286400523E+02  0.00000000000E+00 0. -1.
</event>
<event>
 7    1  0.1375918E-013  0.7246162E+02  0.7816164E-02  0.1226708E+00
        -11   -1    0    0    0    0  0.00000000000E+00  0.00000000000E+00  0.45593999997E+02  0.45594000000E+02  0.51100000000E-03 0.  1.
         11   -1    0    0    0    0 -0.00000000000E+00 -0.00000000000E+00 -0.45593999997E+02  0.45594000000E+02  0.51100000000E-03 0. -1.
    9900012    2    1    2    0    0 -0.57575935353E+01  0.13605641801E+02  0.11507129602E+02  0.72461617439E+02  0.70000061415E+02 0.  0.
         12    1    1    2    0    0  0.57575935353E+01 -0.13605641801E+02 -0.11507129602E+02  0.18726382561E+02  0.00000000000E+00 0. -1.
         11    1    3    3    0    0 -0.28670649030E+02  0.15570214070E+01 -0.43560362621E+01  0.29041444242E+02  0.51100000000E-03 0. -1.
        -11    1    3    3    0    0  0.13328887769E+02  0.97594487903E+01 -0.74410234839E+01  0.18118358662E+02  0.51100000000E-03 0.  1.
         12    1    3    3    0    0  0.95841677261E+01  0.22891716038E+01  0.23304189348E+02  0.25301814536E+02  0.00000000000E+00 0. -1.
</event>
<event>
 7    1  0.1375918E-013  0.7246127E+02  0.7816164E-02  0.1226709E+00
        -11   -1    0    0    0    0  0.00000000000E+00  0.00000000000E+00  0.45593999997E+02  0.45594000000E+02  0.51100000000E-03 0.  1.
         11   -1    0    0    0    0 -0.00000000000E+00 -0.00000000000E+00 -0.45593999997E+02  0.45594000000E+02  0.51100000000E-03 0. -1.
    9900012    2    1    2    0    0 -0.22654627694E+01  0.18535757404E+02  0.14085082846E+01  0.72461267244E+02  0.69999605220E+02 0.  0.
         12    1    1    2    0    0  0.22654627694E+01 -0.18535757404E+02 -0.14085082846E+01  0.18726732756E+02  0.00000000000E+00 0. -1.
         11    1    3    3    0    0  0.70732165912E+01 -0.34895964542E+00 -0.26603078791E+02  0.27529547167E+02  0.51100000000E-03 0. -1.
        -11    1    3    3    0    0  0.64394928261E+00 -0.36177995890E+01  0.17975332613E+02  0.18347090433E+02  0.51100000000E-03 0.  1.
         12    1    3    3    0    0 -0.99826286432E+01  0.22502516639E+02  0.10036254462E+02  0.26584629645E+02  0.00000000000E+00 0. -1.
</event>
<event>
 7    1  0.1375918E-013  0.7246138E+02  0.7816164E-02  0.1226709E+00
        -11   -1    0    0    0    0  0.00000000000E+00  0.00000000000E+00  0.45593999997E+02  0.45594000000E+02  0.51100000000E-03 0.  1.
         11   -1    0    0    0    0 -0.00000000000E+00 -0.00000000000E+00 -0.45593999997E+02  0.45594000000E+02  0.51100000000E-03 0. -1.
    9900012    2    1    2    0    0 -0.16032028034E+02  0.85393461327E+01  0.45541187455E+01  0.72461378500E+02  0.69999750152E+02 0.  0.
         12    1    1    2    0    0  0.16032028034E+02 -0.85393461327E+01 -0.45541187455E+01  0.18726621500E+02  0.00000000000E+00 0. -1.
         11    1    3    3    0    0  0.15906071524E+02  0.22959413193E+02  0.99299143682E+01  0.29643565324E+02  0.51100000000E-03 0. -1.
        -11    1    3    3    0    0 -0.12365235452E+02 -0.98066062197E+01 -0.13848622072E+02  0.20996497491E+02  0.51100000000E-03 0.  1.
        -12    1    3    3    0    0 -0.19572864105E+02 -0.46134608402E+01  0.84728264494E+01  0.21821315685E+02  0.00000000000E+00 0.  1.
</event>
<event>
 7    1  0.1375918E-013  0.7246156E+02  0.7816164E-02  0.1226708E+00
        -11   -1    0    0    0    0  0.00000000000E+00  0.00000000000E+00  0.45593999997E+02  0.45594000000E+02  0.51100000000E-03 0.  1.
         11   -1    0    0    0    0 -0.00000000000E+00 -0.00000000000E+00 -0.45593999997E+02  0.45594000000E+02  0.51100000000E-03 0. -1.
    9900012    2    1    2    0    0 -0.17713574089E+02 -0.10253361206E+01  0.59881074969E+01  0.72461562737E+02  0.69999990155E+02 0.  0.
         12    1    1    2    0    0  0.17713574089E+02  0.10253361206E+01 -0.59881074969E+01  0.18726437263E+02  0.00000000000E+00 0. -1.
         11    1    3    3    0    0 -0.25761705777E+02  0.17068389695E+02 -0.14247808614E+02  0.34029332376E+02  0.51100000000E-03 0. -1.
        -11    1    3    3    0    0 -0.43835923913E+01 -0.11478097214E+02  0.20998717947E+02  0.24329174947E+02  0.51100000000E-03 0.  1.
        -12    1    3    3    0    0  0.12431724080E+02 -0.66156286020E+01 -0.76280183581E+00  0.14103055415E+02  0.00000000000E+00 0.  1.
</event>
<event>
 7    1  0.1375918E-013  0.7246152E+02  0.7816164E-02  0.1226708E+00
        -11   -1    0    0    0    0  0.00000000000E+00  0.00000000000E+00  0.45593999997E+02  0.45594000000E+02  0.51100000000E-03 0.  1.
         11   -1    0    0    0    0 -0.00000000000E+00 -0.00000000000E+00 -0.45593999997E+02  0.45594000000E+02  0.51100000000E-03 0. -1.
    9900012    2    1    2    0    0 -0.16779555416E+02  0.24979364494E+01 -0.79301791792E+01  0.72461523869E+02  0.69999939523E+02 0.  0.
         12    1    1    2    0    0  0.16779555416E+02 -0.24979364494E+01  0.79301791792E+01  0.18726476131E+02  0.00000000000E+00 0. -1.
         11    1    3    3    0    0  0.24570616298E+02  0.12526924235E+01  0.68495859883E+00  0.24612061924E+02  0.51100000000E-03 0. -1.
        -11    1    3    3    0    0 -0.40462204065E+02  0.55121858830E+01 -0.32901486345E+01  0.40968271007E+02  0.51100000000E-03 0.  1.
        -12    1    3    3    0    0 -0.88796764891E+00 -0.42669418571E+01 -0.53249891436E+01  0.68811909388E+01  0.00000000000E+00 0.  1.
</event>
<event>
 7    1  0.1375918E-013  0.7246152E+02  0.7816164E-02  0.1226708E+00
        -11   -1    0    0    0    0  0.00000000000E+00  0.00000000000E+00  0.45593999997E+02  0.45594000000E+02  0.51100000000E-03 0.  1.
         11   -1    0    0    0    0 -0.00000000000E+00 -0.00000000000E+00 -0.45593999997E+02  0.45594000000E+02  0.51100000000E-03 0. -1.
    9900012    2    1    2    0    0 -0.16305358931E+00  0.31724021058E+01 -0.18455090425E+02  0.72461519172E+02  0.69999933404E+02 0.  0.
         12    1    1    2    0    0  0.16305358931E+00 -0.31724021058E+01  0.18455090425E+02  0.18726480828E+02  0.00000000000E+00 0. -1.
         11    1    3    3    0    0 -0.14635726028E+02 -0.88176872203E+01 -0.59082193720E+01  0.18079356756E+02  0.51100000000E-03 0. -1.
        -11    1    3    3    0    0  0.27132591225E+02  0.21744761495E+02 -0.15601774319E+02  0.38110727115E+02  0.51100000000E-03 0.  1.
        -12    1    3    3    0    0 -0.12659918786E+02 -0.97546721693E+01  0.30549032654E+01  0.16271435301E+02  0.00000000000E+00 0.  1.
</event>
<event>
 8    1  0.1375918E-013  0.7246151E+02  0.7816164E-02  0.1226708E+00
        -11   -1    0    0    0    0  0.00000000000E+00  0.00000000000E+00  0.45593999997E+02  0.45594000000E+02  0.51100000000E-03 0.  1.
         11   -1    0    0    0    0 -0.00000000000E+00 -0.00000000000E+00 -0.45593999997E+02  0.45594000000E+02  0.51100000000E-03 0. -1.
    9900012    2    1    2    0    0  0.17221851230E+02 -0.70247686806E+01  0.21776159774E+01  0.72461506837E+02  0.69999917336E+02 0.  0.
         24    2    3    3    0    0  0.71498185560E+01 -0.20271040048E+02  0.15215831750E+01  0.55807980886E+02  0.51479904285E+02 0.  0.
         12    1    1    2    0    0 -0.17221851230E+02  0.70247686806E+01 -0.21776159774E+01  0.18726493163E+02  0.00000000000E+00 0. -1.
         11    1    3    3    0    0  0.10072032675E+02  0.13246271367E+02  0.65603280243E+00  0.16653525952E+02  0.51100000000E-03 0. -1.
        -11    1    4    4    0    0  0.44790039553E+00 -0.26431609990E+02  0.21356232244E+02  0.33984103303E+02  0.51100000000E-03 0.  1.
         12    1    4    4    0    0  0.67019181604E+01  0.61605699424E+01 -0.19834649069E+02  0.21823877582E+02  0.00000000000E+00 0. -1.
</event>
<event>
 7    1  0.1375918E-013  0.7246158E+02  0.7816164E-02  0.1226708E+00
        -11   -1    0    0    0    0  0.00000000000E+00  0.00000000000E+00  0.45593999997E+02  0.45594000000E+02  0.51100000000E-03 0. -1.
         11   -1    0    0    0    0 -0.00000000000E+00 -0.00000000000E+00 -0.45593999997E+02  0.45594000000E+02  0.51100000000E-03 0.  1.
    9900012    2    1    2    0    0  0.13784934406E+02 -0.47077775898E+01 -0.11768230834E+02  0.72461579003E+02  0.70000011345E+02 0.  0.
         12    1    1    2    0    0 -0.13784934406E+02  0.47077775898E+01  0.11768230834E+02  0.18726420997E+02  0.00000000000E+00 0. -1.
         11    1    3    3    0    0 -0.23421433994E+01  0.14616033235E+02 -0.29069269453E+01  0.15085234097E+02  0.51100000000E-03 0. -1.
        -11    1    3    3    0    0  0.28847004178E+02 -0.55466564921E+01  0.97555769371E+01  0.30952969646E+02  0.51100000000E-03 0.  1.
        -12    1    3    3    0    0 -0.12719926373E+02 -0.13777154333E+02 -0.18616880826E+02  0.26423375260E+02  0.00000000000E+00 0.  1.
</event>
<event>
 7    1  0.1375918E-013  0.7246156E+02  0.7816164E-02  0.1226708E+00
        -11   -1    0    0    0    0  0.00000000000E+00  0.00000000000E+00  0.45593999997E+02  0.45594000000E+02  0.51100000000E-03 0. -1.
         11   -1    0    0    0    0 -0.00000000000E+00 -0.00000000000E+00 -0.45593999997E+02  0.45594000000E+02  0.51100000000E-03 0.  1.
    9900012    2    1    2    0    0  0.36555111142E+01  0.49728804549E+01 -0.17680134072E+02  0.72461563011E+02  0.69999990512E+02 0.  0.
         12    1    1    2    0    0 -0.36555111142E+01 -0.49728804549E+01  0.17680134072E+02  0.18726436989E+02  0.00000000000E+00 0. -1.
         11    1    3    3    0    0  0.33915366908E+02  0.23606458057E+01 -0.10973088255E+02  0.35724409404E+02  0.51100000000E-03 0.  1.
        -11    1    3    3    0    0 -0.21432114898E+02 -0.50597814039E+01  0.20642685809E+01  0.22117824076E+02  0.51100000000E-03 0. -1.
        -12    1    3    3    0    0 -0.88277408967E+01  0.76720160532E+01 -0.87713143971E+01  0.14619329530E+02  0.00000000000E+00 0.  1.
</event>
<event>
 7    1  0.1375918E-013  0.7246158E+02  0.7816164E-02  0.1226708E+00
        -11   -1    0    0    0    0  0.00000000000E+00  0.00000000000E+00  0.45593999997E+02  0.45594000000E+02  0.51100000000E-03 0.  1.
         11   -1    0    0    0    0 -0.00000000000E+00 -0.00000000000E+00 -0.45593999997E+02  0.45594000000E+02  0.51100000000E-03 0. -1.
    9900012    2    1    2    0    0  0.35614625968E+01  0.15729257812E+02  0.95176353754E+01  0.72461576148E+02  0.70000007625E+02 0.  0.
         12    1    1    2    0    0 -0.35614625968E+01 -0.15729257812E+02 -0.95176353754E+01  0.18726423852E+02  0.00000000000E+00 0. -1.
         11    1    3    3    0    0  0.21595620077E+02  0.48770528477E+01 -0.15604769989E+02  0.27086256620E+02  0.51100000000E-03 0.  1.
        -11    1    3    3    0    0 -0.20346216663E+02  0.19691042444E+02  0.16281219708E+02  0.32661656426E+02  0.51100000000E-03 0. -1.
        -12    1    3    3    0    0  0.23120591827E+01 -0.88388374797E+01  0.88411856568E+01  0.12713663102E+02  0.00000000000E+00 0.  1.
</event>
<event>
 7    1  0.1375918E-013  0.7246156E+02  0.7816164E-02  0.1226708E+00
        -11   -1    0    0    0    0  0.00000000000E+00  0.00000000000E+00  0.45593999997E+02  0.45594000000E+02  0.51100000000E-03 0. -1.
         11   -1    0    0    0    0 -0.00000000000E+00 -0.00000000000E+00 -0.45593999997E+02  0.45594000000E+02  0.51100000000E-03 0.  1.
    9900012    2    1    2    0    0 -0.38005182764E+01  0.14131426773E+02 -0.11684960632E+02  0.72461562358E+02  0.69999989661E+02 0.  0.
         12    1    1    2    0    0  0.38005182764E+01 -0.14131426773E+02  0.11684960632E+02  0.18726437642E+02  0.00000000000E+00 0. -1.
         11    1    3    3    0    0 -0.11371252557E+02  0.14979053425E+02  0.14280859211E+02  0.23613986667E+02  0.51100000000E-03 0. -1.
        -11    1    3    3    0    0  0.13183650133E+01 -0.19797188655E+02 -0.19632071509E+02  0.27912094098E+02  0.51100000000E-03 0.  1.
         12    1    3    3    0    0  0.62523692672E+01  0.18949562003E+02 -0.63337483339E+01  0.20935481593E+02  0.00000000000E+00 0. -1.
</event>
<event>
 7    1  0.1375918E-013  0.7246165E+02  0.7816164E-02  0.1226708E+00
        -11   -1    0    0    0    0  0.00000000000E+00  0.00000000000E+00  0.45593999997E+02  0.45594000000E+02  0.51100000000E-03 0. -1.
         11   -1    0    0    0    0 -0.00000000000E+00 -0.00000000000E+00 -0.45593999997E+02  0.45594000000E+02  0.51100000000E-03 0.  1.
    9900012    2    1    2    0    0  0.16390752606E+02  0.62995762946E+01  0.65065232060E+01  0.72461647533E+02  0.70000100618E+02 0.  0.
         12    1    1    2    0    0 -0.16390752606E+02 -0.62995762946E+01 -0.65065232060E+01  0.18726352467E+02  0.00000000000E+00 0. -1.
         11    1    3    3    0    0 -0.12787100071E+02 -0.62237400840E+01 -0.17430829929E+02  0.22496193036E+02  0.51100000000E-03 0. -1.
        -11    1    3    3    0    0  0.29703628749E+02  0.37948487266E+01  0.27372682616E+02  0.40570558187E+02  0.51100000000E-03 0.  1.
        -12    1    3    3    0    0 -0.52577607202E+00  0.87284676520E+01 -0.34353294818E+01  0.93948963102E+01  0.00000000000E+00 0.  1.
</event>
<event>
 7    1  0.1375918E-013  0.7246157E+02  0.7816164E-02  0.1226708E+00
        -11   -1    0    0    0    0  0.00000000000E+00  0.00000000000E+00  0.45593999997E+02  0.45594000000E+02  0.51100000000E-03 0. -1.
         11   -1    0    0    0    0 -0.00000000000E+00 -0.00000000000E+00 -0.45593999997E+02  0.45594000000E+02  0.51100000000E-03 0.  1.
    9900012    2    1    2    0    0  0.12295463136E+02  0.10413705860E+02  0.95423030105E+01  0.72461568674E+02  0.69999997889E+02 0.  0.
         12    1    1    2    0    0 -0.12295463136E+02 -0.10413705860E+02 -0.95423030105E+01  0.18726431326E+02  0.00000000000E+00 0. -1.
         11    1    3    3    0    0  0.78170840596E+00  0.18139303271E+02 -0.41744431571E+00  0.18160937509E+02  0.51100000000E-03 0. -1.
        -11    1    3    3    0    0  0.53538282821E+01 -0.22371218542E+02 -0.12967472058E+02  0.26406253580E+02  0.51100000000E-03 0.  1.
        -12    1    3    3    0    0  0.61599264478E+01  0.14645621131E+02  0.22927219384E+02  0.27894377584E+02  0.00000000000E+00 0.  1.
</event>
<event>
 7    1  0.1375918E-013  0.7246158E+02  0.7816164E-02  0.1226708E+00
        -11   -1    0    0    0    0  0.00000000000E+00  0.00000000000E+00  0.45593999997E+02  0.45594000000E+02  0.51100000000E-03 0.  1.
         11   -1    0    0    0    0 -0.00000000000E+00 -0.00000000000E+00 -0.45593999997E+02  0.45594000000E+02  0.51100000000E-03 0. -1.
    9900012    2    1    2    0    0 -0.11408036138E+02  0.14816750838E+02 -0.99966896018E+00  0.72461581978E+02  0.70000015220E+02 0.  0.
         12    1    1    2    0    0  0.11408036138E+02 -0.14816750838E+02  0.99966896018E+00  0.18726418022E+02  0.00000000000E+00 0. -1.
         11    1    3    3    0    0 -0.33362249872E+02  0.22738553911E+02 -0.12425756001E+02  0.42243117345E+02  0.51100000000E-03 0. -1.
        -11    1    3    3    0    0  0.61936204560E+01 -0.98462742147E+01  0.21487055811E+01  0.11829073768E+02  0.51100000000E-03 0.  1.
         12    1    3    3    0    0  0.15760593278E+02  0.19244711409E+01  0.92773814601E+01  0.18389390866E+02  0.00000000000E+00 0. -1.
</event>
<event>
 7    1  0.1375918E-013  0.7246159E+02  0.7816164E-02  0.1226708E+00
        -11   -1    0    0    0    0  0.00000000000E+00  0.00000000000E+00  0.45593999997E+02  0.45594000000E+02  0.51100000000E-03 0. -1.
         11   -1    0    0    0    0 -0.00000000000E+00 -0.00000000000E+00 -0.45593999997E+02  0.45594000000E+02  0.51100000000E-03 0.  1.
    9900012    2    1    2    0    0  0.11900797711E+02 -0.16917802119E+01 -0.14359230901E+02  0.72461585006E+02  0.70000019165E+02 0.  0.
         12    1    1    2    0    0 -0.11900797711E+02  0.16917802119E+01  0.14359230901E+02  0.18726414994E+02  0.00000000000E+00 0. -1.
         11    1    3    3    0    0 -0.33203738629E+01 -0.77452107414E+00  0.13647858121E+02  0.14067295300E+02  0.51100000000E-03 0. -1.
        -11    1    3    3    0    0  0.31780762855E+02  0.46737727671E+01 -0.24897869222E+02  0.40641911023E+02  0.51100000000E-03 0.  1.
        -12    1    3    3    0    0 -0.16559591281E+02 -0.55910319049E+01 -0.31092198007E+01  0.17752378684E+02  0.00000000000E+00 0.  1.
</event>
<event>
 7    1  0.1375918E-013  0.7246159E+02  0.7816164E-02  0.1226708E+00
        -11   -1    0    0    0    0  0.00000000000E+00  0.00000000000E+00  0.45593999997E+02  0.45594000000E+02  0.51100000000E-03 0.  1.
         11   -1    0    0    0    0 -0.00000000000E+00 -0.00000000000E+00 -0.45593999997E+02  0.45594000000E+02  0.51100000000E-03 0. -1.
    9900012    2    1    2    0    0  0.60142415925E+01  0.16974814367E+02 -0.51344771661E+01  0.72461594032E+02  0.70000030923E+02 0.  0.
         12    1    1    2    0    0 -0.60142415925E+01 -0.16974814367E+02  0.51344771661E+01  0.18726405968E+02  0.00000000000E+00 0. -1.
         11    1    3    3    0    0 -0.21023052895E+01 -0.11777626737E+01 -0.18448580337E+02  0.18605293041E+02  0.51100000000E-03 0. -1.
        -11    1    3    3    0    0  0.24235016232E+02  0.24250048450E+02  0.47474548941E+01  0.34611258137E+02  0.51100000000E-03 0.  1.
        -12    1    3    3    0    0 -0.16118469350E+02 -0.60974714099E+01  0.85666482763E+01  0.19245042854E+02  0.00000000000E+00 0.  1.
</event>
<event>
 7    1  0.1375918E-013  0.7246169E+02  0.7816164E-02  0.1226708E+00
        -11   -1    0    0    0    0  0.00000000000E+00  0.00000000000E+00  0.45593999997E+02  0.45594000000E+02  0.51100000000E-03 0. -1.
         11   -1    0    0    0    0 -0.00000000000E+00 -0.00000000000E+00 -0.45593999997E+02  0.45594000000E+02  0.51100000000E-03 0.  1.
    9900012    2    1    2    0    0 -0.50730712147E+01 -0.16810073653E+02  0.65084565110E+01  0.72461691396E+02  0.70000157758E+02 0.  0.
         12    1    1    2    0    0  0.50730712147E+01  0.16810073653E+02 -0.65084565110E+01  0.18726308604E+02  0.00000000000E+00 0. -1.
         11    1    3    3    0    0 -0.22530157931E+02  0.80988991578E+01 -0.57977916144E+01  0.24633606554E+02  0.51100000000E-03 0.  1.
        -11    1    3    3    0    0  0.19989389197E+02 -0.31743281595E+02  0.56088225248E+01  0.37929810140E+02  0.51100000000E-03 0. -1.
         12    1    3    3    0    0 -0.25323024806E+01  0.68343087839E+01  0.66974256007E+01  0.98982747024E+01  0.00000000000E+00 0. -1.
</event>
<event>
 7    1  0.1375918E-013  0.7246154E+02  0.7816164E-02  0.1226708E+00
        -11   -1    0    0    0    0  0.00000000000E+00  0.00000000000E+00  0.45593999997E+02  0.45594000000E+02  0.51100000000E-03 0. -1.
         11   -1    0    0    0    0 -0.00000000000E+00 -0.00000000000E+00 -0.45593999997E+02  0.45594000000E+02  0.51100000000E-03 0.  1.
    9900012    2    1    2    0    0 -0.33658645418E+01 -0.15591921155E+02 -0.98103661955E+01  0.72461539194E+02  0.69999959486E+02 0.  0.
         12    1    1    2    0    0  0.33658645418E+01  0.15591921155E+02  0.98103661955E+01  0.18726460806E+02  0.00000000000E+00 0. -1.
         11    1    3    3    0    0 -0.77943377248E+01  0.74963728407E+01  0.20429488521E+02  0.23115174839E+02  0.51100000000E-03 0. -1.
        -11    1    3    3    0    0  0.88246409607E+01 -0.23973055369E+01 -0.26280697922E+02  0.27826182732E+02  0.51100000000E-03 0.  1.
         12    1    3    3    0    0 -0.43961677776E+01 -0.20690988459E+02 -0.39591567950E+01  0.21520181623E+02  0.00000000000E+00 0. -1.
</event>
<event>
 8    1  0.1375918E-013  0.7246160E+02  0.7816164E-02  0.1226708E+00
        -11   -1    0    0    0    0  0.00000000000E+00  0.00000000000E+00  0.45593999997E+02  0.45594000000E+02  0.51100000000E-03 0.  1.
         11   -1    0    0    0    0 -0.00000000000E+00 -0.00000000000E+00 -0.45593999997E+02  0.45594000000E+02  0.51100000000E-03 0. -1.
    9900012    2    1    2    0    0  0.18941547620E+01 -0.15399005311E+02  0.10486229945E+02  0.72461596040E+02  0.70000033538E+02 0.  0.
        -24    2    3    3    0    0  0.59530722913E+01 -0.27876051725E+02  0.10590125708E+02  0.59340533075E+02  0.50957185692E+02 0.  0.
         12    1    1    2    0    0 -0.18941547620E+01  0.15399005311E+02 -0.10486229945E+02  0.18726403960E+02  0.00000000000E+00 0. -1.
         11    1    4    4    0    0  0.13673344323E+02 -0.39279470882E+02 -0.60095162702E+00  0.41595652668E+02  0.51100000000E-03 0.  1.
        -11    1    3    3    0    0 -0.40589175293E+01  0.12477046414E+02 -0.10389576342E+00  0.13121062965E+02  0.51100000000E-03 0. -1.
        -12    1    4    4    0    0 -0.77202720316E+01  0.11403419158E+02  0.11191077335E+02  0.17744880407E+02  0.00000000000E+00 0.  1.
</event>
<event>
 7    1  0.1375918E-013  0.7246160E+02  0.7816164E-02  0.1226708E+00
        -11   -1    0    0    0    0  0.00000000000E+00  0.00000000000E+00  0.45593999997E+02  0.45594000000E+02  0.51100000000E-03 0. -1.
         11   -1    0    0    0    0 -0.00000000000E+00 -0.00000000000E+00 -0.45593999997E+02  0.45594000000E+02  0.51100000000E-03 0.  1.
    9900012    2    1    2    0    0 -0.17983373115E+02  0.19329460736E+01 -0.48518034651E+01  0.72461601895E+02  0.70000041166E+02 0.  0.
         12    1    1    2    0    0  0.17983373115E+02 -0.19329460736E+01  0.48518034651E+01  0.18726398105E+02  0.00000000000E+00 0. -1.
         11    1    3    3    0    0 -0.29673170257E+02 -0.16464720111E+01 -0.23958600619E+01  0.29815231826E+02  0.51100000000E-03 0. -1.
        -11    1    3    3    0    0  0.25477985167E+02  0.91358292413E+01  0.19638871247E+01  0.27137574633E+02  0.51100000000E-03 0.  1.
        -12    1    3    3    0    0 -0.13788188025E+02 -0.55564111566E+01 -0.44198305279E+01  0.15508795435E+02  0.00000000000E+00 0.  1.
</event>
<event>
 7    1  0.1375918E-013  0.7246156E+02  0.7816164E-02  0.1226708E+00
        -11   -1    0    0    0    0  0.00000000000E+00  0.00000000000E+00  0.45593999997E+02  0.45594000000E+02  0.51100000000E-03 0.  1.
         11   -1    0    0    0    0 -0.00000000000E+00 -0.00000000000E+00 -0.45593999997E+02  0.45594000000E+02  0.51100000000E-03 0. -1.
    9900012    2    1    2    0    0 -0.18241484170E+02  0.41824167582E+01  0.65955870044E+00  0.72461564879E+02  0.69999992945E+02 0.  0.
         12    1    1    2    0    0  0.18241484170E+02 -0.41824167582E+01 -0.65955870044E+00  0.18726435121E+02  0.00000000000E+00 0. -1.
         11    1    3    3    0    0 -0.36968282972E+02 -0.52216135193E+01 -0.63611075660E+01  0.37873247595E+02  0.51100000000E-03 0. -1.
        -11    1    3    3    0    0  0.17913406941E+02 -0.55168160701E+01  0.21248028625E+01  0.18863726971E+02  0.51100000000E-03 0.  1.
        -12    1    3    3    0    0  0.81339186098E+00  0.14920846348E+02  0.48958634040E+01  0.15724590313E+02  0.00000000000E+00 0.  1.
</event>
<event>
 7    1  0.1375918E-013  0.7246157E+02  0.7816164E-02  0.1226708E+00
        -11   -1    0    0    0    0  0.00000000000E+00  0.00000000000E+00  0.45593999997E+02  0.45594000000E+02  0.51100000000E-03 0.  1.
         11   -1    0    0    0    0 -0.00000000000E+00 -0.00000000000E+00 -0.45593999997E+02  0.45594000000E+02  0.51100000000E-03 0. -1.
    9900012    2    1    2    0    0  0.56357883527E+01 -0.42886065534E+01  0.17335659789E+02  0.72461565293E+02  0.69999993484E+02 0.  0.
         12    1    1    2    0    0 -0.56357883527E+01  0.42886065534E+01 -0.17335659789E+02  0.18726434707E+02  0.00000000000E+00 0. -1.
         11    1    3    3    0    0 -0.39573196576E+01  0.16566246072E+02 -0.78017311125E+01  0.18734137194E+02  0.51100000000E-03 0. -1.
        -11    1    3    3    0    0  0.24102101040E+02 -0.16615042174E+02  0.69670789611E+01  0.30091711325E+02  0.51100000000E-03 0.  1.
         12    1    3    3    0    0 -0.14508993029E+02 -0.42398104508E+01  0.18170311940E+02  0.23635716774E+02  0.00000000000E+00 0. -1.
</event>
<event>
 7    1  0.1375918E-013  0.7246156E+02  0.7816164E-02  0.1226708E+00
        -11   -1    0    0    0    0  0.00000000000E+00  0.00000000000E+00  0.45593999997E+02  0.45594000000E+02  0.51100000000E-03 0. -1.
         11   -1    0    0    0    0 -0.00000000000E+00 -0.00000000000E+00 -0.45593999997E+02  0.45594000000E+02  0.51100000000E-03 0.  1.
    9900012    2    1    2    0    0 -0.18719395781E+02 -0.50068449448E+00  0.11445595213E+00  0.72461559774E+02  0.69999986295E+02 0.  0.
         12    1    1    2    0    0  0.18719395781E+02  0.50068449448E+00 -0.11445595213E+00  0.18726440226E+02  0.00000000000E+00 0. -1.
         11    1    3    3    0    0 -0.22057923823E+02  0.58236533968E+01 -0.22756357079E+02  0.32222953465E+02  0.51100000000E-03 0. -1.
        -11    1    3    3    0    0  0.89849031403E+01  0.10872308892E+02  0.54611256363E+01  0.15124796810E+02  0.51100000000E-03 0.  1.
         12    1    3    3    0    0 -0.56463750989E+01 -0.17196646783E+02  0.17409687395E+02  0.25113809498E+02  0.00000000000E+00 0. -1.
</event>
<event>
 7    1  0.1375918E-013  0.7246156E+02  0.7816164E-02  0.1226708E+00
        -11   -1    0    0    0    0  0.00000000000E+00  0.00000000000E+00  0.45593999997E+02  0.45594000000E+02  0.51100000000E-03 0. -1.
         11   -1    0    0    0    0 -0.00000000000E+00 -0.00000000000E+00 -0.45593999997E+02  0.45594000000E+02  0.51100000000E-03 0.  1.
    9900012    2    1    2    0    0  0.61035520881E+01 -0.11304453796E+02 -0.13624814041E+02  0.72461559298E+02  0.69999985675E+02 0.  0.
         12    1    1    2    0    0 -0.61035520881E+01  0.11304453796E+02  0.13624814041E+02  0.18726440702E+02  0.00000000000E+00 0. -1.
         11    1    3    3    0    0  0.17870586664E+02  0.14048043089E+02  0.59872725749E+01  0.23506442000E+02  0.51100000000E-03 0. -1.
        -11    1    3    3    0    0 -0.58788798364E+01 -0.33697803267E+02 -0.17873045223E+02  0.38594674748E+02  0.51100000000E-03 0.  1.
         12    1    3    3    0    0 -0.58881547399E+01  0.83453063820E+01 -0.17390413930E+01  0.10360442549E+02  0.00000000000E+00 0. -1.
</event>
<event>
 8    1  0.1375918E-013  0.7246159E+02  0.7816164E-02  0.1226708E+00
        -11   -1    0    0    0    0  0.00000000000E+00  0.00000000000E+00  0.45593999997E+02  0.45594000000E+02  0.51100000000E-03 0. -1.
         11   -1    0    0    0    0 -0.00000000000E+00 -0.00000000000E+00 -0.45593999997E+02  0.45594000000E+02  0.51100000000E-03 0.  1.
    9900012    2    1    2    0    0  0.97371541530E+01 -0.13587427132E+02  0.84408655554E+01  0.72461586612E+02  0.70000021256E+02 0.  0.
         24    2    3    3    0    0  0.12029721900E+02 -0.24849910068E+02  0.54908144185E+01  0.60595576721E+02  0.53660438275E+02 0.  0.
         12    1    1    2    0    0 -0.97371541530E+01  0.13587427132E+02 -0.84408655554E+01  0.18726413388E+02  0.00000000000E+00 0. -1.
         11    1    3    3    0    0 -0.22925677465E+01  0.11262482935E+02  0.29500511369E+01  0.11866009890E+02  0.51100000000E-03 0. -1.
        -11    1    4    4    0    0 -0.11816649677E+01 -0.39956439199E+02  0.78003629009E+00  0.39981518510E+02  0.51100000000E-03 0.  1.
         12    1    4    4    0    0  0.13211386867E+02  0.15106529131E+02  0.47107781284E+01  0.20614058211E+02  0.00000000000E+00 0. -1.
</event>
<event>
 7    1  0.1375918E-013  0.7246163E+02  0.7816164E-02  0.1226708E+00
        -11   -1    0    0    0    0  0.00000000000E+00  0.00000000000E+00  0.45593999997E+02  0.45594000000E+02  0.51100000000E-03 0.  1.
         11   -1    0    0    0    0 -0.00000000000E+00 -0.00000000000E+00 -0.45593999997E+02  0.45594000000E+02  0.51100000000E-03 0. -1.
    9900012    2    1    2    0    0  0.16668300765E+00 -0.23182148669E+01  0.18581582312E+02  0.72461625428E+02  0.70000071821E+02 0.  0.
         12    1    1    2    0    0 -0.16668300765E+00  0.23182148669E+01 -0.18581582312E+02  0.18726374572E+02  0.00000000000E+00 0. -1.
         11    1    3    3    0    0 -0.18147042093E+02  0.54021571140E+01  0.34168693644E+02  0.39064025187E+02  0.51100000000E-03 0. -1.
        -11    1    3    3    0    0  0.45228472713E+01 -0.13678581209E+02 -0.62101443980E+01  0.15688391410E+02  0.51100000000E-03 0.  1.
         12    1    3    3    0    0  0.13790877829E+02  0.59582092281E+01 -0.93769669339E+01  0.17709208830E+02  0.00000000000E+00 0. -1.
</event>
<event>
 7    1  0.1375918E-013  0.7246154E+02  0.7816164E-02  0.1226708E+00
        -11   -1    0    0    0    0  0.00000000000E+00  0.00000000000E+00  0.45593999997E+02  0.45594000000E+02  0.51100000000E-03 0. -1.
         11   -1    0    0    0    0 -0.00000000000E+00 -0.00000000000E+00 -0.45593999997E+02  0.45594000000E+02  0.51100000000E-03 0.  1.
    9900012    2    1    2    0    0  0.16177776381E+02 -0.32225965883E+01  0.88642471061E+01  0.72461535994E+02  0.69999955317E+02 0.  0.
         12    1    1    2    0    0 -0.16177776381E+02  0.32225965883E+01 -0.88642471061E+01  0.18726464006E+02  0.00000000000E+00 0. -1.
         11    1    3    3    0    0 -0.24199934736E+02 -0.21327795548E+01  0.72563836588E+01  0.25354303263E+02  0.51100000000E-03 0. -1.
        -11    1    3    3    0    0  0.41901992044E+02 -0.17499592416E+01 -0.31608808345E+01  0.42057466192E+02  0.51100000000E-03 0.  1.
        -12    1    3    3    0    0 -0.15242809260E+01  0.66014220807E+00  0.47687442818E+01  0.50497665393E+01  0.00000000000E+00 0.  1.
</event>
<event>
 7    1  0.1375918E-013  0.7246166E+02  0.7816164E-02  0.1226708E+00
        -11   -1    0    0    0    0  0.00000000000E+00  0.00000000000E+00  0.45593999997E+02  0.45594000000E+02  0.51100000000E-03 0.  1.
         11   -1    0    0    0    0 -0.00000000000E+00 -0.00000000000E+00 -0.45593999997E+02  0.45594000000E+02  0.51100000000E-03 0. -1.
    9900012    2    1    2    0    0 -0.61498040528E+01  0.48987872598E+01  0.16995807873E+02  0.72461663151E+02  0.70000120963E+02 0.  0.
         12    1    1    2    0    0  0.61498040528E+01 -0.48987872598E+01 -0.16995807873E+02  0.18726336849E+02  0.00000000000E+00 0. -1.
         11    1    3    3    0    0 -0.23674539263E+02  0.11010624589E+02 -0.37661693480E+01  0.26379948729E+02  0.51100000000E-03 0. -1.
        -11    1    3    3    0    0  0.14696190236E+02  0.49922035936E+01  0.28362440731E+02  0.32331534894E+02  0.51100000000E-03 0.  1.
        -12    1    3    3    0    0  0.28285449739E+01 -0.11104040923E+02 -0.76004635093E+01  0.13750179527E+02  0.00000000000E+00 0.  1.
</event>
<event>
 7    1  0.1375918E-013  0.7246161E+02  0.7816164E-02  0.1226708E+00
        -11   -1    0    0    0    0  0.00000000000E+00  0.00000000000E+00  0.45593999997E+02  0.45594000000E+02  0.51100000000E-03 0.  1.
         11   -1    0    0    0    0 -0.00000000000E+00 -0.00000000000E+00 -0.45593999997E+02  0.45594000000E+02  0.51100000000E-03 0. -1.
    9900012    2    1    2    0    0  0.13024975058E+02  0.52251413805E+01 -0.12398607618E+02  0.72461613574E+02  0.70000056379E+02 0.  0.
         12    1    1    2    0    0 -0.13024975058E+02 -0.52251413805E+01  0.12398607618E+02  0.18726386426E+02  0.00000000000E+00 0. -1.
         11    1    3    3    0    0 -0.11555108208E+02  0.24916497338E+02 -0.92387577477E+01  0.28977698499E+02  0.51100000000E-03 0. -1.
        -11    1    3    3    0    0  0.23969825853E+02 -0.20955467622E+02 -0.12377702042E+02  0.34159796293E+02  0.51100000000E-03 0.  1.
         12    1    3    3    0    0  0.61025741336E+00  0.12641116649E+01  0.92178521709E+01  0.93241187818E+01  0.00000000000E+00 0. -1.
</event>
<event>
 7    1  0.1375918E-013  0.7246145E+02  0.7816164E-02  0.1226708E+00
        -11   -1    0    0    0    0  0.00000000000E+00  0.00000000000E+00  0.45593999997E+02  0.45594000000E+02  0.51100000000E-03 0. -1.
         11   -1    0    0    0    0 -0.00000000000E+00 -0.00000000000E+00 -0.45593999997E+02  0.45594000000E+02  0.51100000000E-03 0.  1.
    9900012    2    1    2    0    0  0.17320288479E+02  0.70856558346E+01  0.69615994512E+00  0.72461453327E+02  0.69999847628E+02 0.  0.
         12    1    1    2    0    0 -0.17320288479E+02 -0.70856558346E+01 -0.69615994512E+00  0.18726546673E+02  0.00000000000E+00 0. -1.
         11    1    3    3    0    0  0.26054098148E+02  0.14494442955E+02 -0.16865206795E+02  0.34254052423E+02  0.51100000000E-03 0.  1.
        -11    1    3    3    0    0 -0.12850570521E+02  0.45373763888E+01  0.21070434172E+02  0.25093587700E+02  0.51100000000E-03 0. -1.
         12    1    3    3    0    0  0.41167608524E+01 -0.11946163510E+02 -0.35090674312E+01  0.13113813204E+02  0.00000000000E+00 0. -1.
</event>
<event>
 7    1  0.1375918E-013  0.7246112E+02  0.7816164E-02  0.1226709E+00
        -11   -1    0    0    0    0  0.00000000000E+00  0.00000000000E+00  0.45593999997E+02  0.45594000000E+02  0.51100000000E-03 0.  1.
         11   -1    0    0    0    0 -0.00000000000E+00 -0.00000000000E+00 -0.45593999997E+02  0.45594000000E+02  0.51100000000E-03 0. -1.
    9900012    2    1    2    0    0  0.99437222326E+01 -0.15720522659E+02 -0.21641306586E+01  0.72461123432E+02  0.69999417876E+02 0.  0.
         12    1    1    2    0    0 -0.99437222326E+01  0.15720522659E+02  0.21641306586E+01  0.18726876568E+02  0.00000000000E+00 0. -1.
         11    1    3    3    0    0  0.28962630414E+02 -0.26219318800E+02 -0.26658492799E+01  0.39158567280E+02  0.51100000000E-03 0. -1.
        -11    1    3    3    0    0 -0.18445913157E+02 -0.11081305465E+01  0.72658301803E+01  0.19856282481E+02  0.51100000000E-03 0.  1.
         12    1    3    3    0    0 -0.57299502407E+00  0.11606926688E+02 -0.67641115590E+01  0.13446273670E+02  0.00000000000E+00 0. -1.
</event>
<event>
 7    1  0.1375918E-013  0.7246162E+02  0.7816164E-02  0.1226708E+00
        -11   -1    0    0    0    0  0.00000000000E+00  0.00000000000E+00  0.45593999997E+02  0.45594000000E+02  0.51100000000E-03 0. -1.
         11   -1    0    0    0    0 -0.00000000000E+00 -0.00000000000E+00 -0.45593999997E+02  0.45594000000E+02  0.51100000000E-03 0.  1.
    9900012    2    1    2    0    0 -0.66641726603E+01  0.17492557656E+02 -0.52602816769E+00  0.72461615505E+02  0.70000058896E+02 0.  0.
         12    1    1    2    0    0  0.66641726603E+01 -0.17492557656E+02  0.52602816769E+00  0.18726384495E+02  0.00000000000E+00 0. -1.
         11    1    3    3    0    0 -0.22053128760E+02  0.29945701336E+02  0.10435231696E+02  0.38626151470E+02  0.51100000000E-03 0. -1.
        -11    1    3    3    0    0  0.19327937909E+02 -0.10073293501E+02  0.16386983936E+00  0.21796038157E+02  0.51100000000E-03 0.  1.
        -12    1    3    3    0    0 -0.39389818092E+01 -0.23798501787E+01 -0.11125129703E+02  0.12039425878E+02  0.00000000000E+00 0.  1.
</event>
<event>
 7    1  0.1375918E-013  0.7246156E+02  0.7816164E-02  0.1226708E+00
        -11   -1    0    0    0    0  0.00000000000E+00  0.00000000000E+00  0.45593999997E+02  0.45594000000E+02  0.51100000000E-03 0.  1.
         11   -1    0    0    0    0 -0.00000000000E+00 -0.00000000000E+00 -0.45593999997E+02  0.45594000000E+02  0.51100000000E-03 0. -1.
    9900012    2    1    2    0    0  0.68994994285E+01 -0.16324378676E+02 -0.60490443455E+01  0.72461564968E+02  0.69999993061E+02 0.  0.
         12    1    1    2    0    0 -0.68994994285E+01  0.16324378676E+02  0.60490443455E+01  0.18726435032E+02  0.00000000000E+00 0. -1.
         11    1    3    3    0    0 -0.15156300454E+01  0.26964869495E+01 -0.25585495432E+01  0.40142685921E+01  0.51100000000E-03 0. -1.
        -11    1    3    3    0    0  0.11624821536E+02 -0.35553479579E+02  0.17697856340E+02  0.41381161236E+02  0.51100000000E-03 0.  1.
        -12    1    3    3    0    0 -0.32096920620E+01  0.16532613954E+02 -0.21188351142E+02  0.27066135140E+02  0.00000000000E+00 0.  1.
</event>
<event>
 7    1  0.1375918E-013  0.7246157E+02  0.7816164E-02  0.1226708E+00
        -11   -1    0    0    0    0  0.00000000000E+00  0.00000000000E+00  0.45593999997E+02  0.45594000000E+02  0.51100000000E-03 0.  1.
         11   -1    0    0    0    0 -0.00000000000E+00 -0.00000000000E+00 -0.45593999997E+02  0.45594000000E+02  0.51100000000E-03 0. -1.
    9900012    2    1    2    0    0  0.16645324230E+02  0.82193245066E+01 -0.24607003834E+01  0.72461570537E+02  0.70000000316E+02 0.  0.
         12    1    1    2    0    0 -0.16645324230E+02 -0.82193245066E+01  0.24607003834E+01  0.18726429463E+02  0.00000000000E+00 0. -1.
         11    1    3    3    0    0 -0.63934193536E+01  0.25234605019E+01 -0.37500744453E-01  0.68735049649E+01  0.51100000000E-03 0.  1.
        -11    1    3    3    0    0  0.24962613513E+02  0.27520619939E+02  0.12360572821E+02  0.39157379329E+02  0.51100000000E-03 0. -1.
        -12    1    3    3    0    0 -0.19238699293E+01 -0.21824755934E+02 -0.14783772460E+02  0.26430686242E+02  0.00000000000E+00 0.  1.
</event>
<event>
 7    1  0.1375918E-013  0.7246158E+02  0.7816164E-02  0.1226708E+00
        -11   -1    0    0    0    0  0.00000000000E+00  0.00000000000E+00  0.45593999997E+02  0.45594000000E+02  0.51100000000E-03 0.  1.
         11   -1    0    0    0    0 -0.00000000000E+00 -0.00000000000E+00 -0.45593999997E+02  0.45594000000E+02  0.51100000000E-03 0. -1.
    9900012    2    1    2    0    0  0.48672903213E+01 -0.44474897602E+00  0.18077342467E+02  0.72461584769E+02  0.70000018856E+02 0.  0.
         12    1    1    2    0    0 -0.48672903213E+01  0.44474897602E+00 -0.18077342467E+02  0.18726415231E+02  0.00000000000E+00 0. -1.
         11    1    3    3    0    0  0.80536044081E+01  0.70534971516E+01 -0.46007908763E+00  0.10715597933E+02  0.51100000000E-03 0. -1.
        -11    1    3    3    0    0 -0.38042672634E+01 -0.30456021434E+02  0.22995174623E+02  0.38351267869E+02  0.51100000000E-03 0.  1.
        -12    1    3    3    0    0  0.61795317669E+00  0.22957775306E+02 -0.44577530682E+01  0.23394718967E+02  0.00000000000E+00 0.  1.
</event>
<event>
 7    1  0.1375918E-013  0.7246158E+02  0.7816164E-02  0.1226708E+00
        -11   -1    0    0    0    0  0.00000000000E+00  0.00000000000E+00  0.45593999997E+02  0.45594000000E+02  0.51100000000E-03 0.  1.
         11   -1    0    0    0    0 -0.00000000000E+00 -0.00000000000E+00 -0.45593999997E+02  0.45594000000E+02  0.51100000000E-03 0. -1.
    9900012    2    1    2    0    0  0.39810323813E+01  0.12677577462E+02  0.13195047821E+02  0.72461578128E+02  0.70000010205E+02 0.  0.
         12    1    1    2    0    0 -0.39810323813E+01 -0.12677577462E+02 -0.13195047821E+02  0.18726421872E+02  0.00000000000E+00 0. -1.
         11    1    3    3    0    0 -0.20595538796E+02  0.47798746604E+01 -0.18440389375E+02  0.28054792472E+02  0.51100000000E-03 0. -1.
        -11    1    3    3    0    0  0.16908617484E+01 -0.21588239406E+01  0.12844556444E+02  0.13134007948E+02  0.51100000000E-03 0.  1.
         12    1    3    3    0    0  0.22885709429E+02  0.10056526742E+02  0.18790880752E+02  0.31272777709E+02  0.00000000000E+00 0. -1.
</event>
<event>
 7    1  0.1375918E-013  0.7246153E+02  0.7816164E-02  0.1226708E+00
        -11   -1    0    0    0    0  0.00000000000E+00  0.00000000000E+00  0.45593999997E+02  0.45594000000E+02  0.51100000000E-03 0.  1.
         11   -1    0    0    0    0 -0.00000000000E+00 -0.00000000000E+00 -0.45593999997E+02  0.45594000000E+02  0.51100000000E-03 0. -1.
    9900012    2    1    2    0    0  0.12329768601E+02 -0.13792578723E+02 -0.29021286590E+01  0.72461527499E+02  0.69999944251E+02 0.  0.
         12    1    1    2    0    0 -0.12329768601E+02  0.13792578723E+02  0.29021286590E+01  0.18726472501E+02  0.00000000000E+00 0. -1.
         11    1    3    3    0    0 -0.14094685870E+02 -0.18172756844E+02  0.27146598896E+01  0.23157690723E+02  0.51100000000E-03 0. -1.
        -11    1    3    3    0    0  0.17705743552E+02  0.16011097755E+02  0.11791301193E+02  0.26624864133E+02  0.51100000000E-03 0.  1.
        -12    1    3    3    0    0  0.87187109193E+01 -0.11630919634E+02 -0.17408089742E+02  0.22678972642E+02  0.00000000000E+00 0.  1.
</event>
<event>
 7    1  0.1375918E-013  0.7246155E+02  0.7816164E-02  0.1226708E+00
        -11   -1    0    0    0    0  0.00000000000E+00  0.00000000000E+00  0.45593999997E+02  0.45594000000E+02  0.51100000000E-03 0.  1.
         11   -1    0    0    0    0 -0.00000000000E+00 -0.00000000000E+00 -0.45593999997E+02  0.45594000000E+02  0.51100000000E-03 0. -1.
    9900012    2    1    2    0    0  0.11111394085E+02  0.50360065509E+01  0.14207582470E+02  0.72461552389E+02  0.69999976675E+02 0.  0.
         12    1    1    2    0    0 -0.11111394085E+02 -0.50360065509E+01 -0.14207582470E+02  0.18726447611E+02  0.00000000000E+00 0. -1.
         11    1    3    3    0    0  0.11156435548E+01  0.58434434975E+01 -0.11064009123E+02  0.12561958071E+02  0.51100000000E-03 0. -1.
        -11    1    3    3    0    0 -0.12928767801E+02 -0.16395954293E+02  0.24467036261E+02  0.32165450684E+02  0.51100000000E-03 0.  1.
        -12    1    3    3    0    0  0.22924518332E+02  0.15588517347E+02  0.80455533121E+00  0.27734143634E+02  0.00000000000E+00 0.  1.
</event>
<event>
 7    1  0.1375918E-013  0.7246133E+02  0.7816164E-02  0.1226709E+00
        -11   -1    0    0    0    0  0.00000000000E+00  0.00000000000E+00  0.45593999997E+02  0.45594000000E+02  0.51100000000E-03 0.  1.
         11   -1    0    0    0    0 -0.00000000000E+00 -0.00000000000E+00 -0.45593999997E+02  0.45594000000E+02  0.51100000000E-03 0. -1.
    9900012    2    1    2    0    0  0.54761127619E+01 -0.59080349724E+01  0.16905487005E+02  0.72461329738E+02  0.69999686630E+02 0.  0.
         12    1    1    2    0    0 -0.54761127619E+01  0.59080349724E+01 -0.16905487005E+02  0.18726670262E+02  0.00000000000E+00 0. -1.
         11    1    3    3    0    0  0.29542420861E+02  0.12864731203E+01  0.14880495856E+02  0.33103456022E+02  0.51100000000E-03 0. -1.
        -11    1    3    3    0    0 -0.10777409892E+02 -0.28647419953E+01  0.16059129375E+02  0.19551341315E+02  0.51100000000E-03 0.  1.
         12    1    3    3    0    0 -0.13288898207E+02 -0.43297660974E+01 -0.14034138226E+02  0.19806532401E+02  0.00000000000E+00 0. -1.
</event>
<event>
 7    1  0.1375918E-013  0.7246138E+02  0.7816164E-02  0.1226709E+00
        -11   -1    0    0    0    0  0.00000000000E+00  0.00000000000E+00  0.45593999997E+02  0.45594000000E+02  0.51100000000E-03 0. -1.
         11   -1    0    0    0    0 -0.00000000000E+00 -0.00000000000E+00 -0.45593999997E+02  0.45594000000E+02  0.51100000000E-03 0.  1.
    9900012    2    1    2    0    0  0.86928093279E+00  0.14971154561E+02 -0.11215837722E+02  0.72461384341E+02  0.69999757761E+02 0.  0.
         12    1    1    2    0    0 -0.86928093279E+00 -0.14971154561E+02  0.11215837722E+02  0.18726615659E+02  0.00000000000E+00 0. -1.
         11    1    3    3    0    0  0.20773616841E+02  0.19621438406E+02 -0.15335092956E+02  0.32430064416E+02  0.51100000000E-03 0.  1.
        -11    1    3    3    0    0 -0.23943325399E+02  0.90009755450E+01  0.23996735250E+01  0.25691610016E+02  0.51100000000E-03 0. -1.
         12    1    3    3    0    0  0.40389894906E+01 -0.13651259390E+02  0.17195817090E+01  0.14339709909E+02  0.00000000000E+00 0. -1.
</event>
<event>
 7    1  0.1375918E-013  0.7246152E+02  0.7816164E-02  0.1226708E+00
        -11   -1    0    0    0    0  0.00000000000E+00  0.00000000000E+00  0.45593999997E+02  0.45594000000E+02  0.51100000000E-03 0. -1.
         11   -1    0    0    0    0 -0.00000000000E+00 -0.00000000000E+00 -0.45593999997E+02  0.45594000000E+02  0.51100000000E-03 0.  1.
    9900012    2    1    2    0    0  0.11301534662E+02 -0.51311468311E+01  0.14022401138E+02  0.72461519092E+02  0.69999933300E+02 0.  0.
         12    1    1    2    0    0 -0.11301534662E+02  0.51311468311E+01 -0.14022401138E+02  0.18726480908E+02  0.00000000000E+00 0. -1.
         11    1    3    3    0    0 -0.20564575632E+02  0.12629956494E+02  0.14307653393E+02  0.28055775125E+02  0.51100000000E-03 0.  1.
        -11    1    3    3    0    0  0.35804097691E+02 -0.15029172555E+02 -0.29133493395E+01  0.38939659010E+02  0.51100000000E-03 0. -1.
        -12    1    3    3    0    0 -0.39379873974E+01 -0.27319307700E+01  0.26280970847E+01  0.54660849573E+01  0.00000000000E+00 0.  1.
</event>
<event>
 7    1  0.1375918E-013  0.7246163E+02  0.7816164E-02  0.1226708E+00
        -11   -1    0    0    0    0  0.00000000000E+00  0.00000000000E+00  0.45593999997E+02  0.45594000000E+02  0.51100000000E-03 0. -1.
         11   -1    0    0    0    0 -0.00000000000E+00 -0.00000000000E+00 -0.45593999997E+02  0.45594000000E+02  0.51100000000E-03 0.  1.
    9900012    2    1    2    0    0  0.10887515541E+02  0.11033912508E+02 -0.10506752647E+02  0.72461626324E+02  0.70000072989E+02 0.  0.
         12    1    1    2    0    0 -0.10887515541E+02 -0.11033912508E+02  0.10506752647E+02  0.18726373676E+02  0.00000000000E+00 0. -1.
         11    1    3    3    0    0  0.28272973612E+02 -0.77569572185E+01 -0.21332436660E+02  0.36257472006E+02  0.51100000000E-03 0. -1.
        -11    1    3    3    0    0 -0.91755412066E+01  0.54309085328E+01 -0.67739503645E+01  0.12632170349E+02  0.51100000000E-03 0.  1.
         12    1    3    3    0    0 -0.82099168643E+01  0.13359961194E+02  0.17599634378E+02  0.23571983969E+02  0.00000000000E+00 0. -1.
</event>
<event>
 7    1  0.1375918E-013  0.7246157E+02  0.7816164E-02  0.1226708E+00
        -11   -1    0    0    0    0  0.00000000000E+00  0.00000000000E+00  0.45593999997E+02  0.45594000000E+02  0.51100000000E-03 0.  1.
         11   -1    0    0    0    0 -0.00000000000E+00 -0.00000000000E+00 -0.45593999997E+02  0.45594000000E+02  0.51100000000E-03 0. -1.
    9900012    2    1    2    0    0  0.14283575942E+02  0.32101053587E+00  0.12106016191E+02  0.72461569013E+02  0.69999998331E+02 0.  0.
         12    1    1    2    0    0 -0.14283575942E+02 -0.32101053587E+00 -0.12106016191E+02  0.18726430987E+02  0.00000000000E+00 0. -1.
         11    1    3    3    0    0 -0.13337104553E+02  0.10783436976E+02  0.24753401150E+01  0.17328825114E+02  0.51100000000E-03 0. -1.
        -11    1    3    3    0    0  0.12616317763E+02 -0.16956031770E+02 -0.14753482206E+02  0.25774866144E+02  0.51100000000E-03 0.  1.
        -12    1    3    3    0    0  0.15004362732E+02  0.64936053303E+01  0.24384158282E+02  0.29357877755E+02  0.00000000000E+00 0.  1.
</event>
<event>
 7    1  0.1375918E-013  0.7246153E+02  0.7816164E-02  0.1226708E+00
        -11   -1    0    0    0    0  0.00000000000E+00  0.00000000000E+00  0.45593999997E+02  0.45594000000E+02  0.51100000000E-03 0.  1.
         11   -1    0    0    0    0 -0.00000000000E+00 -0.00000000000E+00 -0.45593999997E+02  0.45594000000E+02  0.51100000000E-03 0. -1.
    9900012    2    1    2    0    0 -0.15413736805E+02 -0.10634522443E+02 -0.66532771753E-01  0.72461527388E+02  0.69999944107E+02 0.  0.
         12    1    1    2    0    0  0.15413736805E+02  0.10634522443E+02  0.66532771753E-01  0.18726472612E+02  0.00000000000E+00 0. -1.
         11    1    3    3    0    0 -0.16895395726E+02 -0.16706735537E+02  0.18775375817E+02  0.30283397206E+02  0.51100000000E-03 0. -1.
        -11    1    3    3    0    0  0.17082359971E+02  0.45673916997E+01 -0.16582027642E-01  0.17682430951E+02  0.51100000000E-03 0.  1.
         12    1    3    3    0    0 -0.15600701050E+02  0.15048213945E+01 -0.18825326561E+02  0.24495699231E+02  0.00000000000E+00 0. -1.
</event>
<event>
 7    1  0.1375918E-013  0.7246157E+02  0.7816164E-02  0.1226708E+00
        -11   -1    0    0    0    0  0.00000000000E+00  0.00000000000E+00  0.45593999997E+02  0.45594000000E+02  0.51100000000E-03 0. -1.
         11   -1    0    0    0    0 -0.00000000000E+00 -0.00000000000E+00 -0.45593999997E+02  0.45594000000E+02  0.51100000000E-03 0.  1.
    9900012    2    1    2    0    0 -0.10540041518E+02  0.10475035735E+02 -0.11395623540E+02  0.72461572559E+02  0.70000002950E+02 0.  0.
         12    1    1    2    0    0  0.10540041518E+02 -0.10475035735E+02  0.11395623540E+02  0.18726427441E+02  0.00000000000E+00 0. -1.
         11    1    3    3    0    0  0.12269828261E+02 -0.16658143634E+02  0.20105974345E+01  0.20786652862E+02  0.51100000000E-03 0. -1.
        -11    1    3    3    0    0 -0.20961292222E+02  0.16324744664E+02  0.78954374535E+01  0.27716619433E+02  0.51100000000E-03 0.  1.
         12    1    3    3    0    0 -0.18485775566E+01  0.10808434705E+02 -0.21301658428E+02  0.23958300264E+02  0.00000000000E+00 0. -1.
</event>
<event>
 7    1  0.1375918E-013  0.7246165E+02  0.7816164E-02  0.1226708E+00
        -11   -1    0    0    0    0  0.00000000000E+00  0.00000000000E+00  0.45593999997E+02  0.45594000000E+02  0.51100000000E-03 0.  1.
         11   -1    0    0    0    0 -0.00000000000E+00 -0.00000000000E+00 -0.45593999997E+02  0.45594000000E+02  0.51100000000E-03 0. -1.
    9900012    2    1    2    0    0 -0.18617997136E+01 -0.11854493573E+02  0.14376396982E+02  0.72461652085E+02  0.70000106548E+02 0.  0.
         12    1    1    2    0    0  0.18617997136E+01  0.11854493573E+02 -0.14376396982E+02  0.18726347915E+02  0.00000000000E+00 0. -1.
         11    1    3    3    0    0 -0.92219050807E+00  0.21291815697E+02  0.10051817620E+02  0.23563337810E+02  0.51100000000E-03 0.  1.
        -11    1    3    3    0    0  0.11807932462E+02 -0.20827085027E+02 -0.10157792523E+02  0.26007219938E+02  0.51100000000E-03 0. -1.
        -12    1    3    3    0    0 -0.12747541667E+02 -0.12319224244E+02  0.14482371885E+02  0.22891094337E+02  0.00000000000E+00 0.  1.
</event>
<event>
 7    1  0.1375918E-013  0.7246161E+02  0.7816164E-02  0.1226708E+00
        -11   -1    0    0    0    0  0.00000000000E+00  0.00000000000E+00  0.45593999997E+02  0.45594000000E+02  0.51100000000E-03 0.  1.
         11   -1    0    0    0    0 -0.00000000000E+00 -0.00000000000E+00 -0.45593999997E+02  0.45594000000E+02  0.51100000000E-03 0. -1.
    9900012    2    1    2    0    0 -0.13895850053E+02 -0.12054182267E+01  0.12495199463E+02  0.72461609760E+02  0.70000051412E+02 0.  0.
         12    1    1    2    0    0  0.13895850053E+02  0.12054182267E+01 -0.12495199463E+02  0.18726390240E+02  0.00000000000E+00 0. -1.
         11    1    3    3    0    0  0.16558135631E+02 -0.33072183570E+01  0.84152596675E+01  0.18866004992E+02  0.51100000000E-03 0. -1.
        -11    1    3    3    0    0 -0.73589608885E+01  0.16425021281E+02 -0.12360286775E+02  0.21833742667E+02  0.51100000000E-03 0.  1.
        -12    1    3    3    0    0 -0.23095024795E+02 -0.14323221151E+02  0.16440226570E+02  0.31761862101E+02  0.00000000000E+00 0.  1.
</event>
<event>
 7    1  0.1375918E-013  0.7246157E+02  0.7816164E-02  0.1226708E+00
        -11   -1    0    0    0    0  0.00000000000E+00  0.00000000000E+00  0.45593999997E+02  0.45594000000E+02  0.51100000000E-03 0.  1.
         11   -1    0    0    0    0 -0.00000000000E+00 -0.00000000000E+00 -0.45593999997E+02  0.45594000000E+02  0.51100000000E-03 0. -1.
    9900012    2    1    2    0    0  0.15053396136E+02 -0.35030553138E+01 -0.10573701010E+02  0.72461567216E+02  0.69999995990E+02 0.  0.
         12    1    1    2    0    0 -0.15053396136E+02  0.35030553138E+01  0.10573701010E+02  0.18726432784E+02  0.00000000000E+00 0. -1.
         11    1    3    3    0    0  0.10606681808E+02  0.15749191571E+02  0.22032587443E+02  0.29085626068E+02  0.51100000000E-03 0.  1.
        -11    1    3    3    0    0 -0.74636807228E+01 -0.29385594160E+01 -0.62443350175E+01  0.10165302821E+02  0.51100000000E-03 0. -1.
         12    1    3    3    0    0  0.11910395052E+02 -0.16313687469E+02 -0.26361953435E+02  0.33210638326E+02  0.00000000000E+00 0. -1.
</event>
<event>
 7    1  0.1375918E-013  0.7246165E+02  0.7816164E-02  0.1226708E+00
        -11   -1    0    0    0    0  0.00000000000E+00  0.00000000000E+00  0.45593999997E+02  0.45594000000E+02  0.51100000000E-03 0. -1.
         11   -1    0    0    0    0 -0.00000000000E+00 -0.00000000000E+00 -0.45593999997E+02  0.45594000000E+02  0.51100000000E-03 0.  1.
    9900012    2    1    2    0    0  0.10790210948E+02 -0.13524905252E+02 -0.71641088990E+01  0.72461650364E+02  0.70000104306E+02 0.  0.
         12    1    1    2    0    0 -0.10790210948E+02  0.13524905252E+02  0.71641088990E+01  0.18726349636E+02  0.00000000000E+00 0. -1.
         11    1    3    3    0    0  0.28111002271E+02 -0.20995388383E+02  0.64375431331E+01  0.35671791992E+02  0.51100000000E-03 0. -1.
        -11    1    3    3    0    0 -0.20287505891E+02  0.15066279196E+02 -0.13466175041E+02  0.28634132335E+02  0.51100000000E-03 0.  1.
        -12    1    3    3    0    0  0.29667145676E+01 -0.75957960648E+01 -0.13547699087E+00  0.81557260375E+01  0.00000000000E+00 0.  1.
</event>
<event>
 7    1  0.1375918E-013  0.7246156E+02  0.7816164E-02  0.1226708E+00
        -11   -1    0    0    0    0  0.00000000000E+00  0.00000000000E+00  0.45593999997E+02  0.45594000000E+02  0.51100000000E-03 0.  1.
         11   -1    0    0    0    0 -0.00000000000E+00 -0.00000000000E+00 -0.45593999997E+02  0.45594000000E+02  0.51100000000E-03 0. -1.
    9900012    2    1    2    0    0  0.73592775861E+01  0.17170339227E+02  0.13039174491E+01  0.72461555690E+02  0.69999980976E+02 0.  0.
         12    1    1    2    0    0 -0.73592775861E+01 -0.17170339227E+02 -0.13039174491E+01  0.18726444310E+02  0.00000000000E+00 0. -1.
         11    1    3    3    0    0 -0.21760726118E+02 -0.12995880150E+02  0.13257656881E+02  0.28603978190E+02  0.51100000000E-03 0.  1.
        -11    1    3    3    0    0  0.25655005544E+02  0.24460928396E+02 -0.90912681195E+01  0.36594637363E+02  0.51100000000E-03 0. -1.
        -12    1    3    3    0    0  0.34649981599E+01  0.57052909815E+01 -0.28624713125E+01  0.72629401379E+01  0.00000000000E+00 0.  1.
</event>
<event>
 7    1  0.1375918E-013  0.7246153E+02  0.7816164E-02  0.1226708E+00
        -11   -1    0    0    0    0  0.00000000000E+00  0.00000000000E+00  0.45593999997E+02  0.45594000000E+02  0.51100000000E-03 0.  1.
         11   -1    0    0    0    0 -0.00000000000E+00 -0.00000000000E+00 -0.45593999997E+02  0.45594000000E+02  0.51100000000E-03 0. -1.
    9900012    2    1    2    0    0 -0.14654038657E+02 -0.11604137704E+02  0.11331023736E+01  0.72461527246E+02  0.69999943922E+02 0.  0.
         12    1    1    2    0    0  0.14654038657E+02  0.11604137704E+02 -0.11331023736E+01  0.18726472754E+02  0.00000000000E+00 0. -1.
         11    1    3    3    0    0 -0.31841215744E+02  0.76151803371E+01  0.63935719741E+00  0.32745423643E+02  0.51100000000E-03 0. -1.
        -11    1    3    3    0    0  0.17539496465E+02 -0.13181630010E+02 -0.12594234634E+02  0.25298301371E+02  0.51100000000E-03 0.  1.
        -12    1    3    3    0    0 -0.35231937719E+00 -0.60376880309E+01  0.13087979811E+02  0.14417802233E+02  0.00000000000E+00 0.  1.
</event>
<event>
 7    1  0.1375918E-013  0.7246156E+02  0.7816164E-02  0.1226708E+00
        -11   -1    0    0    0    0  0.00000000000E+00  0.00000000000E+00  0.45593999997E+02  0.45594000000E+02  0.51100000000E-03 0.  1.
         11   -1    0    0    0    0 -0.00000000000E+00 -0.00000000000E+00 -0.45593999997E+02  0.45594000000E+02  0.51100000000E-03 0. -1.
    9900012    2    1    2    0    0 -0.36668003068E+01 -0.18113445653E+02  0.30227659934E+01  0.72461562748E+02  0.69999990169E+02 0.  0.
         12    1    1    2    0    0  0.36668003068E+01  0.18113445653E+02 -0.30227659934E+01  0.18726437252E+02  0.00000000000E+00 0. -1.
         11    1    3    3    0    0 -0.34614257698E+01  0.17233007880E+02 -0.74285213853E+01  0.19082477805E+02  0.51100000000E-03 0. -1.
        -11    1    3    3    0    0 -0.14060640065E+02 -0.34696536161E+02  0.28089163541E+01  0.37542525647E+02  0.51100000000E-03 0.  1.
         12    1    3    3    0    0  0.13855265528E+02 -0.64991737269E+00  0.76423710247E+01  0.15836559295E+02  0.00000000000E+00 0. -1.
</event>
<event>
 7    1  0.1375918E-013  0.7246157E+02  0.7816164E-02  0.1226708E+00
        -11   -1    0    0    0    0  0.00000000000E+00  0.00000000000E+00  0.45593999997E+02  0.45594000000E+02  0.51100000000E-03 0.  1.
         11   -1    0    0    0    0 -0.00000000000E+00 -0.00000000000E+00 -0.45593999997E+02  0.45594000000E+02  0.51100000000E-03 0. -1.
    9900012    2    1    2    0    0 -0.15392857749E+02  0.36163329558E+01  0.10033008586E+02  0.72461569613E+02  0.69999999113E+02 0.  0.
         12    1    1    2    0    0  0.15392857749E+02 -0.36163329558E+01 -0.10033008586E+02  0.18726430387E+02  0.00000000000E+00 0. -1.
         11    1    3    3    0    0  0.14037231084E+02  0.24891329223E+02 -0.30091979055E+01  0.28734602821E+02  0.51100000000E-03 0. -1.
        -11    1    3    3    0    0 -0.20596451739E+02 -0.23884541537E+01  0.46395240708E+01  0.21247205024E+02  0.51100000000E-03 0.  1.
         12    1    3    3    0    0 -0.88336370941E+01 -0.18886542113E+02  0.84026824209E+01  0.22479761768E+02  0.00000000000E+00 0. -1.
</event>
<event>
 7    1  0.1375918E-013  0.7246165E+02  0.7816164E-02  0.1226708E+00
        -11   -1    0    0    0    0  0.00000000000E+00  0.00000000000E+00  0.45593999997E+02  0.45594000000E+02  0.51100000000E-03 0. -1.
         11   -1    0    0    0    0 -0.00000000000E+00 -0.00000000000E+00 -0.45593999997E+02  0.45594000000E+02  0.51100000000E-03 0.  1.
    9900012    2    1    2    0    0 -0.13483066849E+02 -0.12244144412E+02 -0.43547891287E+01  0.72461645512E+02  0.70000097986E+02 0.  0.
         12    1    1    2    0    0  0.13483066849E+02  0.12244144412E+02  0.43547891287E+01  0.18726354488E+02  0.00000000000E+00 0. -1.
         11    1    3    3    0    0  0.70890316603E+01  0.11326547721E+02  0.11047821345E+02  0.17337802914E+02  0.51100000000E-03 0. -1.
        -11    1    3    3    0    0  0.36190434962E+01 -0.27285237284E+02 -0.13271013911E+02  0.30556528925E+02  0.51100000000E-03 0.  1.
         12    1    3    3    0    0 -0.24191142006E+02  0.37145451512E+01 -0.21315965619E+01  0.24567313674E+02  0.00000000000E+00 0. -1.
</event>
<event>
 7    1  0.1375918E-013  0.7246157E+02  0.7816164E-02  0.1226708E+00
        -11   -1    0    0    0    0  0.00000000000E+00  0.00000000000E+00  0.45593999997E+02  0.45594000000E+02  0.51100000000E-03 0. -1.
         11   -1    0    0    0    0 -0.00000000000E+00 -0.00000000000E+00 -0.45593999997E+02  0.45594000000E+02  0.51100000000E-03 0.  1.
    9900012    2    1    2    0    0 -0.12167855963E+02  0.10852204287E+02 -0.92115307496E+01  0.72461565332E+02  0.69999993536E+02 0.  0.
         12    1    1    2    0    0  0.12167855963E+02 -0.10852204287E+02  0.92115307496E+01  0.18726434668E+02  0.00000000000E+00 0. -1.
         11    1    3    3    0    0  0.86874730725E+01 -0.32281285844E+01  0.87702360252E+01  0.12759703866E+02  0.51100000000E-03 0. -1.
        -11    1    3    3    0    0 -0.53014536576E+01  0.18580271939E+02 -0.32594590915E+02  0.37891150331E+02  0.51100000000E-03 0.  1.
        -12    1    3    3    0    0 -0.15553875378E+02 -0.44999390675E+01  0.14612824140E+02  0.21810711135E+02  0.00000000000E+00 0.  1.
</event>
<event>
 7    1  0.1375918E-013  0.7246163E+02  0.7816164E-02  0.1226708E+00
        -11   -1    0    0    0    0  0.00000000000E+00  0.00000000000E+00  0.45593999997E+02  0.45594000000E+02  0.51100000000E-03 0.  1.
         11   -1    0    0    0    0 -0.00000000000E+00 -0.00000000000E+00 -0.45593999997E+02  0.45594000000E+02  0.51100000000E-03 0. -1.
    9900012    2    1    2    0    0 -0.84610533996E+01 -0.16441406691E+02 -0.29610354568E+01  0.72461627965E+02  0.70000075127E+02 0.  0.
         12    1    1    2    0    0  0.84610533996E+01  0.16441406691E+02  0.29610354568E+01  0.18726372035E+02  0.00000000000E+00 0. -1.
         11    1    3    3    0    0  0.10561321781E+02 -0.33395834003E+02 -0.12312075573E+02  0.37126950477E+02  0.51100000000E-03 0. -1.
        -11    1    3    3    0    0  0.36669108676E+01  0.94944213901E+01  0.32378450936E+01  0.10680539029E+02  0.51100000000E-03 0.  1.
         12    1    3    3    0    0 -0.22689286049E+02  0.74600059220E+01  0.61131950225E+01  0.24654138459E+02  0.00000000000E+00 0. -1.
</event>
<event>
 7    1  0.1375918E-013  0.7246156E+02  0.7816164E-02  0.1226708E+00
        -11   -1    0    0    0    0  0.00000000000E+00  0.00000000000E+00  0.45593999997E+02  0.45594000000E+02  0.51100000000E-03 0. -1.
         11   -1    0    0    0    0 -0.00000000000E+00 -0.00000000000E+00 -0.45593999997E+02  0.45594000000E+02  0.51100000000E-03 0.  1.
    9900012    2    1    2    0    0 -0.58043405833E+01 -0.37163427929E+01 -0.17412003395E+02  0.72461563190E+02  0.69999990745E+02 0.  0.
         12    1    1    2    0    0  0.58043405833E+01  0.37163427929E+01  0.17412003395E+02  0.18726436810E+02  0.00000000000E+00 0. -1.
         11    1    3    3    0    0  0.84087704776E+01  0.41258764448E+01  0.22344466950E+01  0.96292798109E+01  0.51100000000E-03 0. -1.
        -11    1    3    3    0    0 -0.25518251033E+02 -0.24745891635E+02 -0.22833763743E+02  0.42248326067E+02  0.51100000000E-03 0.  1.
        -12    1    3    3    0    0  0.11305139972E+02  0.16903672397E+02  0.31873136528E+01  0.20583957312E+02  0.00000000000E+00 0.  1.
</event>
<event>
 7    1  0.1375918E-013  0.7246150E+02  0.7816164E-02  0.1226708E+00
        -11   -1    0    0    0    0  0.00000000000E+00  0.00000000000E+00  0.45593999997E+02  0.45594000000E+02  0.51100000000E-03 0.  1.
         11   -1    0    0    0    0 -0.00000000000E+00 -0.00000000000E+00 -0.45593999997E+02  0.45594000000E+02  0.51100000000E-03 0. -1.
    9900012    2    1    2    0    0  0.17021482429E+02 -0.76345499503E+01  0.16323464050E+01  0.72461500812E+02  0.69999909487E+02 0.  0.
         12    1    1    2    0    0 -0.17021482429E+02  0.76345499503E+01 -0.16323464050E+01  0.18726499188E+02  0.00000000000E+00 0. -1.
         11    1    3    3    0    0  0.19958962188E+02 -0.12193928895E+02  0.18435830516E+02  0.29781402261E+02  0.51100000000E-03 0.  1.
        -11    1    3    3    0    0  0.63941085623E+01  0.90088045685E+01 -0.26372680596E+02  0.28593031776E+02  0.51100000000E-03 0. -1.
        -12    1    3    3    0    0 -0.93315883213E+01 -0.44494256234E+01  0.95691964849E+01  0.14087066776E+02  0.00000000000E+00 0.  1.
</event>
<event>
 7    1  0.1375918E-013  0.7246150E+02  0.7816164E-02  0.1226708E+00
        -11   -1    0    0    0    0  0.00000000000E+00  0.00000000000E+00  0.45593999997E+02  0.45594000000E+02  0.51100000000E-03 0. -1.
         11   -1    0    0    0    0 -0.00000000000E+00 -0.00000000000E+00 -0.45593999997E+02  0.45594000000E+02  0.51100000000E-03 0.  1.
    9900012    2    1    2    0    0  0.16018947393E+02  0.96571203672E+01  0.90287928502E+00  0.72461498982E+02  0.69999907102E+02 0.  0.
         12    1    1    2    0    0 -0.16018947393E+02 -0.96571203672E+01 -0.90287928502E+00  0.18726501018E+02  0.00000000000E+00 0. -1.
         11    1    3    3    0    0  0.14810672574E+02 -0.15398741968E+02 -0.16893403596E+02  0.27237187109E+02  0.51100000000E-03 0. -1.
        -11    1    3    3    0    0  0.64763059149E+01  0.78768043768E+01  0.24110698678E+02  0.26178471623E+02  0.51100000000E-03 0.  1.
        -12    1    3    3    0    0 -0.52680310958E+01  0.17179057958E+02 -0.63144157978E+01  0.19045840250E+02  0.00000000000E+00 0.  1.
</event>
<event>
 7    1  0.1375918E-013  0.7246159E+02  0.7816164E-02  0.1226708E+00
        -11   -1    0    0    0    0  0.00000000000E+00  0.00000000000E+00  0.45593999997E+02  0.45594000000E+02  0.51100000000E-03 0. -1.
         11   -1    0    0    0    0 -0.00000000000E+00 -0.00000000000E+00 -0.45593999997E+02  0.45594000000E+02  0.51100000000E-03 0.  1.
    9900012    2    1    2    0    0 -0.15996638844E+02 -0.54748846302E+01 -0.80505774087E+01  0.72461585163E+02  0.70000019370E+02 0.  0.
         12    1    1    2    0    0  0.15996638844E+02  0.54748846302E+01  0.80505774087E+01  0.18726414837E+02  0.00000000000E+00 0. -1.
         11    1    3    3    0    0 -0.24359368095E+02  0.39861634108E+01 -0.13710673569E+02  0.28235631438E+02  0.51100000000E-03 0.  1.
        -11    1    3    3    0    0 -0.20628408236E+01 -0.22841457037E+02 -0.59217022243E+01  0.23686579097E+02  0.51100000000E-03 0. -1.
        -12    1    3    3    0    0  0.10425570075E+02  0.13380408996E+02  0.11581798384E+02  0.20539374628E+02  0.00000000000E+00 0.  1.
</event>
<event>
 7    1  0.1375918E-013  0.7246154E+02  0.7816164E-02  0.1226708E+00
        -11   -1    0    0    0    0  0.00000000000E+00  0.00000000000E+00  0.45593999997E+02  0.45594000000E+02  0.51100000000E-03 0. -1.
         11   -1    0    0    0    0 -0.00000000000E+00 -0.00000000000E+00 -0.45593999997E+02  0.45594000000E+02  0.51100000000E-03 0.  1.
    9900012    2    1    2    0    0 -0.83573666594E+01  0.16629384749E+01 -0.16675408802E+02  0.72461542765E+02  0.69999964138E+02 0.  0.
         12    1    1    2    0    0  0.83573666594E+01 -0.16629384749E+01  0.16675408802E+02  0.18726457235E+02  0.00000000000E+00 0. -1.
         11    1    3    3    0    0 -0.34686951901E+02  0.73332499624E+00 -0.20271364525E+02  0.40182715410E+02  0.51100000000E-03 0. -1.
        -11    1    3    3    0    0  0.16049334436E+02 -0.84525984334E+01  0.26109081922E+01  0.18326057895E+02  0.51100000000E-03 0.  1.
         12    1    3    3    0    0  0.10280250806E+02  0.93822119120E+01  0.98504753083E+00  0.13952769461E+02  0.00000000000E+00 0. -1.
</event>
<event>
 7    1  0.1375918E-013  0.7246157E+02  0.7816164E-02  0.1226708E+00
        -11   -1    0    0    0    0  0.00000000000E+00  0.00000000000E+00  0.45593999997E+02  0.45594000000E+02  0.51100000000E-03 0.  1.
         11   -1    0    0    0    0 -0.00000000000E+00 -0.00000000000E+00 -0.45593999997E+02  0.45594000000E+02  0.51100000000E-03 0. -1.
    9900012    2    1    2    0    0 -0.36582373498E+01  0.17322258041E+02  0.61021157125E+01  0.72461571074E+02  0.70000001015E+02 0.  0.
         12    1    1    2    0    0  0.36582373498E+01 -0.17322258041E+02 -0.61021157125E+01  0.18726428926E+02  0.00000000000E+00 0. -1.
         11    1    3    3    0    0  0.59607488127E+01 -0.58613112643E+01  0.47305984042E+01  0.96054181412E+01  0.51100000000E-03 0. -1.
        -11    1    3    3    0    0 -0.21016514794E+02  0.34486337325E+02 -0.11819538042E+02  0.42079720008E+02  0.51100000000E-03 0.  1.
        -12    1    3    3    0    0  0.11397528632E+02 -0.11302768019E+02  0.13191055350E+02  0.20776432924E+02  0.00000000000E+00 0.  1.
</event>
<event>
 7    1  0.1375918E-013  0.7246164E+02  0.7816164E-02  0.1226708E+00
        -11   -1    0    0    0    0  0.00000000000E+00  0.00000000000E+00  0.45593999997E+02  0.45594000000E+02  0.51100000000E-03 0.  1.
         11   -1    0    0    0    0 -0.00000000000E+00 -0.00000000000E+00 -0.45593999997E+02  0.45594000000E+02  0.51100000000E-03 0. -1.
    9900012    2    1    2    0    0 -0.47626795595E+01  0.11716082926E+02 -0.13810393060E+02  0.72461636974E+02  0.70000086863E+02 0.  0.
         12    1    1    2    0    0  0.47626795595E+01 -0.11716082926E+02  0.13810393060E+02  0.18726363026E+02  0.00000000000E+00 0. -1.
         11    1    3    3    0    0 -0.20209122258E+02  0.20642943362E+01 -0.32250685834E+02  0.38115307562E+02  0.51100000000E-03 0. -1.
        -11    1    3    3    0    0  0.12165697582E+02 -0.80827015354E+00  0.19848041297E+02  0.23293824115E+02  0.51100000000E-03 0.  1.
         12    1    3    3    0    0  0.32807451161E+01  0.10460058744E+02 -0.14077485226E+01  0.11052505297E+02  0.00000000000E+00 0. -1.
</event>
<event>
 7    1  0.1375918E-013  0.7246153E+02  0.7816164E-02  0.1226708E+00
        -11   -1    0    0    0    0  0.00000000000E+00  0.00000000000E+00  0.45593999997E+02  0.45594000000E+02  0.51100000000E-03 0. -1.
         11   -1    0    0    0    0 -0.00000000000E+00 -0.00000000000E+00 -0.45593999997E+02  0.45594000000E+02  0.51100000000E-03 0.  1.
    9900012    2    1    2    0    0  0.18097810059E+02 -0.37658372481E+01  0.29947488742E+01  0.72461527296E+02  0.69999943986E+02 0.  0.
         12    1    1    2    0    0 -0.18097810059E+02  0.37658372481E+01 -0.29947488742E+01  0.18726472704E+02  0.00000000000E+00 0. -1.
         11    1    3    3    0    0  0.15153522055E+01  0.35461655224E+00  0.83970364960E+01  0.85400390738E+01  0.51100000000E-03 0. -1.
        -11    1    3    3    0    0 -0.16800176691E+02 -0.19582016429E+02 -0.80745612255E+01  0.27035159395E+02  0.51100000000E-03 0.  1.
        -12    1    3    3    0    0  0.33382634545E+02  0.15461562629E+02  0.26722736038E+01  0.36886328827E+02  0.00000000000E+00 0.  1.
</event>
<event>
 7    1  0.1375918E-013  0.7246158E+02  0.7816164E-02  0.1226708E+00
        -11   -1    0    0    0    0  0.00000000000E+00  0.00000000000E+00  0.45593999997E+02  0.45594000000E+02  0.51100000000E-03 0.  1.
         11   -1    0    0    0    0 -0.00000000000E+00 -0.00000000000E+00 -0.45593999997E+02  0.45594000000E+02  0.51100000000E-03 0. -1.
    9900012    2    1    2    0    0  0.83012449519E+01 -0.16446950243E+02 -0.33564740512E+01  0.72461581280E+02  0.70000014310E+02 0.  0.
         12    1    1    2    0    0 -0.83012449519E+01  0.16446950243E+02  0.33564740512E+01  0.18726418720E+02  0.00000000000E+00 0. -1.
         11    1    3    3    0    0  0.88329952985E+01 -0.27368618341E+02 -0.22430931045E+02  0.36472040574E+02  0.51100000000E-03 0. -1.
        -11    1    3    3    0    0  0.94779249835E+01 -0.52845320841E+01  0.10501743043E+02  0.15101124082E+02  0.51100000000E-03 0.  1.
         12    1    3    3    0    0 -0.10009675330E+02  0.16206200182E+02  0.85727139509E+01  0.20888416624E+02  0.00000000000E+00 0. -1.
</event>
<event>
 7    1  0.1375918E-013  0.7246158E+02  0.7816164E-02  0.1226708E+00
        -11   -1    0    0    0    0  0.00000000000E+00  0.00000000000E+00  0.45593999997E+02  0.45594000000E+02  0.51100000000E-03 0. -1.
         11   -1    0    0    0    0 -0.00000000000E+00 -0.00000000000E+00 -0.45593999997E+02  0.45594000000E+02  0.51100000000E-03 0.  1.
    9900012    2    1    2    0    0  0.63764931781E+01 -0.14198670660E+02  0.10412345191E+02  0.72461578929E+02  0.70000011248E+02 0.  0.
         12    1    1    2    0    0 -0.63764931781E+01  0.14198670660E+02 -0.10412345191E+02  0.18726421071E+02  0.00000000000E+00 0. -1.
         11    1    3    3    0    0 -0.59432790423E+00  0.13957196763E+02 -0.16063914091E+02  0.21288633195E+02  0.51100000000E-03 0.  1.
        -11    1    3    3    0    0  0.13171871606E+02 -0.56407671420E+01  0.23645933946E+02  0.27648628320E+02  0.51100000000E-03 0. -1.
        -12    1    3    3    0    0 -0.62010505241E+01 -0.22515100281E+02  0.28303253359E+01  0.23524317413E+02  0.00000000000E+00 0.  1.
</event>
<event>
 7    1  0.1375918E-013  0.7246164E+02  0.7816164E-02  0.1226708E+00
        -11   -1    0    0    0    0  0.00000000000E+00  0.00000000000E+00  0.45593999997E+02  0.45594000000E+02  0.51100000000E-03 0.  1.
         11   -1    0    0    0    0 -0.00000000000E+00 -0.00000000000E+00 -0.45593999997E+02  0.45594000000E+02  0.51100000000E-03 0. -1.
    9900012    2    1    2    0    0  0.80464509872E+01 -0.16352947273E+02 -0.43026129931E+01  0.72461635255E+02  0.70000084623E+02 0.  0.
         12    1    1    2    0    0 -0.80464509872E+01  0.16352947273E+02  0.43026129931E+01  0.18726364745E+02  0.00000000000E+00 0. -1.
         11    1    3    3    0    0  0.84455349795E+01 -0.17579204504E+02  0.54229793367E+01  0.20242633160E+02  0.51100000000E-03 0. -1.
        -11    1    3    3    0    0 -0.16769342610E+02  0.13784706531E+02 -0.19689033533E+02  0.29306774429E+02  0.51100000000E-03 0.  1.
        -12    1    3    3    0    0  0.16370258617E+02 -0.12558449300E+02  0.99634412031E+01  0.22912227666E+02  0.00000000000E+00 0.  1.
</event>
<event>
 7    1  0.1375918E-013  0.7246156E+02  0.7816164E-02  0.1226708E+00
        -11   -1    0    0    0    0  0.00000000000E+00  0.00000000000E+00  0.45593999997E+02  0.45594000000E+02  0.51100000000E-03 0. -1.
         11   -1    0    0    0    0 -0.00000000000E+00 -0.00000000000E+00 -0.45593999997E+02  0.45594000000E+02  0.51100000000E-03 0.  1.
    9900012    2    1    2    0    0  0.11469567317E+02 -0.43424794984E+01 -0.14151727553E+02  0.72461561595E+02  0.69999988667E+02 0.  0.
         12    1    1    2    0    0 -0.11469567317E+02  0.43424794984E+01  0.14151727553E+02  0.18726438405E+02  0.00000000000E+00 0. -1.
         11    1    3    3    0    0 -0.84955924048E+01 -0.24619729844E+02 -0.19897707928E+02  0.32775371378E+02  0.51100000000E-03 0. -1.
        -11    1    3    3    0    0  0.17184515450E+02  0.14604828872E+02 -0.85010533322E+01  0.24101379746E+02  0.51100000000E-03 0.  1.
         12    1    3    3    0    0  0.27806442716E+01  0.56724214737E+01  0.14247033708E+02  0.15584810471E+02  0.00000000000E+00 0. -1.
</event>
<event>
 7    1  0.1375918E-013  0.7246156E+02  0.7816164E-02  0.1226708E+00
        -11   -1    0    0    0    0  0.00000000000E+00  0.00000000000E+00  0.45593999997E+02  0.45594000000E+02  0.51100000000E-03 0.  1.
         11   -1    0    0    0    0 -0.00000000000E+00 -0.00000000000E+00 -0.45593999997E+02  0.45594000000E+02  0.51100000000E-03 0. -1.
    9900012    2    1    2    0    0  0.52074505449E+01  0.69263111823E+01  0.16600855816E+02  0.72461555019E+02  0.69999980102E+02 0.  0.
         12    1    1    2    0    0 -0.52074505449E+01 -0.69263111823E+01 -0.16600855816E+02  0.18726444981E+02  0.00000000000E+00 0. -1.
         11    1    3    3    0    0  0.20643332857E+02  0.10162546205E+02 -0.72215926642E+01  0.24115885588E+02  0.51100000000E-03 0. -1.
        -11    1    3    3    0    0 -0.97087171102E+00 -0.19542906882E+02  0.15688114591E+02  0.25079568197E+02  0.51100000000E-03 0.  1.
        -12    1    3    3    0    0 -0.14465010602E+02  0.16306671859E+02  0.81343338894E+01  0.23266101234E+02  0.00000000000E+00 0.  1.
</event>
<event>
 7    1  0.1375918E-013  0.7246117E+02  0.7816164E-02  0.1226709E+00
        -11   -1    0    0    0    0  0.00000000000E+00  0.00000000000E+00  0.45593999997E+02  0.45594000000E+02  0.51100000000E-03 0.  1.
         11   -1    0    0    0    0 -0.00000000000E+00 -0.00000000000E+00 -0.45593999997E+02  0.45594000000E+02  0.51100000000E-03 0. -1.
    9900012    2    1    2    0    0 -0.12674595538E+01  0.12926526192E+02  0.13490468846E+02  0.72461166770E+02  0.69999474333E+02 0.  0.
         12    1    1    2    0    0  0.12674595538E+01 -0.12926526192E+02 -0.13490468846E+02  0.18726833230E+02  0.00000000000E+00 0. -1.
         11    1    3    3    0    0  0.16103896300E+02 -0.14073768335E+02 -0.24822820862E+01  0.21530632964E+02  0.51100000000E-03 0. -1.
        -11    1    3    3    0    0 -0.28366081019E+02  0.20283166581E+02  0.15148426607E+02  0.38019945133E+02  0.51100000000E-03 0.  1.
        -12    1    3    3    0    0  0.10994725166E+02  0.67171279467E+01  0.82432432495E+00  0.12910588674E+02  0.00000000000E+00 0.  1.
</event>
<event>
 7    1  0.1375918E-013  0.7246157E+02  0.7816164E-02  0.1226708E+00
        -11   -1    0    0    0    0  0.00000000000E+00  0.00000000000E+00  0.45593999997E+02  0.45594000000E+02  0.51100000000E-03 0.  1.
         11   -1    0    0    0    0 -0.00000000000E+00 -0.00000000000E+00 -0.45593999997E+02  0.45594000000E+02  0.51100000000E-03 0. -1.
    9900012    2    1    2    0    0 -0.65769429106E+01  0.10014163958E+02  0.14392343369E+02  0.72461569335E+02  0.69999998750E+02 0.  0.
         12    1    1    2    0    0  0.65769429106E+01 -0.10014163958E+02 -0.14392343369E+02  0.18726430665E+02  0.00000000000E+00 0. -1.
         11    1    3    3    0    0 -0.12761633220E+02 -0.18660891773E+01 -0.15076253422E+02  0.19840236611E+02  0.51100000000E-03 0. -1.
        -11    1    3    3    0    0  0.17443422581E+02  0.18657359695E+02  0.68198642669E+01  0.26436350183E+02  0.51100000000E-03 0.  1.
        -12    1    3    3    0    0 -0.11258732271E+02 -0.67771065601E+01  0.22648732524E+02  0.26184982540E+02  0.00000000000E+00 0.  1.
</event>
<event>
 7    1  0.1375918E-013  0.7246161E+02  0.7816164E-02  0.1226708E+00
        -11   -1    0    0    0    0  0.00000000000E+00  0.00000000000E+00  0.45593999997E+02  0.45594000000E+02  0.51100000000E-03 0. -1.
         11   -1    0    0    0    0 -0.00000000000E+00 -0.00000000000E+00 -0.45593999997E+02  0.45594000000E+02  0.51100000000E-03 0.  1.
    9900012    2    1    2    0    0 -0.19596348900E+01  0.47116841351E+00 -0.18617617613E+02  0.72461605415E+02  0.70000045751E+02 0.  0.
         12    1    1    2    0    0  0.19596348900E+01 -0.47116841351E+00  0.18617617613E+02  0.18726394585E+02  0.00000000000E+00 0. -1.
         11    1    3    3    0    0 -0.63481098756E+01 -0.19323464537E+02 -0.34107868635E+01  0.20623487775E+02  0.51100000000E-03 0. -1.
        -11    1    3    3    0    0 -0.15352596583E+02  0.24489283253E+02 -0.11994998704E+02  0.31293884550E+02  0.51100000000E-03 0.  1.
        -12    1    3    3    0    0  0.19741071568E+02 -0.46946503022E+01 -0.32118320456E+01  0.20544233089E+02  0.00000000000E+00 0.  1.
</event>
<event>
 7    1  0.1375918E-013  0.7246158E+02  0.7816164E-02  0.1226708E+00
        -11   -1    0    0    0    0  0.00000000000E+00  0.00000000000E+00  0.45593999997E+02  0.45594000000E+02  0.51100000000E-03 0. -1.
         11   -1    0    0    0    0 -0.00000000000E+00 -0.00000000000E+00 -0.45593999997E+02  0.45594000000E+02  0.51100000000E-03 0.  1.
    9900012    2    1    2    0    0  0.18691008106E+02 -0.92823992249E+00  0.68082621641E+00  0.72461576484E+02  0.70000008063E+02 0.  0.
         12    1    1    2    0    0 -0.18691008106E+02  0.92823992249E+00 -0.68082621641E+00  0.18726423516E+02  0.00000000000E+00 0. -1.
         11    1    3    3    0    0 -0.58565509195E+01 -0.12231780220E+02 -0.11588802076E+02  0.17838608966E+02  0.51100000000E-03 0.  1.
        -11    1    3    3    0    0 -0.98932922726E+01  0.12900122608E+02 -0.36272826906E+01  0.16656757646E+02  0.51100000000E-03 0. -1.
         12    1    3    3    0    0  0.34440851298E+02 -0.15965823105E+01  0.15896910983E+02  0.37966209872E+02  0.00000000000E+00 0. -1.
</event>
<event>
 7    1  0.1375918E-013  0.7246155E+02  0.7816164E-02  0.1226708E+00
        -11   -1    0    0    0    0  0.00000000000E+00  0.00000000000E+00  0.45593999997E+02  0.45594000000E+02  0.51100000000E-03 0.  1.
         11   -1    0    0    0    0 -0.00000000000E+00 -0.00000000000E+00 -0.45593999997E+02  0.45594000000E+02  0.51100000000E-03 0. -1.
    9900012    2    1    2    0    0 -0.17230796490E+01  0.18575049806E+02 -0.16366327570E+01  0.72461546904E+02  0.69999969530E+02 0.  0.
         12    1    1    2    0    0  0.17230796490E+01 -0.18575049806E+02  0.16366327570E+01  0.18726453096E+02  0.00000000000E+00 0. -1.
         11    1    3    3    0    0  0.30778805730E+02  0.23202359988E+01 -0.33337911749E+01  0.31045652532E+02  0.51100000000E-03 0. -1.
        -11    1    3    3    0    0 -0.22205432349E+02  0.14689831093E+02 -0.73497756893E+01  0.27620491782E+02  0.51100000000E-03 0.  1.
         12    1    3    3    0    0 -0.10296453030E+02  0.15649827137E+01  0.90469341072E+01  0.13795402591E+02  0.00000000000E+00 0. -1.
</event>
<event>
 7    1  0.1375918E-013  0.7246147E+02  0.7816164E-02  0.1226708E+00
        -11   -1    0    0    0    0  0.00000000000E+00  0.00000000000E+00  0.45593999997E+02  0.45594000000E+02  0.51100000000E-03 0. -1.
         11   -1    0    0    0    0 -0.00000000000E+00 -0.00000000000E+00 -0.45593999997E+02  0.45594000000E+02  0.51100000000E-03 0.  1.
    9900012    2    1    2    0    0  0.75704477368E+01  0.14370511016E+02 -0.93198539322E+01  0.72461469539E+02  0.69999868747E+02 0.  0.
         12    1    1    2    0    0 -0.75704477368E+01 -0.14370511016E+02  0.93198539322E+01  0.18726530461E+02  0.00000000000E+00 0. -1.
         11    1    3    3    0    0  0.20572824886E+02 -0.98787636281E+01 -0.98647927237E+01  0.24862526629E+02  0.51100000000E-03 0. -1.
        -11    1    3    3    0    0 -0.18087556628E+02  0.27721858243E+02  0.11491923036E+02  0.35038913005E+02  0.51100000000E-03 0.  1.
        -12    1    3    3    0    0  0.50851794785E+01 -0.34725835992E+01 -0.10946984245E+02  0.12560029906E+02  0.00000000000E+00 0.  1.
</event>
<event>
 7    1  0.1375918E-013  0.7246155E+02  0.7816164E-02  0.1226708E+00
        -11   -1    0    0    0    0  0.00000000000E+00  0.00000000000E+00  0.45593999997E+02  0.45594000000E+02  0.51100000000E-03 0.  1.
         11   -1    0    0    0    0 -0.00000000000E+00 -0.00000000000E+00 -0.45593999997E+02  0.45594000000E+02  0.51100000000E-03 0. -1.
    9900012    2    1    2    0    0 -0.11458845233E+02 -0.11127945031E+02  0.97746441674E+01  0.72461549100E+02  0.69999972391E+02 0.  0.
         12    1    1    2    0    0  0.11458845233E+02  0.11127945031E+02 -0.97746441674E+01  0.18726450900E+02  0.00000000000E+00 0. -1.
         11    1    3    3    0    0 -0.16156222228E+02 -0.14467292389E+02 -0.10365395511E+02  0.24036794506E+02  0.51100000000E-03 0.  1.
        -11    1    3    3    0    0  0.75102622536E+01  0.22906710230E+02  0.89876561626E+01  0.25727405160E+02  0.51100000000E-03 0. -1.
        -12    1    3    3    0    0 -0.28128852582E+01 -0.19567362873E+02  0.11152383516E+02  0.22697349435E+02  0.00000000000E+00 0.  1.
</event>
<event>
 7    1  0.1375918E-013  0.7246154E+02  0.7816164E-02  0.1226708E+00
        -11   -1    0    0    0    0  0.00000000000E+00  0.00000000000E+00  0.45593999997E+02  0.45594000000E+02  0.51100000000E-03 0.  1.
         11   -1    0    0    0    0 -0.00000000000E+00 -0.00000000000E+00 -0.45593999997E+02  0.45594000000E+02  0.51100000000E-03 0. -1.
    9900012    2    1    2    0    0 -0.17012994883E+02  0.80058122624E-01  0.78250860934E+01  0.72461538066E+02  0.69999958017E+02 0.  0.
         12    1    1    2    0    0  0.17012994883E+02 -0.80058122624E-01 -0.78250860934E+01  0.18726461934E+02  0.00000000000E+00 0. -1.
         11    1    3    3    0    0 -0.80481107887E+01 -0.20745659379E+02 -0.36398638054E+01  0.22547795438E+02  0.51100000000E-03 0. -1.
        -11    1    3    3    0    0  0.23122273891E+01  0.23587598062E+02 -0.98307969280E+01  0.25658638825E+02  0.51100000000E-03 0.  1.
         12    1    3    3    0    0 -0.11277111483E+02 -0.27618805607E+01  0.21295746827E+02  0.24255103804E+02  0.00000000000E+00 0. -1.
</event>
<event>
 7    1  0.1375918E-013  0.7246155E+02  0.7816164E-02  0.1226708E+00
        -11   -1    0    0    0    0  0.00000000000E+00  0.00000000000E+00  0.45593999997E+02  0.45594000000E+02  0.51100000000E-03 0.  1.
         11   -1    0    0    0    0 -0.00000000000E+00 -0.00000000000E+00 -0.45593999997E+02  0.45594000000E+02  0.51100000000E-03 0. -1.
    9900012    2    1    2    0    0 -0.12237494708E+02 -0.32311600630E+01  0.13801566591E+02  0.72461550459E+02  0.69999974160E+02 0.  0.
         12    1    1    2    0    0  0.12237494708E+02  0.32311600630E+01 -0.13801566591E+02  0.18726449541E+02  0.00000000000E+00 0. -1.
         11    1    3    3    0    0  0.12963589032E+02  0.39582014838E+01 -0.19880082408E+01  0.13699422491E+02  0.51100000000E-03 0. -1.
        -11    1    3    3    0    0 -0.33890003240E+02 -0.42137521543E+01 -0.64013304669E+01  0.34745720007E+02  0.51100000000E-03 0.  1.
        -12    1    3    3    0    0  0.86889195009E+01 -0.29756093925E+01  0.22190905298E+02  0.24016407960E+02  0.00000000000E+00 0.  1.
</event>
<event>
 7    1  0.1375918E-013  0.7246159E+02  0.7816164E-02  0.1226708E+00
        -11   -1    0    0    0    0  0.00000000000E+00  0.00000000000E+00  0.45593999997E+02  0.45594000000E+02  0.51100000000E-03 0.  1.
         11   -1    0    0    0    0 -0.00000000000E+00 -0.00000000000E+00 -0.45593999997E+02  0.45594000000E+02  0.51100000000E-03 0. -1.
    9900012    2    1    2    0    0  0.16664830383E+02 -0.61892141561E+01  0.58869004659E+01  0.72461587085E+02  0.70000021874E+02 0.  0.
         12    1    1    2    0    0 -0.16664830383E+02  0.61892141561E+01 -0.58869004659E+01  0.18726412915E+02  0.00000000000E+00 0. -1.
         11    1    3    3    0    0  0.16774881387E+02 -0.21542238872E+02 -0.20463309199E+02  0.34120546959E+02  0.51100000000E-03 0. -1.
        -11    1    3    3    0    0  0.78156702971E+01  0.12336694391E+02  0.26039306715E+02  0.29855053595E+02  0.51100000000E-03 0.  1.
         12    1    3    3    0    0 -0.79257213012E+01  0.30163303245E+01  0.31090295060E+00  0.84859865316E+01  0.00000000000E+00 0. -1.
</event>
<event>
 7    1  0.1375918E-013  0.7246133E+02  0.7816164E-02  0.1226709E+00
        -11   -1    0    0    0    0  0.00000000000E+00  0.00000000000E+00  0.45593999997E+02  0.45594000000E+02  0.51100000000E-03 0.  1.
         11   -1    0    0    0    0 -0.00000000000E+00 -0.00000000000E+00 -0.45593999997E+02  0.45594000000E+02  0.51100000000E-03 0. -1.
    9900012    2    1    2    0    0  0.13367500232E+02 -0.11922433252E+02  0.54638438894E+01  0.72461332727E+02  0.69999690524E+02 0.  0.
         12    1    1    2    0    0 -0.13367500232E+02  0.11922433252E+02 -0.54638438894E+01  0.18726667273E+02  0.00000000000E+00 0. -1.
         11    1    3    3    0    0  0.21215056701E+01 -0.15150688053E+02  0.29921361835E+02  0.33605535692E+02  0.51100000000E-03 0. -1.
        -11    1    3    3    0    0  0.16858293283E+02  0.35135458358E+01 -0.40522884072E+01  0.17690904396E+02  0.51100000000E-03 0.  1.
         12    1    3    3    0    0 -0.56122987211E+01 -0.28529103447E+00 -0.20405229539E+02  0.21164892639E+02  0.00000000000E+00 0. -1.
</event>
<event>
 7    1  0.1375918E-013  0.7246156E+02  0.7816164E-02  0.1226708E+00
        -11   -1    0    0    0    0  0.00000000000E+00  0.00000000000E+00  0.45593999997E+02  0.45594000000E+02  0.51100000000E-03 0. -1.
         11   -1    0    0    0    0 -0.00000000000E+00 -0.00000000000E+00 -0.45593999997E+02  0.45594000000E+02  0.51100000000E-03 0.  1.
    9900012    2    1    2    0    0  0.14829147165E+02 -0.73706657911E+01 -0.87435220490E+01  0.72461561532E+02  0.69999988586E+02 0.  0.
         12    1    1    2    0    0 -0.14829147165E+02  0.73706657911E+01  0.87435220490E+01  0.18726438468E+02  0.00000000000E+00 0. -1.
         11    1    3    3    0    0  0.15624129008E+02  0.11019771861E+02  0.17376525428E+02  0.25835874581E+02  0.51100000000E-03 0. -1.
        -11    1    3    3    0    0 -0.12803952858E+01 -0.21985290833E+02 -0.32516451548E+02  0.39272280894E+02  0.51100000000E-03 0.  1.
        -12    1    3    3    0    0  0.48541344274E+00  0.35948531810E+01  0.63964040714E+01  0.73534060576E+01  0.00000000000E+00 0.  1.
</event>
<event>
 7    1  0.1375918E-013  0.7246154E+02  0.7816164E-02  0.1226708E+00
        -11   -1    0    0    0    0  0.00000000000E+00  0.00000000000E+00  0.45593999997E+02  0.45594000000E+02  0.51100000000E-03 0.  1.
         11   -1    0    0    0    0 -0.00000000000E+00 -0.00000000000E+00 -0.45593999997E+02  0.45594000000E+02  0.51100000000E-03 0. -1.
    9900012    2    1    2    0    0  0.61925390190E+01 -0.10951914050E+01  0.17638973240E+02  0.72461538490E+02  0.69999958569E+02 0.  0.
         12    1    1    2    0    0 -0.61925390190E+01  0.10951914050E+01 -0.17638973240E+02  0.18726461510E+02  0.00000000000E+00 0. -1.
         11    1    3    3    0    0  0.10462615942E+01  0.10402672482E+02  0.24098461954E+02  0.26268729069E+02  0.51100000000E-03 0. -1.
        -11    1    3    3    0    0  0.23762853263E+02 -0.95412367405E+01 -0.93326463209E+01  0.27254480024E+02  0.51100000000E-03 0.  1.
         12    1    3    3    0    0 -0.18616575838E+02 -0.19566271467E+01  0.28731576072E+01  0.18938329398E+02  0.00000000000E+00 0. -1.
</event>
<event>
 7    1  0.1375918E-013  0.7246159E+02  0.7816164E-02  0.1226708E+00
        -11   -1    0    0    0    0  0.00000000000E+00  0.00000000000E+00  0.45593999997E+02  0.45594000000E+02  0.51100000000E-03 0.  1.
         11   -1    0    0    0    0 -0.00000000000E+00 -0.00000000000E+00 -0.45593999997E+02  0.45594000000E+02  0.51100000000E-03 0. -1.
    9900012    2    1    2    0    0 -0.17039869876E+02  0.39300581439E+01  0.66989394274E+01  0.72461593195E+02  0.70000029832E+02 0.  0.
         12    1    1    2    0    0  0.17039869876E+02 -0.39300581439E+01 -0.66989394274E+01  0.18726406805E+02  0.00000000000E+00 0. -1.
         11    1    3    3    0    0 -0.80924785760E+01 -0.22360122430E+02 -0.11160239023E+02  0.26268121743E+02  0.51100000000E-03 0.  1.
        -11    1    3    3    0    0  0.11700868907E+02  0.13138946064E+02  0.39300018375E+01  0.18027400022E+02  0.51100000000E-03 0. -1.
         12    1    3    3    0    0 -0.20648260206E+02  0.13151234510E+02  0.13929176613E+02  0.28166071430E+02  0.00000000000E+00 0. -1.
</event>
<event>
 7    1  0.1375918E-013  0.7246159E+02  0.7816164E-02  0.1226708E+00
        -11   -1    0    0    0    0  0.00000000000E+00  0.00000000000E+00  0.45593999997E+02  0.45594000000E+02  0.51100000000E-03 0. -1.
         11   -1    0    0    0    0 -0.00000000000E+00 -0.00000000000E+00 -0.45593999997E+02  0.45594000000E+02  0.51100000000E-03 0.  1.
    9900012    2    1    2    0    0 -0.52371244557E+01  0.13944441690E+02  0.11349160480E+02  0.72461591636E+02  0.70000027802E+02 0.  0.
         12    1    1    2    0    0  0.52371244557E+01 -0.13944441690E+02 -0.11349160480E+02  0.18726408364E+02  0.00000000000E+00 0. -1.
         11    1    3    3    0    0  0.22431785912E+02  0.28417711154E+02  0.14851477321E+02  0.39132054703E+02  0.51100000000E-03 0. -1.
        -11    1    3    3    0    0 -0.90484552164E+01 -0.86715488695E+01  0.27836867670E+01  0.12838193560E+02  0.51100000000E-03 0.  1.
         12    1    3    3    0    0 -0.18620455151E+02 -0.58017205946E+01 -0.62860036075E+01  0.20491343374E+02  0.00000000000E+00 0. -1.
</event>
<event>
 7    1  0.1375918E-013  0.7246159E+02  0.7816164E-02  0.1226708E+00
        -11   -1    0    0    0    0  0.00000000000E+00  0.00000000000E+00  0.45593999997E+02  0.45594000000E+02  0.51100000000E-03 0. -1.
         11   -1    0    0    0    0 -0.00000000000E+00 -0.00000000000E+00 -0.45593999997E+02  0.45594000000E+02  0.51100000000E-03 0.  1.
    9900012    2    1    2    0    0 -0.15364234678E+02  0.85108841788E+01 -0.64948984999E+01  0.72461586482E+02  0.70000021087E+02 0.  0.
         12    1    1    2    0    0  0.15364234678E+02 -0.85108841788E+01  0.64948984999E+01  0.18726413518E+02  0.00000000000E+00 0. -1.
         11    1    3    3    0    0 -0.10733235953E+02 -0.14706648031E+02 -0.56668757829E+01  0.19068333219E+02  0.51100000000E-03 0. -1.
        -11    1    3    3    0    0 -0.12112092499E+02  0.34853925762E+02  0.69136663157E+01  0.37540614112E+02  0.51100000000E-03 0.  1.
        -12    1    3    3    0    0  0.74810937747E+01 -0.11636393552E+02 -0.77416890326E+01  0.15852639151E+02  0.00000000000E+00 0.  1.
</event>
<event>
 7    1  0.1375918E-013  0.7246158E+02  0.7816164E-02  0.1226708E+00
        -11   -1    0    0    0    0  0.00000000000E+00  0.00000000000E+00  0.45593999997E+02  0.45594000000E+02  0.51100000000E-03 0.  1.
         11   -1    0    0    0    0 -0.00000000000E+00 -0.00000000000E+00 -0.45593999997E+02  0.45594000000E+02  0.51100000000E-03 0. -1.
    9900012    2    1    2    0    0 -0.55272046385E+01  0.12922846888E+02  0.12374527356E+02  0.72461577755E+02  0.70000009719E+02 0.  0.
         12    1    1    2    0    0  0.55272046385E+01 -0.12922846888E+02 -0.12374527356E+02  0.18726422245E+02  0.00000000000E+00 0. -1.
         11    1    3    3    0    0 -0.61049077662E+01 -0.21691946602E+02  0.86227806317E+01  0.24128049907E+02  0.51100000000E-03 0. -1.
        -11    1    3    3    0    0 -0.13843621845E+02  0.28667938193E+02 -0.15084169737E+01  0.31871176132E+02  0.51100000000E-03 0.  1.
         12    1    3    3    0    0  0.14421324972E+02  0.59468552977E+01  0.52601636984E+01  0.16462351716E+02  0.00000000000E+00 0. -1.
</event>
<event>
 7    1  0.1375918E-013  0.7246158E+02  0.7816164E-02  0.1226708E+00
        -11   -1    0    0    0    0  0.00000000000E+00  0.00000000000E+00  0.45593999997E+02  0.45594000000E+02  0.51100000000E-03 0.  1.
         11   -1    0    0    0    0 -0.00000000000E+00 -0.00000000000E+00 -0.45593999997E+02  0.45594000000E+02  0.51100000000E-03 0. -1.
    9900012    2    1    2    0    0 -0.27355105199E+01  0.16781203363E+02  0.78477422410E+01  0.72461578495E+02  0.70000010683E+02 0.  0.
         12    1    1    2    0    0  0.27355105199E+01 -0.16781203363E+02 -0.78477422410E+01  0.18726421505E+02  0.00000000000E+00 0. -1.
         11    1    3    3    0    0  0.34820406170E+01  0.17367193651E+02 -0.12525711512E+02  0.21694180586E+02  0.51100000000E-03 0. -1.
        -11    1    3    3    0    0 -0.15576515674E+02  0.94421857345E+01  0.29229154256E+02  0.34440182502E+02  0.51100000000E-03 0.  1.
        -12    1    3    3    0    0  0.93589645372E+01 -0.10028176022E+02 -0.88557005027E+01  0.16327215407E+02  0.00000000000E+00 0.  1.
</event>
<event>
 7    1  0.1375918E-013  0.7246160E+02  0.7816164E-02  0.1226708E+00
        -11   -1    0    0    0    0  0.00000000000E+00  0.00000000000E+00  0.45593999997E+02  0.45594000000E+02  0.51100000000E-03 0. -1.
         11   -1    0    0    0    0 -0.00000000000E+00 -0.00000000000E+00 -0.45593999997E+02  0.45594000000E+02  0.51100000000E-03 0.  1.
    9900012    2    1    2    0    0  0.57709667214E+01 -0.39625346436E+01 -0.17368717827E+02  0.72461598941E+02  0.70000037317E+02 0.  0.
         12    1    1    2    0    0 -0.57709667214E+01  0.39625346436E+01  0.17368717827E+02  0.18726401059E+02  0.00000000000E+00 0. -1.
         11    1    3    3    0    0  0.62618912110E+01 -0.84623364846E+01  0.81269373727E+01  0.13299230490E+02  0.51100000000E-03 0. -1.
        -11    1    3    3    0    0 -0.20008200178E+02 -0.15529359852E+02 -0.13865233656E+02  0.28874448850E+02  0.51100000000E-03 0.  1.
        -12    1    3    3    0    0  0.19517275689E+02  0.20029161693E+02 -0.11630421543E+02  0.30287919600E+02  0.00000000000E+00 0.  1.
</event>
<event>
 7    1  0.1375918E-013  0.7246158E+02  0.7816164E-02  0.1226708E+00
        -11   -1    0    0    0    0  0.00000000000E+00  0.00000000000E+00  0.45593999997E+02  0.45594000000E+02  0.51100000000E-03 0.  1.
         11   -1    0    0    0    0 -0.00000000000E+00 -0.00000000000E+00 -0.45593999997E+02  0.45594000000E+02  0.51100000000E-03 0. -1.
    9900012    2    1    2    0    0  0.10999416791E+02  0.25586790765E+01 -0.14938030755E+02  0.72461580930E+02  0.70000013855E+02 0.  0.
         12    1    1    2    0    0 -0.10999416791E+02 -0.25586790765E+01  0.14938030755E+02  0.18726419070E+02  0.00000000000E+00 0. -1.
         11    1    3    3    0    0 -0.20016887300E+02 -0.81104004876E+01 -0.27115373470E+02  0.34665513871E+02  0.51100000000E-03 0. -1.
        -11    1    3    3    0    0  0.38522154838E+01  0.70125150409E+01  0.54105178524E+00  0.80192062343E+01  0.51100000000E-03 0.  1.
         12    1    3    3    0    0  0.27164088607E+02  0.36565645232E+01  0.11636290931E+02  0.29776860825E+02  0.00000000000E+00 0. -1.
</event>
<event>
 7    1  0.1375918E-013  0.7246135E+02  0.7816164E-02  0.1226709E+00
        -11   -1    0    0    0    0  0.00000000000E+00  0.00000000000E+00  0.45593999997E+02  0.45594000000E+02  0.51100000000E-03 0.  1.
         11   -1    0    0    0    0 -0.00000000000E+00 -0.00000000000E+00 -0.45593999997E+02  0.45594000000E+02  0.51100000000E-03 0. -1.
    9900012    2    1    2    0    0  0.87983071341E+01 -0.99136116144E+01  0.13228656356E+02  0.72461354474E+02  0.69999718854E+02 0.  0.
         12    1    1    2    0    0 -0.87983071341E+01  0.99136116144E+01 -0.13228656356E+02  0.18726645526E+02  0.00000000000E+00 0. -1.
         11    1    3    3    0    0 -0.16427084264E+02  0.38323675062E+01 -0.10558940943E+02  0.19900436483E+02  0.51100000000E-03 0. -1.
        -11    1    3    3    0    0  0.32048839301E+02 -0.14395798161E+02  0.90090908625E+01  0.36270247086E+02  0.51100000000E-03 0.  1.
         12    1    3    3    0    0 -0.68234479029E+01  0.64981904044E+00  0.14778506436E+02  0.16290670906E+02  0.00000000000E+00 0. -1.
</event>
<event>
 7    1  0.1375918E-013  0.7246160E+02  0.7816164E-02  0.1226708E+00
        -11   -1    0    0    0    0  0.00000000000E+00  0.00000000000E+00  0.45593999997E+02  0.45594000000E+02  0.51100000000E-03 0. -1.
         11   -1    0    0    0    0 -0.00000000000E+00 -0.00000000000E+00 -0.45593999997E+02  0.45594000000E+02  0.51100000000E-03 0.  1.
    9900012    2    1    2    0    0 -0.96270097179E+01 -0.10886732364E+02 -0.11810076676E+02  0.72461597014E+02  0.70000034808E+02 0.  0.
         12    1    1    2    0    0  0.96270097179E+01  0.10886732364E+02  0.11810076676E+02  0.18726402986E+02  0.00000000000E+00 0. -1.
         11    1    3    3    0    0 -0.44603878183E+01 -0.21403072943E+02  0.40122494593E+01  0.22228016935E+02  0.51100000000E-03 0.  1.
        -11    1    3    3    0    0 -0.16244713747E+02  0.39424483537E+01 -0.27933012188E+02  0.32552830813E+02  0.51100000000E-03 0. -1.
         12    1    3    3    0    0  0.11078091848E+02  0.65738922247E+01  0.12110686053E+02  0.17680749267E+02  0.00000000000E+00 0. -1.
</event>
<event>
 7    1  0.1375918E-013  0.7246158E+02  0.7816164E-02  0.1226708E+00
        -11   -1    0    0    0    0  0.00000000000E+00  0.00000000000E+00  0.45593999997E+02  0.45594000000E+02  0.51100000000E-03 0.  1.
         11   -1    0    0    0    0 -0.00000000000E+00 -0.00000000000E+00 -0.45593999997E+02  0.45594000000E+02  0.51100000000E-03 0. -1.
    9900012    2    1    2    0    0  0.21303503768E+00  0.13400843810E+02  0.13078640508E+02  0.72461579192E+02  0.70000011591E+02 0.  0.
         12    1    1    2    0    0 -0.21303503768E+00 -0.13400843810E+02 -0.13078640508E+02  0.18726420808E+02  0.00000000000E+00 0. -1.
         11    1    3    3    0    0  0.29920635597E+01 -0.26507857451E+01 -0.11384222522E+00  0.39990085928E+01  0.51100000000E-03 0. -1.
        -11    1    3    3    0    0 -0.11232455667E+02  0.13643508847E+02 -0.24247727027E+02  0.30004427343E+02  0.51100000000E-03 0.  1.
        -12    1    3    3    0    0  0.84534271446E+01  0.24081207075E+01  0.37440209760E+02  0.38458143256E+02  0.00000000000E+00 0.  1.
</event>
<event>
 7    1  0.1375918E-013  0.7246156E+02  0.7816164E-02  0.1226708E+00
        -11   -1    0    0    0    0  0.00000000000E+00  0.00000000000E+00  0.45593999997E+02  0.45594000000E+02  0.51100000000E-03 0.  1.
         11   -1    0    0    0    0 -0.00000000000E+00 -0.00000000000E+00 -0.45593999997E+02  0.45594000000E+02  0.51100000000E-03 0. -1.
    9900012    2    1    2    0    0  0.14521924377E+02 -0.10044675160E+02 -0.62368073321E+01  0.72461560072E+02  0.69999986683E+02 0.  0.
         12    1    1    2    0    0 -0.14521924377E+02  0.10044675160E+02  0.62368073321E+01  0.18726439928E+02  0.00000000000E+00 0. -1.
         11    1    3    3    0    0  0.87572442823E+01  0.14029483231E+02  0.23535222289E+02  0.28764951167E+02  0.51100000000E-03 0. -1.
        -11    1    3    3    0    0  0.68784594165E+01 -0.16640628677E+02 -0.63420111308E+01  0.19090438239E+02  0.51100000000E-03 0.  1.
         12    1    3    3    0    0 -0.11137793218E+01 -0.74335297142E+01 -0.23430018491E+02  0.24606170667E+02  0.00000000000E+00 0. -1.
</event>
<event>
 7    1  0.1375918E-013  0.7246124E+02  0.7816164E-02  0.1226709E+00
        -11   -1    0    0    0    0  0.00000000000E+00  0.00000000000E+00  0.45593999997E+02  0.45594000000E+02  0.51100000000E-03 0.  1.
         11   -1    0    0    0    0 -0.00000000000E+00 -0.00000000000E+00 -0.45593999997E+02  0.45594000000E+02  0.51100000000E-03 0. -1.
    9900012    2    1    2    0    0 -0.94632497564E+01 -0.14414491100E+02  0.73048656654E+01  0.72461235410E+02  0.69999563750E+02 0.  0.
         12    1    1    2    0    0  0.94632497564E+01  0.14414491100E+02 -0.73048656654E+01  0.18726764590E+02  0.00000000000E+00 0. -1.
         11    1    3    3    0    0 -0.12272324962E+02  0.11010143232E+02  0.31726521972E+02  0.35754795632E+02  0.51100000000E-03 0. -1.
        -11    1    3    3    0    0 -0.61245112513E+00 -0.69297924887E+01 -0.16100977267E+01  0.71406957131E+01  0.51100000000E-03 0.  1.
         12    1    3    3    0    0  0.34215263307E+01 -0.18494841843E+02 -0.22811558580E+02  0.29565744065E+02  0.00000000000E+00 0. -1.
</event>
<event>
 7    1  0.1375918E-013  0.7246173E+02  0.7816164E-02  0.1226708E+00
        -11   -1    0    0    0    0  0.00000000000E+00  0.00000000000E+00  0.45593999997E+02  0.45594000000E+02  0.51100000000E-03 0. -1.
         11   -1    0    0    0    0 -0.00000000000E+00 -0.00000000000E+00 -0.45593999997E+02  0.45594000000E+02  0.51100000000E-03 0.  1.
    9900012    2    1    2    0    0  0.96699246006E+01 -0.13433217666E+02 -0.87586771132E+01  0.72461729592E+02  0.70000207514E+02 0.  0.
         12    1    1    2    0    0 -0.96699246006E+01  0.13433217666E+02  0.87586771132E+01  0.18726270408E+02  0.00000000000E+00 0. -1.
         11    1    3    3    0    0  0.24665397028E+01 -0.16723905534E+02  0.78933517438E+00  0.16923235054E+02  0.51100000000E-03 0. -1.
        -11    1    3    3    0    0  0.25502103000E+02  0.13144508341E+02  0.63345780569E+01  0.29381324619E+02  0.51100000000E-03 0.  1.
        -12    1    3    3    0    0 -0.18298718102E+02 -0.98538204728E+01 -0.15882590344E+02  0.26157169919E+02  0.00000000000E+00 0.  1.
</event>
<event>
 7    1  0.1375918E-013  0.7246172E+02  0.7816164E-02  0.1226708E+00
        -11   -1    0    0    0    0  0.00000000000E+00  0.00000000000E+00  0.45593999997E+02  0.45594000000E+02  0.51100000000E-03 0.  1.
         11   -1    0    0    0    0 -0.00000000000E+00 -0.00000000000E+00 -0.45593999997E+02  0.45594000000E+02  0.51100000000E-03 0. -1.
    9900012    2    1    2    0    0 -0.91027346059E+01  0.91514708527E+01  0.13567026626E+02  0.72461724141E+02  0.70000200414E+02 0.  0.
         12    1    1    2    0    0  0.91027346059E+01 -0.91514708527E+01 -0.13567026626E+02  0.18726275859E+02  0.00000000000E+00 0. -1.
         11    1    3    3    0    0 -0.66925329426E+01 -0.33131663309E+00 -0.17478564137E+02  0.18718973595E+02  0.51100000000E-03 0. -1.
        -11    1    3    3    0    0  0.81108207879E+01 -0.12564520204E+02  0.24069623149E+02  0.28337242996E+02  0.51100000000E-03 0.  1.
        -12    1    3    3    0    0 -0.10521022451E+02  0.22047307689E+02  0.69759676137E+01  0.25405507551E+02  0.00000000000E+00 0.  1.
</event>
<event>
 7    1  0.1375918E-013  0.7246152E+02  0.7816164E-02  0.1226708E+00
        -11   -1    0    0    0    0  0.00000000000E+00  0.00000000000E+00  0.45593999997E+02  0.45594000000E+02  0.51100000000E-03 0. -1.
         11   -1    0    0    0    0 -0.00000000000E+00 -0.00000000000E+00 -0.45593999997E+02  0.45594000000E+02  0.51100000000E-03 0.  1.
    9900012    2    1    2    0    0  0.14690469606E+02 -0.82413682565E+01 -0.81823553021E+01  0.72461521787E+02  0.69999936810E+02 0.  0.
         12    1    1    2    0    0 -0.14690469606E+02  0.82413682565E+01  0.81823553021E+01  0.18726478213E+02  0.00000000000E+00 0. -1.
         11    1    3    3    0    0  0.27836304526E+02  0.65564753713E+01 -0.15593670610E+02  0.32573145110E+02  0.51100000000E-03 0. -1.
        -11    1    3    3    0    0 -0.92738671291E+01 -0.20039315695E+02 -0.77373529780E+01  0.23397551505E+02  0.51100000000E-03 0.  1.
        -12    1    3    3    0    0 -0.38719677914E+01  0.52414720675E+01  0.15148668286E+02  0.16490825172E+02  0.00000000000E+00 0.  1.
</event>
<event>
 7    1  0.1375918E-013  0.7246154E+02  0.7816164E-02  0.1226708E+00
        -11   -1    0    0    0    0  0.00000000000E+00  0.00000000000E+00  0.45593999997E+02  0.45594000000E+02  0.51100000000E-03 0.  1.
         11   -1    0    0    0    0 -0.00000000000E+00 -0.00000000000E+00 -0.45593999997E+02  0.45594000000E+02  0.51100000000E-03 0. -1.
    9900012    2    1    2    0    0  0.18425293045E+02 -0.22224109985E+01  0.24999318416E+01  0.72461542950E+02  0.69999964379E+02 0.  0.
         12    1    1    2    0    0 -0.18425293045E+02  0.22224109985E+01 -0.24999318416E+01  0.18726457050E+02  0.00000000000E+00 0. -1.
         11    1    3    3    0    0  0.27320683529E+02 -0.20587927491E+02 -0.25284293268E+01  0.34302703421E+02  0.51100000000E-03 0. -1.
        -11    1    3    3    0    0  0.45261364139E+01  0.16671570734E+02 -0.83021830584E+01  0.19166466168E+02  0.51100000000E-03 0.  1.
         12    1    3    3    0    0 -0.13421526898E+02  0.16939457587E+01  0.13330544227E+02  0.18992373361E+02  0.00000000000E+00 0. -1.
</event>
<event>
 7    1  0.1375918E-013  0.7246156E+02  0.7816164E-02  0.1226708E+00
        -11   -1    0    0    0    0  0.00000000000E+00  0.00000000000E+00  0.45593999997E+02  0.45594000000E+02  0.51100000000E-03 0.  1.
         11   -1    0    0    0    0 -0.00000000000E+00 -0.00000000000E+00 -0.45593999997E+02  0.45594000000E+02  0.51100000000E-03 0. -1.
    9900012    2    1    2    0    0  0.15738566824E+02  0.26574257323E+01  0.97936368259E+01  0.72461555611E+02  0.69999980872E+02 0.  0.
         12    1    1    2    0    0 -0.15738566824E+02 -0.26574257323E+01 -0.97936368259E+01  0.18726444389E+02  0.00000000000E+00 0. -1.
         11    1    3    3    0    0  0.80057509168E+01  0.22342844905E+02 -0.22963914890E+02  0.33024780901E+02  0.51100000000E-03 0. -1.
        -11    1    3    3    0    0  0.62497205391E+01 -0.12385084145E+02  0.25539494195E+02  0.29063982523E+02  0.51100000000E-03 0.  1.
         12    1    3    3    0    0  0.14830953677E+01 -0.73003350279E+01  0.72180575206E+01  0.10372792187E+02  0.00000000000E+00 0. -1.
</event>
<event>
 7    1  0.1375918E-013  0.7246158E+02  0.7816164E-02  0.1226708E+00
        -11   -1    0    0    0    0  0.00000000000E+00  0.00000000000E+00  0.45593999997E+02  0.45594000000E+02  0.51100000000E-03 0.  1.
         11   -1    0    0    0    0 -0.00000000000E+00 -0.00000000000E+00 -0.45593999997E+02  0.45594000000E+02  0.51100000000E-03 0. -1.
    9900012    2    1    2    0    0 -0.83440669429E+01  0.15414930722E+02 -0.65905408918E+01  0.72461580920E+02  0.70000013842E+02 0.  0.
         12    1    1    2    0    0  0.83440669429E+01 -0.15414930722E+02  0.65905408918E+01  0.18726419080E+02  0.00000000000E+00 0. -1.
         11    1    3    3    0    0  0.15496236225E+02  0.53220926257E-01 -0.14197489785E+02  0.21016776300E+02  0.51100000000E-03 0. -1.
        -11    1    3    3    0    0 -0.35863949621E+02  0.14878635073E+02  0.52215652997E+01  0.39177307315E+02  0.51100000000E-03 0.  1.
         12    1    3    3    0    0  0.12023646453E+02  0.48307472329E+00  0.23853835938E+01  0.12267497304E+02  0.00000000000E+00 0. -1.
</event>
<event>
 7    1  0.1375918E-013  0.7246147E+02  0.7816164E-02  0.1226708E+00
        -11   -1    0    0    0    0  0.00000000000E+00  0.00000000000E+00  0.45593999997E+02  0.45594000000E+02  0.51100000000E-03 0.  1.
         11   -1    0    0    0    0 -0.00000000000E+00 -0.00000000000E+00 -0.45593999997E+02  0.45594000000E+02  0.51100000000E-03 0. -1.
    9900012    2    1    2    0    0 -0.25983623009E+01  0.18352528453E+01  0.18454358575E+02  0.72461468285E+02  0.69999867114E+02 0.  0.
         12    1    1    2    0    0  0.25983623009E+01 -0.18352528453E+01 -0.18454358575E+02  0.18726531715E+02  0.00000000000E+00 0. -1.
         11    1    3    3    0    0  0.19839667746E+02 -0.31093038263E+01  0.59593637217E+01  0.20947415182E+02  0.51100000000E-03 0.  1.
        -11    1    3    3    0    0  0.16348543182E+01  0.12696268235E+02 -0.11087186003E+02  0.16934983598E+02  0.51100000000E-03 0. -1.
         12    1    3    3    0    0 -0.24072884366E+02 -0.77517115638E+01  0.23582180857E+02  0.34579069505E+02  0.00000000000E+00 0. -1.
</event>
<event>
 7    1  0.1375918E-013  0.7246161E+02  0.7816164E-02  0.1226708E+00
        -11   -1    0    0    0    0  0.00000000000E+00  0.00000000000E+00  0.45593999997E+02  0.45594000000E+02  0.51100000000E-03 0.  1.
         11   -1    0    0    0    0 -0.00000000000E+00 -0.00000000000E+00 -0.45593999997E+02  0.45594000000E+02  0.51100000000E-03 0. -1.
    9900012    2    1    2    0    0 -0.10543015975E+02  0.86078406530E+01  0.12861871943E+02  0.72461605354E+02  0.70000045672E+02 0.  0.
         12    1    1    2    0    0  0.10543015975E+02 -0.86078406530E+01 -0.12861871943E+02  0.18726394646E+02  0.00000000000E+00 0. -1.
         11    1    3    3    0    0 -0.33285088441E+02 -0.36438875860E+01 -0.11188624497E+01  0.33502639937E+02  0.51100000000E-03 0. -1.
        -11    1    3    3    0    0  0.24137013714E+02  0.47393774233E+00  0.67463605758E+01  0.25066579928E+02  0.51100000000E-03 0.  1.
         12    1    3    3    0    0 -0.13949412477E+01  0.11777790497E+02  0.72343738165E+01  0.13892385489E+02  0.00000000000E+00 0. -1.
</event>
<event>
 7    1  0.1375918E-013  0.7246164E+02  0.7816164E-02  0.1226708E+00
        -11   -1    0    0    0    0  0.00000000000E+00  0.00000000000E+00  0.45593999997E+02  0.45594000000E+02  0.51100000000E-03 0.  1.
         11   -1    0    0    0    0 -0.00000000000E+00 -0.00000000000E+00 -0.45593999997E+02  0.45594000000E+02  0.51100000000E-03 0. -1.
    9900012    2    1    2    0    0 -0.88632978040E+01  0.16148198482E+02 -0.33695773822E+01  0.72461643870E+02  0.70000095846E+02 0.  0.
         12    1    1    2    0    0  0.88632978040E+01 -0.16148198482E+02  0.33695773822E+01  0.18726356130E+02  0.00000000000E+00 0. -1.
         11    1    3    3    0    0 -0.67240803741E+01  0.15922623275E+02 -0.44245820690E+01  0.17841527838E+02  0.51100000000E-03 0. -1.
        -11    1    3    3    0    0 -0.12982626292E+02 -0.18019597290E+02 -0.16016561864E+02  0.27382197248E+02  0.51100000000E-03 0.  1.
        -12    1    3    3    0    0  0.10843408862E+02  0.18245172497E+02  0.17071566551E+02  0.27237918784E+02  0.00000000000E+00 0.  1.
</event>
<event>
 7    1  0.1375918E-013  0.7246158E+02  0.7816164E-02  0.1226708E+00
        -11   -1    0    0    0    0  0.00000000000E+00  0.00000000000E+00  0.45593999997E+02  0.45594000000E+02  0.51100000000E-03 0.  1.
         11   -1    0    0    0    0 -0.00000000000E+00 -0.00000000000E+00 -0.45593999997E+02  0.45594000000E+02  0.51100000000E-03 0. -1.
    9900012    2    1    2    0    0 -0.13038111730E+02 -0.11923767549E+02  0.62056564664E+01  0.72461581169E+02  0.70000014166E+02 0.  0.
         12    1    1    2    0    0  0.13038111730E+02  0.11923767549E+02 -0.62056564664E+01  0.18726418831E+02  0.00000000000E+00 0. -1.
         11    1    3    3    0    0 -0.30936086655E+02 -0.61345254817E+01 -0.19442709423E+02  0.37049869235E+02  0.51100000000E-03 0. -1.
        -11    1    3    3    0    0  0.11870928460E+02 -0.54915672862E+01  0.26269358475E+02  0.29345450222E+02  0.51100000000E-03 0.  1.
         12    1    3    3    0    0  0.60270464647E+01 -0.29767478148E+00 -0.62099258626E+00  0.60662617117E+01  0.00000000000E+00 0. -1.
</event>
<event>
 7    1  0.1375918E-013  0.7246161E+02  0.7816164E-02  0.1226708E+00
        -11   -1    0    0    0    0  0.00000000000E+00  0.00000000000E+00  0.45593999997E+02  0.45594000000E+02  0.51100000000E-03 0.  1.
         11   -1    0    0    0    0 -0.00000000000E+00 -0.00000000000E+00 -0.45593999997E+02  0.45594000000E+02  0.51100000000E-03 0. -1.
    9900012    2    1    2    0    0 -0.41709640669E+01  0.11808155165E+02  0.13922932578E+02  0.72461614304E+02  0.70000057331E+02 0.  0.
         12    1    1    2    0    0  0.41709640669E+01 -0.11808155165E+02 -0.13922932578E+02  0.18726385696E+02  0.00000000000E+00 0. -1.
         11    1    3    3    0    0 -0.93139813561E+01 -0.83231226378E+01 -0.16971507775E+02  0.21072652789E+02  0.51100000000E-03 0. -1.
        -11    1    3    3    0    0 -0.37553517855E+01  0.28315985772E+02  0.18259255676E+02  0.33901299906E+02  0.51100000000E-03 0.  1.
        -12    1    3    3    0    0  0.88983690747E+01 -0.81847079690E+01  0.12635184677E+02  0.17487661609E+02  0.00000000000E+00 0.  1.
</event>
<event>
 7    1  0.1375918E-013  0.7246160E+02  0.7816164E-02  0.1226708E+00
        -11   -1    0    0    0    0  0.00000000000E+00  0.00000000000E+00  0.45593999997E+02  0.45594000000E+02  0.51100000000E-03 0.  1.
         11   -1    0    0    0    0 -0.00000000000E+00 -0.00000000000E+00 -0.45593999997E+02  0.45594000000E+02  0.51100000000E-03 0. -1.
    9900012    2    1    2    0    0  0.14130772538E+02 -0.51147634612E-01 -0.12288078498E+02  0.72461595599E+02  0.70000032964E+02 0.  0.
         12    1    1    2    0    0 -0.14130772538E+02  0.51147634612E-01  0.12288078498E+02  0.18726404401E+02  0.00000000000E+00 0. -1.
         11    1    3    3    0    0  0.85049786292E+01  0.11002288087E+02 -0.20163949777E+02  0.24494282506E+02  0.51100000000E-03 0. -1.
        -11    1    3    3    0    0  0.19443350750E+01 -0.15395144958E+02  0.25276296794E+02  0.29659435380E+02  0.51100000000E-03 0.  1.
        -12    1    3    3    0    0  0.36814588343E+01  0.43417092367E+01 -0.17400425515E+02  0.18307877713E+02  0.00000000000E+00 0.  1.
</event>
<event>
 7    1  0.1375918E-013  0.7246155E+02  0.7816164E-02  0.1226708E+00
        -11   -1    0    0    0    0  0.00000000000E+00  0.00000000000E+00  0.45593999997E+02  0.45594000000E+02  0.51100000000E-03 0.  1.
         11   -1    0    0    0    0 -0.00000000000E+00 -0.00000000000E+00 -0.45593999997E+02  0.45594000000E+02  0.51100000000E-03 0. -1.
    9900012    2    1    2    0    0  0.39865372255E+01 -0.17520028097E+02  0.52759960523E+01  0.72461548176E+02  0.69999971187E+02 0.  0.
         12    1    1    2    0    0 -0.39865372255E+01  0.17520028097E+02 -0.52759960523E+01  0.18726451824E+02  0.00000000000E+00 0. -1.
         11    1    3    3    0    0 -0.22533676596E+01 -0.27622300229E+02  0.97444351709E+01  0.29377255706E+02  0.51100000000E-03 0. -1.
        -11    1    3    3    0    0 -0.43413874439E+01  0.97185777135E+01  0.16476205648E+02  0.19615395752E+02  0.51100000000E-03 0.  1.
        -12    1    3    3    0    0  0.10581292329E+02  0.38369441831E+00 -0.20944644767E+02  0.23468896718E+02  0.00000000000E+00 0.  1.
</event>
<event>
 7    1  0.1375918E-013  0.7246157E+02  0.7816164E-02  0.1226708E+00
        -11   -1    0    0    0    0  0.00000000000E+00  0.00000000000E+00  0.45593999997E+02  0.45594000000E+02  0.51100000000E-03 0.  1.
         11   -1    0    0    0    0 -0.00000000000E+00 -0.00000000000E+00 -0.45593999997E+02  0.45594000000E+02  0.51100000000E-03 0. -1.
    9900012    2    1    2    0    0 -0.14500240602E+02 -0.44818573809E+01  0.10969733308E+02  0.72461572900E+02  0.70000003394E+02 0.  0.
         12    1    1    2    0    0  0.14500240602E+02  0.44818573809E+01 -0.10969733308E+02  0.18726427100E+02  0.00000000000E+00 0. -1.
         11    1    3    3    0    0  0.15092015549E+02 -0.17508666611E+02 -0.14952667742E+02  0.27530067430E+02  0.51100000000E-03 0. -1.
        -11    1    3    3    0    0 -0.10013201343E+02 -0.35463617814E+01  0.10826384943E+02  0.15167448507E+02  0.51100000000E-03 0.  1.
         12    1    3    3    0    0 -0.19579054809E+02  0.16573171012E+02  0.15096016107E+02  0.29764056963E+02  0.00000000000E+00 0. -1.
</event>
<event>
 7    1  0.1375918E-013  0.7246155E+02  0.7816164E-02  0.1226708E+00
        -11   -1    0    0    0    0  0.00000000000E+00  0.00000000000E+00  0.45593999997E+02  0.45594000000E+02  0.51100000000E-03 0. -1.
         11   -1    0    0    0    0 -0.00000000000E+00 -0.00000000000E+00 -0.45593999997E+02  0.45594000000E+02  0.51100000000E-03 0.  1.
    9900012    2    1    2    0    0 -0.17612793133E+02  0.58651751123E+01  0.24635397050E+01  0.72461553756E+02  0.69999978456E+02 0.  0.
         12    1    1    2    0    0  0.17612793133E+02 -0.58651751123E+01 -0.24635397050E+01  0.18726446244E+02  0.00000000000E+00 0. -1.
         11    1    3    3    0    0 -0.61412385715E+01  0.13780687492E+01  0.91650334187E+01  0.11118080882E+02  0.51100000000E-03 0. -1.
        -11    1    3    3    0    0 -0.23773352200E+02 -0.21261513285E+02 -0.76226805965E+01  0.32792216786E+02  0.51100000000E-03 0.  1.
        -12    1    3    3    0    0  0.12301797639E+02  0.25748619648E+02  0.92118688275E+00  0.28551256088E+02  0.00000000000E+00 0.  1.
</event>
<event>
 7    1  0.1375918E-013  0.7246160E+02  0.7816164E-02  0.1226708E+00
        -11   -1    0    0    0    0  0.00000000000E+00  0.00000000000E+00  0.45593999997E+02  0.45594000000E+02  0.51100000000E-03 0.  1.
         11   -1    0    0    0    0 -0.00000000000E+00 -0.00000000000E+00 -0.45593999997E+02  0.45594000000E+02  0.51100000000E-03 0. -1.
    9900012    2    1    2    0    0  0.13431857043E+02 -0.12718868417E+02  0.29144024950E+01  0.72461597801E+02  0.70000035832E+02 0.  0.
         12    1    1    2    0    0 -0.13431857043E+02  0.12718868417E+02 -0.29144024950E+01  0.18726402199E+02  0.00000000000E+00 0. -1.
         11    1    3    3    0    0 -0.35000572948E+01 -0.23400130720E+02  0.15059366728E+02  0.28046408777E+02  0.51100000000E-03 0. -1.
        -11    1    3    3    0    0  0.49499779220E+01  0.24075754048E+02 -0.89718267830E+01  0.26165585996E+02  0.51100000000E-03 0.  1.
         12    1    3    3    0    0  0.11981936416E+02 -0.13394491746E+02 -0.31731374499E+01  0.18249603028E+02  0.00000000000E+00 0. -1.
</event>
<event>
 7    1  0.1375918E-013  0.7246162E+02  0.7816164E-02  0.1226708E+00
        -11   -1    0    0    0    0  0.00000000000E+00  0.00000000000E+00  0.45593999997E+02  0.45594000000E+02  0.51100000000E-03 0.  1.
         11   -1    0    0    0    0 -0.00000000000E+00 -0.00000000000E+00 -0.45593999997E+02  0.45594000000E+02  0.51100000000E-03 0. -1.
    9900012    2    1    2    0    0 -0.83085930828E+01  0.14582104371E+02  0.83070349319E+01  0.72461619777E+02  0.70000064461E+02 0.  0.
         12    1    1    2    0    0  0.83085930828E+01 -0.14582104371E+02 -0.83070349319E+01  0.18726380223E+02  0.00000000000E+00 0. -1.
         11    1    3    3    0    0 -0.15976033662E+02 -0.56532571412E+01 -0.13137246332E+02  0.21442486081E+02  0.51100000000E-03 0. -1.
        -11    1    3    3    0    0  0.15310253134E+02  0.29413467602E+02  0.10401091137E+02  0.34752534072E+02  0.51100000000E-03 0.  1.
         12    1    3    3    0    0 -0.76428125546E+01 -0.91781060898E+01  0.11043190127E+02  0.16266599624E+02  0.00000000000E+00 0. -1.
</event>
<event>
 7    1  0.1375918E-013  0.7246157E+02  0.7816164E-02  0.1226708E+00
        -11   -1    0    0    0    0  0.00000000000E+00  0.00000000000E+00  0.45593999997E+02  0.45594000000E+02  0.51100000000E-03 0.  1.
         11   -1    0    0    0    0 -0.00000000000E+00 -0.00000000000E+00 -0.45593999997E+02  0.45594000000E+02  0.51100000000E-03 0. -1.
    9900012    2    1    2    0    0 -0.49241493716E+01  0.11563922621E+02 -0.13881920276E+02  0.72461567773E+02  0.69999996715E+02 0.  0.
         12    1    1    2    0    0  0.49241493716E+01 -0.11563922621E+02  0.13881920276E+02  0.18726432227E+02  0.00000000000E+00 0. -1.
         11    1    3    3    0    0 -0.13859023065E+02  0.20482670955E+02 -0.33164962748E+02  0.41370606523E+02  0.51100000000E-03 0. -1.
        -11    1    3    3    0    0  0.14116313105E+02 -0.11457438804E+02  0.11935042337E+02  0.21748297300E+02  0.51100000000E-03 0.  1.
         12    1    3    3    0    0 -0.51814394110E+01  0.25386904706E+01  0.73480001353E+01  0.93426639489E+01  0.00000000000E+00 0. -1.
</event>
<event>
 7    1  0.1375918E-013  0.7246144E+02  0.7816164E-02  0.1226708E+00
        -11   -1    0    0    0    0  0.00000000000E+00  0.00000000000E+00  0.45593999997E+02  0.45594000000E+02  0.51100000000E-03 0.  1.
         11   -1    0    0    0    0 -0.00000000000E+00 -0.00000000000E+00 -0.45593999997E+02  0.45594000000E+02  0.51100000000E-03 0. -1.
    9900012    2    1    2    0    0 -0.10163047084E+02  0.13186531448E+02  0.85739153020E+01  0.72461437014E+02  0.69999826378E+02 0.  0.
         12    1    1    2    0    0  0.10163047084E+02 -0.13186531448E+02 -0.85739153020E+01  0.18726562986E+02  0.00000000000E+00 0. -1.
         11    1    3    3    0    0 -0.24769287298E+02 -0.76674314566E+01 -0.18742928344E+01  0.25996539621E+02  0.51100000000E-03 0. -1.
        -11    1    3    3    0    0  0.19604793980E+02  0.11401584840E+02  0.21383638413E+02  0.31170564254E+02  0.51100000000E-03 0.  1.
        -12    1    3    3    0    0 -0.49985537664E+01  0.94523780643E+01 -0.10935430277E+02  0.15294333139E+02  0.00000000000E+00 0.  1.
</event>
<event>
 7    1  0.1375918E-013  0.7246159E+02  0.7816164E-02  0.1226708E+00
        -11   -1    0    0    0    0  0.00000000000E+00  0.00000000000E+00  0.45593999997E+02  0.45594000000E+02  0.51100000000E-03 0.  1.
         11   -1    0    0    0    0 -0.00000000000E+00 -0.00000000000E+00 -0.45593999997E+02  0.45594000000E+02  0.51100000000E-03 0. -1.
    9900012    2    1    2    0    0  0.84408681697E+01  0.12849769612E+02 -0.10691756723E+02  0.72461588268E+02  0.70000023414E+02 0.  0.
         12    1    1    2    0    0 -0.84408681697E+01 -0.12849769612E+02  0.10691756723E+02  0.18726411732E+02  0.00000000000E+00 0. -1.
         11    1    3    3    0    0  0.11150249738E+02  0.24725021890E+02 -0.24314565922E+02  0.36425991996E+02  0.51100000000E-03 0. -1.
        -11    1    3    3    0    0 -0.72449252367E+01 -0.15756799947E+02  0.20550708539E+02  0.26890468720E+02  0.51100000000E-03 0.  1.
        -12    1    3    3    0    0  0.45355436681E+01  0.38815476693E+01 -0.69278993399E+01  0.91451275518E+01  0.00000000000E+00 0.  1.
</event>
<event>
 8    1  0.1375918E-013  0.7246160E+02  0.7816164E-02  0.1226708E+00
        -11   -1    0    0    0    0  0.00000000000E+00  0.00000000000E+00  0.45593999997E+02  0.45594000000E+02  0.51100000000E-03 0. -1.
         11   -1    0    0    0    0 -0.00000000000E+00 -0.00000000000E+00 -0.45593999997E+02  0.45594000000E+02  0.51100000000E-03 0.  1.
    9900012    2    1    2    0    0 -0.39103930338E+00 -0.17671607819E+02 -0.61838028379E+01  0.72461600127E+02  0.70000038863E+02 0.  0.
         24    2    3    3    0    0 -0.13705074097E+02 -0.20930026918E+02  0.21287937991E+00  0.57335517979E+02  0.51588964144E+02 0.  0.
         12    1    1    2    0    0  0.39103930338E+00  0.17671607819E+02  0.61838028379E+01  0.18726399873E+02  0.00000000000E+00 0. -1.
         11    1    3    3    0    0  0.13314034793E+02  0.32584190983E+01 -0.63966822178E+01  0.15126082148E+02  0.51100000000E-03 0. -1.
        -11    1    4    4    0    0 -0.31905214351E+02 -0.18801830637E+02 -0.69162294667E+01  0.37673409302E+02  0.51100000000E-03 0.  1.
         12    1    4    4    0    0  0.18200140254E+02 -0.21281962806E+01  0.71291088466E+01  0.19662108677E+02  0.00000000000E+00 0. -1.
</event>
<event>
 7    1  0.1375918E-013  0.7246153E+02  0.7816164E-02  0.1226708E+00
        -11   -1    0    0    0    0  0.00000000000E+00  0.00000000000E+00  0.45593999997E+02  0.45594000000E+02  0.51100000000E-03 0.  1.
         11   -1    0    0    0    0 -0.00000000000E+00 -0.00000000000E+00 -0.45593999997E+02  0.45594000000E+02  0.51100000000E-03 0. -1.
    9900012    2    1    2    0    0 -0.25942344956E+01  0.52934660464E+00  0.18538348653E+02  0.72461531266E+02  0.69999949159E+02 0.  0.
         12    1    1    2    0    0  0.25942344956E+01 -0.52934660464E+00 -0.18538348653E+02  0.18726468734E+02  0.00000000000E+00 0. -1.
         11    1    3    3    0    0  0.34853023011E+01  0.22701856573E+02 -0.51371602474E+01  0.23535335979E+02  0.51100000000E-03 0. -1.
        -11    1    3    3    0    0 -0.54179637415E+01 -0.30280920531E+02  0.88404807776E+01  0.32006914564E+02  0.51100000000E-03 0.  1.
        -12    1    3    3    0    0 -0.66157305510E+00  0.81084105622E+01  0.14835028123E+02  0.16919280722E+02  0.00000000000E+00 0.  1.
</event>
<event>
 7    1  0.1375918E-013  0.7246160E+02  0.7816164E-02  0.1226708E+00
        -11   -1    0    0    0    0  0.00000000000E+00  0.00000000000E+00  0.45593999997E+02  0.45594000000E+02  0.51100000000E-03 0.  1.
         11   -1    0    0    0    0 -0.00000000000E+00 -0.00000000000E+00 -0.45593999997E+02  0.45594000000E+02  0.51100000000E-03 0. -1.
    9900012    2    1    2    0    0 -0.56573216557E+01  0.53687217208E+01  0.17024970847E+02  0.72461599022E+02  0.70000037423E+02 0.  0.
         12    1    1    2    0    0  0.56573216557E+01 -0.53687217208E+01 -0.17024970847E+02  0.18726400978E+02  0.00000000000E+00 0. -1.
         11    1    3    3    0    0  0.15662148559E+02 -0.29527415818E+00 -0.26760681902E+01  0.15891866647E+02  0.51100000000E-03 0. -1.
        -11    1    3    3    0    0 -0.15291663068E+02  0.19749593055E+02  0.29290998570E+02  0.38494726687E+02  0.51100000000E-03 0.  1.
        -12    1    3    3    0    0 -0.60278071471E+01 -0.14085597176E+02 -0.95899595320E+01  0.18075005688E+02  0.00000000000E+00 0.  1.
</event>
<event>
 7    1  0.1375918E-013  0.7246160E+02  0.7816164E-02  0.1226708E+00
        -11   -1    0    0    0    0  0.00000000000E+00  0.00000000000E+00  0.45593999997E+02  0.45594000000E+02  0.51100000000E-03 0. -1.
         11   -1    0    0    0    0 -0.00000000000E+00 -0.00000000000E+00 -0.45593999997E+02  0.45594000000E+02  0.51100000000E-03 0.  1.
    9900012    2    1    2    0    0 -0.16255064378E+02 -0.33168370997E+01 -0.86861703938E+01  0.72461599321E+02  0.70000037813E+02 0.  0.
         12    1    1    2    0    0  0.16255064378E+02  0.33168370997E+01  0.86861703938E+01  0.18726400679E+02  0.00000000000E+00 0. -1.
         11    1    3    3    0    0  0.14501278596E+02  0.18712292879E+02  0.90764513997E+01  0.25353874575E+02  0.51100000000E-03 0. -1.
        -11    1    3    3    0    0 -0.45605836192E+01 -0.13771843248E+02 -0.12482776652E+02  0.19138503144E+02  0.51100000000E-03 0.  1.
         12    1    3    3    0    0 -0.26195759354E+02 -0.82572867304E+01 -0.52798451414E+01  0.27969221602E+02  0.00000000000E+00 0. -1.
</event>
<event>
 7    1  0.1375918E-013  0.7246157E+02  0.7816164E-02  0.1226708E+00
        -11   -1    0    0    0    0  0.00000000000E+00  0.00000000000E+00  0.45593999997E+02  0.45594000000E+02  0.51100000000E-03 0.  1.
         11   -1    0    0    0    0 -0.00000000000E+00 -0.00000000000E+00 -0.45593999997E+02  0.45594000000E+02  0.51100000000E-03 0. -1.
    9900012    2    1    2    0    0  0.18043061085E+02 -0.49653802525E+01  0.68709933178E+00  0.72461570552E+02  0.70000000336E+02 0.  0.
         12    1    1    2    0    0 -0.18043061085E+02  0.49653802525E+01 -0.68709933178E+00  0.18726429448E+02  0.00000000000E+00 0. -1.
         11    1    3    3    0    0 -0.20218149731E+02 -0.14441853749E+01 -0.38605154547E+01  0.20634021173E+02  0.51100000000E-03 0. -1.
        -11    1    3    3    0    0  0.38974302301E+02  0.62440755620E+01 -0.28230095353E+01  0.39572137958E+02  0.51100000000E-03 0.  1.
        -12    1    3    3    0    0 -0.71309148515E+00 -0.97652704396E+01  0.73706243218E+01  0.12255411422E+02  0.00000000000E+00 0.  1.
</event>
<event>
 7    1  0.1375918E-013  0.7246156E+02  0.7816164E-02  0.1226708E+00
        -11   -1    0    0    0    0  0.00000000000E+00  0.00000000000E+00  0.45593999997E+02  0.45594000000E+02  0.51100000000E-03 0. -1.
         11   -1    0    0    0    0 -0.00000000000E+00 -0.00000000000E+00 -0.45593999997E+02  0.45594000000E+02  0.51100000000E-03 0.  1.
    9900012    2    1    2    0    0  0.10165501156E+02  0.80701274334E+01 -0.13498707291E+02  0.72461562296E+02  0.69999989581E+02 0.  0.
         12    1    1    2    0    0 -0.10165501156E+02 -0.80701274334E+01  0.13498707291E+02  0.18726437704E+02  0.00000000000E+00 0. -1.
         11    1    3    3    0    0 -0.15349221568E+02 -0.55579217250E+01 -0.26924259183E+02  0.31486581736E+02  0.51100000000E-03 0. -1.
        -11    1    3    3    0    0  0.96563553132E+01  0.17672227869E+02  0.54067992451E+00  0.20145599292E+02  0.51100000000E-03 0.  1.
         12    1    3    3    0    0  0.15858367411E+02 -0.40441787110E+01  0.12884871967E+02  0.20829381268E+02  0.00000000000E+00 0. -1.
</event>
<event>
 7    1  0.1375918E-013  0.7246155E+02  0.7816164E-02  0.1226708E+00
        -11   -1    0    0    0    0  0.00000000000E+00  0.00000000000E+00  0.45593999997E+02  0.45594000000E+02  0.51100000000E-03 0.  1.
         11   -1    0    0    0    0 -0.00000000000E+00 -0.00000000000E+00 -0.45593999997E+02  0.45594000000E+02  0.51100000000E-03 0. -1.
    9900012    2    1    2    0    0  0.37876969061E+01 -0.48615840247E+00  0.18332943725E+02  0.72461552834E+02  0.69999977255E+02 0.  0.
         12    1    1    2    0    0 -0.37876969061E+01  0.48615840247E+00 -0.18332943725E+02  0.18726447166E+02  0.00000000000E+00 0. -1.
         11    1    3    3    0    0 -0.50375194310E+01 -0.20928889177E+02  0.29381831731E+02  0.36423715356E+02  0.51100000000E-03 0. -1.
        -11    1    3    3    0    0  0.12230641525E+02  0.78244466259E+00  0.16801910985E+01  0.12370281086E+02  0.51100000000E-03 0.  1.
         12    1    3    3    0    0 -0.34054251875E+01  0.19660286112E+02 -0.12729079105E+02  0.23667556392E+02  0.00000000000E+00 0. -1.
</event>
<event>
 7    1  0.1375918E-013  0.7246159E+02  0.7816164E-02  0.1226708E+00
        -11   -1    0    0    0    0  0.00000000000E+00  0.00000000000E+00  0.45593999997E+02  0.45594000000E+02  0.51100000000E-03 0. -1.
         11   -1    0    0    0    0 -0.00000000000E+00 -0.00000000000E+00 -0.45593999997E+02  0.45594000000E+02  0.51100000000E-03 0.  1.
    9900012    2    1    2    0    0  0.18406980085E+02 -0.24363613113E+01 -0.24342646641E+01  0.72461590393E+02  0.70000026183E+02 0.  0.
         12    1    1    2    0    0 -0.18406980085E+02  0.24363613113E+01  0.24342646641E+01  0.18726409607E+02  0.00000000000E+00 0. -1.
         11    1    3    3    0    0  0.12249613406E+02  0.22458472214E+02 -0.56486767445E+00  0.25588182400E+02  0.51100000000E-03 0. -1.
        -11    1    3    3    0    0 -0.12156265937E+02 -0.77305296543E+01 -0.13010939497E+02  0.19411863309E+02  0.51100000000E-03 0.  1.
         12    1    3    3    0    0  0.18313632616E+02 -0.17164303871E+02  0.11141542507E+02  0.27461544684E+02  0.00000000000E+00 0. -1.
</event>
<event>
 7    1  0.1375918E-013  0.7246160E+02  0.7816164E-02  0.1226708E+00
        -11   -1    0    0    0    0  0.00000000000E+00  0.00000000000E+00  0.45593999997E+02  0.45594000000E+02  0.51100000000E-03 0.  1.
         11   -1    0    0    0    0 -0.00000000000E+00 -0.00000000000E+00 -0.45593999997E+02  0.45594000000E+02  0.51100000000E-03 0. -1.
    9900012    2    1    2    0    0 -0.12109711013E+02  0.13860483447E+02 -0.34525480263E+01  0.72461596446E+02  0.70000034067E+02 0.  0.
         12    1    1    2    0    0  0.12109711013E+02 -0.13860483447E+02  0.34525480263E+01  0.18726403554E+02  0.00000000000E+00 0. -1.
         11    1    3    3    0    0 -0.33990473545E+02  0.68470273439E+01  0.47800605726E+01  0.35001186474E+02  0.51100000000E-03 0. -1.
        -11    1    3    3    0    0  0.99913670838E+01  0.77750089126E+01  0.96875491610E+01  0.15941354673E+02  0.51100000000E-03 0.  1.
         12    1    3    3    0    0  0.11889395449E+02 -0.76155280972E+00 -0.17920157760E+02  0.21519055299E+02  0.00000000000E+00 0. -1.
</event>
<event>
 7    1  0.1379648E-013  0.7246152E+02  0.7816164E-02  0.1226708E+00
        -11   -1    0    0    0    0  0.00000000000E+00  0.00000000000E+00  0.45593999997E+02  0.45594000000E+02  0.51100000000E-03 0. -1.
         11   -1    0    0    0    0 -0.00000000000E+00 -0.00000000000E+00 -0.45593999997E+02  0.45594000000E+02  0.51100000000E-03 0.  1.
    9900012    2    1    2    0    0 -0.15921701384E+02 -0.58446915431E+01 -0.79385122322E+01  0.72461522204E+02  0.69999937353E+02 0.  0.
         12    1    1    2    0    0  0.15921701384E+02  0.58446915431E+01  0.79385122322E+01  0.18726477796E+02  0.00000000000E+00 0. -1.
         11    1    3    3    0    0 -0.61583156114E+01  0.85293602061E+01  0.24325573645E+02  0.26502987947E+02  0.51100000000E-03 0. -1.
        -11    1    3    3    0    0 -0.16793888241E+02 -0.77103665420E+01 -0.85878046422E+01  0.20377311483E+02  0.51100000000E-03 0.  1.
         12    1    3    3    0    0  0.70305024678E+01 -0.66636852073E+01 -0.23676281235E+02  0.25581222774E+02  0.00000000000E+00 0. -1.
</event>
<event>
 7    1  0.1375918E-013  0.7246152E+02  0.7816164E-02  0.1226708E+00
        -11   -1    0    0    0    0  0.00000000000E+00  0.00000000000E+00  0.45593999997E+02  0.45594000000E+02  0.51100000000E-03 0.  1.
         11   -1    0    0    0    0 -0.00000000000E+00 -0.00000000000E+00 -0.45593999997E+02  0.45594000000E+02  0.51100000000E-03 0. -1.
    9900012    2    1    2    0    0 -0.10258044902E+02  0.51378689986E+01  0.14800536374E+02  0.72461519817E+02  0.69999934244E+02 0.  0.
         12    1    1    2    0    0  0.10258044902E+02 -0.51378689986E+01 -0.14800536374E+02  0.18726480183E+02  0.00000000000E+00 0. -1.
         11    1    3    3    0    0  0.49645486110E+01  0.26596944404E+02 -0.63758749837E+01  0.27797409531E+02  0.51100000000E-03 0. -1.
        -11    1    3    3    0    0 -0.65730889823E+01 -0.27711856264E+02  0.13506327835E+02  0.31520998846E+02  0.51100000000E-03 0.  1.
         12    1    3    3    0    0 -0.86495045309E+01  0.62527808589E+01  0.76700835227E+01  0.13143111441E+02  0.00000000000E+00 0. -1.
</event>
<event>
 7    1  0.1375918E-013  0.7246157E+02  0.7816164E-02  0.1226708E+00
        -11   -1    0    0    0    0  0.00000000000E+00  0.00000000000E+00  0.45593999997E+02  0.45594000000E+02  0.51100000000E-03 0. -1.
         11   -1    0    0    0    0 -0.00000000000E+00 -0.00000000000E+00 -0.45593999997E+02  0.45594000000E+02  0.51100000000E-03 0.  1.
    9900012    2    1    2    0    0 -0.24122524889E+01  0.16711505523E+02 -0.80985037741E+01  0.72461571021E+02  0.70000000947E+02 0.  0.
         12    1    1    2    0    0  0.24122524889E+01 -0.16711505523E+02  0.80985037741E+01  0.18726428979E+02  0.00000000000E+00 0. -1.
         11    1    3    3    0    0 -0.83137209646E+01 -0.24218804590E+02 -0.47792901517E+01  0.26048225787E+02  0.51100000000E-03 0. -1.
        -11    1    3    3    0    0  0.70023803726E+01  0.12157525187E+02 -0.95258071492E+01  0.16958176543E+02  0.51100000000E-03 0.  1.
         12    1    3    3    0    0 -0.11009118969E+01  0.28772784926E+02  0.62065935268E+01  0.29455168691E+02  0.00000000000E+00 0. -1.
</event>
<event>
 7    1  0.1375918E-013  0.7246154E+02  0.7816164E-02  0.1226708E+00
        -11   -1    0    0    0    0  0.00000000000E+00  0.00000000000E+00  0.45593999997E+02  0.45594000000E+02  0.51100000000E-03 0.  1.
         11   -1    0    0    0    0 -0.00000000000E+00 -0.00000000000E+00 -0.45593999997E+02  0.45594000000E+02  0.51100000000E-03 0. -1.
    9900012    2    1    2    0    0 -0.93550771680E+01  0.32995933297E+01  0.15883179104E+02  0.72461543757E+02  0.69999965431E+02 0.  0.
         12    1    1    2    0    0  0.93550771680E+01 -0.32995933297E+01 -0.15883179104E+02  0.18726456243E+02  0.00000000000E+00 0. -1.
         11    1    3    3    0    0  0.24497912102E+02  0.27287091838E+01  0.32239848770E+01  0.24859356989E+02  0.51100000000E-03 0. -1.
        -11    1    3    3    0    0 -0.26699963860E+02  0.13614874973E+02  0.13124019131E+02  0.32718385795E+02  0.51100000000E-03 0.  1.
        -12    1    3    3    0    0 -0.71530254104E+01 -0.13043990827E+02 -0.46482490431E+00  0.14883800973E+02  0.00000000000E+00 0.  1.
</event>
<event>
 7    1  0.1375918E-013  0.7246180E+02  0.7816164E-02  0.1226707E+00
        -11   -1    0    0    0    0  0.00000000000E+00  0.00000000000E+00  0.45593999997E+02  0.45594000000E+02  0.51100000000E-03 0. -1.
         11   -1    0    0    0    0 -0.00000000000E+00 -0.00000000000E+00 -0.45593999997E+02  0.45594000000E+02  0.51100000000E-03 0.  1.
    9900012    2    1    2    0    0 -0.14607476900E+01  0.12196037319E+01 -0.18629256790E+02  0.72461803760E+02  0.70000304132E+02 0.  0.
         12    1    1    2    0    0  0.14607476900E+01 -0.12196037319E+01  0.18629256790E+02  0.18726196240E+02  0.00000000000E+00 0. -1.
         11    1    3    3    0    0 -0.15154238147E+02 -0.24357102495E+02 -0.23506690190E+02  0.37087516225E+02  0.51100000000E-03 0. -1.
        -11    1    3    3    0    0  0.49078371172E+01  0.22092338861E+02 -0.33076113315E+01  0.22871348768E+02  0.51100000000E-03 0.  1.
         12    1    3    3    0    0  0.87856533394E+01  0.34843673662E+01  0.81850447322E+01  0.12502938767E+02  0.00000000000E+00 0. -1.
</event>
<event>
 7    1  0.1375918E-013  0.7246155E+02  0.7816164E-02  0.1226708E+00
        -11   -1    0    0    0    0  0.00000000000E+00  0.00000000000E+00  0.45593999997E+02  0.45594000000E+02  0.51100000000E-03 0. -1.
         11   -1    0    0    0    0 -0.00000000000E+00 -0.00000000000E+00 -0.45593999997E+02  0.45594000000E+02  0.51100000000E-03 0.  1.
    9900012    2    1    2    0    0  0.52610921917E+01  0.55086269129E+01 -0.17107192109E+02  0.72461545895E+02  0.69999968215E+02 0.  0.
         12    1    1    2    0    0 -0.52610921917E+01 -0.55086269129E+01  0.17107192109E+02  0.18726454105E+02  0.00000000000E+00 0. -1.
         11    1    3    3    0    0 -0.19995935344E+02  0.40625684018E+01  0.18618827140E+01  0.20489228873E+02  0.51100000000E-03 0. -1.
        -11    1    3    3    0    0  0.28709584668E+02  0.79525060699E+01  0.18904049924E+01  0.29850565085E+02  0.51100000000E-03 0.  1.
        -12    1    3    3    0    0 -0.34525571316E+01 -0.65064475588E+01 -0.20859479815E+02  0.22121751937E+02  0.00000000000E+00 0.  1.
</event>
<event>
 7    1  0.1439484E-013  0.7246157E+02  0.7816164E-02  0.1226708E+00
        -11   -1    0    0    0    0  0.00000000000E+00  0.00000000000E+00  0.45593999997E+02  0.45594000000E+02  0.51100000000E-03 0.  1.
         11   -1    0    0    0    0 -0.00000000000E+00 -0.00000000000E+00 -0.45593999997E+02  0.45594000000E+02  0.51100000000E-03 0. -1.
    9900012    2    1    2    0    0 -0.90768433011E+01 -0.74061179328E+01  0.14609573403E+02  0.72461566753E+02  0.69999995387E+02 0.  0.
         12    1    1    2    0    0  0.90768433011E+01  0.74061179328E+01 -0.14609573403E+02  0.18726433247E+02  0.00000000000E+00 0. -1.
         11    1    3    3    0    0  0.17758448984E+02  0.47954803499E+01  0.11970946457E+02  0.21946815292E+02  0.51100000000E-03 0. -1.
        -11    1    3    3    0    0 -0.21202697661E+02 -0.25868671985E+02  0.86642313452E+01  0.34551577148E+02  0.51100000000E-03 0.  1.
         12    1    3    3    0    0 -0.56325946241E+01  0.13667073702E+02 -0.60256043992E+01  0.15963174313E+02  0.00000000000E+00 0. -1.
</event>
<event>
 7    1  0.1375918E-013  0.7246157E+02  0.7816164E-02  0.1226708E+00
        -11   -1    0    0    0    0  0.00000000000E+00  0.00000000000E+00  0.45593999997E+02  0.45594000000E+02  0.51100000000E-03 0. -1.
         11   -1    0    0    0    0 -0.00000000000E+00 -0.00000000000E+00 -0.45593999997E+02  0.45594000000E+02  0.51100000000E-03 0.  1.
    9900012    2    1    2    0    0 -0.22755507018E+00  0.12000127149E+02 -0.14374429781E+02  0.72461573100E+02  0.70000003655E+02 0.  0.
         12    1    1    2    0    0  0.22755507018E+00 -0.12000127149E+02  0.14374429781E+02  0.18726426900E+02  0.00000000000E+00 0. -1.
         11    1    3    3    0    0 -0.12497307439E+01 -0.23210189171E+02  0.13180019220E+01  0.23281147687E+02  0.51100000000E-03 0. -1.
        -11    1    3    3    0    0  0.15523539896E+02  0.15424805021E+02 -0.96462501588E+01  0.23915581600E+02  0.51100000000E-03 0.  1.
         12    1    3    3    0    0 -0.14501364223E+02  0.19785511299E+02 -0.60461815445E+01  0.25264843814E+02  0.00000000000E+00 0. -1.
</event>
<event>
 7    1  0.1375918E-013  0.7246142E+02  0.7816164E-02  0.1226708E+00
        -11   -1    0    0    0    0  0.00000000000E+00  0.00000000000E+00  0.45593999997E+02  0.45594000000E+02  0.51100000000E-03 0.  1.
         11   -1    0    0    0    0 -0.00000000000E+00 -0.00000000000E+00 -0.45593999997E+02  0.45594000000E+02  0.51100000000E-03 0. -1.
    9900012    2    1    2    0    0  0.93474230662E+01  0.70275151474E+01  0.14626156154E+02  0.72461421803E+02  0.69999806562E+02 0.  0.
         12    1    1    2    0    0 -0.93474230662E+01 -0.70275151474E+01 -0.14626156154E+02  0.18726578197E+02  0.00000000000E+00 0. -1.
         11    1    3    3    0    0  0.16222443645E+01 -0.17458558210E+02  0.20381015269E+02  0.26885288081E+02  0.51100000000E-03 0.  1.
        -11    1    3    3    0    0 -0.96642627640E+01  0.24785227942E+02  0.16928734468E+01  0.26656543656E+02  0.51100000000E-03 0. -1.
        -12    1    3    3    0    0  0.17389441466E+02 -0.29915458391E+00 -0.74477325620E+01  0.18919590066E+02  0.00000000000E+00 0.  1.
</event>
<event>
 7    1  0.1501371E-013  0.7246113E+02  0.7816164E-02  0.1226709E+00
        -11   -1    0    0    0    0  0.00000000000E+00  0.00000000000E+00  0.45593999997E+02  0.45594000000E+02  0.51100000000E-03 0. -1.
         11   -1    0    0    0    0 -0.00000000000E+00 -0.00000000000E+00 -0.45593999997E+02  0.45594000000E+02  0.51100000000E-03 0.  1.
    9900012    2    1    2    0    0  0.44733223280E+01  0.71558315464E+01 -0.16717627107E+02  0.72461131766E+02  0.69999428733E+02 0.  0.
         12    1    1    2    0    0 -0.44733223280E+01 -0.71558315464E+01  0.16717627107E+02  0.18726868234E+02  0.00000000000E+00 0. -1.
         11    1    3    3    0    0  0.10901375076E+02 -0.85598342549E+01  0.15161409704E+02  0.20542129527E+02  0.51100000000E-03 0. -1.
        -11    1    3    3    0    0 -0.43371838249E+01  0.18124783970E+01 -0.36742562654E+02  0.37042032236E+02  0.51100000000E-03 0.  1.
         12    1    3    3    0    0 -0.20908689234E+01  0.13903187404E+02  0.48635258433E+01  0.14876970003E+02  0.00000000000E+00 0. -1.
</event>
<event>
 7    1  0.1375918E-013  0.7246173E+02  0.7816164E-02  0.1226708E+00
        -11   -1    0    0    0    0  0.00000000000E+00  0.00000000000E+00  0.45593999997E+02  0.45594000000E+02  0.51100000000E-03 0.  1.
         11   -1    0    0    0    0 -0.00000000000E+00 -0.00000000000E+00 -0.45593999997E+02  0.45594000000E+02  0.51100000000E-03 0. -1.
    9900012    2    1    2    0    0  0.46292380441E+01 -0.11284146940E+02  0.14209552962E+02  0.72461729352E+02  0.70000207202E+02 0.  0.
         12    1    1    2    0    0 -0.46292380441E+01  0.11284146940E+02 -0.14209552962E+02  0.18726270648E+02  0.00000000000E+00 0. -1.
         11    1    3    3    0    0  0.13591160657E+02  0.13495842404E+01 -0.12288096999E+02  0.18372216898E+02  0.51100000000E-03 0. -1.
        -11    1    3    3    0    0  0.83057038135E+01  0.27352126652E+01  0.29509234268E+02  0.30777605682E+02  0.51100000000E-03 0.  1.
        -12    1    3    3    0    0 -0.17267626426E+02 -0.15368943845E+02 -0.30115843070E+01  0.23311906772E+02  0.00000000000E+00 0.  1.
</event>
<event>
 7    1  0.1375918E-013  0.7246149E+02  0.7816164E-02  0.1226708E+00
        -11   -1    0    0    0    0  0.00000000000E+00  0.00000000000E+00  0.45593999997E+02  0.45594000000E+02  0.51100000000E-03 0. -1.
         11   -1    0    0    0    0 -0.00000000000E+00 -0.00000000000E+00 -0.45593999997E+02  0.45594000000E+02  0.51100000000E-03 0.  1.
    9900012    2    1    2    0    0 -0.15997719332E+02  0.96814443747E+01 -0.10123661913E+01  0.72461487396E+02  0.69999892009E+02 0.  0.
         12    1    1    2    0    0  0.15997719332E+02 -0.96814443747E+01  0.10123661913E+01  0.18726512604E+02  0.00000000000E+00 0. -1.
         11    1    3    3    0    0 -0.19947744153E+02  0.11917164619E+02  0.24740122197E+02  0.33941198504E+02  0.51100000000E-03 0. -1.
        -11    1    3    3    0    0 -0.64081780399E+01  0.94087635001E+01 -0.17523212255E+02  0.20896232780E+02  0.51100000000E-03 0.  1.
         12    1    3    3    0    0  0.10358202860E+02 -0.11644483744E+02 -0.82292761331E+01  0.17624056112E+02  0.00000000000E+00 0. -1.
</event>
<event>
 7    1  0.1375918E-013  0.7246151E+02  0.7816164E-02  0.1226708E+00
        -11   -1    0    0    0    0  0.00000000000E+00  0.00000000000E+00  0.45593999997E+02  0.45594000000E+02  0.51100000000E-03 0. -1.
         11   -1    0    0    0    0 -0.00000000000E+00 -0.00000000000E+00 -0.45593999997E+02  0.45594000000E+02  0.51100000000E-03 0.  1.
    9900012    2    1    2    0    0 -0.42884672766E+01  0.13235294423E+02 -0.12534657378E+02  0.72461505250E+02  0.69999915268E+02 0.  0.
         12    1    1    2    0    0  0.42884672766E+01 -0.13235294423E+02  0.12534657378E+02  0.18726494750E+02  0.00000000000E+00 0. -1.
         11    1    3    3    0    0 -0.10112757510E+02  0.35341969581E+02 -0.14071512896E+02  0.39361531396E+02  0.51100000000E-03 0. -1.
        -11    1    3    3    0    0  0.15001154775E+02 -0.14488764200E+02  0.30504023504E+01  0.21077568346E+02  0.51100000000E-03 0.  1.
         12    1    3    3    0    0 -0.91768645418E+01 -0.76179109584E+01 -0.15135468317E+01  0.12022405508E+02  0.00000000000E+00 0. -1.
</event>
<event>
 7    1  0.1375918E-013  0.7246154E+02  0.7816164E-02  0.1226708E+00
        -11   -1    0    0    0    0  0.00000000000E+00  0.00000000000E+00  0.45593999997E+02  0.45594000000E+02  0.51100000000E-03 0.  1.
         11   -1    0    0    0    0 -0.00000000000E+00 -0.00000000000E+00 -0.45593999997E+02  0.45594000000E+02  0.51100000000E-03 0. -1.
    9900012    2    1    2    0    0 -0.68099402578E+01  0.10535472882E+02  0.13903552671E+02  0.72461541391E+02  0.69999962348E+02 0.  0.
         12    1    1    2    0    0  0.68099402578E+01 -0.10535472882E+02 -0.13903552671E+02  0.18726458609E+02  0.00000000000E+00 0. -1.
         11    1    3    3    0    0  0.51026859569E+01  0.11160995415E+02 -0.14846744906E+02  0.19262166472E+02  0.51100000000E-03 0. -1.
        -11    1    3    3    0    0 -0.13206631108E+02 -0.20671870072E+02  0.17911553075E+02  0.30373755963E+02  0.51100000000E-03 0.  1.
        -12    1    3    3    0    0  0.12940048929E+01  0.20046347539E+02  0.10838744502E+02  0.22825618955E+02  0.00000000000E+00 0.  1.
</event>
<event>
 7    1  0.1375918E-013  0.7246156E+02  0.7816164E-02  0.1226708E+00
        -11   -1    0    0    0    0  0.00000000000E+00  0.00000000000E+00  0.45593999997E+02  0.45594000000E+02  0.51100000000E-03 0.  1.
         11   -1    0    0    0    0 -0.00000000000E+00 -0.00000000000E+00 -0.45593999997E+02  0.45594000000E+02  0.51100000000E-03 0. -1.
    9900012    2    1    2    0    0 -0.16138400748E+02 -0.94852625751E+01 -0.51125453789E+00  0.72461559708E+02  0.69999986209E+02 0.  0.
         12    1    1    2    0    0  0.16138400748E+02  0.94852625751E+01  0.51125453789E+00  0.18726440292E+02  0.00000000000E+00 0. -1.
         11    1    3    3    0    0 -0.16578055775E+02  0.30219950410E+01 -0.26981023103E+01  0.17065876586E+02  0.51100000000E-03 0. -1.
        -11    1    3    3    0    0  0.64986317520E+01  0.13290860913E+02  0.18948108446E+02  0.24039758993E+02  0.51100000000E-03 0.  1.
        -12    1    3    3    0    0 -0.60589767247E+01 -0.25798118529E+02 -0.16761260674E+02  0.31355924129E+02  0.00000000000E+00 0.  1.
</event>
<event>
 7    1  0.1375918E-013  0.7246160E+02  0.7816164E-02  0.1226708E+00
        -11   -1    0    0    0    0  0.00000000000E+00  0.00000000000E+00  0.45593999997E+02  0.45594000000E+02  0.51100000000E-03 0.  1.
         11   -1    0    0    0    0 -0.00000000000E+00 -0.00000000000E+00 -0.45593999997E+02  0.45594000000E+02  0.51100000000E-03 0. -1.
    9900012    2    1    2    0    0 -0.46045264719E+01  0.12369797308E+02 -0.13284000145E+02  0.72461595932E+02  0.70000033398E+02 0.  0.
         12    1    1    2    0    0  0.46045264719E+01 -0.12369797308E+02  0.13284000145E+02  0.18726404068E+02  0.00000000000E+00 0. -1.
         11    1    3    3    0    0 -0.33695543626E+02  0.13662691096E+02 -0.67140702243E+01  0.36974822886E+02  0.51100000000E-03 0. -1.
        -11    1    3    3    0    0  0.18061036174E+02 -0.47301160601E+01  0.47998740200E+01  0.19277287582E+02  0.51100000000E-03 0.  1.
        -12    1    3    3    0    0  0.11029980980E+02  0.34372222720E+01 -0.11369803941E+02  0.16209485464E+02  0.00000000000E+00 0.  1.
</event>
<event>
 7    1  0.1375918E-013  0.7246159E+02  0.7816164E-02  0.1226708E+00
        -11   -1    0    0    0    0  0.00000000000E+00  0.00000000000E+00  0.45593999997E+02  0.45594000000E+02  0.51100000000E-03 0.  1.
         11   -1    0    0    0    0 -0.00000000000E+00 -0.00000000000E+00 -0.45593999997E+02  0.45594000000E+02  0.51100000000E-03 0. -1.
    9900012    2    1    2    0    0 -0.12444987555E+02 -0.50688521087E+01 -0.13042530087E+02  0.72461586355E+02  0.70000020922E+02 0.  0.
         12    1    1    2    0    0  0.12444987555E+02  0.50688521087E+01  0.13042530087E+02  0.18726413645E+02  0.00000000000E+00 0. -1.
         11    1    3    3    0    0 -0.34754647466E+00  0.91524187293E+01 -0.11545746679E+02  0.14737429348E+02  0.51100000000E-03 0. -1.
        -11    1    3    3    0    0 -0.22491422873E+02 -0.25431341977E+02  0.13287060109E+02  0.36457690879E+02  0.51100000000E-03 0.  1.
        -12    1    3    3    0    0  0.10393981793E+02  0.11210071139E+02 -0.14783843517E+02  0.21266466129E+02  0.00000000000E+00 0.  1.
</event>
<event>
 7    1  0.1375918E-013  0.7246157E+02  0.7816164E-02  0.1226708E+00
        -11   -1    0    0    0    0  0.00000000000E+00  0.00000000000E+00  0.45593999997E+02  0.45594000000E+02  0.51100000000E-03 0.  1.
         11   -1    0    0    0    0 -0.00000000000E+00 -0.00000000000E+00 -0.45593999997E+02  0.45594000000E+02  0.51100000000E-03 0. -1.
    9900012    2    1    2    0    0 -0.25013271369E+01 -0.10868146273E+02  0.15043463525E+02  0.72461573868E+02  0.70000004655E+02 0.  0.
         12    1    1    2    0    0  0.25013271369E+01  0.10868146273E+02 -0.15043463525E+02  0.18726426132E+02  0.00000000000E+00 0. -1.
         11    1    3    3    0    0 -0.22265073986E+02 -0.28540373640E+02 -0.21763628802E+01  0.36263245894E+02  0.51100000000E-03 0. -1.
        -11    1    3    3    0    0  0.86079731485E+01  0.17494556732E+02  0.15502980840E+02  0.24909819994E+02  0.51100000000E-03 0.  1.
         12    1    3    3    0    0  0.11155773700E+02  0.17767063558E+00  0.17168455659E+01  0.11288507980E+02  0.00000000000E+00 0. -1.
</event>
<event>
 7    1  0.1375918E-013  0.7246158E+02  0.7816164E-02  0.1226708E+00
        -11   -1    0    0    0    0  0.00000000000E+00  0.00000000000E+00  0.45593999997E+02  0.45594000000E+02  0.51100000000E-03 0.  1.
         11   -1    0    0    0    0 -0.00000000000E+00 -0.00000000000E+00 -0.45593999997E+02  0.45594000000E+02  0.51100000000E-03 0. -1.
    9900012    2    1    2    0    0  0.68192178919E+01  0.94805288120E+01  0.14638871141E+02  0.72461582631E+02  0.70000016071E+02 0.  0.
         12    1    1    2    0    0 -0.68192178919E+01 -0.94805288120E+01 -0.14638871141E+02  0.18726417369E+02  0.00000000000E+00 0. -1.
         11    1    3    3    0    0  0.14525725509E+02  0.37761873452E+02  0.62159184963E+01  0.40934013133E+02  0.51100000000E-03 0. -1.
        -11    1    3    3    0    0 -0.82603253685E+01 -0.17155269208E+02  0.70489709694E+01  0.20303305859E+02  0.51100000000E-03 0.  1.
         12    1    3    3    0    0  0.55381775120E+00 -0.11126075432E+02  0.13739816748E+01  0.11224263640E+02  0.00000000000E+00 0. -1.
</event>
<event>
 7    1  0.1375918E-013  0.7246156E+02  0.7816164E-02  0.1226708E+00
        -11   -1    0    0    0    0  0.00000000000E+00  0.00000000000E+00  0.45593999997E+02  0.45594000000E+02  0.51100000000E-03 0. -1.
         11   -1    0    0    0    0 -0.00000000000E+00 -0.00000000000E+00 -0.45593999997E+02  0.45594000000E+02  0.51100000000E-03 0.  1.
    9900012    2    1    2    0    0  0.12188393555E+02  0.33665456105E+01 -0.13812635749E+02  0.72461562188E+02  0.69999989440E+02 0.  0.
         12    1    1    2    0    0 -0.12188393555E+02 -0.33665456105E+01  0.13812635749E+02  0.18726437812E+02  0.00000000000E+00 0. -1.
         11    1    3    3    0    0  0.44201523039E+01  0.36825188523E+01 -0.36330289039E+01  0.68042332973E+01  0.51100000000E-03 0.  1.
        -11    1    3    3    0    0  0.93461575657E+01  0.84839963110E+01  0.25725782189E+02  0.28655622906E+02  0.51100000000E-03 0. -1.
        -12    1    3    3    0    0 -0.15779163148E+01 -0.87999695528E+01 -0.35905389034E+02  0.37001705984E+02  0.00000000000E+00 0.  1.
</event>
<event>
 7    1  0.1375918E-013  0.7246156E+02  0.7816164E-02  0.1226708E+00
        -11   -1    0    0    0    0  0.00000000000E+00  0.00000000000E+00  0.45593999997E+02  0.45594000000E+02  0.51100000000E-03 0.  1.
         11   -1    0    0    0    0 -0.00000000000E+00 -0.00000000000E+00 -0.45593999997E+02  0.45594000000E+02  0.51100000000E-03 0. -1.
    9900012    2    1    2    0    0  0.54509832014E+01 -0.17020545946E+02 -0.55917275171E+01  0.72461558299E+02  0.69999984374E+02 0.  0.
         12    1    1    2    0    0 -0.54509832014E+01  0.17020545946E+02  0.55917275171E+01  0.18726441701E+02  0.00000000000E+00 0. -1.
         11    1    3    3    0    0  0.70699404109E+00  0.15260752223E+02  0.49198488153E+01  0.16049776062E+02  0.51100000000E-03 0. -1.
        -11    1    3    3    0    0  0.23542842441E+02 -0.19600288185E+02 -0.13617058333E+02  0.33524036228E+02  0.51100000000E-03 0.  1.
         12    1    3    3    0    0 -0.18798853281E+02 -0.12681009985E+02  0.31054820011E+01  0.22887746009E+02  0.00000000000E+00 0. -1.
</event>
<event>
 7    1  0.1375918E-013  0.7246167E+02  0.7816164E-02  0.1226708E+00
        -11   -1    0    0    0    0  0.00000000000E+00  0.00000000000E+00  0.45593999997E+02  0.45594000000E+02  0.51100000000E-03 0. -1.
         11   -1    0    0    0    0 -0.00000000000E+00 -0.00000000000E+00 -0.45593999997E+02  0.45594000000E+02  0.51100000000E-03 0.  1.
    9900012    2    1    2    0    0 -0.13006424809E+02  0.10641843025E+02 -0.82619212320E+01  0.72461674901E+02  0.70000136269E+02 0.  0.
         12    1    1    2    0    0  0.13006424809E+02 -0.10641843025E+02  0.82619212320E+01  0.18726325099E+02  0.00000000000E+00 0. -1.
         11    1    3    3    0    0 -0.87283613893E+01 -0.17922062480E+02  0.10723361413E+02  0.22635704016E+02  0.51100000000E-03 0. -1.
        -11    1    3    3    0    0  0.69666556673E+01  0.17484270451E+02 -0.26370199068E+02  0.32397861095E+02  0.51100000000E-03 0.  1.
         12    1    3    3    0    0 -0.11244719087E+02  0.11079635054E+02  0.73849164231E+01  0.17428109790E+02  0.00000000000E+00 0. -1.
</event>
<event>
 7    1  0.1375918E-013  0.7246156E+02  0.7816164E-02  0.1226708E+00
        -11   -1    0    0    0    0  0.00000000000E+00  0.00000000000E+00  0.45593999997E+02  0.45594000000E+02  0.51100000000E-03 0.  1.
         11   -1    0    0    0    0 -0.00000000000E+00 -0.00000000000E+00 -0.45593999997E+02  0.45594000000E+02  0.51100000000E-03 0. -1.
    9900012    2    1    2    0    0  0.18334195422E+02 -0.48298651005E+00  0.37820188108E+01  0.72461557091E+02  0.69999982800E+02 0.  0.
         12    1    1    2    0    0 -0.18334195422E+02  0.48298651005E+00 -0.37820188108E+01  0.18726442909E+02  0.00000000000E+00 0. -1.
         11    1    3    3    0    0  0.29047440179E+02 -0.15310186666E+02  0.20624931196E+01  0.32899992019E+02  0.51100000000E-03 0. -1.
        -11    1    3    3    0    0 -0.74496317793E+01  0.16405247698E+02 -0.14384092786E+02  0.23054962399E+02  0.51100000000E-03 0.  1.
        -12    1    3    3    0    0 -0.32636129778E+01 -0.15780475416E+01  0.16103618478E+02  0.16506602672E+02  0.00000000000E+00 0.  1.
</event>
<event>
 7    1  0.1375918E-013  0.7246150E+02  0.7816164E-02  0.1226708E+00
        -11   -1    0    0    0    0  0.00000000000E+00  0.00000000000E+00  0.45593999997E+02  0.45594000000E+02  0.51100000000E-03 0. -1.
         11   -1    0    0    0    0 -0.00000000000E+00 -0.00000000000E+00 -0.45593999997E+02  0.45594000000E+02  0.51100000000E-03 0.  1.
    9900012    2    1    2    0    0  0.95825819319E+01  0.72999766777E+01 -0.14337585110E+02  0.72461497850E+02  0.69999905628E+02 0.  0.
         12    1    1    2    0    0 -0.95825819319E+01 -0.72999766777E+01  0.14337585110E+02  0.18726502150E+02  0.00000000000E+00 0. -1.
         11    1    3    3    0    0  0.22456935746E+02 -0.49237463821E+01 -0.96533831360E+01  0.24934815976E+02  0.51100000000E-03 0. -1.
        -11    1    3    3    0    0 -0.16653797999E+02 -0.12842855896E+02  0.24992744567E+01  0.21178628577E+02  0.51100000000E-03 0.  1.
         12    1    3    3    0    0  0.37794441845E+01  0.25066578956E+02 -0.71834764307E+01  0.26348053296E+02  0.00000000000E+00 0. -1.
</event>
<event>
 7    1  0.1375918E-013  0.7246162E+02  0.7816164E-02  0.1226708E+00
        -11   -1    0    0    0    0  0.00000000000E+00  0.00000000000E+00  0.45593999997E+02  0.45594000000E+02  0.51100000000E-03 0.  1.
         11   -1    0    0    0    0 -0.00000000000E+00 -0.00000000000E+00 -0.45593999997E+02  0.45594000000E+02  0.51100000000E-03 0. -1.
    9900012    2    1    2    0    0 -0.11271279751E+02 -0.14351573732E+02 -0.42033311983E+01  0.72461617302E+02  0.70000061236E+02 0.  0.
         12    1    1    2    0    0  0.11271279751E+02  0.14351573732E+02  0.42033311983E+01  0.18726382698E+02  0.00000000000E+00 0. -1.
         11    1    3    3    0    0 -0.55842839636E+01  0.25514938993E+02 -0.11880322364E+02  0.28693873892E+02  0.51100000000E-03 0. -1.
        -11    1    3    3    0    0  0.48768033663E+00 -0.23056070548E+02  0.11005083469E+02  0.25552535758E+02  0.51100000000E-03 0.  1.
        -12    1    3    3    0    0 -0.61746761236E+01 -0.16810442177E+02 -0.33280923041E+01  0.18215207652E+02  0.00000000000E+00 0.  1.
</event>
<event>
 7    1  0.1375918E-013  0.7246145E+02  0.7816164E-02  0.1226708E+00
        -11   -1    0    0    0    0  0.00000000000E+00  0.00000000000E+00  0.45593999997E+02  0.45594000000E+02  0.51100000000E-03 0.  1.
         11   -1    0    0    0    0 -0.00000000000E+00 -0.00000000000E+00 -0.45593999997E+02  0.45594000000E+02  0.51100000000E-03 0. -1.
    9900012    2    1    2    0    0  0.13088633117E+02 -0.97603820389E+01  0.91709417694E+01  0.72461453406E+02  0.69999847731E+02 0.  0.
         12    1    1    2    0    0 -0.13088633117E+02  0.97603820389E+01 -0.91709417694E+01  0.18726546594E+02  0.00000000000E+00 0. -1.
         11    1    3    3    0    0  0.12232154746E+02 -0.92086259283E+01 -0.13815642290E+02  0.20622714986E+02  0.51100000000E-03 0. -1.
        -11    1    3    3    0    0 -0.13077858646E+02  0.17530088069E+02  0.41914068510E+01  0.22268863153E+02  0.51100000000E-03 0.  1.
        -12    1    3    3    0    0  0.13934337017E+02 -0.18081844179E+02  0.18795177209E+02  0.29569875267E+02  0.00000000000E+00 0.  1.
</event>
<event>
 7    1  0.1375918E-013  0.7246158E+02  0.7816164E-02  0.1226708E+00
        -11   -1    0    0    0    0  0.00000000000E+00  0.00000000000E+00  0.45593999997E+02  0.45594000000E+02  0.51100000000E-03 0.  1.
         11   -1    0    0    0    0 -0.00000000000E+00 -0.00000000000E+00 -0.45593999997E+02  0.45594000000E+02  0.51100000000E-03 0. -1.
    9900012    2    1    2    0    0 -0.34531021878E+01 -0.18405297464E+02 -0.33735725065E-02  0.72461577469E+02  0.70000009346E+02 0.  0.
         12    1    1    2    0    0  0.34531021878E+01  0.18405297464E+02  0.33735725065E-02  0.18726422531E+02  0.00000000000E+00 0. -1.
         11    1    3    3    0    0  0.92510470672E+01 -0.28907164728E+02 -0.23989743168E+02  0.38687385825E+02  0.51100000000E-03 0.  1.
        -11    1    3    3    0    0 -0.13686443282E+02  0.60797512924E+01  0.24990534477E+02  0.29134325446E+02  0.51100000000E-03 0. -1.
        -12    1    3    3    0    0  0.98229402695E+00  0.44221159716E+01 -0.10041648818E+01  0.46398661976E+01  0.00000000000E+00 0.  1.
</event>
<event>
 7    1  0.1375918E-013  0.7246167E+02  0.7816164E-02  0.1226708E+00
        -11   -1    0    0    0    0  0.00000000000E+00  0.00000000000E+00  0.45593999997E+02  0.45594000000E+02  0.51100000000E-03 0.  1.
         11   -1    0    0    0    0 -0.00000000000E+00 -0.00000000000E+00 -0.45593999997E+02  0.45594000000E+02  0.51100000000E-03 0. -1.
    9900012    2    1    2    0    0 -0.39970964345E+00 -0.97333424357E+01  0.15993046698E+02  0.72461674534E+02  0.70000135792E+02 0.  0.
         12    1    1    2    0    0  0.39970964345E+00  0.97333424357E+01 -0.15993046698E+02  0.18726325466E+02  0.00000000000E+00 0. -1.
         11    1    3    3    0    0  0.14985899625E+02 -0.11217602865E+02 -0.33516674434E+01  0.19016978638E+02  0.51100000000E-03 0. -1.
        -11    1    3    3    0    0 -0.18800328473E+02  0.13140969290E+02  0.29669981788E+02  0.37502603164E+02  0.51100000000E-03 0.  1.
        -12    1    3    3    0    0  0.34147192047E+01 -0.11656708861E+02 -0.10325267647E+02  0.15942092732E+02  0.00000000000E+00 0.  1.
</event>
<event>
 7    1  0.1375918E-013  0.7246146E+02  0.7816164E-02  0.1226708E+00
        -11   -1    0    0    0    0  0.00000000000E+00  0.00000000000E+00  0.45593999997E+02  0.45594000000E+02  0.51100000000E-03 0.  1.
         11   -1    0    0    0    0 -0.00000000000E+00 -0.00000000000E+00 -0.45593999997E+02  0.45594000000E+02  0.51100000000E-03 0. -1.
    9900012    2    1    2    0    0 -0.14944174717E+02  0.15526275448E+01  0.11177840618E+02  0.72461464519E+02  0.69999862207E+02 0.  0.
         12    1    1    2    0    0  0.14944174717E+02 -0.15526275448E+01 -0.11177840618E+02  0.18726535481E+02  0.00000000000E+00 0. -1.
         11    1    3    3    0    0 -0.13619756759E+02 -0.20513869127E+02  0.13894935283E+02  0.28273412025E+02  0.51100000000E-03 0. -1.
        -11    1    3    3    0    0 -0.14961168608E+02  0.11250499435E+02  0.11277883465E+02  0.21854083357E+02  0.51100000000E-03 0.  1.
         12    1    3    3    0    0  0.13636750650E+02  0.10815997237E+02 -0.13994978131E+02  0.22333969137E+02  0.00000000000E+00 0. -1.
</event>
<event>
 7    1  0.1375918E-013  0.7246156E+02  0.7816164E-02  0.1226708E+00
        -11   -1    0    0    0    0  0.00000000000E+00  0.00000000000E+00  0.45593999997E+02  0.45594000000E+02  0.51100000000E-03 0. -1.
         11   -1    0    0    0    0 -0.00000000000E+00 -0.00000000000E+00 -0.45593999997E+02  0.45594000000E+02  0.51100000000E-03 0.  1.
    9900012    2    1    2    0    0  0.61243243630E+01  0.13337941603E+02  0.11630627558E+02  0.72461560603E+02  0.69999987375E+02 0.  0.
         12    1    1    2    0    0 -0.61243243630E+01 -0.13337941603E+02 -0.11630627558E+02  0.18726439397E+02  0.00000000000E+00 0. -1.
         11    1    3    3    0    0 -0.13906135697E+02  0.76634517159E+01  0.79337175353E+01  0.17749731728E+02  0.51100000000E-03 0. -1.
        -11    1    3    3    0    0  0.20109790141E+02 -0.33287622182E+01  0.24602726109E+02  0.31949623623E+02  0.51100000000E-03 0.  1.
        -12    1    3    3    0    0 -0.79330080575E-01  0.90032521049E+01 -0.20905816085E+02  0.22762205252E+02  0.00000000000E+00 0.  1.
</event>
<event>
 7    1  0.1375918E-013  0.7246155E+02  0.7816164E-02  0.1226708E+00
        -11   -1    0    0    0    0  0.00000000000E+00  0.00000000000E+00  0.45593999997E+02  0.45594000000E+02  0.51100000000E-03 0.  1.
         11   -1    0    0    0    0 -0.00000000000E+00 -0.00000000000E+00 -0.45593999997E+02  0.45594000000E+02  0.51100000000E-03 0. -1.
    9900012    2    1    2    0    0 -0.14282466941E+02 -0.11553812721E+02  0.36332283943E+01  0.72461553491E+02  0.69999978110E+02 0.  0.
         12    1    1    2    0    0  0.14282466941E+02  0.11553812721E+02 -0.36332283943E+01  0.18726446509E+02  0.00000000000E+00 0. -1.
         11    1    3    3    0    0  0.62578822875E+01  0.15745918276E+01  0.58947759976E+01  0.87400694774E+01  0.51100000000E-03 0. -1.
        -11    1    3    3    0    0 -0.37542186679E+02  0.49654663844E+01 -0.68191850461E+01  0.38478213602E+02  0.51100000000E-03 0.  1.
        -12    1    3    3    0    0  0.17001837450E+02 -0.18093870933E+02  0.45576374428E+01  0.25243270411E+02  0.00000000000E+00 0.  1.
</event>
<event>
 7    1  0.1375918E-013  0.7246159E+02  0.7816164E-02  0.1226708E+00
        -11   -1    0    0    0    0  0.00000000000E+00  0.00000000000E+00  0.45593999997E+02  0.45594000000E+02  0.51100000000E-03 0.  1.
         11   -1    0    0    0    0 -0.00000000000E+00 -0.00000000000E+00 -0.45593999997E+02  0.45594000000E+02  0.51100000000E-03 0. -1.
    9900012    2    1    2    0    0 -0.35953408516E+01  0.42997704015E+01  0.17867961708E+02  0.72461586650E+02  0.70000021306E+02 0.  0.
         12    1    1    2    0    0  0.35953408516E+01 -0.42997704015E+01 -0.17867961708E+02  0.18726413350E+02  0.00000000000E+00 0. -1.
         11    1    3    3    0    0 -0.14990237547E+02 -0.42875585801E+01 -0.20840695673E+01  0.15730026272E+02  0.51100000000E-03 0. -1.
        -11    1    3    3    0    0  0.13081954632E+02  0.27338027852E+02  0.22482936503E+02  0.37735762056E+02  0.51100000000E-03 0.  1.
        -12    1    3    3    0    0 -0.16870579369E+01 -0.18750698871E+02 -0.25309052275E+01  0.18995798322E+02  0.00000000000E+00 0.  1.
</event>
<event>
 7    1  0.1375918E-013  0.7246151E+02  0.7816164E-02  0.1226708E+00
        -11   -1    0    0    0    0  0.00000000000E+00  0.00000000000E+00  0.45593999997E+02  0.45594000000E+02  0.51100000000E-03 0. -1.
         11   -1    0    0    0    0 -0.00000000000E+00 -0.00000000000E+00 -0.45593999997E+02  0.45594000000E+02  0.51100000000E-03 0.  1.
    9900012    2    1    2    0    0 -0.58516133160E+01 -0.12533201576E+02 -0.12623739983E+02  0.72461512574E+02  0.69999924809E+02 0.  0.
         12    1    1    2    0    0  0.58516133160E+01  0.12533201576E+02  0.12623739983E+02  0.18726487426E+02  0.00000000000E+00 0. -1.
         11    1    3    3    0    0 -0.10514674801E+02  0.17152391975E+02  0.11059518637E+02  0.22958133404E+02  0.51100000000E-03 0. -1.
        -11    1    3    3    0    0  0.37815577382E+01 -0.23247852215E+02  0.13972577982E+01  0.23594811742E+02  0.51100000000E-03 0.  1.
         12    1    3    3    0    0  0.88150374730E+00 -0.64377413367E+01 -0.25080516418E+02  0.25908567428E+02  0.00000000000E+00 0. -1.
</event>
<event>
 7    1  0.1375918E-013  0.7246156E+02  0.7816164E-02  0.1226708E+00
        -11   -1    0    0    0    0  0.00000000000E+00  0.00000000000E+00  0.45593999997E+02  0.45594000000E+02  0.51100000000E-03 0. -1.
         11   -1    0    0    0    0 -0.00000000000E+00 -0.00000000000E+00 -0.45593999997E+02  0.45594000000E+02  0.51100000000E-03 0.  1.
    9900012    2    1    2    0    0  0.12610457226E+02  0.41824143986E+01 -0.13197101913E+02  0.72461555582E+02  0.69999980834E+02 0.  0.
         12    1    1    2    0    0 -0.12610457226E+02 -0.41824143986E+01  0.13197101913E+02  0.18726444418E+02  0.00000000000E+00 0. -1.
         11    1    3    3    0    0  0.14571407804E+02 -0.11203341897E+02  0.20463807858E+02  0.27506512454E+02  0.51100000000E-03 0. -1.
        -11    1    3    3    0    0 -0.18979268569E+01  0.17832309542E+02 -0.88033510273E+01  0.19977296602E+02  0.51100000000E-03 0.  1.
         12    1    3    3    0    0 -0.63023721320E-01 -0.24465532463E+01 -0.24857558744E+02  0.24977746526E+02  0.00000000000E+00 0. -1.
</event>
<event>
 7    1  0.1375918E-013  0.7246153E+02  0.7816164E-02  0.1226708E+00
        -11   -1    0    0    0    0  0.00000000000E+00  0.00000000000E+00  0.45593999997E+02  0.45594000000E+02  0.51100000000E-03 0.  1.
         11   -1    0    0    0    0 -0.00000000000E+00 -0.00000000000E+00 -0.45593999997E+02  0.45594000000E+02  0.51100000000E-03 0. -1.
    9900012    2    1    2    0    0 -0.71861010886E+01 -0.71156396964E+01  0.15760975574E+02  0.72461528678E+02  0.69999945786E+02 0.  0.
         12    1    1    2    0    0  0.71861010886E+01  0.71156396964E+01 -0.15760975574E+02  0.18726471322E+02  0.00000000000E+00 0. -1.
         11    1    3    3    0    0 -0.29572507430E+02  0.58787084264E+01  0.18354431158E+02  0.35298407215E+02  0.51100000000E-03 0. -1.
        -11    1    3    3    0    0  0.78002817854E+01  0.47644272110E+01 -0.94837002328E+01  0.13171360330E+02  0.51100000000E-03 0.  1.
         12    1    3    3    0    0  0.14586124556E+02 -0.17758775334E+02  0.68902446484E+01  0.23991761133E+02  0.00000000000E+00 0. -1.
</event>
<event>
 7    1  0.1375918E-013  0.7246160E+02  0.7816164E-02  0.1226708E+00
        -11   -1    0    0    0    0  0.00000000000E+00  0.00000000000E+00  0.45593999997E+02  0.45594000000E+02  0.51100000000E-03 0.  1.
         11   -1    0    0    0    0 -0.00000000000E+00 -0.00000000000E+00 -0.45593999997E+02  0.45594000000E+02  0.51100000000E-03 0. -1.
    9900012    2    1    2    0    0  0.37934437192E+01 -0.87806712159E+01  0.16099303416E+02  0.72461602249E+02  0.70000041627E+02 0.  0.
         12    1    1    2    0    0 -0.37934437192E+01  0.87806712159E+01 -0.16099303416E+02  0.18726397751E+02  0.00000000000E+00 0. -1.
         11    1    3    3    0    0  0.31768566091E+02  0.10523258236E+02  0.11277401801E+01  0.33485109431E+02  0.51100000000E-03 0.  1.
        -11    1    3    3    0    0 -0.27962550718E+02 -0.18371665076E+02  0.11495429983E+02  0.35377496111E+02  0.51100000000E-03 0. -1.
        -12    1    3    3    0    0 -0.12571654709E-01 -0.93226437528E+00  0.34761332527E+01  0.35989967077E+01  0.00000000000E+00 0.  1.
</event>
<event>
 7    1  0.1375918E-013  0.7246154E+02  0.7816164E-02  0.1226708E+00
        -11   -1    0    0    0    0  0.00000000000E+00  0.00000000000E+00  0.45593999997E+02  0.45594000000E+02  0.51100000000E-03 0.  1.
         11   -1    0    0    0    0 -0.00000000000E+00 -0.00000000000E+00 -0.45593999997E+02  0.45594000000E+02  0.51100000000E-03 0. -1.
    9900012    2    1    2    0    0  0.27263823135E+01  0.18518769487E+02  0.54976498718E+00  0.72461542103E+02  0.69999963276E+02 0.  0.
         12    1    1    2    0    0 -0.27263823135E+01 -0.18518769487E+02 -0.54976498718E+00  0.18726457897E+02  0.00000000000E+00 0. -1.
         11    1    3    3    0    0  0.86458520156E+01  0.16802603432E+01 -0.99078868586E+01  0.13256706007E+02  0.51100000000E-03 0. -1.
        -11    1    3    3    0    0 -0.22522805616E+02 -0.62369147353E+01  0.18336541327E+02  0.29705296267E+02  0.51100000000E-03 0.  1.
        -12    1    3    3    0    0  0.16603335913E+02  0.23075423879E+02 -0.78788894816E+01  0.29499539829E+02  0.00000000000E+00 0.  1.
</event>
<event>
 7    1  0.1375918E-013  0.7246159E+02  0.7816164E-02  0.1226708E+00
        -11   -1    0    0    0    0  0.00000000000E+00  0.00000000000E+00  0.45593999997E+02  0.45594000000E+02  0.51100000000E-03 0. -1.
         11   -1    0    0    0    0 -0.00000000000E+00 -0.00000000000E+00 -0.45593999997E+02  0.45594000000E+02  0.51100000000E-03 0.  1.
    9900012    2    1    2    0    0  0.81293345960E+01 -0.35082348056E+01 -0.16501047826E+02  0.72461591594E+02  0.70000027747E+02 0.  0.
         12    1    1    2    0    0 -0.81293345960E+01  0.35082348056E+01  0.16501047826E+02  0.18726408406E+02  0.00000000000E+00 0. -1.
         11    1    3    3    0    0 -0.13303795656E+02  0.11972996382E+02  0.78990812226E+01  0.19563719116E+02  0.51100000000E-03 0. -1.
        -11    1    3    3    0    0  0.27581429423E+02 -0.75116057268E+01 -0.29950988276E+02  0.41403154090E+02  0.51100000000E-03 0.  1.
         12    1    3    3    0    0 -0.61482991713E+01 -0.79696254603E+01  0.55508592270E+01  0.11494718389E+02  0.00000000000E+00 0. -1.
</event>
<event>
 8    1  0.1375918E-013  0.7246157E+02  0.7816164E-02  0.1226708E+00
        -11   -1    0    0    0    0  0.00000000000E+00  0.00000000000E+00  0.45593999997E+02  0.45594000000E+02  0.51100000000E-03 0.  1.
         11   -1    0    0    0    0 -0.00000000000E+00 -0.00000000000E+00 -0.45593999997E+02  0.45594000000E+02  0.51100000000E-03 0. -1.
    9900012    2    1    2    0    0  0.11507735481E+02  0.13321508116E+02 -0.63866072299E+01  0.72461566642E+02  0.69999995243E+02 0.  0.
         24    2    3    3    0    0  0.63354147136E+01  0.12260353695E+01  0.10646515315E+02  0.50939935036E+02  0.49395222956E+02 0.  0.
         12    1    1    2    0    0 -0.11507735481E+02 -0.13321508116E+02  0.63866072299E+01  0.18726433358E+02  0.00000000000E+00 0. -1.
         11    1    3    3    0    0  0.51723207671E+01  0.12095472747E+02 -0.17033122545E+02  0.21521631606E+02  0.51100000000E-03 0. -1.
        -11    1    4    4    0    0  0.89247626601E+01  0.73815308711E+01  0.29097439581E+02  0.31317716663E+02  0.51100000000E-03 0.  1.
         12    1    4    4    0    0 -0.25893479465E+01 -0.61554955015E+01 -0.18450924265E+02  0.19622218374E+02  0.00000000000E+00 0. -1.
</event>
<event>
 7    1  0.1375918E-013  0.7246159E+02  0.7816164E-02  0.1226708E+00
        -11   -1    0    0    0    0  0.00000000000E+00  0.00000000000E+00  0.45593999997E+02  0.45594000000E+02  0.51100000000E-03 0.  1.
         11   -1    0    0    0    0 -0.00000000000E+00 -0.00000000000E+00 -0.45593999997E+02  0.45594000000E+02  0.51100000000E-03 0. -1.
    9900012    2    1    2    0    0  0.12672333513E+02 -0.86922453071E+01  0.10702111780E+02  0.72461591864E+02  0.70000028098E+02 0.  0.
         12    1    1    2    0    0 -0.12672333513E+02  0.86922453071E+01 -0.10702111780E+02  0.18726408136E+02  0.00000000000E+00 0. -1.
         11    1    3    3    0    0  0.55230504467E+01  0.13870150290E+02  0.26408262625E+01  0.15161105465E+02  0.51100000000E-03 0. -1.
        -11    1    3    3    0    0 -0.14536100781E+02 -0.26958165814E+02 -0.58265250873E+01  0.31176743332E+02  0.51100000000E-03 0.  1.
        -12    1    3    3    0    0  0.21685383847E+02  0.43957702163E+01  0.13887810605E+02  0.26123743066E+02  0.00000000000E+00 0.  1.
</event>
<event>
 7    1  0.1375918E-013  0.7246173E+02  0.7816164E-02  0.1226708E+00
        -11   -1    0    0    0    0  0.00000000000E+00  0.00000000000E+00  0.45593999997E+02  0.45594000000E+02  0.51100000000E-03 0. -1.
         11   -1    0    0    0    0 -0.00000000000E+00 -0.00000000000E+00 -0.45593999997E+02  0.45594000000E+02  0.51100000000E-03 0.  1.
    9900012    2    1    2    0    0 -0.34193045751E+01  0.17681179896E+02 -0.51339404732E+01  0.72461732057E+02  0.70000210725E+02 0.  0.
         12    1    1    2    0    0  0.34193045751E+01 -0.17681179896E+02  0.51339404732E+01  0.18726267943E+02  0.00000000000E+00 0. -1.
         11    1    3    3    0    0  0.65591128785E+01 -0.45003367981E+01  0.71811942388E+00  0.79869073375E+01  0.51100000000E-03 0.  1.
        -11    1    3    3    0    0 -0.21073945482E+02  0.19351542777E+02  0.20862524159E+02  0.35409579221E+02  0.51100000000E-03 0. -1.
        -12    1    3    3    0    0  0.11095528028E+02  0.28299739172E+01 -0.26714584056E+02  0.29065245498E+02  0.00000000000E+00 0.  1.
</event>
<event>
 7    1  0.1375918E-013  0.7246154E+02  0.7816164E-02  0.1226708E+00
        -11   -1    0    0    0    0  0.00000000000E+00  0.00000000000E+00  0.45593999997E+02  0.45594000000E+02  0.51100000000E-03 0.  1.
         11   -1    0    0    0    0 -0.00000000000E+00 -0.00000000000E+00 -0.45593999997E+02  0.45594000000E+02  0.51100000000E-03 0. -1.
    9900012    2    1    2    0    0 -0.15756517856E+02  0.98869614563E+01 -0.21587967462E+01  0.72461541040E+02  0.69999961891E+02 0.  0.
         12    1    1    2    0    0  0.15756517856E+02 -0.98869614563E+01  0.21587967462E+01  0.18726458960E+02  0.00000000000E+00 0. -1.
         11    1    3    3    0    0 -0.18023674392E+02  0.35242357785E+02 -0.97682208517E+01  0.40771249180E+02  0.51100000000E-03 0. -1.
        -11    1    3    3    0    0  0.83330809675E+01 -0.12445677782E+02  0.88088172745E+01  0.17376144449E+02  0.51100000000E-03 0.  1.
         12    1    3    3    0    0 -0.60659244310E+01 -0.12909718546E+02 -0.11993931690E+01  0.14314147411E+02  0.00000000000E+00 0. -1.
</event>
<event>
 7    1  0.1375918E-013  0.7246159E+02  0.7816164E-02  0.1226708E+00
        -11   -1    0    0    0    0  0.00000000000E+00  0.00000000000E+00  0.45593999997E+02  0.45594000000E+02  0.51100000000E-03 0. -1.
         11   -1    0    0    0    0 -0.00000000000E+00 -0.00000000000E+00 -0.45593999997E+02  0.45594000000E+02  0.51100000000E-03 0.  1.
    9900012    2    1    2    0    0 -0.11334786551E+02 -0.16804218566E+01 -0.14811390727E+02  0.72461588196E+02  0.70000023321E+02 0.  0.
         12    1    1    2    0    0  0.11334786551E+02  0.16804218566E+01  0.14811390727E+02  0.18726411804E+02  0.00000000000E+00 0. -1.
         11    1    3    3    0    0  0.16120239202E+02  0.80082488043E+01 -0.89591284682E+01  0.20106221525E+02  0.51100000000E-03 0. -1.
        -11    1    3    3    0    0 -0.19867721811E+02 -0.20444050597E+02  0.11359608768E+02  0.30687559147E+02  0.51100000000E-03 0.  1.
         12    1    3    3    0    0 -0.75873039419E+01  0.10755379936E+02 -0.17211871026E+02  0.21667807524E+02  0.00000000000E+00 0. -1.
</event>
<event>
 7    1  0.1375918E-013  0.7246157E+02  0.7816164E-02  0.1226708E+00
        -11   -1    0    0    0    0  0.00000000000E+00  0.00000000000E+00  0.45593999997E+02  0.45594000000E+02  0.51100000000E-03 0.  1.
         11   -1    0    0    0    0 -0.00000000000E+00 -0.00000000000E+00 -0.45593999997E+02  0.45594000000E+02  0.51100000000E-03 0. -1.
    9900012    2    1    2    0    0  0.10504458139E+02 -0.15419439691E+02  0.16051214181E+01  0.72461570123E+02  0.69999999776E+02 0.  0.
         12    1    1    2    0    0 -0.10504458139E+02  0.15419439691E+02 -0.16051214181E+01  0.18726429877E+02  0.00000000000E+00 0. -1.
         11    1    3    3    0    0 -0.33541494289E+01  0.45081971132E+01 -0.15740974117E+01  0.58354042298E+01  0.51100000000E-03 0. -1.
        -11    1    3    3    0    0  0.51755796948E+00 -0.29523243539E+02  0.25427123533E+02  0.38967016652E+02  0.51100000000E-03 0.  1.
        -12    1    3    3    0    0  0.13341049598E+02  0.95956067351E+01 -0.22247904704E+02  0.27659149240E+02  0.00000000000E+00 0.  1.
</event>
<event>
 7    1  0.1375918E-013  0.7246157E+02  0.7816164E-02  0.1226708E+00
        -11   -1    0    0    0    0  0.00000000000E+00  0.00000000000E+00  0.45593999997E+02  0.45594000000E+02  0.51100000000E-03 0.  1.
         11   -1    0    0    0    0 -0.00000000000E+00 -0.00000000000E+00 -0.45593999997E+02  0.45594000000E+02  0.51100000000E-03 0. -1.
    9900012    2    1    2    0    0  0.41716236516E+01 -0.17437409286E+02 -0.54049613443E+01  0.72461566980E+02  0.69999995683E+02 0.  0.
         12    1    1    2    0    0 -0.41716236516E+01  0.17437409286E+02  0.54049613443E+01  0.18726433020E+02  0.00000000000E+00 0. -1.
         11    1    3    3    0    0  0.62675077344E+01  0.15858900862E+02 -0.20775303129E+02  0.26877492630E+02  0.51100000000E-03 0. -1.
        -11    1    3    3    0    0  0.10553610742E+02 -0.18698566718E+02  0.15130224767E+02  0.26266686101E+02  0.51100000000E-03 0.  1.
         12    1    3    3    0    0 -0.12649494824E+02 -0.14597743430E+02  0.24011701698E+00  0.19317388249E+02  0.00000000000E+00 0. -1.
</event>
<event>
 7    1  0.1375918E-013  0.7246154E+02  0.7816164E-02  0.1226708E+00
        -11   -1    0    0    0    0  0.00000000000E+00  0.00000000000E+00  0.45593999997E+02  0.45594000000E+02  0.51100000000E-03 0.  1.
         11   -1    0    0    0    0 -0.00000000000E+00 -0.00000000000E+00 -0.45593999997E+02  0.45594000000E+02  0.51100000000E-03 0. -1.
    9900012    2    1    2    0    0  0.14144963644E+02 -0.48710631299E+01  0.11263794244E+02  0.72461539756E+02  0.69999960218E+02 0.  0.
         12    1    1    2    0    0 -0.14144963644E+02  0.48710631299E+01 -0.11263794244E+02  0.18726460244E+02  0.00000000000E+00 0. -1.
         11    1    3    3    0    0  0.38288151280E+02 -0.41268517447E+01  0.10879878109E+02  0.40017311025E+02  0.51100000000E-03 0. -1.
        -11    1    3    3    0    0 -0.20783416833E+02 -0.78326837093E+01  0.57468495438E+01  0.22941831429E+02  0.51100000000E-03 0.  1.
        -12    1    3    3    0    0 -0.33597708020E+01  0.70884723241E+01 -0.53629334089E+01  0.95023973018E+01  0.00000000000E+00 0.  1.
</event>
<event>
 7    1  0.1375918E-013  0.7246231E+02  0.7816164E-02  0.1226706E+00
        -11   -1    0    0    0    0  0.00000000000E+00  0.00000000000E+00  0.45593999997E+02  0.45594000000E+02  0.51100000000E-03 0.  1.
         11   -1    0    0    0    0 -0.00000000000E+00 -0.00000000000E+00 -0.45593999997E+02  0.45594000000E+02  0.51100000000E-03 0. -1.
    9900012    2    1    2    0    0 -0.12259609040E+02  0.13721931950E+02  0.34730697432E+01  0.72462305255E+02  0.70000957416E+02 0.  0.
         12    1    1    2    0    0  0.12259609040E+02 -0.13721931950E+02 -0.34730697432E+01  0.18725694745E+02  0.00000000000E+00 0. -1.
         11    1    3    3    0    0 -0.12864876239E+02 -0.16660595924E+02  0.30256180534E+01  0.21265814399E+02  0.51100000000E-03 0.  1.
        -11    1    3    3    0    0 -0.11996916890E+02  0.35130435143E+02 -0.31545016465E+01  0.37256199069E+02  0.51100000000E-03 0. -1.
         12    1    3    3    0    0  0.12602184089E+02 -0.47479072690E+01  0.36019533363E+01  0.13940291786E+02  0.00000000000E+00 0. -1.
</event>
<event>
 7    1  0.1375918E-013  0.7246155E+02  0.7816164E-02  0.1226708E+00
        -11   -1    0    0    0    0  0.00000000000E+00  0.00000000000E+00  0.45593999997E+02  0.45594000000E+02  0.51100000000E-03 0. -1.
         11   -1    0    0    0    0 -0.00000000000E+00 -0.00000000000E+00 -0.45593999997E+02  0.45594000000E+02  0.51100000000E-03 0.  1.
    9900012    2    1    2    0    0  0.13818305492E+02  0.11415629305E+02  0.54238314599E+01  0.72461545269E+02  0.69999967400E+02 0.  0.
         12    1    1    2    0    0 -0.13818305492E+02 -0.11415629305E+02 -0.54238314599E+01  0.18726454731E+02  0.00000000000E+00 0. -1.
         11    1    3    3    0    0  0.71406774100E+01 -0.12388624974E+02  0.71418880931E+01  0.15983549932E+02  0.51100000000E-03 0. -1.
        -11    1    3    3    0    0 -0.45631623974E+01  0.34357208060E+02  0.11136489632E+02  0.36404142598E+02  0.51100000000E-03 0.  1.
        -12    1    3    3    0    0  0.11240790479E+02 -0.10552953781E+02 -0.12854546265E+02  0.20073852739E+02  0.00000000000E+00 0.  1.
</event>
<event>
 7    1  0.1375918E-013  0.7246157E+02  0.7816164E-02  0.1226708E+00
        -11   -1    0    0    0    0  0.00000000000E+00  0.00000000000E+00  0.45593999997E+02  0.45594000000E+02  0.51100000000E-03 0.  1.
         11   -1    0    0    0    0 -0.00000000000E+00 -0.00000000000E+00 -0.45593999997E+02  0.45594000000E+02  0.51100000000E-03 0. -1.
    9900012    2    1    2    0    0 -0.70179588077E+01  0.15264398008E+02  0.82719671182E+01  0.72461573956E+02  0.70000004770E+02 0.  0.
         12    1    1    2    0    0  0.70179588077E+01 -0.15264398008E+02 -0.82719671182E+01  0.18726426044E+02  0.00000000000E+00 0. -1.
         11    1    3    3    0    0 -0.30023554592E+02  0.17901688485E+02 -0.23087554369E+00  0.34956223834E+02  0.51100000000E-03 0.  1.
        -11    1    3    3    0    0  0.23038600987E+02  0.70897183221E+01  0.12302183628E+02  0.27062611914E+02  0.51100000000E-03 0. -1.
        -12    1    3    3    0    0 -0.33005202835E-01 -0.97270087984E+01 -0.37993409663E+01  0.10442738208E+02  0.00000000000E+00 0.  1.
</event>
<event>
 7    1  0.1375918E-013  0.7246157E+02  0.7816164E-02  0.1226708E+00
        -11   -1    0    0    0    0  0.00000000000E+00  0.00000000000E+00  0.45593999997E+02  0.45594000000E+02  0.51100000000E-03 0. -1.
         11   -1    0    0    0    0 -0.00000000000E+00 -0.00000000000E+00 -0.45593999997E+02  0.45594000000E+02  0.51100000000E-03 0.  1.
    9900012    2    1    2    0    0 -0.89009854049E+01 -0.25808499367E+01 -0.16272392689E+02  0.72461572381E+02  0.70000002718E+02 0.  0.
         12    1    1    2    0    0  0.89009854049E+01  0.25808499367E+01  0.16272392689E+02  0.18726427619E+02  0.00000000000E+00 0. -1.
         11    1    3    3    0    0  0.91865168584E+01  0.16890498933E+02 -0.37098846861E+01  0.19581733602E+02  0.51100000000E-03 0. -1.
        -11    1    3    3    0    0  0.32195085855E+01 -0.21802973293E+02 -0.20425506174E+02  0.30048896530E+02  0.51100000000E-03 0.  1.
        -12    1    3    3    0    0 -0.21307010849E+02  0.23316244229E+01  0.78629981711E+01  0.22830942249E+02  0.00000000000E+00 0.  1.
</event>
<event>
 7    1  0.1375918E-013  0.7246160E+02  0.7816164E-02  0.1226708E+00
        -11   -1    0    0    0    0  0.00000000000E+00  0.00000000000E+00  0.45593999997E+02  0.45594000000E+02  0.51100000000E-03 0.  1.
         11   -1    0    0    0    0 -0.00000000000E+00 -0.00000000000E+00 -0.45593999997E+02  0.45594000000E+02  0.51100000000E-03 0. -1.
    9900012    2    1    2    0    0  0.13021610851E+02 -0.57500933722E+01 -0.12167668875E+02  0.72461599150E+02  0.70000037590E+02 0.  0.
         12    1    1    2    0    0 -0.13021610851E+02  0.57500933722E+01  0.12167668875E+02  0.18726400850E+02  0.00000000000E+00 0. -1.
         11    1    3    3    0    0  0.72839132867E+01  0.28477491786E+01 -0.23091948215E+02  0.24380384344E+02  0.51100000000E-03 0. -1.
        -11    1    3    3    0    0 -0.14087436297E+02 -0.90247113655E+00  0.20393092239E+02  0.24802187946E+02  0.51100000000E-03 0.  1.
        -12    1    3    3    0    0  0.19825133862E+02 -0.76953714142E+01 -0.94688128983E+01  0.23279026860E+02  0.00000000000E+00 0.  1.
</event>
<event>
 7    1  0.1375918E-013  0.7246216E+02  0.7816164E-02  0.1226706E+00
        -11   -1    0    0    0    0  0.00000000000E+00  0.00000000000E+00  0.45593999997E+02  0.45594000000E+02  0.51100000000E-03 0. -1.
         11   -1    0    0    0    0 -0.00000000000E+00 -0.00000000000E+00 -0.45593999997E+02  0.45594000000E+02  0.51100000000E-03 0.  1.
    9900012    2    1    2    0    0 -0.12710193343E+02 -0.49953596551E+01 -0.12812277371E+02  0.72462159983E+02  0.70000768175E+02 0.  0.
         12    1    1    2    0    0  0.12710193343E+02  0.49953596551E+01  0.12812277371E+02  0.18725840017E+02  0.00000000000E+00 0. -1.
         11    1    3    3    0    0 -0.27983912360E+02  0.21719562305E+01  0.16954913901E+02  0.32791551511E+02  0.51100000000E-03 0. -1.
        -11    1    3    3    0    0  0.12749303705E+02  0.82724093618E+00 -0.53442986544E+01  0.13848848360E+02  0.51100000000E-03 0.  1.
         12    1    3    3    0    0  0.25244153118E+01 -0.79945568217E+01 -0.24422892618E+02  0.25821760112E+02  0.00000000000E+00 0. -1.
</event>
<event>
 7    1  0.1375918E-013  0.7246161E+02  0.7816164E-02  0.1226708E+00
        -11   -1    0    0    0    0  0.00000000000E+00  0.00000000000E+00  0.45593999997E+02  0.45594000000E+02  0.51100000000E-03 0.  1.
         11   -1    0    0    0    0 -0.00000000000E+00 -0.00000000000E+00 -0.45593999997E+02  0.45594000000E+02  0.51100000000E-03 0. -1.
    9900012    2    1    2    0    0  0.10290762094E+02  0.10907866117E+02  0.11215902467E+02  0.72461606972E+02  0.70000047780E+02 0.  0.
         12    1    1    2    0    0 -0.10290762094E+02 -0.10907866117E+02 -0.11215902467E+02  0.18726393028E+02  0.00000000000E+00 0. -1.
         11    1    3    3    0    0  0.35966237146E+00 -0.72343374159E+01 -0.14463996494E+02  0.16176284793E+02  0.51100000000E-03 0. -1.
        -11    1    3    3    0    0 -0.67365118628E+01  0.83056136964E+01  0.33684670667E+02  0.35341489062E+02  0.51100000000E-03 0.  1.
        -12    1    3    3    0    0  0.16667611585E+02  0.98365898367E+01 -0.80047717059E+01  0.20943833117E+02  0.00000000000E+00 0.  1.
</event>
<event>
 7    1  0.1375918E-013  0.7246129E+02  0.7816164E-02  0.1226709E+00
        -11   -1    0    0    0    0  0.00000000000E+00  0.00000000000E+00  0.45593999997E+02  0.45594000000E+02  0.51100000000E-03 0.  1.
         11   -1    0    0    0    0 -0.00000000000E+00 -0.00000000000E+00 -0.45593999997E+02  0.45594000000E+02  0.51100000000E-03 0. -1.
    9900012    2    1    2    0    0  0.17163446136E+02 -0.48977661440E+01  0.56672355709E+01  0.72461292989E+02  0.69999638758E+02 0.  0.
         12    1    1    2    0    0 -0.17163446136E+02  0.48977661440E+01 -0.56672355709E+01  0.18726707011E+02  0.00000000000E+00 0. -1.
         11    1    3    3    0    0  0.13596038485E+02  0.29071100814E+02 -0.11454037596E+02  0.34076034724E+02  0.51100000000E-03 0. -1.
        -11    1    3    3    0    0  0.21812883967E+01 -0.25356368756E+02  0.10983182631E+02  0.27718833967E+02  0.51100000000E-03 0.  1.
         12    1    3    3    0    0  0.13861192538E+01 -0.86124982026E+01  0.61380905352E+01  0.10666424297E+02  0.00000000000E+00 0. -1.
</event>
<event>
 7    1  0.1375918E-013  0.7246233E+02  0.7816164E-02  0.1226706E+00
        -11   -1    0    0    0    0  0.00000000000E+00  0.00000000000E+00  0.45593999997E+02  0.45594000000E+02  0.51100000000E-03 0. -1.
         11   -1    0    0    0    0 -0.00000000000E+00 -0.00000000000E+00 -0.45593999997E+02  0.45594000000E+02  0.51100000000E-03 0.  1.
    9900012    2    1    2    0    0 -0.66724518590E+01 -0.45156473918E+01 -0.16903792424E+02  0.72462325553E+02  0.70000983858E+02 0.  0.
         12    1    1    2    0    0  0.66724518590E+01  0.45156473918E+01  0.16903792424E+02  0.18725674447E+02  0.00000000000E+00 0. -1.
         11    1    3    3    0    0 -0.26805135327E+02 -0.13116861063E+02  0.80390097930E+01  0.30906196834E+02  0.51100000000E-03 0. -1.
        -11    1    3    3    0    0  0.57902203083E+00  0.12977171513E+02 -0.12126362013E+02  0.17770506547E+02  0.51100000000E-03 0.  1.
         12    1    3    3    0    0  0.19553661437E+02 -0.43759578417E+01 -0.12816440204E+02  0.23785622172E+02  0.00000000000E+00 0. -1.
</event>
<event>
 7    1  0.1375918E-013  0.7246158E+02  0.7816164E-02  0.1226708E+00
        -11   -1    0    0    0    0  0.00000000000E+00  0.00000000000E+00  0.45593999997E+02  0.45594000000E+02  0.51100000000E-03 0.  1.
         11   -1    0    0    0    0 -0.00000000000E+00 -0.00000000000E+00 -0.45593999997E+02  0.45594000000E+02  0.51100000000E-03 0. -1.
    9900012    2    1    2    0    0 -0.47388015115E+01  0.16854918076E+02  0.66433668285E+01  0.72461579468E+02  0.70000011951E+02 0.  0.
         12    1    1    2    0    0  0.47388015115E+01 -0.16854918076E+02 -0.66433668285E+01  0.18726420532E+02  0.00000000000E+00 0. -1.
         11    1    3    3    0    0 -0.12328303200E+02 -0.10275733135E+02 -0.14270845573E+02  0.21476377369E+02  0.51100000000E-03 0. -1.
        -11    1    3    3    0    0  0.22361625761E+02  0.15177793737E+02  0.86825023894E+01  0.28386503437E+02  0.51100000000E-03 0.  1.
        -12    1    3    3    0    0 -0.14772124072E+02  0.11952857474E+02  0.12231710012E+02  0.22598698662E+02  0.00000000000E+00 0.  1.
</event>
<event>
 7    1  0.1375918E-013  0.7246126E+02  0.7816164E-02  0.1226709E+00
        -11   -1    0    0    0    0  0.00000000000E+00  0.00000000000E+00  0.45593999997E+02  0.45594000000E+02  0.51100000000E-03 0. -1.
         11   -1    0    0    0    0 -0.00000000000E+00 -0.00000000000E+00 -0.45593999997E+02  0.45594000000E+02  0.51100000000E-03 0.  1.
    9900012    2    1    2    0    0 -0.15398273095E+01 -0.14107768128E+02 -0.12218452473E+02  0.72461260547E+02  0.69999596496E+02 0.  0.
         12    1    1    2    0    0  0.15398273095E+01  0.14107768128E+02  0.12218452473E+02  0.18726739453E+02  0.00000000000E+00 0. -1.
         11    1    3    3    0    0 -0.21281437906E+02 -0.18933270633E+02 -0.10446065610E+02  0.30339555422E+02  0.51100000000E-03 0. -1.
        -11    1    3    3    0    0  0.18722860875E+02  0.80069362819E+01 -0.17003371001E+02  0.26528685863E+02  0.51100000000E-03 0.  1.
         12    1    3    3    0    0  0.10187497214E+01 -0.31814337768E+01  0.15230984138E+02  0.15593019262E+02  0.00000000000E+00 0. -1.
</event>
<event>
 7    1  0.1375918E-013  0.7246154E+02  0.7816164E-02  0.1226708E+00
        -11   -1    0    0    0    0  0.00000000000E+00  0.00000000000E+00  0.45593999997E+02  0.45594000000E+02  0.51100000000E-03 0.  1.
         11   -1    0    0    0    0 -0.00000000000E+00 -0.00000000000E+00 -0.45593999997E+02  0.45594000000E+02  0.51100000000E-03 0. -1.
    9900012    2    1    2    0    0  0.88454677332E+01 -0.15786927341E+02 -0.48177666956E+01  0.72461541440E+02  0.69999962412E+02 0.  0.
         12    1    1    2    0    0 -0.88454677332E+01  0.15786927341E+02  0.48177666956E+01  0.18726458560E+02  0.00000000000E+00 0. -1.
         11    1    3    3    0    0 -0.13251617756E+02 -0.25182337788E+01 -0.19013548387E+02  0.23312269238E+02  0.51100000000E-03 0.  1.
        -11    1    3    3    0    0  0.30213882299E+02 -0.21251178816E+01  0.13700749137E+01  0.30319497276E+02  0.51100000000E-03 0. -1.
        -12    1    3    3    0    0 -0.81167968096E+01 -0.11143575680E+02  0.12825706778E+02  0.18829774925E+02  0.00000000000E+00 0.  1.
</event>
<event>
 7    1  0.1375918E-013  0.7246155E+02  0.7816164E-02  0.1226708E+00
        -11   -1    0    0    0    0  0.00000000000E+00  0.00000000000E+00  0.45593999997E+02  0.45594000000E+02  0.51100000000E-03 0.  1.
         11   -1    0    0    0    0 -0.00000000000E+00 -0.00000000000E+00 -0.45593999997E+02  0.45594000000E+02  0.51100000000E-03 0. -1.
    9900012    2    1    2    0    0 -0.16152208355E+02  0.16931205309E+01  0.93230550799E+01  0.72461552182E+02  0.69999976405E+02 0.  0.
         12    1    1    2    0    0  0.16152208355E+02 -0.16931205309E+01 -0.93230550799E+01  0.18726447818E+02  0.00000000000E+00 0. -1.
         11    1    3    3    0    0 -0.60665507919E+01  0.28948018923E+02 -0.10160612567E+02  0.31273453376E+02  0.51100000000E-03 0. -1.
        -11    1    3    3    0    0 -0.42905053937E+01 -0.53281382794E+00  0.12123830365E+02  0.12871658405E+02  0.51100000000E-03 0.  1.
         12    1    3    3    0    0 -0.57951521690E+01 -0.26722084565E+02  0.73598372811E+01  0.28316440400E+02  0.00000000000E+00 0. -1.
</event>
<event>
 7    1  0.1375918E-013  0.7246161E+02  0.7816164E-02  0.1226708E+00
        -11   -1    0    0    0    0  0.00000000000E+00  0.00000000000E+00  0.45593999997E+02  0.45594000000E+02  0.51100000000E-03 0. -1.
         11   -1    0    0    0    0 -0.00000000000E+00 -0.00000000000E+00 -0.45593999997E+02  0.45594000000E+02  0.51100000000E-03 0.  1.
    9900012    2    1    2    0    0 -0.84618090834E+01  0.87774626652E+01  0.14213784141E+02  0.72461608906E+02  0.70000050299E+02 0.  0.
         12    1    1    2    0    0  0.84618090834E+01 -0.87774626652E+01 -0.14213784141E+02  0.18726391094E+02  0.00000000000E+00 0. -1.
         11    1    3    3    0    0 -0.35203939490E+01  0.23408315277E+02  0.32652732869E+02  0.40330427245E+02  0.51100000000E-03 0. -1.
        -11    1    3    3    0    0 -0.10533896789E+02 -0.14394620778E+02 -0.65703867765E+01  0.19008894538E+02  0.51100000000E-03 0.  1.
         12    1    3    3    0    0  0.55924816544E+01 -0.23623183371E+00 -0.11868561951E+02  0.13122287123E+02  0.00000000000E+00 0. -1.
</event>
<event>
 7    1  0.1375918E-013  0.7246157E+02  0.7816164E-02  0.1226708E+00
        -11   -1    0    0    0    0  0.00000000000E+00  0.00000000000E+00  0.45593999997E+02  0.45594000000E+02  0.51100000000E-03 0.  1.
         11   -1    0    0    0    0 -0.00000000000E+00 -0.00000000000E+00 -0.45593999997E+02  0.45594000000E+02  0.51100000000E-03 0. -1.
    9900012    2    1    2    0    0 -0.62197791835E-01  0.11029947653E+01  0.18693815066E+02  0.72461569808E+02  0.69999999366E+02 0.  0.
         12    1    1    2    0    0  0.62197791835E-01 -0.11029947653E+01 -0.18693815066E+02  0.18726430192E+02  0.00000000000E+00 0. -1.
         11    1    3    3    0    0 -0.11104506360E+02 -0.11746455381E+02  0.86435186519E+01  0.18330294337E+02  0.51100000000E-03 0. -1.
        -11    1    3    3    0    0  0.27474713632E+02 -0.60632700805E+01  0.53569711291E+01  0.28641233793E+02  0.51100000000E-03 0.  1.
        -12    1    3    3    0    0 -0.16432405063E+02  0.18912720227E+02  0.46933252850E+01  0.25490041679E+02  0.00000000000E+00 0.  1.
</event>
<event>
 7    1  0.1375918E-013  0.7246158E+02  0.7816164E-02  0.1226708E+00
        -11   -1    0    0    0    0  0.00000000000E+00  0.00000000000E+00  0.45593999997E+02  0.45594000000E+02  0.51100000000E-03 0.  1.
         11   -1    0    0    0    0 -0.00000000000E+00 -0.00000000000E+00 -0.45593999997E+02  0.45594000000E+02  0.51100000000E-03 0. -1.
    9900012    2    1    2    0    0  0.44371757393E+01  0.14036244402E+02 -0.11574722176E+02  0.72461578054E+02  0.70000010108E+02 0.  0.
         12    1    1    2    0    0 -0.44371757393E+01 -0.14036244402E+02  0.11574722176E+02  0.18726421946E+02  0.00000000000E+00 0. -1.
         11    1    3    3    0    0 -0.21927925311E+01 -0.42270764974E+01 -0.12295411958E+02  0.13185358178E+02  0.51100000000E-03 0. -1.
        -11    1    3    3    0    0 -0.12554954763E+02  0.32756100652E+02  0.24861498044E+01  0.35167740333E+02  0.51100000000E-03 0.  1.
        -12    1    3    3    0    0  0.19184923034E+02 -0.14492779753E+02 -0.17654600227E+01  0.24108479543E+02  0.00000000000E+00 0.  1.
</event>
<event>
 7    1  0.1375918E-013  0.7246153E+02  0.7816164E-02  0.1226708E+00
        -11   -1    0    0    0    0  0.00000000000E+00  0.00000000000E+00  0.45593999997E+02  0.45594000000E+02  0.51100000000E-03 0.  1.
         11   -1    0    0    0    0 -0.00000000000E+00 -0.00000000000E+00 -0.45593999997E+02  0.45594000000E+02  0.51100000000E-03 0. -1.
    9900012    2    1    2    0    0 -0.94455700235E+00 -0.15127897955E+02  0.10997051868E+02  0.72461531186E+02  0.69999949054E+02 0.  0.
         12    1    1    2    0    0  0.94455700235E+00  0.15127897955E+02 -0.10997051868E+02  0.18726468814E+02  0.00000000000E+00 0. -1.
         11    1    3    3    0    0 -0.13138256285E+02 -0.50230407219E-01 -0.22213685741E+02  0.25808218376E+02  0.51100000000E-03 0. -1.
        -11    1    3    3    0    0  0.17796147170E+02 -0.15986157576E+02  0.16647009874E+02  0.29144176539E+02  0.51100000000E-03 0.  1.
        -12    1    3    3    0    0 -0.56024478880E+01  0.90849002796E+00  0.16563727735E+02  0.17509136270E+02  0.00000000000E+00 0.  1.
</event>
<event>
 7    1  0.1375918E-013  0.7246148E+02  0.7816164E-02  0.1226708E+00
        -11   -1    0    0    0    0  0.00000000000E+00  0.00000000000E+00  0.45593999997E+02  0.45594000000E+02  0.51100000000E-03 0.  1.
         11   -1    0    0    0    0 -0.00000000000E+00 -0.00000000000E+00 -0.45593999997E+02  0.45594000000E+02  0.51100000000E-03 0. -1.
    9900012    2    1    2    0    0 -0.61279714288E+01  0.69040197605E+00  0.17682019507E+02  0.72461481301E+02  0.69999884070E+02 0.  0.
         12    1    1    2    0    0  0.61279714288E+01 -0.69040197605E+00 -0.17682019507E+02  0.18726518699E+02  0.00000000000E+00 0. -1.
         11    1    3    3    0    0  0.17190554960E+02  0.37520564335E+01 -0.13382337633E+02  0.22106109294E+02  0.51100000000E-03 0. -1.
        -11    1    3    3    0    0  0.29712923179E+01  0.26701534773E+01  0.21392804105E+02  0.21762590962E+02  0.51100000000E-03 0.  1.
         12    1    3    3    0    0 -0.26289818707E+02 -0.57318079348E+01  0.96715530348E+01  0.28592781046E+02  0.00000000000E+00 0. -1.
</event>
<event>
 7    1  0.1375918E-013  0.7246122E+02  0.7816164E-02  0.1226709E+00
        -11   -1    0    0    0    0  0.00000000000E+00  0.00000000000E+00  0.45593999997E+02  0.45594000000E+02  0.51100000000E-03 0.  1.
         11   -1    0    0    0    0 -0.00000000000E+00 -0.00000000000E+00 -0.45593999997E+02  0.45594000000E+02  0.51100000000E-03 0. -1.
    9900012    2    1    2    0    0 -0.62308822969E+01 -0.15952385250E+02  0.75755942796E+01  0.72461224569E+02  0.69999549627E+02 0.  0.
         12    1    1    2    0    0  0.62308822969E+01  0.15952385250E+02 -0.75755942796E+01  0.18726775431E+02  0.00000000000E+00 0. -1.
         11    1    3    3    0    0  0.12428198539E+02  0.13363769774E+02 -0.11577527595E+02  0.21612255944E+02  0.51100000000E-03 0. -1.
        -11    1    3    3    0    0  0.20708193363E+00 -0.21229982676E+02 -0.20602809365E+01  0.21330724440E+02  0.51100000000E-03 0.  1.
         12    1    3    3    0    0 -0.18866162769E+02 -0.80861723484E+01  0.21213402811E+02  0.29518244184E+02  0.00000000000E+00 0. -1.
</event>
<event>
 7    1  0.1375918E-013  0.7246167E+02  0.7816164E-02  0.1226708E+00
        -11   -1    0    0    0    0  0.00000000000E+00  0.00000000000E+00  0.45593999997E+02  0.45594000000E+02  0.51100000000E-03 0.  1.
         11   -1    0    0    0    0 -0.00000000000E+00 -0.00000000000E+00 -0.45593999997E+02  0.45594000000E+02  0.51100000000E-03 0. -1.
    9900012    2    1    2    0    0 -0.15180707227E+02  0.63363921150E+01  0.89482849791E+01  0.72461667176E+02  0.70000126206E+02 0.  0.
         12    1    1    2    0    0  0.15180707227E+02 -0.63363921150E+01 -0.89482849791E+01  0.18726332824E+02  0.00000000000E+00 0. -1.
         11    1    3    3    0    0  0.13689016421E+02 -0.89152752094E+01 -0.34196244409E+01  0.16690270645E+02  0.51100000000E-03 0. -1.
        -11    1    3    3    0    0 -0.17400861149E+02  0.30603986889E+02  0.73920491034E+01  0.35972717057E+02  0.51100000000E-03 0.  1.
         12    1    3    3    0    0 -0.11468862499E+02 -0.15352319565E+02  0.49758603167E+01  0.19798679474E+02  0.00000000000E+00 0. -1.
</event>
<event>
 7    1  0.1375918E-013  0.7246164E+02  0.7816164E-02  0.1226708E+00
        -11   -1    0    0    0    0  0.00000000000E+00  0.00000000000E+00  0.45593999997E+02  0.45594000000E+02  0.51100000000E-03 0.  1.
         11   -1    0    0    0    0 -0.00000000000E+00 -0.00000000000E+00 -0.45593999997E+02  0.45594000000E+02  0.51100000000E-03 0. -1.
    9900012    2    1    2    0    0  0.72501101559E+01  0.89228046653E+01  0.14781610236E+02  0.72461640462E+02  0.70000091407E+02 0.  0.
         12    1    1    2    0    0 -0.72501101559E+01 -0.89228046653E+01 -0.14781610236E+02  0.18726359538E+02  0.00000000000E+00 0. -1.
         11    1    3    3    0    0 -0.19369644312E+01  0.27851998265E+02  0.14923319185E+01  0.27959125404E+02  0.51100000000E-03 0. -1.
        -11    1    3    3    0    0 -0.78304530486E+01 -0.19863942913E+02 -0.22099207191E+01  0.21465692927E+02  0.51100000000E-03 0.  1.
         12    1    3    3    0    0  0.17017527636E+02  0.93474931298E+00  0.15499199037E+02  0.23036822131E+02  0.00000000000E+00 0. -1.
</event>
<event>
 7    1  0.1375918E-013  0.7246153E+02  0.7816164E-02  0.1226708E+00
        -11   -1    0    0    0    0  0.00000000000E+00  0.00000000000E+00  0.45593999997E+02  0.45594000000E+02  0.51100000000E-03 0. -1.
         11   -1    0    0    0    0 -0.00000000000E+00 -0.00000000000E+00 -0.45593999997E+02  0.45594000000E+02  0.51100000000E-03 0.  1.
    9900012    2    1    2    0    0 -0.47918773422E+01  0.15763717287E+02  0.89007860540E+01  0.72461525063E+02  0.69999941078E+02 0.  0.
         12    1    1    2    0    0  0.47918773422E+01 -0.15763717287E+02 -0.89007860540E+01  0.18726474937E+02  0.00000000000E+00 0. -1.
         11    1    3    3    0    0  0.23364138629E+01 -0.18464877621E+02  0.16520542642E+02  0.24886519739E+02  0.51100000000E-03 0. -1.
        -11    1    3    3    0    0  0.16654165519E+01  0.95387405099E+01 -0.17143554074E+02  0.19689150041E+02  0.51100000000E-03 0.  1.
         12    1    3    3    0    0 -0.87937077569E+01  0.24689854398E+02  0.95237974859E+01  0.27885855283E+02  0.00000000000E+00 0. -1.
</event>
<event>
 7    1  0.1375918E-013  0.7246158E+02  0.7816164E-02  0.1226708E+00
        -11   -1    0    0    0    0  0.00000000000E+00  0.00000000000E+00  0.45593999997E+02  0.45594000000E+02  0.51100000000E-03 0.  1.
         11   -1    0    0    0    0 -0.00000000000E+00 -0.00000000000E+00 -0.45593999997E+02  0.45594000000E+02  0.51100000000E-03 0. -1.
    9900012    2    1    2    0    0 -0.11762505284E+02 -0.14060774031E+02  0.38232105690E+01  0.72461579200E+02  0.70000011602E+02 0.  0.
         12    1    1    2    0    0  0.11762505284E+02  0.14060774031E+02 -0.38232105690E+01  0.18726420800E+02  0.00000000000E+00 0. -1.
         11    1    3    3    0    0 -0.32934994218E+02 -0.15169315136E+02  0.21062123206E+01  0.36321592703E+02  0.51100000000E-03 0. -1.
        -11    1    3    3    0    0  0.10238473177E+02  0.23035480888E+01  0.15367865827E+02  0.18609244131E+02  0.51100000000E-03 0.  1.
         12    1    3    3    0    0  0.10934015758E+02 -0.11950069841E+01 -0.13650867579E+02  0.17530742367E+02  0.00000000000E+00 0. -1.
</event>
<event>
 7    1  0.1375918E-013  0.7246154E+02  0.7816164E-02  0.1226708E+00
        -11   -1    0    0    0    0  0.00000000000E+00  0.00000000000E+00  0.45593999997E+02  0.45594000000E+02  0.51100000000E-03 0. -1.
         11   -1    0    0    0    0 -0.00000000000E+00 -0.00000000000E+00 -0.45593999997E+02  0.45594000000E+02  0.51100000000E-03 0.  1.
    9900012    2    1    2    0    0  0.50284777530E+00  0.16333984684E+01 -0.18648312916E+02  0.72461536878E+02  0.69999956469E+02 0.  0.
         12    1    1    2    0    0 -0.50284777530E+00 -0.16333984684E+01  0.18648312916E+02  0.18726463122E+02  0.00000000000E+00 0. -1.
         11    1    3    3    0    0  0.76514100754E+01  0.23248901364E+02  0.12474067174E+02  0.27471036436E+02  0.51100000000E-03 0. -1.
        -11    1    3    3    0    0 -0.93428406693E+01 -0.16927488259E+01 -0.19827857808E+02  0.21984040026E+02  0.51100000000E-03 0.  1.
         12    1    3    3    0    0  0.21942783692E+01 -0.19922754069E+02 -0.11294522283E+02  0.23006460416E+02  0.00000000000E+00 0. -1.
</event>
<event>
 7    1  0.1375918E-013  0.7246110E+02  0.7816164E-02  0.1226709E+00
        -11   -1    0    0    0    0  0.00000000000E+00  0.00000000000E+00  0.45593999997E+02  0.45594000000E+02  0.51100000000E-03 0. -1.
         11   -1    0    0    0    0 -0.00000000000E+00 -0.00000000000E+00 -0.45593999997E+02  0.45594000000E+02  0.51100000000E-03 0.  1.
    9900012    2    1    2    0    0 -0.14294754075E+02  0.23735702060E+01 -0.11862677364E+02  0.72461095722E+02  0.69999381779E+02 0.  0.
         12    1    1    2    0    0  0.14294754075E+02 -0.23735702060E+01  0.11862677364E+02  0.18726904278E+02  0.00000000000E+00 0. -1.
         11    1    3    3    0    0  0.49574121457E+01 -0.20646972353E+02  0.12040595793E+01  0.21267890404E+02  0.51100000000E-03 0. -1.
        -11    1    3    3    0    0 -0.27783476311E+02  0.36817665059E+01 -0.10377076144E+02  0.29885793784E+02  0.51100000000E-03 0.  1.
        -12    1    3    3    0    0  0.85313100901E+01  0.19338776053E+02 -0.26896607992E+01  0.21307411534E+02  0.00000000000E+00 0.  1.
</event>
<event>
 7    1  0.1375918E-013  0.7246153E+02  0.7816164E-02  0.1226708E+00
        -11   -1    0    0    0    0  0.00000000000E+00  0.00000000000E+00  0.45593999997E+02  0.45594000000E+02  0.51100000000E-03 0. -1.
         11   -1    0    0    0    0 -0.00000000000E+00 -0.00000000000E+00 -0.45593999997E+02  0.45594000000E+02  0.51100000000E-03 0.  1.
    9900012    2    1    2    0    0 -0.14595380839E+02 -0.11284501766E+02 -0.32118106983E+01  0.72461525427E+02  0.69999941552E+02 0.  0.
         12    1    1    2    0    0  0.14595380839E+02  0.11284501766E+02  0.32118106983E+01  0.18726474573E+02  0.00000000000E+00 0. -1.
         11    1    3    3    0    0 -0.22174498641E+00 -0.14058783681E+02  0.17664895846E+02  0.22577579918E+02  0.51100000000E-03 0. -1.
        -11    1    3    3    0    0 -0.29540599799E+02 -0.92059949999E+00 -0.15504278373E+02  0.33374798697E+02  0.51100000000E-03 0.  1.
        -12    1    3    3    0    0  0.15166963947E+02  0.36948814146E+01 -0.53724281714E+01  0.16509146813E+02  0.00000000000E+00 0.  1.
</event>
<event>
 7    1  0.1375918E-013  0.7246189E+02  0.7816164E-02  0.1226707E+00
        -11   -1    0    0    0    0  0.00000000000E+00  0.00000000000E+00  0.45593999997E+02  0.45594000000E+02  0.51100000000E-03 0.  1.
         11   -1    0    0    0    0 -0.00000000000E+00 -0.00000000000E+00 -0.45593999997E+02  0.45594000000E+02  0.51100000000E-03 0. -1.
    9900012    2    1    2    0    0  0.83665946162E+01 -0.80596418539E+01  0.14687051940E+02  0.72461889166E+02  0.70000415388E+02 0.  0.
         12    1    1    2    0    0 -0.83665946162E+01  0.80596418539E+01 -0.14687051940E+02  0.18726110834E+02  0.00000000000E+00 0. -1.
         11    1    3    3    0    0 -0.13227121379E+02 -0.63299946647E+01  0.35347157542E+01  0.15083759086E+02  0.51100000000E-03 0. -1.
        -11    1    3    3    0    0  0.20184087493E+02  0.20955698995E+02  0.17276947596E+02  0.33838315957E+02  0.51100000000E-03 0.  1.
        -12    1    3    3    0    0  0.14096285023E+01 -0.22685346184E+02 -0.61246114098E+01  0.23539814123E+02  0.00000000000E+00 0.  1.
</event>
<event>
 7    1  0.1375918E-013  0.7246155E+02  0.7816164E-02  0.1226708E+00
        -11   -1    0    0    0    0  0.00000000000E+00  0.00000000000E+00  0.45593999997E+02  0.45594000000E+02  0.51100000000E-03 0.  1.
         11   -1    0    0    0    0 -0.00000000000E+00 -0.00000000000E+00 -0.45593999997E+02  0.45594000000E+02  0.51100000000E-03 0. -1.
    9900012    2    1    2    0    0 -0.17838170262E+01  0.78485213487E+01  0.16908542328E+02  0.72461545605E+02  0.69999967838E+02 0.  0.
         12    1    1    2    0    0  0.17838170262E+01 -0.78485213487E+01 -0.16908542328E+02  0.18726454395E+02  0.00000000000E+00 0. -1.
         11    1    3    3    0    0  0.31593232224E+01 -0.14958971154E+02  0.99664085267E+01  0.18250518907E+02  0.51100000000E-03 0.  1.
        -11    1    3    3    0    0  0.16209037928E+02  0.21377045934E+02 -0.83204598450E+01  0.28088094554E+02  0.51100000000E-03 0. -1.
         12    1    3    3    0    0 -0.21152178176E+02  0.14304465686E+01  0.15262593646E+02  0.26122932144E+02  0.00000000000E+00 0. -1.
</event>
<event>
 7    1  0.1375918E-013  0.7246162E+02  0.7816164E-02  0.1226708E+00
        -11   -1    0    0    0    0  0.00000000000E+00  0.00000000000E+00  0.45593999997E+02  0.45594000000E+02  0.51100000000E-03 0.  1.
         11   -1    0    0    0    0 -0.00000000000E+00 -0.00000000000E+00 -0.45593999997E+02  0.45594000000E+02  0.51100000000E-03 0. -1.
    9900012    2    1    2    0    0  0.23976504001E+01 -0.35139614887E+01  0.18236794457E+02  0.72461619547E+02  0.70000064161E+02 0.  0.
         12    1    1    2    0    0 -0.23976504001E+01  0.35139614887E+01 -0.18236794457E+02  0.18726380453E+02  0.00000000000E+00 0. -1.
         11    1    3    3    0    0 -0.21368047791E+02  0.15843803864E+02 -0.18314706030E+01  0.26664093311E+02  0.51100000000E-03 0. -1.
        -11    1    3    3    0    0  0.13135936271E+02  0.45882503387E+01  0.12027779618E+02  0.18392181646E+02  0.51100000000E-03 0.  1.
         12    1    3    3    0    0  0.10629761920E+02 -0.23946015691E+02  0.80404854420E+01  0.27405344590E+02  0.00000000000E+00 0. -1.
</event>
<event>
 7    1  0.1375918E-013  0.7246157E+02  0.7816164E-02  0.1226708E+00
        -11   -1    0    0    0    0  0.00000000000E+00  0.00000000000E+00  0.45593999997E+02  0.45594000000E+02  0.51100000000E-03 0.  1.
         11   -1    0    0    0    0 -0.00000000000E+00 -0.00000000000E+00 -0.45593999997E+02  0.45594000000E+02  0.51100000000E-03 0. -1.
    9900012    2    1    2    0    0 -0.65180156630E+01 -0.17788244267E+01  0.17465118436E+02  0.72461571976E+02  0.70000002191E+02 0.  0.
         12    1    1    2    0    0  0.65180156630E+01  0.17788244267E+01 -0.17465118436E+02  0.18726428024E+02  0.00000000000E+00 0. -1.
         11    1    3    3    0    0 -0.11609914713E+02 -0.21826558533E+02  0.23568194274E+02  0.34156237478E+02  0.51100000000E-03 0. -1.
        -11    1    3    3    0    0 -0.12403655020E+02  0.91676776024E+01  0.31136383734E+01  0.15735047336E+02  0.51100000000E-03 0.  1.
         12    1    3    3    0    0  0.17495554070E+02  0.10880056504E+02 -0.92167142108E+01  0.22570287163E+02  0.00000000000E+00 0. -1.
</event>
<event>
 7    1  0.1375918E-013  0.7246155E+02  0.7816164E-02  0.1226708E+00
        -11   -1    0    0    0    0  0.00000000000E+00  0.00000000000E+00  0.45593999997E+02  0.45594000000E+02  0.51100000000E-03 0.  1.
         11   -1    0    0    0    0 -0.00000000000E+00 -0.00000000000E+00 -0.45593999997E+02  0.45594000000E+02  0.51100000000E-03 0. -1.
    9900012    2    1    2    0    0 -0.15958537040E+02  0.97908830226E+01 -0.37880288075E+00  0.72461553822E+02  0.69999978542E+02 0.  0.
         12    1    1    2    0    0  0.15958537040E+02 -0.97908830226E+01  0.37880288075E+00  0.18726446178E+02  0.00000000000E+00 0. -1.
         11    1    3    3    0    0 -0.10388290856E+02 -0.33904053787E+01  0.28662593521E+02  0.30675001274E+02  0.51100000000E-03 0.  1.
        -11    1    3    3    0    0 -0.13172895145E+02  0.10702743457E+01 -0.22426518861E+02  0.26031123721E+02  0.51100000000E-03 0. -1.
        -12    1    3    3    0    0  0.76026489610E+01  0.12111014056E+02 -0.66148775407E+01  0.15755428828E+02  0.00000000000E+00 0.  1.
</event>
<event>
 7    1  0.1375918E-013  0.7246157E+02  0.7816164E-02  0.1226708E+00
        -11   -1    0    0    0    0  0.00000000000E+00  0.00000000000E+00  0.45593999997E+02  0.45594000000E+02  0.51100000000E-03 0.  1.
         11   -1    0    0    0    0 -0.00000000000E+00 -0.00000000000E+00 -0.45593999997E+02  0.45594000000E+02  0.51100000000E-03 0. -1.
    9900012    2    1    2    0    0 -0.16602164115E+02  0.16867074213E+01  0.84972055578E+01  0.72461565809E+02  0.69999994157E+02 0.  0.
         12    1    1    2    0    0  0.16602164115E+02 -0.16867074213E+01 -0.84972055578E+01  0.18726434191E+02  0.00000000000E+00 0. -1.
         11    1    3    3    0    0 -0.20868975269E+02  0.20216475696E+02 -0.41094341675E+01  0.29344632691E+02  0.51100000000E-03 0. -1.
        -11    1    3    3    0    0 -0.12503797875E+02 -0.18114447997E+02  0.14311971673E+02  0.26254727592E+02  0.51100000000E-03 0.  1.
         12    1    3    3    0    0  0.16770609029E+02 -0.41532027773E+00 -0.17053319478E+01  0.16862205525E+02  0.00000000000E+00 0. -1.
</event>
<event>
 7    1  0.1375918E-013  0.7246160E+02  0.7816164E-02  0.1226708E+00
        -11   -1    0    0    0    0  0.00000000000E+00  0.00000000000E+00  0.45593999997E+02  0.45594000000E+02  0.51100000000E-03 0.  1.
         11   -1    0    0    0    0 -0.00000000000E+00 -0.00000000000E+00 -0.45593999997E+02  0.45594000000E+02  0.51100000000E-03 0. -1.
    9900012    2    1    2    0    0  0.82195574703E+01 -0.13018496763E+02  0.10660000132E+02  0.72461601900E+02  0.70000041172E+02 0.  0.
         12    1    1    2    0    0 -0.82195574703E+01  0.13018496763E+02 -0.10660000132E+02  0.18726398100E+02  0.00000000000E+00 0. -1.
         11    1    3    3    0    0  0.39088030759E+01 -0.24405285302E+02  0.18731933080E+02  0.31012610489E+02  0.51100000000E-03 0. -1.
        -11    1    3    3    0    0  0.97807061311E+01  0.23124264553E+02  0.17906572524E+01  0.25171417862E+02  0.51100000000E-03 0.  1.
         12    1    3    3    0    0 -0.54699517368E+01 -0.11737476014E+02 -0.98625901999E+01  0.16277573549E+02  0.00000000000E+00 0. -1.
</event>
<event>
 7    1  0.1375918E-013  0.7246158E+02  0.7816164E-02  0.1226708E+00
        -11   -1    0    0    0    0  0.00000000000E+00  0.00000000000E+00  0.45593999997E+02  0.45594000000E+02  0.51100000000E-03 0. -1.
         11   -1    0    0    0    0 -0.00000000000E+00 -0.00000000000E+00 -0.45593999997E+02  0.45594000000E+02  0.51100000000E-03 0.  1.
    9900012    2    1    2    0    0 -0.99330845215E+01  0.15828904598E+02  0.12076586315E+01  0.72461579406E+02  0.70000011870E+02 0.  0.
         12    1    1    2    0    0  0.99330845215E+01 -0.15828904598E+02 -0.12076586315E+01  0.18726420594E+02  0.00000000000E+00 0. -1.
         11    1    3    3    0    0 -0.33319893854E+02  0.15405677913E+02  0.20054727940E+02  0.41829921724E+02  0.51100000000E-03 0. -1.
        -11    1    3    3    0    0  0.58318887204E+01 -0.22350991247E+01 -0.64405601454E+01  0.89714775478E+01  0.51100000000E-03 0.  1.
         12    1    3    3    0    0  0.17554920613E+02  0.26583258103E+01 -0.12406509163E+02  0.21660180134E+02  0.00000000000E+00 0. -1.
</event>
<event>
 7    1  0.1375918E-013  0.7246159E+02  0.7816164E-02  0.1226708E+00
        -11   -1    0    0    0    0  0.00000000000E+00  0.00000000000E+00  0.45593999997E+02  0.45594000000E+02  0.51100000000E-03 0. -1.
         11   -1    0    0    0    0 -0.00000000000E+00 -0.00000000000E+00 -0.45593999997E+02  0.45594000000E+02  0.51100000000E-03 0.  1.
    9900012    2    1    2    0    0 -0.11825679165E+02 -0.13984784785E+02 -0.39060720952E+01  0.72461593714E+02  0.70000030508E+02 0.  0.
         12    1    1    2    0    0  0.11825679165E+02  0.13984784785E+02  0.39060720952E+01  0.18726406286E+02  0.00000000000E+00 0. -1.
         11    1    3    3    0    0 -0.18495952051E+02 -0.21464809473E+02  0.20438673939E+02  0.34936766889E+02  0.51100000000E-03 0. -1.
        -11    1    3    3    0    0 -0.95666972444E+01  0.45721982148E+01 -0.15579377838E+02  0.18845256877E+02  0.51100000000E-03 0.  1.
         12    1    3    3    0    0  0.16236970131E+02  0.29078264728E+01 -0.87653681963E+01  0.18679569948E+02  0.00000000000E+00 0. -1.
</event>
<event>
 7    1  0.1375918E-013  0.7246160E+02  0.7816164E-02  0.1226708E+00
        -11   -1    0    0    0    0  0.00000000000E+00  0.00000000000E+00  0.45593999997E+02  0.45594000000E+02  0.51100000000E-03 0. -1.
         11   -1    0    0    0    0 -0.00000000000E+00 -0.00000000000E+00 -0.45593999997E+02  0.45594000000E+02  0.51100000000E-03 0.  1.
    9900012    2    1    2    0    0  0.35866005137E+01 -0.17886820657E+02  0.42280077380E+01  0.72461598694E+02  0.70000036995E+02 0.  0.
         12    1    1    2    0    0 -0.35866005137E+01  0.17886820657E+02 -0.42280077380E+01  0.18726401306E+02  0.00000000000E+00 0. -1.
         11    1    3    3    0    0 -0.18259810184E+02 -0.24938389545E+02  0.18769859753E+02  0.36161465353E+02  0.51100000000E-03 0. -1.
        -11    1    3    3    0    0  0.95284465221E+01 -0.41184869875E+01 -0.16565441846E+02  0.19549094403E+02  0.51100000000E-03 0.  1.
         12    1    3    3    0    0  0.12317964175E+02  0.11170055876E+02  0.20235898304E+01  0.16751038938E+02  0.00000000000E+00 0. -1.
</event>
<event>
 7    1  0.1375918E-013  0.7246154E+02  0.7816164E-02  0.1226708E+00
        -11   -1    0    0    0    0  0.00000000000E+00  0.00000000000E+00  0.45593999997E+02  0.45594000000E+02  0.51100000000E-03 0.  1.
         11   -1    0    0    0    0 -0.00000000000E+00 -0.00000000000E+00 -0.45593999997E+02  0.45594000000E+02  0.51100000000E-03 0. -1.
    9900012    2    1    2    0    0 -0.10889972371E+01 -0.11801398544E+02  0.14499011854E+02  0.72461540983E+02  0.69999961816E+02 0.  0.
         12    1    1    2    0    0  0.10889972371E+01  0.11801398544E+02 -0.14499011854E+02  0.18726459017E+02  0.00000000000E+00 0. -1.
         11    1    3    3    0    0  0.15096639818E+02 -0.10029099240E+01  0.13365363821E+02  0.20187801080E+02  0.51100000000E-03 0. -1.
        -11    1    3    3    0    0 -0.73901077570E+01 -0.26106049240E+02 -0.12591859837E+02  0.29911443195E+02  0.51100000000E-03 0.  1.
         12    1    3    3    0    0 -0.87955292986E+01  0.15307560620E+02  0.13725507870E+02  0.22362296708E+02  0.00000000000E+00 0. -1.
</event>
<event>
 7    1  0.1375918E-013  0.7246157E+02  0.7816164E-02  0.1226708E+00
        -11   -1    0    0    0    0  0.00000000000E+00  0.00000000000E+00  0.45593999997E+02  0.45594000000E+02  0.51100000000E-03 0. -1.
         11   -1    0    0    0    0 -0.00000000000E+00 -0.00000000000E+00 -0.45593999997E+02  0.45594000000E+02  0.51100000000E-03 0.  1.
    9900012    2    1    2    0    0  0.48564819429E+01 -0.17971060645E+02 -0.20334150754E+01  0.72461569095E+02  0.69999998437E+02 0.  0.
         12    1    1    2    0    0 -0.48564819429E+01  0.17971060645E+02  0.20334150754E+01  0.18726430905E+02  0.00000000000E+00 0. -1.
         11    1    3    3    0    0  0.30974810175E+00 -0.34230420777E+01  0.29302374583E+02  0.29503259437E+02  0.51100000000E-03 0. -1.
        -11    1    3    3    0    0  0.13980129534E+02 -0.76923157403E+01 -0.25077479278E+02  0.29723655738E+02  0.51100000000E-03 0.  1.
        -12    1    3    3    0    0 -0.94333956926E+01 -0.68557028275E+01 -0.62583103810E+01  0.13234653920E+02  0.00000000000E+00 0.  1.
</event>
<event>
 7    1  0.1375918E-013  0.7246157E+02  0.7816164E-02  0.1226708E+00
        -11   -1    0    0    0    0  0.00000000000E+00  0.00000000000E+00  0.45593999997E+02  0.45594000000E+02  0.51100000000E-03 0.  1.
         11   -1    0    0    0    0 -0.00000000000E+00 -0.00000000000E+00 -0.45593999997E+02  0.45594000000E+02  0.51100000000E-03 0. -1.
    9900012    2    1    2    0    0 -0.12018899160E+02  0.13066147080E+02  0.59582891096E+01  0.72461565592E+02  0.69999993874E+02 0.  0.
         12    1    1    2    0    0  0.12018899160E+02 -0.13066147080E+02 -0.59582891096E+01  0.18726434408E+02  0.00000000000E+00 0. -1.
         11    1    3    3    0    0 -0.14352198807E+02  0.26544335756E+02 -0.14611551573E+02  0.33527374054E+02  0.51100000000E-03 0. -1.
        -11    1    3    3    0    0  0.15484904669E+02 -0.95149599183E+01  0.16654303345E+02  0.24651218125E+02  0.51100000000E-03 0.  1.
         12    1    3    3    0    0 -0.13151605023E+02 -0.39632287581E+01  0.39155373373E+01  0.14282973413E+02  0.00000000000E+00 0. -1.
</event>
<event>
 7    1  0.1375918E-013  0.7246115E+02  0.7816164E-02  0.1226709E+00
        -11   -1    0    0    0    0  0.00000000000E+00  0.00000000000E+00  0.45593999997E+02  0.45594000000E+02  0.51100000000E-03 0.  1.
         11   -1    0    0    0    0 -0.00000000000E+00 -0.00000000000E+00 -0.45593999997E+02  0.45594000000E+02  0.51100000000E-03 0. -1.
    9900012    2    1    2    0    0 -0.14827255244E+02  0.86582943508E+01  0.74753790159E+01  0.72461151612E+02  0.69999454586E+02 0.  0.
         12    1    1    2    0    0  0.14827255244E+02 -0.86582943508E+01 -0.74753790159E+01  0.18726848388E+02  0.00000000000E+00 0. -1.
         11    1    3    3    0    0  0.38967397837E+01  0.30358770095E+02  0.19217772500E+01  0.30668106083E+02  0.51100000000E-03 0. -1.
        -11    1    3    3    0    0 -0.20786988372E+02 -0.45555397608E+01  0.10638469195E+02  0.23791360936E+02  0.51100000000E-03 0.  1.
        -12    1    3    3    0    0  0.20629933452E+01 -0.17144935984E+02 -0.50848674289E+01  0.18001684593E+02  0.00000000000E+00 0.  1.
</event>
<event>
 7    1  0.1375918E-013  0.7246148E+02  0.7816164E-02  0.1226708E+00
        -11   -1    0    0    0    0  0.00000000000E+00  0.00000000000E+00  0.45593999997E+02  0.45594000000E+02  0.51100000000E-03 0.  1.
         11   -1    0    0    0    0 -0.00000000000E+00 -0.00000000000E+00 -0.45593999997E+02  0.45594000000E+02  0.51100000000E-03 0. -1.
    9900012    2    1    2    0    0  0.12277791464E+02  0.10975306542E+02  0.89152083449E+01  0.72461482524E+02  0.69999885663E+02 0.  0.
         12    1    1    2    0    0 -0.12277791464E+02 -0.10975306542E+02 -0.89152083449E+01  0.18726517476E+02  0.00000000000E+00 0. -1.
         11    1    3    3    0    0  0.71889005256E+01 -0.31470334563E+01 -0.21032842502E+02  0.22449155315E+02  0.51100000000E-03 0. -1.
        -11    1    3    3    0    0 -0.13441263926E+02  0.11436665288E+02  0.25078184877E+02  0.30665619932E+02  0.51100000000E-03 0.  1.
         12    1    3    3    0    0  0.18530154864E+02  0.26856747109E+01  0.48698659707E+01  0.19346707278E+02  0.00000000000E+00 0. -1.
</event>
<event>
 7    1  0.1375918E-013  0.7246157E+02  0.7816164E-02  0.1226708E+00
        -11   -1    0    0    0    0  0.00000000000E+00  0.00000000000E+00  0.45593999997E+02  0.45594000000E+02  0.51100000000E-03 0. -1.
         11   -1    0    0    0    0 -0.00000000000E+00 -0.00000000000E+00 -0.45593999997E+02  0.45594000000E+02  0.51100000000E-03 0.  1.
    9900012    2    1    2    0    0 -0.15795834408E+02  0.85481581636E+01  0.53009095851E+01  0.72461573884E+02  0.70000004677E+02 0.  0.
         12    1    1    2    0    0  0.15795834408E+02 -0.85481581636E+01 -0.53009095851E+01  0.18726426116E+02  0.00000000000E+00 0. -1.
         11    1    3    3    0    0  0.27131614990E+01  0.12527664874E+01  0.24208163176E+02  0.24391921487E+02  0.51100000000E-03 0. -1.
        -11    1    3    3    0    0  0.26310916283E+01  0.19042882596E+02 -0.12896853731E+02  0.23149143767E+02  0.51100000000E-03 0.  1.
        -12    1    3    3    0    0 -0.21140087535E+02 -0.11747490920E+02 -0.60103998602E+01  0.24920508630E+02  0.00000000000E+00 0.  1.
</event>
<event>
 7    1  0.1375918E-013  0.7246161E+02  0.7816164E-02  0.1226708E+00
        -11   -1    0    0    0    0  0.00000000000E+00  0.00000000000E+00  0.45593999997E+02  0.45594000000E+02  0.51100000000E-03 0.  1.
         11   -1    0    0    0    0 -0.00000000000E+00 -0.00000000000E+00 -0.45593999997E+02  0.45594000000E+02  0.51100000000E-03 0. -1.
    9900012    2    1    2    0    0  0.13110819450E+02  0.22997020110E+01  0.13171766172E+02  0.72461611131E+02  0.70000053197E+02 0.  0.
         12    1    1    2    0    0 -0.13110819450E+02 -0.22997020110E+01 -0.13171766172E+02  0.18726388869E+02  0.00000000000E+00 0. -1.
         11    1    3    3    0    0 -0.55126555086E+01 -0.24979569600E+01 -0.93793766355E+01  0.11162520596E+02  0.51100000000E-03 0. -1.
        -11    1    3    3    0    0  0.19882745633E+01  0.20061097480E+02  0.31180237080E+02  0.37129611532E+02  0.51100000000E-03 0.  1.
        -12    1    3    3    0    0  0.16635200395E+02 -0.15263438509E+02 -0.86290942729E+01  0.24169479003E+02  0.00000000000E+00 0.  1.
</event>
<event>
 7    1  0.1375918E-013  0.7246173E+02  0.7816164E-02  0.1226708E+00
        -11   -1    0    0    0    0  0.00000000000E+00  0.00000000000E+00  0.45593999997E+02  0.45594000000E+02  0.51100000000E-03 0. -1.
         11   -1    0    0    0    0 -0.00000000000E+00 -0.00000000000E+00 -0.45593999997E+02  0.45594000000E+02  0.51100000000E-03 0.  1.
    9900012    2    1    2    0    0  0.38077237485E-01 -0.85669804533E+01 -0.16651681744E+02  0.72461732116E+02  0.70000210802E+02 0.  0.
         12    1    1    2    0    0 -0.38077237485E-01  0.85669804533E+01  0.16651681744E+02  0.18726267884E+02  0.00000000000E+00 0. -1.
         11    1    3    3    0    0  0.10837780816E+02 -0.37139225438E+02 -0.88137635465E+01  0.39679490764E+02  0.51100000000E-03 0.  1.
        -11    1    3    3    0    0 -0.74998660414E+01  0.26484310382E+02 -0.50523160995E+01  0.27985578166E+02  0.51100000000E-03 0. -1.
        -12    1    3    3    0    0 -0.32998375372E+01  0.20879346028E+01 -0.27856020979E+01  0.47966631866E+01  0.00000000000E+00 0.  1.
</event>
<event>
 7    1  0.1375918E-013  0.7246166E+02  0.7816164E-02  0.1226708E+00
        -11   -1    0    0    0    0  0.00000000000E+00  0.00000000000E+00  0.45593999997E+02  0.45594000000E+02  0.51100000000E-03 0.  1.
         11   -1    0    0    0    0 -0.00000000000E+00 -0.00000000000E+00 -0.45593999997E+02  0.45594000000E+02  0.51100000000E-03 0. -1.
    9900012    2    1    2    0    0 -0.71890310149E+01  0.64254042112E+01  0.16053278372E+02  0.72461662059E+02  0.70000119540E+02 0.  0.
         12    1    1    2    0    0  0.71890310149E+01 -0.64254042112E+01 -0.16053278372E+02  0.18726337941E+02  0.00000000000E+00 0. -1.
         11    1    3    3    0    0 -0.37134361195E+01  0.85335278089E+01  0.27462633114E+01  0.97032297260E+01  0.51100000000E-03 0. -1.
        -11    1    3    3    0    0  0.27203251656E+02  0.83798127853E+01  0.99913933410E+01  0.30167301903E+02  0.51100000000E-03 0.  1.
        -12    1    3    3    0    0 -0.30678846551E+02 -0.10487936383E+02  0.33156217196E+01  0.32591130429E+02  0.00000000000E+00 0.  1.
</event>
<event>
 7    1  0.1375918E-013  0.7246149E+02  0.7816164E-02  0.1226708E+00
        -11   -1    0    0    0    0  0.00000000000E+00  0.00000000000E+00  0.45593999997E+02  0.45594000000E+02  0.51100000000E-03 0.  1.
         11   -1    0    0    0    0 -0.00000000000E+00 -0.00000000000E+00 -0.45593999997E+02  0.45594000000E+02  0.51100000000E-03 0. -1.
    9900012    2    1    2    0    0  0.55693981020E+01  0.15162258160E+02 -0.94746916014E+01  0.72461493420E+02  0.69999899857E+02 0.  0.
         12    1    1    2    0    0 -0.55693981020E+01 -0.15162258160E+02  0.94746916014E+01  0.18726506580E+02  0.00000000000E+00 0. -1.
         11    1    3    3    0    0 -0.48230087616E+01 -0.15683329237E+02 -0.19787041659E+02  0.25705159936E+02  0.51100000000E-03 0. -1.
        -11    1    3    3    0    0  0.31999218404E+01  0.79170981740E+01  0.19296595291E+02  0.21101623951E+02  0.51100000000E-03 0.  1.
        -12    1    3    3    0    0  0.71924850232E+01  0.22928489223E+02 -0.89842452336E+01  0.25654709534E+02  0.00000000000E+00 0.  1.
</event>
<event>
 7    1  0.1375918E-013  0.7246159E+02  0.7816164E-02  0.1226708E+00
        -11   -1    0    0    0    0  0.00000000000E+00  0.00000000000E+00  0.45593999997E+02  0.45594000000E+02  0.51100000000E-03 0.  1.
         11   -1    0    0    0    0 -0.00000000000E+00 -0.00000000000E+00 -0.45593999997E+02  0.45594000000E+02  0.51100000000E-03 0. -1.
    9900012    2    1    2    0    0 -0.66312391982E+01  0.17450104794E+02  0.14829225122E+01  0.72461586841E+02  0.70000021555E+02 0.  0.
         12    1    1    2    0    0  0.66312391982E+01 -0.17450104794E+02 -0.14829225122E+01  0.18726413159E+02  0.00000000000E+00 0. -1.
         11    1    3    3    0    0 -0.38425546817E+01 -0.83478063634E+01 -0.18948063288E+02  0.21058969590E+02  0.51100000000E-03 0. -1.
        -11    1    3    3    0    0 -0.96725754022E+01  0.31891179501E+02  0.24486578867E+02  0.41354547389E+02  0.51100000000E-03 0.  1.
         12    1    3    3    0    0  0.68838908857E+01 -0.60932683432E+01 -0.40555930674E+01  0.10048069862E+02  0.00000000000E+00 0. -1.
</event>
<event>
 7    1  0.1375918E-013  0.7246150E+02  0.7816164E-02  0.1226708E+00
        -11   -1    0    0    0    0  0.00000000000E+00  0.00000000000E+00  0.45593999997E+02  0.45594000000E+02  0.51100000000E-03 0.  1.
         11   -1    0    0    0    0 -0.00000000000E+00 -0.00000000000E+00 -0.45593999997E+02  0.45594000000E+02  0.51100000000E-03 0. -1.
    9900012    2    1    2    0    0 -0.17949683738E+02  0.47895938801E+01  0.23559342150E+01  0.72461500545E+02  0.69999909138E+02 0.  0.
         12    1    1    2    0    0  0.17949683738E+02 -0.47895938801E+01 -0.23559342150E+01  0.18726499455E+02  0.00000000000E+00 0. -1.
         11    1    3    3    0    0 -0.10902576304E+02  0.98464422904E-01 -0.25818013891E+02  0.28025804304E+02  0.51100000000E-03 0. -1.
        -11    1    3    3    0    0 -0.17893864194E+02 -0.72923091376E+00  0.26799269761E+02  0.32232328701E+02  0.51100000000E-03 0.  1.
         12    1    3    3    0    0  0.10846756760E+02  0.54203603710E+01  0.13746783449E+01  0.12203367540E+02  0.00000000000E+00 0. -1.
</event>
<event>
 7    1  0.1375918E-013  0.7246158E+02  0.7816164E-02  0.1226708E+00
        -11   -1    0    0    0    0  0.00000000000E+00  0.00000000000E+00  0.45593999997E+02  0.45594000000E+02  0.51100000000E-03 0. -1.
         11   -1    0    0    0    0 -0.00000000000E+00 -0.00000000000E+00 -0.45593999997E+02  0.45594000000E+02  0.51100000000E-03 0.  1.
    9900012    2    1    2    0    0 -0.13568016732E+02  0.15538624309E+01 -0.12813013153E+02  0.72461578224E+02  0.70000010330E+02 0.  0.
         12    1    1    2    0    0  0.13568016732E+02 -0.15538624309E+01  0.12813013153E+02  0.18726421776E+02  0.00000000000E+00 0. -1.
         11    1    3    3    0    0 -0.53538991354E+01 -0.70192762215E+01  0.84856716523E+01  0.12245043825E+02  0.51100000000E-03 0. -1.
        -11    1    3    3    0    0  0.72885758273E+01 -0.12087278068E+02 -0.29840942157E+02  0.33010717316E+02  0.51100000000E-03 0.  1.
        -12    1    3    3    0    0 -0.15502693424E+02  0.20660416721E+02  0.85422573514E+01  0.27205817082E+02  0.00000000000E+00 0.  1.
</event>
<event>
 7    1  0.1375918E-013  0.7246162E+02  0.7816164E-02  0.1226708E+00
        -11   -1    0    0    0    0  0.00000000000E+00  0.00000000000E+00  0.45593999997E+02  0.45594000000E+02  0.51100000000E-03 0.  1.
         11   -1    0    0    0    0 -0.00000000000E+00 -0.00000000000E+00 -0.45593999997E+02  0.45594000000E+02  0.51100000000E-03 0. -1.
    9900012    2    1    2    0    0  0.43760062207E+01 -0.25626272280E+00  0.18206106087E+02  0.72461617544E+02  0.70000061552E+02 0.  0.
         12    1    1    2    0    0 -0.43760062207E+01  0.25626272280E+00 -0.18206106087E+02  0.18726382456E+02  0.00000000000E+00 0. -1.
         11    1    3    3    0    0  0.29508049633E+02  0.16602815240E+02  0.16502253980E+02  0.37665672086E+02  0.51100000000E-03 0. -1.
        -11    1    3    3    0    0 -0.33090491685E+01 -0.99403414116E+01  0.50997867960E+01  0.11651953459E+02  0.51100000000E-03 0.  1.
         12    1    3    3    0    0 -0.21822994244E+02 -0.69187365511E+01 -0.33959346883E+01  0.23143991999E+02  0.00000000000E+00 0. -1.
</event>
<event>
 7    1  0.1375918E-013  0.7246156E+02  0.7816164E-02  0.1226708E+00
        -11   -1    0    0    0    0  0.00000000000E+00  0.00000000000E+00  0.45593999997E+02  0.45594000000E+02  0.51100000000E-03 0. -1.
         11   -1    0    0    0    0 -0.00000000000E+00 -0.00000000000E+00 -0.45593999997E+02  0.45594000000E+02  0.51100000000E-03 0.  1.
    9900012    2    1    2    0    0  0.16657524918E+02  0.17016508222E+01 -0.83851554065E+01  0.72461559251E+02  0.69999985615E+02 0.  0.
         12    1    1    2    0    0 -0.16657524918E+02 -0.17016508222E+01  0.83851554065E+01  0.18726440749E+02  0.00000000000E+00 0. -1.
         11    1    3    3    0    0  0.10355889903E+02  0.99381245145E+00  0.13230710231E+02  0.16831037174E+02  0.51100000000E-03 0. -1.
        -11    1    3    3    0    0  0.88771947022E+01  0.18728762604E+02 -0.29284705881E+02  0.35877083678E+02  0.51100000000E-03 0.  1.
        -12    1    3    3    0    0 -0.25755596874E+01 -0.18020924233E+02  0.76688402426E+01  0.19753438399E+02  0.00000000000E+00 0.  1.
</event>
<event>
 7    1  0.1375918E-013  0.7246160E+02  0.7816164E-02  0.1226708E+00
        -11   -1    0    0    0    0  0.00000000000E+00  0.00000000000E+00  0.45593999997E+02  0.45594000000E+02  0.51100000000E-03 0.  1.
         11   -1    0    0    0    0 -0.00000000000E+00 -0.00000000000E+00 -0.45593999997E+02  0.45594000000E+02  0.51100000000E-03 0. -1.
    9900012    2    1    2    0    0  0.17354273776E+01  0.16758164447E+02  0.81749718595E+01  0.72461602890E+02  0.70000042462E+02 0.  0.
         12    1    1    2    0    0 -0.17354273776E+01 -0.16758164447E+02 -0.81749718595E+01  0.18726397110E+02  0.00000000000E+00 0. -1.
         11    1    3    3    0    0 -0.73866431586E+01 -0.10625621263E+01 -0.27264146146E+02  0.28267033816E+02  0.51100000000E-03 0. -1.
        -11    1    3    3    0    0  0.10223700581E+02  0.67185255827E+01  0.81148711799E+01  0.14680387396E+02  0.51100000000E-03 0.  1.
         12    1    3    3    0    0 -0.11016300446E+01  0.11102200990E+02  0.27324246825E+02  0.29514181678E+02  0.00000000000E+00 0. -1.
</event>
<event>
 7    1  0.1375918E-013  0.7246162E+02  0.7816164E-02  0.1226708E+00
        -11   -1    0    0    0    0  0.00000000000E+00  0.00000000000E+00  0.45593999997E+02  0.45594000000E+02  0.51100000000E-03 0. -1.
         11   -1    0    0    0    0 -0.00000000000E+00 -0.00000000000E+00 -0.45593999997E+02  0.45594000000E+02  0.51100000000E-03 0.  1.
    9900012    2    1    2    0    0 -0.13736801912E+02 -0.19739904960E+01 -0.12573027751E+02  0.72461617752E+02  0.70000061823E+02 0.  0.
         12    1    1    2    0    0  0.13736801912E+02  0.19739904960E+01  0.12573027751E+02  0.18726382248E+02  0.00000000000E+00 0. -1.
         11    1    3    3    0    0 -0.38149253845E+02 -0.14905439832E+02 -0.32032155303E+01  0.41082822389E+02  0.51100000000E-03 0. -1.
        -11    1    3    3    0    0  0.16832415800E+02  0.11416335525E+02 -0.11494583769E+02  0.23362114519E+02  0.51100000000E-03 0.  1.
         12    1    3    3    0    0  0.75800361327E+01  0.15151138103E+01  0.21247715487E+01  0.80166808446E+01  0.00000000000E+00 0. -1.
</event>
<event>
 7    1  0.1375918E-013  0.7246149E+02  0.7816164E-02  0.1226708E+00
        -11   -1    0    0    0    0  0.00000000000E+00  0.00000000000E+00  0.45593999997E+02  0.45594000000E+02  0.51100000000E-03 0. -1.
         11   -1    0    0    0    0 -0.00000000000E+00 -0.00000000000E+00 -0.45593999997E+02  0.45594000000E+02  0.51100000000E-03 0.  1.
    9900012    2    1    2    0    0 -0.17137026978E+02 -0.64021490779E+01 -0.40021080825E+01  0.72461492702E+02  0.69999898922E+02 0.  0.
         12    1    1    2    0    0  0.17137026978E+02  0.64021490779E+01  0.40021080825E+01  0.18726507298E+02  0.00000000000E+00 0. -1.
         11    1    3    3    0    0 -0.13942555542E+02  0.18090044961E+02 -0.15672487703E+02  0.27699665212E+02  0.51100000000E-03 0. -1.
        -11    1    3    3    0    0  0.14933542466E+02 -0.17686505626E+02  0.23344443145E+01  0.23265270305E+02  0.51100000000E-03 0.  1.
         12    1    3    3    0    0 -0.18128013902E+02 -0.68056884134E+01  0.93359353064E+01  0.21496557186E+02  0.00000000000E+00 0. -1.
</event>
<event>
 7    1  0.1375918E-013  0.7246115E+02  0.7816164E-02  0.1226709E+00
        -11   -1    0    0    0    0  0.00000000000E+00  0.00000000000E+00  0.45593999997E+02  0.45594000000E+02  0.51100000000E-03 0.  1.
         11   -1    0    0    0    0 -0.00000000000E+00 -0.00000000000E+00 -0.45593999997E+02  0.45594000000E+02  0.51100000000E-03 0. -1.
    9900012    2    1    2    0    0  0.14464299989E+02 -0.11891526833E+02  0.26554719166E+00  0.72461150294E+02  0.69999452869E+02 0.  0.
         12    1    1    2    0    0 -0.14464299989E+02  0.11891526833E+02 -0.26554719166E+00  0.18726849706E+02  0.00000000000E+00 0. -1.
         11    1    3    3    0    0 -0.15508281646E+02 -0.19331711666E+01 -0.23462051913E+01  0.15803437267E+02  0.51100000000E-03 0. -1.
        -11    1    3    3    0    0  0.31552396155E+02  0.43722745062E+01  0.17154663728E+02  0.36179455155E+02  0.51100000000E-03 0.  1.
         12    1    3    3    0    0 -0.15798145194E+01 -0.14330630173E+02 -0.14542911345E+02  0.20478257872E+02  0.00000000000E+00 0. -1.
</event>
<event>
 7    1  0.1375918E-013  0.7246156E+02  0.7816164E-02  0.1226708E+00
        -11   -1    0    0    0    0  0.00000000000E+00  0.00000000000E+00  0.45593999997E+02  0.45594000000E+02  0.51100000000E-03 0.  1.
         11   -1    0    0    0    0 -0.00000000000E+00 -0.00000000000E+00 -0.45593999997E+02  0.45594000000E+02  0.51100000000E-03 0. -1.
    9900012    2    1    2    0    0  0.10176142828E+02 -0.15656022937E+02  0.14193518080E+01  0.72461561561E+02  0.69999988623E+02 0.  0.
         12    1    1    2    0    0 -0.10176142828E+02  0.15656022937E+02 -0.14193518080E+01  0.18726438439E+02  0.00000000000E+00 0. -1.
         11    1    3    3    0    0  0.23814159596E+02 -0.46597970251E+01 -0.88138854989E+01  0.25816903056E+02  0.51100000000E-03 0. -1.
        -11    1    3    3    0    0 -0.10013817272E+02  0.14257816324E+02  0.11865610227E+02  0.21079719377E+02  0.51100000000E-03 0.  1.
         12    1    3    3    0    0 -0.36241994958E+01 -0.25254042236E+02 -0.16323729198E+01  0.25564939128E+02  0.00000000000E+00 0. -1.
</event>
<event>
 7    1  0.1375918E-013  0.7246162E+02  0.7816164E-02  0.1226708E+00
        -11   -1    0    0    0    0  0.00000000000E+00  0.00000000000E+00  0.45593999997E+02  0.45594000000E+02  0.51100000000E-03 0. -1.
         11   -1    0    0    0    0 -0.00000000000E+00 -0.00000000000E+00 -0.45593999997E+02  0.45594000000E+02  0.51100000000E-03 0.  1.
    9900012    2    1    2    0    0  0.96509717873E+01 -0.20874788631E+01 -0.15911581696E+02  0.72461621372E+02  0.70000066539E+02 0.  0.
         12    1    1    2    0    0 -0.96509717873E+01  0.20874788631E+01  0.15911581696E+02  0.18726378628E+02  0.00000000000E+00 0. -1.
         11    1    3    3    0    0  0.10546379691E+02  0.83671043436E+00  0.75922753743E+01  0.13021860641E+02  0.51100000000E-03 0. -1.
        -11    1    3    3    0    0 -0.22823195527E+02 -0.11214996697E+02  0.11027953190E+01  0.25453694481E+02  0.51100000000E-03 0.  1.
        -12    1    3    3    0    0  0.21927787623E+02  0.82908073992E+01 -0.24606652389E+02  0.33986066250E+02  0.00000000000E+00 0.  1.
</event>
<event>
 7    1  0.1375918E-013  0.7246156E+02  0.7816164E-02  0.1226708E+00
        -11   -1    0    0    0    0  0.00000000000E+00  0.00000000000E+00  0.45593999997E+02  0.45594000000E+02  0.51100000000E-03 0. -1.
         11   -1    0    0    0    0 -0.00000000000E+00 -0.00000000000E+00 -0.45593999997E+02  0.45594000000E+02  0.51100000000E-03 0.  1.
    9900012    2    1    2    0    0  0.17417454280E+02  0.51353725478E+01 -0.45759859991E+01  0.72461563802E+02  0.69999991543E+02 0.  0.
         12    1    1    2    0    0 -0.17417454280E+02 -0.51353725478E+01  0.45759859991E+01  0.18726436198E+02  0.00000000000E+00 0. -1.
         11    1    3    3    0    0  0.35295602689E+01  0.26349044745E+01 -0.31117530950E+02  0.31427714680E+02  0.51100000000E-03 0.  1.
        -11    1    3    3    0    0  0.13894175297E+02  0.13189110551E+02  0.22634874266E+02  0.29653638522E+02  0.51100000000E-03 0. -1.
        -12    1    3    3    0    0 -0.62812854829E-02 -0.10688642477E+02  0.39066706848E+01  0.11380210600E+02  0.00000000000E+00 0.  1.
</event>
<event>
 7    1  0.1375918E-013  0.7246147E+02  0.7816164E-02  0.1226708E+00
        -11   -1    0    0    0    0  0.00000000000E+00  0.00000000000E+00  0.45593999997E+02  0.45594000000E+02  0.51100000000E-03 0.  1.
         11   -1    0    0    0    0 -0.00000000000E+00 -0.00000000000E+00 -0.45593999997E+02  0.45594000000E+02  0.51100000000E-03 0. -1.
    9900012    2    1    2    0    0 -0.70824527765E+01  0.30832250682E+01  0.17059181080E+02  0.72461466063E+02  0.69999864219E+02 0.  0.
         12    1    1    2    0    0  0.70824527765E+01 -0.30832250682E+01 -0.17059181080E+02  0.18726533937E+02  0.00000000000E+00 0. -1.
         11    1    3    3    0    0  0.55706353130E+01  0.40700890609E+01 -0.20997030555E+02  0.22101422922E+02  0.51100000000E-03 0. -1.
        -11    1    3    3    0    0 -0.81937780352E+01  0.14183577675E+02  0.24825864755E+02  0.29742821575E+02  0.51100000000E-03 0.  1.
         12    1    3    3    0    0 -0.44593100543E+01 -0.15170441668E+02  0.13230346881E+02  0.20617221567E+02  0.00000000000E+00 0. -1.
</event>
<event>
 7    1  0.1375918E-013  0.7246162E+02  0.7816164E-02  0.1226708E+00
        -11   -1    0    0    0    0  0.00000000000E+00  0.00000000000E+00  0.45593999997E+02  0.45594000000E+02  0.51100000000E-03 0. -1.
         11   -1    0    0    0    0 -0.00000000000E+00 -0.00000000000E+00 -0.45593999997E+02  0.45594000000E+02  0.51100000000E-03 0.  1.
    9900012    2    1    2    0    0  0.10647573135E+01  0.16723364134E+02 -0.83589813171E+01  0.72461623288E+02  0.70000069034E+02 0.  0.
         12    1    1    2    0    0 -0.10647573135E+01 -0.16723364134E+02  0.83589813171E+01  0.18726376712E+02  0.00000000000E+00 0. -1.
         11    1    3    3    0    0 -0.11538543405E+02 -0.88833896449E+01  0.35285908245E+01  0.14983442494E+02  0.51100000000E-03 0. -1.
        -11    1    3    3    0    0  0.13263635662E+02  0.12313124743E+02  0.17526044367E+02  0.25193239238E+02  0.51100000000E-03 0.  1.
        -12    1    3    3    0    0 -0.66033494330E+00  0.13293629036E+02 -0.29413616509E+02  0.32284941556E+02  0.00000000000E+00 0.  1.
</event>
<event>
 7    1  0.1375918E-013  0.7246082E+02  0.7816164E-02  0.1226710E+00
        -11   -1    0    0    0    0  0.00000000000E+00  0.00000000000E+00  0.45593999997E+02  0.45594000000E+02  0.51100000000E-03 0.  1.
         11   -1    0    0    0    0 -0.00000000000E+00 -0.00000000000E+00 -0.45593999997E+02  0.45594000000E+02  0.51100000000E-03 0. -1.
    9900012    2    1    2    0    0 -0.89819946814E+01  0.89663744671E+01  0.13770813710E+02  0.72460816288E+02  0.69999017760E+02 0.  0.
         12    1    1    2    0    0  0.89819946814E+01 -0.89663744671E+01 -0.13770813710E+02  0.18727183712E+02  0.00000000000E+00 0. -1.
         11    1    3    3    0    0 -0.17576701503E+00 -0.17319922149E+02 -0.13903180387E+02  0.22210561056E+02  0.51100000000E-03 0. -1.
        -11    1    3    3    0    0 -0.18070878948E+02  0.22261247310E+02  0.10909915792E+02  0.30678103928E+02  0.51100000000E-03 0.  1.
        -12    1    3    3    0    0  0.92646512816E+01  0.40250493064E+01  0.16764078305E+02  0.19572151305E+02  0.00000000000E+00 0.  1.
</event>
<event>
 7    1  0.1375918E-013  0.7246157E+02  0.7816164E-02  0.1226708E+00
        -11   -1    0    0    0    0  0.00000000000E+00  0.00000000000E+00  0.45593999997E+02  0.45594000000E+02  0.51100000000E-03 0.  1.
         11   -1    0    0    0    0 -0.00000000000E+00 -0.00000000000E+00 -0.45593999997E+02  0.45594000000E+02  0.51100000000E-03 0. -1.
    9900012    2    1    2    0    0  0.15332429834E+02  0.22388194521E+01  0.10515860162E+02  0.72461573964E+02  0.70000004780E+02 0.  0.
         12    1    1    2    0    0 -0.15332429834E+02 -0.22388194521E+01 -0.10515860162E+02  0.18726426036E+02  0.00000000000E+00 0. -1.
         11    1    3    3    0    0  0.28676016223E+02  0.20087589579E+02 -0.13632798539E+02  0.37572308391E+02  0.51100000000E-03 0. -1.
        -11    1    3    3    0    0 -0.84434124483E+01 -0.59289163097E+01  0.17677802695E+02  0.20468218554E+02  0.51100000000E-03 0.  1.
        -12    1    3    3    0    0 -0.49001739411E+01 -0.11919853818E+02  0.64708560054E+01  0.14421047019E+02  0.00000000000E+00 0.  1.
</event>
<event>
 7    1  0.1375918E-013  0.7246190E+02  0.7816164E-02  0.1226707E+00
        -11   -1    0    0    0    0  0.00000000000E+00  0.00000000000E+00  0.45593999997E+02  0.45594000000E+02  0.51100000000E-03 0. -1.
         11   -1    0    0    0    0 -0.00000000000E+00 -0.00000000000E+00 -0.45593999997E+02  0.45594000000E+02  0.51100000000E-03 0.  1.
    9900012    2    1    2    0    0  0.83916897118E+01  0.15234620174E+02 -0.69392288969E+01  0.72461895073E+02  0.70000423083E+02 0.  0.
         12    1    1    2    0    0 -0.83916897118E+01 -0.15234620174E+02  0.69392288969E+01  0.18726104927E+02  0.00000000000E+00 0. -1.
         11    1    3    3    0    0  0.20644858255E+01 -0.53005217403E+01  0.14150675900E+02  0.15251205235E+02  0.51100000000E-03 0. -1.
        -11    1    3    3    0    0  0.21430093596E+02  0.24347441610E+02 -0.25230795392E+02  0.41093063416E+02  0.51100000000E-03 0.  1.
         12    1    3    3    0    0 -0.15102889710E+02 -0.38122996956E+01  0.41408905959E+01  0.16117626422E+02  0.00000000000E+00 0. -1.
</event>
<event>
 7    1  0.1375918E-013  0.7246159E+02  0.7816164E-02  0.1226708E+00
        -11   -1    0    0    0    0  0.00000000000E+00  0.00000000000E+00  0.45593999997E+02  0.45594000000E+02  0.51100000000E-03 0.  1.
         11   -1    0    0    0    0 -0.00000000000E+00 -0.00000000000E+00 -0.45593999997E+02  0.45594000000E+02  0.51100000000E-03 0. -1.
    9900012    2    1    2    0    0 -0.13616810646E+02  0.60812030243E+01  0.11326075127E+02  0.72461587098E+02  0.70000021890E+02 0.  0.
         12    1    1    2    0    0  0.13616810646E+02 -0.60812030243E+01 -0.11326075127E+02  0.18726412902E+02  0.00000000000E+00 0. -1.
         11    1    3    3    0    0 -0.20266400368E+02 -0.29610299374E+00  0.48360905464E+01  0.20837524634E+02  0.51100000000E-03 0. -1.
        -11    1    3    3    0    0  0.17443725989E+02 -0.37417879015E+01  0.23225103357E+02  0.29286344587E+02  0.51100000000E-03 0.  1.
        -12    1    3    3    0    0 -0.10794136267E+02  0.10119093920E+02 -0.16735118776E+02  0.22337717877E+02  0.00000000000E+00 0.  1.
</event>
<event>
 7    1  0.1375918E-013  0.7246156E+02  0.7816164E-02  0.1226708E+00
        -11   -1    0    0    0    0  0.00000000000E+00  0.00000000000E+00  0.45593999997E+02  0.45594000000E+02  0.51100000000E-03 0.  1.
         11   -1    0    0    0    0 -0.00000000000E+00 -0.00000000000E+00 -0.45593999997E+02  0.45594000000E+02  0.51100000000E-03 0. -1.
    9900012    2    1    2    0    0 -0.96136741996E+00 -0.12087465796E+02  0.14270544470E+02  0.72461561573E+02  0.69999988639E+02 0.  0.
         12    1    1    2    0    0  0.96136741996E+00  0.12087465796E+02 -0.14270544470E+02  0.18726438427E+02  0.00000000000E+00 0. -1.
         11    1    3    3    0    0 -0.14674075492E+02 -0.22012000817E+02 -0.19122672621E+02  0.32642507256E+02  0.51100000000E-03 0. -1.
        -11    1    3    3    0    0 -0.17934364465E+01 -0.84576918764E+00  0.76008308188E+01  0.78552128682E+01  0.51100000000E-03 0.  1.
         12    1    3    3    0    0  0.15506144519E+02  0.10770304209E+02  0.25792386272E+02  0.31963841449E+02  0.00000000000E+00 0. -1.
</event>
<event>
 7    1  0.1375918E-013  0.7246158E+02  0.7816164E-02  0.1226708E+00
        -11   -1    0    0    0    0  0.00000000000E+00  0.00000000000E+00  0.45593999997E+02  0.45594000000E+02  0.51100000000E-03 0. -1.
         11   -1    0    0    0    0 -0.00000000000E+00 -0.00000000000E+00 -0.45593999997E+02  0.45594000000E+02  0.51100000000E-03 0.  1.
    9900012    2    1    2    0    0  0.10912308315E+02 -0.53575474436E+01 -0.14244187505E+02  0.72461583764E+02  0.70000017547E+02 0.  0.
         12    1    1    2    0    0 -0.10912308315E+02  0.53575474436E+01  0.14244187505E+02  0.18726416236E+02  0.00000000000E+00 0. -1.
         11    1    3    3    0    0 -0.64493971313E+01  0.28679224474E+02 -0.14192151871E+02  0.32642147827E+02  0.51100000000E-03 0.  1.
        -11    1    3    3    0    0  0.15002440245E+02 -0.27262842614E+02  0.43237906872E+01  0.31417048984E+02  0.51100000000E-03 0. -1.
        -12    1    3    3    0    0  0.23592652010E+01 -0.67739293039E+01 -0.43758263214E+01  0.84023869524E+01  0.00000000000E+00 0.  1.
</event>
<event>
 7    1  0.1375918E-013  0.7246155E+02  0.7816164E-02  0.1226708E+00
        -11   -1    0    0    0    0  0.00000000000E+00  0.00000000000E+00  0.45593999997E+02  0.45594000000E+02  0.51100000000E-03 0. -1.
         11   -1    0    0    0    0 -0.00000000000E+00 -0.00000000000E+00 -0.45593999997E+02  0.45594000000E+02  0.51100000000E-03 0.  1.
    9900012    2    1    2    0    0  0.68351519402E+01 -0.74368893334E+01 -0.15768745452E+02  0.72461549238E+02  0.69999972570E+02 0.  0.
         12    1    1    2    0    0 -0.68351519402E+01  0.74368893334E+01  0.15768745452E+02  0.18726450762E+02  0.00000000000E+00 0. -1.
         11    1    3    3    0    0  0.68770259424E+01 -0.24215140615E+02 -0.12340359480E+02  0.28034817516E+02  0.51100000000E-03 0.  1.
        -11    1    3    3    0    0  0.14700523055E+02  0.14434247082E+02  0.11264985193E+02  0.23480901997E+02  0.51100000000E-03 0. -1.
         12    1    3    3    0    0 -0.14742397057E+02  0.23440041990E+01 -0.14693371165E+02  0.20945829725E+02  0.00000000000E+00 0. -1.
</event>
<event>
 7    1  0.1375918E-013  0.7246153E+02  0.7816164E-02  0.1226708E+00
        -11   -1    0    0    0    0  0.00000000000E+00  0.00000000000E+00  0.45593999997E+02  0.45594000000E+02  0.51100000000E-03 0.  1.
         11   -1    0    0    0    0 -0.00000000000E+00 -0.00000000000E+00 -0.45593999997E+02  0.45594000000E+02  0.51100000000E-03 0. -1.
    9900012    2    1    2    0    0 -0.13195373078E+02  0.13123322752E+02  0.20835826153E+01  0.72461527101E+02  0.69999943733E+02 0.  0.
         12    1    1    2    0    0  0.13195373078E+02 -0.13123322752E+02 -0.20835826153E+01  0.18726472899E+02  0.00000000000E+00 0. -1.
         11    1    3    3    0    0 -0.17172280303E+02  0.29975314672E+02 -0.14673446648E+02  0.37532875419E+02  0.51100000000E-03 0. -1.
        -11    1    3    3    0    0 -0.64111113017E+01  0.54759869951E+00  0.12735677920E+02  0.14268836841E+02  0.51100000000E-03 0.  1.
         12    1    3    3    0    0  0.10388018526E+02 -0.17399590619E+02  0.40213513440E+01  0.20659814841E+02  0.00000000000E+00 0. -1.
</event>
<event>
 7    1  0.1375918E-013  0.7246205E+02  0.7816164E-02  0.1226707E+00
        -11   -1    0    0    0    0  0.00000000000E+00  0.00000000000E+00  0.45593999997E+02  0.45594000000E+02  0.51100000000E-03 0. -1.
         11   -1    0    0    0    0 -0.00000000000E+00 -0.00000000000E+00 -0.45593999997E+02  0.45594000000E+02  0.51100000000E-03 0.  1.
    9900012    2    1    2    0    0 -0.26297952394E+01 -0.16229736234E+02 -0.89633117717E+01  0.72462052250E+02  0.70000627834E+02 0.  0.
         12    1    1    2    0    0  0.26297952394E+01  0.16229736234E+02  0.89633117717E+01  0.18725947750E+02  0.00000000000E+00 0. -1.
         11    1    3    3    0    0  0.88734020333E+01  0.21620287230E+02 -0.52006848344E+01  0.23942038479E+02  0.51100000000E-03 0. -1.
        -11    1    3    3    0    0 -0.11520434264E+01 -0.32232660026E+02 -0.11708892859E+02  0.34312821928E+02  0.51100000000E-03 0.  1.
        -12    1    3    3    0    0 -0.10351153846E+02 -0.56173634378E+01  0.79462659220E+01  0.14207191842E+02  0.00000000000E+00 0.  1.
</event>
<event>
 7    1  0.1375918E-013  0.7246159E+02  0.7816164E-02  0.1226708E+00
        -11   -1    0    0    0    0  0.00000000000E+00  0.00000000000E+00  0.45593999997E+02  0.45594000000E+02  0.51100000000E-03 0.  1.
         11   -1    0    0    0    0 -0.00000000000E+00 -0.00000000000E+00 -0.45593999997E+02  0.45594000000E+02  0.51100000000E-03 0. -1.
    9900012    2    1    2    0    0 -0.13071116216E+02  0.79035190582E+01  0.10833218454E+02  0.72461593118E+02  0.70000029731E+02 0.  0.
         12    1    1    2    0    0  0.13071116216E+02 -0.79035190582E+01 -0.10833218454E+02  0.18726406882E+02  0.00000000000E+00 0. -1.
         11    1    3    3    0    0  0.15476540360E+01  0.15370796633E+02 -0.15640593028E+02  0.21983738824E+02  0.51100000000E-03 0. -1.
        -11    1    3    3    0    0  0.27296646712E+01  0.36739255698E+01  0.29310586443E+02  0.29665793031E+02  0.51100000000E-03 0.  1.
         12    1    3    3    0    0 -0.17348434924E+02 -0.11141203145E+02 -0.28367749606E+01  0.20812061262E+02  0.00000000000E+00 0. -1.
</event>
<event>
 7    1  0.1375918E-013  0.7246151E+02  0.7816164E-02  0.1226708E+00
        -11   -1    0    0    0    0  0.00000000000E+00  0.00000000000E+00  0.45593999997E+02  0.45594000000E+02  0.51100000000E-03 0.  1.
         11   -1    0    0    0    0 -0.00000000000E+00 -0.00000000000E+00 -0.45593999997E+02  0.45594000000E+02  0.51100000000E-03 0. -1.
    9900012    2    1    2    0    0 -0.86546899053E+01  0.15875997146E+02  0.48713924711E+01  0.72461510544E+02  0.69999922164E+02 0.  0.
         12    1    1    2    0    0  0.86546899053E+01 -0.15875997146E+02 -0.48713924711E+01  0.18726489456E+02  0.00000000000E+00 0. -1.
         11    1    3    3    0    0 -0.55588686283E+01 -0.27021977241E+02  0.22361103518E+01  0.27678303131E+02  0.51100000000E-03 0. -1.
        -11    1    3    3    0    0 -0.19254964032E+01  0.28690677690E+01  0.32341213983E+01  0.47327188530E+01  0.51100000000E-03 0.  1.
         12    1    3    3    0    0 -0.11703248738E+01  0.40028906619E+02 -0.59883927906E+00  0.40050488560E+02  0.00000000000E+00 0. -1.
</event>
<event>
 7    1  0.1375918E-013  0.7246162E+02  0.7816164E-02  0.1226708E+00
        -11   -1    0    0    0    0  0.00000000000E+00  0.00000000000E+00  0.45593999997E+02  0.45594000000E+02  0.51100000000E-03 0. -1.
         11   -1    0    0    0    0 -0.00000000000E+00 -0.00000000000E+00 -0.45593999997E+02  0.45594000000E+02  0.51100000000E-03 0.  1.
    9900012    2    1    2    0    0  0.18487976865E+02 -0.23423320476E+01  0.18399624282E+01  0.72461621019E+02  0.70000066078E+02 0.  0.
         12    1    1    2    0    0 -0.18487976865E+02  0.23423320476E+01 -0.18399624282E+01  0.18726378981E+02  0.00000000000E+00 0. -1.
         11    1    3    3    0    0  0.37160493570E+02 -0.60194872569E+01  0.14836010852E+02  0.40462868503E+02  0.51100000000E-03 0. -1.
        -11    1    3    3    0    0 -0.17332088332E+02  0.35552123730E+01  0.12051089588E+01  0.17733953559E+02  0.51100000000E-03 0.  1.
         12    1    3    3    0    0 -0.13404283724E+01  0.12194283625E+00 -0.14201157383E+02  0.14264798957E+02  0.00000000000E+00 0. -1.
</event>
<event>
 7    1  0.1375918E-013  0.7246157E+02  0.7816164E-02  0.1226708E+00
        -11   -1    0    0    0    0  0.00000000000E+00  0.00000000000E+00  0.45593999997E+02  0.45594000000E+02  0.51100000000E-03 0. -1.
         11   -1    0    0    0    0 -0.00000000000E+00 -0.00000000000E+00 -0.45593999997E+02  0.45594000000E+02  0.51100000000E-03 0.  1.
    9900012    2    1    2    0    0  0.28645182187E+01 -0.42296516067E+01 -0.18016212895E+02  0.72461565625E+02  0.69999993917E+02 0.  0.
         12    1    1    2    0    0 -0.28645182187E+01  0.42296516067E+01  0.18016212895E+02  0.18726434375E+02  0.00000000000E+00 0. -1.
         11    1    3    3    0    0  0.54280475842E+01 -0.10750368275E+02  0.10075062269E+02  0.15701624076E+02  0.51100000000E-03 0. -1.
        -11    1    3    3    0    0 -0.21052700195E+02  0.14006145947E+02 -0.26686566550E+02  0.36763584487E+02  0.51100000000E-03 0.  1.
        -12    1    3    3    0    0  0.18489170830E+02 -0.74854292793E+01 -0.14047086143E+01  0.19996357062E+02  0.00000000000E+00 0.  1.
</event>
<event>
 7    1  0.1375918E-013  0.7246168E+02  0.7816164E-02  0.1226708E+00
        -11   -1    0    0    0    0  0.00000000000E+00  0.00000000000E+00  0.45593999997E+02  0.45594000000E+02  0.51100000000E-03 0.  1.
         11   -1    0    0    0    0 -0.00000000000E+00 -0.00000000000E+00 -0.45593999997E+02  0.45594000000E+02  0.51100000000E-03 0. -1.
    9900012    2    1    2    0    0 -0.57778791240E+00 -0.17050828243E+02  0.77207722144E+01  0.72461684126E+02  0.70000148286E+02 0.  0.
         12    1    1    2    0    0  0.57778791240E+00  0.17050828243E+02 -0.77207722144E+01  0.18726315874E+02  0.00000000000E+00 0. -1.
         11    1    3    3    0    0 -0.26584087995E+02 -0.94283630917E+01  0.13271712478E+02  0.31172842628E+02  0.51100000000E-03 0. -1.
        -11    1    3    3    0    0  0.31285791837E+02 -0.12533973920E+02 -0.45959239990E+01  0.34015052414E+02  0.51100000000E-03 0.  1.
        -12    1    3    3    0    0 -0.52794917544E+01  0.49115087687E+01 -0.95501626465E+00  0.72737890838E+01  0.00000000000E+00 0.  1.
</event>
<event>
 7    1  0.1375918E-013  0.7246153E+02  0.7816164E-02  0.1226708E+00
        -11   -1    0    0    0    0  0.00000000000E+00  0.00000000000E+00  0.45593999997E+02  0.45594000000E+02  0.51100000000E-03 0. -1.
         11   -1    0    0    0    0 -0.00000000000E+00 -0.00000000000E+00 -0.45593999997E+02  0.45594000000E+02  0.51100000000E-03 0.  1.
    9900012    2    1    2    0    0 -0.18574296012E+02 -0.23013891231E+01  0.61626575203E+00  0.72461530826E+02  0.69999948585E+02 0.  0.
         12    1    1    2    0    0  0.18574296012E+02  0.23013891231E+01 -0.61626575203E+00  0.18726469174E+02  0.00000000000E+00 0. -1.
         11    1    3    3    0    0 -0.69924055743E+01  0.21798313593E+02  0.23498662241E+02  0.32806208842E+02  0.51100000000E-03 0. -1.
        -11    1    3    3    0    0 -0.27770770477E+01  0.75107182790E-01 -0.10945852182E+02  0.11292895034E+02  0.51100000000E-03 0.  1.
         12    1    3    3    0    0 -0.88048133901E+01 -0.24174809899E+02 -0.11936544307E+02  0.28362426950E+02  0.00000000000E+00 0. -1.
</event>
<event>
 7    1  0.1375918E-013  0.7246147E+02  0.7816164E-02  0.1226708E+00
        -11   -1    0    0    0    0  0.00000000000E+00  0.00000000000E+00  0.45593999997E+02  0.45594000000E+02  0.51100000000E-03 0.  1.
         11   -1    0    0    0    0 -0.00000000000E+00 -0.00000000000E+00 -0.45593999997E+02  0.45594000000E+02  0.51100000000E-03 0. -1.
    9900012    2    1    2    0    0  0.22449272012E+01  0.50658204352E+01  0.17888001446E+02  0.72461472545E+02  0.69999872663E+02 0.  0.
         12    1    1    2    0    0 -0.22449272012E+01 -0.50658204352E+01 -0.17888001446E+02  0.18726527455E+02  0.00000000000E+00 0. -1.
         11    1    3    3    0    0 -0.33611652434E+01 -0.58753965678E+01 -0.14837416884E+02  0.16308484193E+02  0.51100000000E-03 0. -1.
        -11    1    3    3    0    0  0.20563012988E+02  0.57369997522E+01  0.34127431075E+02  0.40254592550E+02  0.51100000000E-03 0.  1.
         12    1    3    3    0    0 -0.14956920544E+02  0.52042172508E+01 -0.14020127456E+01  0.15898395802E+02  0.00000000000E+00 0. -1.
</event>
<event>
 7    1  0.1375918E-013  0.7246156E+02  0.7816164E-02  0.1226708E+00
        -11   -1    0    0    0    0  0.00000000000E+00  0.00000000000E+00  0.45593999997E+02  0.45594000000E+02  0.51100000000E-03 0.  1.
         11   -1    0    0    0    0 -0.00000000000E+00 -0.00000000000E+00 -0.45593999997E+02  0.45594000000E+02  0.51100000000E-03 0. -1.
    9900012    2    1    2    0    0  0.47536283148E+00 -0.17408078783E+02 -0.68856633017E+01  0.72461560514E+02  0.69999987259E+02 0.  0.
         12    1    1    2    0    0 -0.47536283148E+00  0.17408078783E+02  0.68856633017E+01  0.18726439486E+02  0.00000000000E+00 0. -1.
         11    1    3    3    0    0  0.40224967294E+01  0.11719232156E+02 -0.15200675773E+01  0.12483248294E+02  0.51100000000E-03 0. -1.
        -11    1    3    3    0    0  0.34038598683E+01 -0.42882828671E+02  0.16396112597E+01  0.43048944030E+02  0.51100000000E-03 0.  1.
        -12    1    3    3    0    0 -0.69509937662E+01  0.13755517731E+02 -0.70052069840E+01  0.16929368189E+02  0.00000000000E+00 0.  1.
</event>
<event>
 7    1  0.1375918E-013  0.7246154E+02  0.7816164E-02  0.1226708E+00
        -11   -1    0    0    0    0  0.00000000000E+00  0.00000000000E+00  0.45593999997E+02  0.45594000000E+02  0.51100000000E-03 0. -1.
         11   -1    0    0    0    0 -0.00000000000E+00 -0.00000000000E+00 -0.45593999997E+02  0.45594000000E+02  0.51100000000E-03 0.  1.
    9900012    2    1    2    0    0  0.24321332625E+01 -0.17570023297E+02 -0.60049313518E+01  0.72461543010E+02  0.69999964457E+02 0.  0.
         12    1    1    2    0    0 -0.24321332625E+01  0.17570023297E+02  0.60049313518E+01  0.18726456990E+02  0.00000000000E+00 0. -1.
         11    1    3    3    0    0  0.10419861603E+02  0.15527192233E+01  0.24517816128E+02  0.26685347305E+02  0.51100000000E-03 0. -1.
        -11    1    3    3    0    0 -0.77131229441E+01 -0.23261569811E+02 -0.12945264802E+02  0.27715930016E+02  0.51100000000E-03 0.  1.
         12    1    3    3    0    0 -0.27460539658E+00  0.41388272911E+01 -0.17577482678E+02  0.18060265689E+02  0.00000000000E+00 0. -1.
</event>
<event>
 7    1  0.1375918E-013  0.7246158E+02  0.7816164E-02  0.1226708E+00
        -11   -1    0    0    0    0  0.00000000000E+00  0.00000000000E+00  0.45593999997E+02  0.45594000000E+02  0.51100000000E-03 0. -1.
         11   -1    0    0    0    0 -0.00000000000E+00 -0.00000000000E+00 -0.45593999997E+02  0.45594000000E+02  0.51100000000E-03 0.  1.
    9900012    2    1    2    0    0 -0.12878569949E+02  0.12146119827E+02  0.61067974836E+01  0.72461581061E+02  0.70000014025E+02 0.  0.
         12    1    1    2    0    0  0.12878569949E+02 -0.12146119827E+02 -0.61067974836E+01  0.18726418939E+02  0.00000000000E+00 0. -1.
         11    1    3    3    0    0 -0.40068652495E+01  0.22268761895E+02  0.22868117237E+02  0.32169916252E+02  0.51100000000E-03 0. -1.
        -11    1    3    3    0    0  0.12405597162E+02 -0.78228199514E+01 -0.33773929969E+01  0.15049987929E+02  0.51100000000E-03 0.  1.
         12    1    3    3    0    0 -0.21277301862E+02 -0.22998221163E+01 -0.13383926756E+02  0.25241676880E+02  0.00000000000E+00 0. -1.
</event>
<event>
 7    1  0.1375918E-013  0.7246157E+02  0.7816164E-02  0.1226708E+00
        -11   -1    0    0    0    0  0.00000000000E+00  0.00000000000E+00  0.45593999997E+02  0.45594000000E+02  0.51100000000E-03 0. -1.
         11   -1    0    0    0    0 -0.00000000000E+00 -0.00000000000E+00 -0.45593999997E+02  0.45594000000E+02  0.51100000000E-03 0.  1.
    9900012    2    1    2    0    0 -0.16827932007E+02  0.22987136244E+01 -0.78876986966E+01  0.72461570264E+02  0.69999999960E+02 0.  0.
         12    1    1    2    0    0  0.16827932007E+02 -0.22987136244E+01  0.78876986966E+01  0.18726429736E+02  0.00000000000E+00 0. -1.
         11    1    3    3    0    0 -0.29786065696E+02  0.15899312606E+02 -0.57805580416E+01  0.34255112064E+02  0.51100000000E-03 0. -1.
        -11    1    3    3    0    0  0.16574277744E+02  0.41760514719E+00 -0.12177624210E+02  0.20571232546E+02  0.51100000000E-03 0.  1.
         12    1    3    3    0    0 -0.36161440541E+01 -0.14018204129E+02  0.10070483555E+02  0.17635225654E+02  0.00000000000E+00 0. -1.
</event>
<event>
 7    1  0.1375918E-013  0.7246154E+02  0.7816164E-02  0.1226708E+00
        -11   -1    0    0    0    0  0.00000000000E+00  0.00000000000E+00  0.45593999997E+02  0.45594000000E+02  0.51100000000E-03 0.  1.
         11   -1    0    0    0    0 -0.00000000000E+00 -0.00000000000E+00 -0.45593999997E+02  0.45594000000E+02  0.51100000000E-03 0. -1.
    9900012    2    1    2    0    0 -0.16530036465E+02 -0.75339489743E+01 -0.45472861963E+01  0.72461539992E+02  0.69999960526E+02 0.  0.
         12    1    1    2    0    0  0.16530036465E+02  0.75339489743E+01  0.45472861963E+01  0.18726460008E+02  0.00000000000E+00 0. -1.
         11    1    3    3    0    0  0.87722885711E+01  0.21498279270E+02 -0.18499753609E+02  0.29687875340E+02  0.51100000000E-03 0. -1.
        -11    1    3    3    0    0 -0.80712218910E+01 -0.17334362784E+02  0.99888094773E+01  0.21573156259E+02  0.51100000000E-03 0.  1.
         12    1    3    3    0    0 -0.17231103145E+02 -0.11697865460E+02  0.39636579356E+01  0.21200508394E+02  0.00000000000E+00 0. -1.
</event>
<event>
 7    1  0.1375918E-013  0.7246152E+02  0.7816164E-02  0.1226708E+00
        -11   -1    0    0    0    0  0.00000000000E+00  0.00000000000E+00  0.45593999997E+02  0.45594000000E+02  0.51100000000E-03 0.  1.
         11   -1    0    0    0    0 -0.00000000000E+00 -0.00000000000E+00 -0.45593999997E+02  0.45594000000E+02  0.51100000000E-03 0. -1.
    9900012    2    1    2    0    0 -0.10154076855E+02 -0.11694419776E+02  0.10526928369E+02  0.72461522713E+02  0.69999938017E+02 0.  0.
         12    1    1    2    0    0  0.10154076855E+02  0.11694419776E+02 -0.10526928369E+02  0.18726477287E+02  0.00000000000E+00 0. -1.
         11    1    3    3    0    0 -0.30653665607E+02 -0.88493825219E+01 -0.17405804743E+02  0.36344474479E+02  0.51100000000E-03 0. -1.
        -11    1    3    3    0    0  0.16630909396E+02 -0.51474600005E+01  0.17175279210E+02  0.24455545547E+02  0.51100000000E-03 0.  1.
         12    1    3    3    0    0  0.38686793563E+01  0.23024227460E+01  0.10757453901E+02  0.11661502686E+02  0.00000000000E+00 0. -1.
</event>
<event>
 7    1  0.1375918E-013  0.7246172E+02  0.7816164E-02  0.1226708E+00
        -11   -1    0    0    0    0  0.00000000000E+00  0.00000000000E+00  0.45593999997E+02  0.45594000000E+02  0.51100000000E-03 0.  1.
         11   -1    0    0    0    0 -0.00000000000E+00 -0.00000000000E+00 -0.45593999997E+02  0.45594000000E+02  0.51100000000E-03 0. -1.
    9900012    2    1    2    0    0 -0.55825119064E+01 -0.69845619302E+01  0.16453725555E+02  0.72461718223E+02  0.70000192705E+02 0.  0.
         12    1    1    2    0    0  0.55825119064E+01  0.69845619302E+01 -0.16453725555E+02  0.18726281777E+02  0.00000000000E+00 0. -1.
         11    1    3    3    0    0 -0.55714311710E+01 -0.93291759669E+01  0.54223660843E+01  0.12143987143E+02  0.51100000000E-03 0. -1.
        -11    1    3    3    0    0  0.28916203589E+02  0.71432206859E+01  0.79857888493E+01  0.30837400272E+02  0.51100000000E-03 0.  1.
        -12    1    3    3    0    0 -0.28927284324E+02 -0.47986066492E+01  0.30455706213E+01  0.29480330808E+02  0.00000000000E+00 0.  1.
</event>
<event>
 7    1  0.1375918E-013  0.7246162E+02  0.7816164E-02  0.1226708E+00
        -11   -1    0    0    0    0  0.00000000000E+00  0.00000000000E+00  0.45593999997E+02  0.45594000000E+02  0.51100000000E-03 0.  1.
         11   -1    0    0    0    0 -0.00000000000E+00 -0.00000000000E+00 -0.45593999997E+02  0.45594000000E+02  0.51100000000E-03 0. -1.
    9900012    2    1    2    0    0 -0.27743373836E+01 -0.17348314871E+02  0.64820031052E+01  0.72461619116E+02  0.70000063599E+02 0.  0.
         12    1    1    2    0    0  0.27743373836E+01  0.17348314871E+02 -0.64820031052E+01  0.18726380884E+02  0.00000000000E+00 0. -1.
         11    1    3    3    0    0 -0.30178666482E+01 -0.32140699001E+02 -0.48256066829E+01  0.32640749555E+02  0.51100000000E-03 0. -1.
        -11    1    3    3    0    0  0.11260689082E+02 -0.11763156017E+01  0.16245768473E+02  0.19801813819E+02  0.51100000000E-03 0.  1.
         12    1    3    3    0    0 -0.11017159817E+02  0.15968699732E+02 -0.49381586850E+01  0.20019055741E+02  0.00000000000E+00 0. -1.
</event>
<event>
 7    1  0.1375918E-013  0.7246159E+02  0.7816164E-02  0.1226708E+00
        -11   -1    0    0    0    0  0.00000000000E+00  0.00000000000E+00  0.45593999997E+02  0.45594000000E+02  0.51100000000E-03 0. -1.
         11   -1    0    0    0    0 -0.00000000000E+00 -0.00000000000E+00 -0.45593999997E+02  0.45594000000E+02  0.51100000000E-03 0.  1.
    9900012    2    1    2    0    0  0.10571000099E+02  0.52737511378E+01 -0.14529965548E+02  0.72461591028E+02  0.70000027010E+02 0.  0.
         12    1    1    2    0    0 -0.10571000099E+02 -0.52737511378E+01  0.14529965548E+02  0.18726408972E+02  0.00000000000E+00 0. -1.
         11    1    3    3    0    0 -0.90498959064E+01  0.61816869239E+01  0.17078701174E+02  0.20292754943E+02  0.51100000000E-03 0. -1.
        -11    1    3    3    0    0  0.19005941622E+01  0.10151300468E+02 -0.29403583912E+02  0.31164593796E+02  0.51100000000E-03 0.  1.
        -12    1    3    3    0    0  0.17720301843E+02 -0.11059236254E+02 -0.22050828101E+01  0.21004242289E+02  0.00000000000E+00 0.  1.
</event>
<event>
 8    1  0.1375918E-013  0.7246156E+02  0.7816164E-02  0.1226708E+00
        -11   -1    0    0    0    0  0.00000000000E+00  0.00000000000E+00  0.45593999997E+02  0.45594000000E+02  0.51100000000E-03 0. -1.
         11   -1    0    0    0    0 -0.00000000000E+00 -0.00000000000E+00 -0.45593999997E+02  0.45594000000E+02  0.51100000000E-03 0.  1.
    9900012    2    1    2    0    0 -0.68794784513E+01 -0.13349629270E+02 -0.11186586695E+02  0.72461560208E+02  0.69999986860E+02 0.  0.
         24    2    3    3    0    0 -0.12208161604E+02 -0.15412340660E+02  0.62781493030E+01  0.54085852163E+02  0.49992847400E+02 0.  0.
         12    1    1    2    0    0  0.68794784513E+01  0.13349629270E+02  0.11186586695E+02  0.18726439792E+02  0.00000000000E+00 0. -1.
         11    1    3    3    0    0  0.53286831523E+01  0.20627113903E+01 -0.17464735998E+02  0.18375708045E+02  0.51100000000E-03 0.  1.
        -11    1    4    4    0    0 -0.21545959997E+02 -0.21670810969E+01  0.22449669373E+02  0.31191541928E+02  0.51100000000E-03 0. -1.
         12    1    4    4    0    0  0.93377983935E+01 -0.13245259564E+02 -0.16171520070E+02  0.22894310234E+02  0.00000000000E+00 0. -1.
</event>
<event>
 7    1  0.1375918E-013  0.7246156E+02  0.7816164E-02  0.1226708E+00
        -11   -1    0    0    0    0  0.00000000000E+00  0.00000000000E+00  0.45593999997E+02  0.45594000000E+02  0.51100000000E-03 0. -1.
         11   -1    0    0    0    0 -0.00000000000E+00 -0.00000000000E+00 -0.45593999997E+02  0.45594000000E+02  0.51100000000E-03 0.  1.
    9900012    2    1    2    0    0  0.26484430121E+01  0.11668473929E+02 -0.14405275644E+02  0.72461561455E+02  0.69999988485E+02 0.  0.
         12    1    1    2    0    0 -0.26484430121E+01 -0.11668473929E+02  0.14405275644E+02  0.18726438545E+02  0.00000000000E+00 0. -1.
         11    1    3    3    0    0  0.46542949165E+01  0.25490663959E+02 -0.70959807194E+01  0.26866137662E+02  0.51100000000E-03 0. -1.
        -11    1    3    3    0    0  0.10919928619E+02 -0.23085905426E+02 -0.13061338376E+02  0.28684532954E+02  0.51100000000E-03 0.  1.
        -12    1    3    3    0    0 -0.12925780523E+02  0.92637153957E+01  0.57520434519E+01  0.16910890838E+02  0.00000000000E+00 0.  1.
</event>
<event>
 7    1  0.1375918E-013  0.7246161E+02  0.7816164E-02  0.1226708E+00
        -11   -1    0    0    0    0  0.00000000000E+00  0.00000000000E+00  0.45593999997E+02  0.45594000000E+02  0.51100000000E-03 0.  1.
         11   -1    0    0    0    0 -0.00000000000E+00 -0.00000000000E+00 -0.45593999997E+02  0.45594000000E+02  0.51100000000E-03 0. -1.
    9900012    2    1    2    0    0  0.11894928290E+02  0.24519139366E+01  0.14254001801E+02  0.72461607707E+02  0.70000048737E+02 0.  0.
         12    1    1    2    0    0 -0.11894928290E+02 -0.24519139366E+01 -0.14254001801E+02  0.18726392293E+02  0.00000000000E+00 0. -1.
         11    1    3    3    0    0 -0.31341324814E+01  0.25695393429E+02  0.11754999481E+02  0.28429844230E+02  0.51100000000E-03 0.  1.
        -11    1    3    3    0    0  0.18021181285E+02 -0.11993680146E+02 -0.12537339144E+02  0.25015919160E+02  0.51100000000E-03 0. -1.
        -12    1    3    3    0    0 -0.29921205136E+01 -0.11249799346E+02  0.15036341463E+02  0.19015844317E+02  0.00000000000E+00 0.  1.
</event>
<event>
 7    1  0.1375918E-013  0.7246159E+02  0.7816164E-02  0.1226708E+00
        -11   -1    0    0    0    0  0.00000000000E+00  0.00000000000E+00  0.45593999997E+02  0.45594000000E+02  0.51100000000E-03 0. -1.
         11   -1    0    0    0    0 -0.00000000000E+00 -0.00000000000E+00 -0.45593999997E+02  0.45594000000E+02  0.51100000000E-03 0.  1.
    9900012    2    1    2    0    0  0.20972356310E+00  0.28664020895E+00 -0.18723043088E+02  0.72461588463E+02  0.70000023668E+02 0.  0.
         12    1    1    2    0    0 -0.20972356310E+00 -0.28664020895E+00  0.18723043088E+02  0.18726411537E+02  0.00000000000E+00 0. -1.
         11    1    3    3    0    0  0.13309763320E+02 -0.15692200402E+02  0.16248692209E+02  0.26218599349E+02  0.51100000000E-03 0. -1.
        -11    1    3    3    0    0 -0.13375782759E+02 -0.85404825367E+00 -0.14727269522E+02  0.19913147181E+02  0.51100000000E-03 0.  1.
         12    1    3    3    0    0  0.27574300209E+00  0.16832888864E+02 -0.20244465774E+02  0.26329841933E+02  0.00000000000E+00 0. -1.
</event>
<event>
 7    1  0.1375918E-013  0.7246159E+02  0.7816164E-02  0.1226708E+00
        -11   -1    0    0    0    0  0.00000000000E+00  0.00000000000E+00  0.45593999997E+02  0.45594000000E+02  0.51100000000E-03 0.  1.
         11   -1    0    0    0    0 -0.00000000000E+00 -0.00000000000E+00 -0.45593999997E+02  0.45594000000E+02  0.51100000000E-03 0. -1.
    9900012    2    1    2    0    0  0.78091175000E+01 -0.10315277335E+02  0.13538500017E+02  0.72461594970E+02  0.70000032145E+02 0.  0.
         12    1    1    2    0    0 -0.78091175000E+01  0.10315277335E+02 -0.13538500017E+02  0.18726405030E+02  0.00000000000E+00 0. -1.
         11    1    3    3    0    0 -0.53633312880E+01  0.25751453244E+02  0.60461623360E+00  0.26310990626E+02  0.51100000000E-03 0. -1.
        -11    1    3    3    0    0 -0.13155788354E+01 -0.81059206509E+01  0.12130735045E+02  0.14648939561E+02  0.51100000000E-03 0.  1.
         12    1    3    3    0    0  0.14488027623E+02 -0.27960809927E+02  0.80314873861E+00  0.31501664783E+02  0.00000000000E+00 0. -1.
</event>
<event>
 7    1  0.1375918E-013  0.7246158E+02  0.7816164E-02  0.1226708E+00
        -11   -1    0    0    0    0  0.00000000000E+00  0.00000000000E+00  0.45593999997E+02  0.45594000000E+02  0.51100000000E-03 0. -1.
         11   -1    0    0    0    0 -0.00000000000E+00 -0.00000000000E+00 -0.45593999997E+02  0.45594000000E+02  0.51100000000E-03 0.  1.
    9900012    2    1    2    0    0  0.95270862184E+01 -0.11528621462E+01 -0.16080560204E+02  0.72461578040E+02  0.70000010090E+02 0.  0.
         12    1    1    2    0    0 -0.95270862184E+01  0.11528621462E+01  0.16080560204E+02  0.18726421960E+02  0.00000000000E+00 0. -1.
         11    1    3    3    0    0 -0.26492685265E+02 -0.89284529444E+00 -0.25919574831E+01  0.26634147050E+02  0.51100000000E-03 0. -1.
        -11    1    3    3    0    0  0.25114928479E+02 -0.71118097026E+01  0.14019876746E+01  0.26140065789E+02  0.51100000000E-03 0.  1.
        -12    1    3    3    0    0  0.10904843004E+02  0.68517928509E+01 -0.14890590396E+02  0.19687365201E+02  0.00000000000E+00 0.  1.
</event>
<event>
 7    1  0.1375918E-013  0.7246163E+02  0.7816164E-02  0.1226708E+00
        -11   -1    0    0    0    0  0.00000000000E+00  0.00000000000E+00  0.45593999997E+02  0.45594000000E+02  0.51100000000E-03 0.  1.
         11   -1    0    0    0    0 -0.00000000000E+00 -0.00000000000E+00 -0.45593999997E+02  0.45594000000E+02  0.51100000000E-03 0. -1.
    9900012    2    1    2    0    0  0.54490875891E+01 -0.40072142174E+01  0.17462152869E+02  0.72461625440E+02  0.70000071837E+02 0.  0.
         12    1    1    2    0    0 -0.54490875891E+01  0.40072142174E+01 -0.17462152869E+02  0.18726374560E+02  0.00000000000E+00 0. -1.
         11    1    3    3    0    0 -0.13803902639E+02 -0.26553999470E+02  0.18871163389E+02  0.35380551492E+02  0.51100000000E-03 0. -1.
        -11    1    3    3    0    0  0.15843920513E+02  0.12308165629E+02  0.90891647282E+01  0.22025750250E+02  0.51100000000E-03 0.  1.
         12    1    3    3    0    0  0.34090697159E+01  0.10238619624E+02 -0.10498175247E+02  0.15055323698E+02  0.00000000000E+00 0. -1.
</event>
<event>
 7    1  0.1375918E-013  0.7246160E+02  0.7816164E-02  0.1226708E+00
        -11   -1    0    0    0    0  0.00000000000E+00  0.00000000000E+00  0.45593999997E+02  0.45594000000E+02  0.51100000000E-03 0.  1.
         11   -1    0    0    0    0 -0.00000000000E+00 -0.00000000000E+00 -0.45593999997E+02  0.45594000000E+02  0.51100000000E-03 0. -1.
    9900012    2    1    2    0    0 -0.23367193013E+01 -0.16704545153E+02 -0.81348515132E+01  0.72461604324E+02  0.70000044330E+02 0.  0.
         12    1    1    2    0    0  0.23367193013E+01  0.16704545153E+02  0.81348515132E+01  0.18726395676E+02  0.00000000000E+00 0. -1.
         11    1    3    3    0    0  0.94675663634E+01 -0.35618786208E+01 -0.21655936264E+02  0.23901911385E+02  0.51100000000E-03 0. -1.
        -11    1    3    3    0    0  0.49772242821E+01 -0.18805433794E+02  0.21621092370E+02  0.29084166435E+02  0.51100000000E-03 0.  1.
        -12    1    3    3    0    0 -0.16781509947E+02  0.56627672613E+01 -0.81000076192E+01  0.19475526503E+02  0.00000000000E+00 0.  1.
</event>
<event>
 7    1  0.1375918E-013  0.7246131E+02  0.7816164E-02  0.1226709E+00
        -11   -1    0    0    0    0  0.00000000000E+00  0.00000000000E+00  0.45593999997E+02  0.45594000000E+02  0.51100000000E-03 0. -1.
         11   -1    0    0    0    0 -0.00000000000E+00 -0.00000000000E+00 -0.45593999997E+02  0.45594000000E+02  0.51100000000E-03 0.  1.
    9900012    2    1    2    0    0  0.66046981756E+00 -0.69166700686E+01 -0.17390010862E+02  0.72461307206E+02  0.69999657278E+02 0.  0.
         12    1    1    2    0    0 -0.66046981756E+00  0.69166700686E+01  0.17390010862E+02  0.18726692794E+02  0.00000000000E+00 0. -1.
         11    1    3    3    0    0  0.11050761363E+02 -0.26882262139E+01 -0.17581490965E+01  0.11508126493E+02  0.51100000000E-03 0. -1.
        -11    1    3    3    0    0 -0.25614408892E+02  0.16758712635E+02  0.13127819613E+00  0.30609959593E+02  0.51100000000E-03 0.  1.
        -12    1    3    3    0    0  0.15224117347E+02 -0.20987156489E+02 -0.15763139962E+02  0.30343221120E+02  0.00000000000E+00 0.  1.
</event>
<event>
 7    1  0.1375918E-013  0.7246139E+02  0.7816164E-02  0.1226708E+00
        -11   -1    0    0    0    0  0.00000000000E+00  0.00000000000E+00  0.45593999997E+02  0.45594000000E+02  0.51100000000E-03 0. -1.
         11   -1    0    0    0    0 -0.00000000000E+00 -0.00000000000E+00 -0.45593999997E+02  0.45594000000E+02  0.51100000000E-03 0.  1.
    9900012    2    1    2    0    0  0.12521677472E+02 -0.59796665738E+01 -0.12575256243E+02  0.72461390894E+02  0.69999766297E+02 0.  0.
         12    1    1    2    0    0 -0.12521677472E+02  0.59796665738E+01  0.12575256243E+02  0.18726609106E+02  0.00000000000E+00 0. -1.
         11    1    3    3    0    0  0.19128209644E+02 -0.16633047312E+02  0.10094324556E+02  0.27284465462E+02  0.51100000000E-03 0. -1.
        -11    1    3    3    0    0  0.12190728479E+02 -0.65009545711E+00 -0.19512416763E+02  0.23016752445E+02  0.51100000000E-03 0.  1.
         12    1    3    3    0    0 -0.18797260650E+02  0.11303476195E+02 -0.31571640352E+01  0.22160172987E+02  0.00000000000E+00 0. -1.
</event>
<event>
 7    1  0.1375918E-013  0.7246119E+02  0.7816164E-02  0.1226709E+00
        -11   -1    0    0    0    0  0.00000000000E+00  0.00000000000E+00  0.45593999997E+02  0.45594000000E+02  0.51100000000E-03 0. -1.
         11   -1    0    0    0    0 -0.00000000000E+00 -0.00000000000E+00 -0.45593999997E+02  0.45594000000E+02  0.51100000000E-03 0.  1.
    9900012    2    1    2    0    0  0.32857829511E+01 -0.18435919933E+02 -0.11739661550E+00  0.72461193136E+02  0.69999508679E+02 0.  0.
         12    1    1    2    0    0 -0.32857829511E+01  0.18435919933E+02  0.11739661550E+00  0.18726806864E+02  0.00000000000E+00 0. -1.
         11    1    3    3    0    0 -0.79592833848E+01 -0.29821535437E+02 -0.16916438719E+02  0.35197159928E+02  0.51100000000E-03 0.  1.
        -11    1    3    3    0    0  0.15827943106E+02 -0.40707785681E+00  0.18664273099E+02  0.24475387350E+02  0.51100000000E-03 0. -1.
         12    1    3    3    0    0 -0.45828767704E+01  0.11792693361E+02 -0.18652309959E+01  0.12788645857E+02  0.00000000000E+00 0. -1.
</event>
<event>
 7    1  0.1375918E-013  0.7246155E+02  0.7816164E-02  0.1226708E+00
        -11   -1    0    0    0    0  0.00000000000E+00  0.00000000000E+00  0.45593999997E+02  0.45594000000E+02  0.51100000000E-03 0.  1.
         11   -1    0    0    0    0 -0.00000000000E+00 -0.00000000000E+00 -0.45593999997E+02  0.45594000000E+02  0.51100000000E-03 0. -1.
    9900012    2    1    2    0    0  0.13252411985E+02 -0.45206723932E+01 -0.12434509430E+02  0.72461550067E+02  0.69999973650E+02 0.  0.
         12    1    1    2    0    0 -0.13252411985E+02  0.45206723932E+01  0.12434509430E+02  0.18726449933E+02  0.00000000000E+00 0. -1.
         11    1    3    3    0    0  0.11769192176E+02 -0.15523603687E+02 -0.22189272835E+02  0.29527275274E+02  0.51100000000E-03 0. -1.
        -11    1    3    3    0    0  0.18649913254E+02  0.98952441383E+01  0.13851583553E+02  0.25250772030E+02  0.51100000000E-03 0.  1.
        -12    1    3    3    0    0 -0.17166693444E+02  0.11076871551E+01 -0.40968201483E+01  0.17683502763E+02  0.00000000000E+00 0.  1.
</event>
<event>
 7    1  0.1375918E-013  0.7246155E+02  0.7816164E-02  0.1226708E+00
        -11   -1    0    0    0    0  0.00000000000E+00  0.00000000000E+00  0.45593999997E+02  0.45594000000E+02  0.51100000000E-03 0.  1.
         11   -1    0    0    0    0 -0.00000000000E+00 -0.00000000000E+00 -0.45593999997E+02  0.45594000000E+02  0.51100000000E-03 0. -1.
    9900012    2    1    2    0    0  0.34650933312E+01 -0.15124280379E+02  0.10484704720E+02  0.72461554479E+02  0.69999979398E+02 0.  0.
         12    1    1    2    0    0 -0.34650933312E+01  0.15124280379E+02 -0.10484704720E+02  0.18726445521E+02  0.00000000000E+00 0. -1.
         11    1    3    3    0    0  0.26229126555E+02 -0.25041331228E+01  0.40966529088E+01  0.26664964426E+02  0.51100000000E-03 0. -1.
        -11    1    3    3    0    0 -0.15236386399E+02 -0.24543111373E+02  0.11074202452E+02  0.30937836812E+02  0.51100000000E-03 0.  1.
         12    1    3    3    0    0 -0.75276468248E+01  0.11922964117E+02 -0.46861506407E+01  0.14858753241E+02  0.00000000000E+00 0. -1.
</event>
<event>
 7    1  0.1375918E-013  0.7246156E+02  0.7816164E-02  0.1226708E+00
        -11   -1    0    0    0    0  0.00000000000E+00  0.00000000000E+00  0.45593999997E+02  0.45594000000E+02  0.51100000000E-03 0.  1.
         11   -1    0    0    0    0 -0.00000000000E+00 -0.00000000000E+00 -0.45593999997E+02  0.45594000000E+02  0.51100000000E-03 0. -1.
    9900012    2    1    2    0    0  0.12810395809E+02 -0.11148698820E+02 -0.78917685191E+01  0.72461555155E+02  0.69999980279E+02 0.  0.
         12    1    1    2    0    0 -0.12810395809E+02  0.11148698820E+02  0.78917685191E+01  0.18726444845E+02  0.00000000000E+00 0. -1.
         11    1    3    3    0    0  0.12017999264E+02 -0.39973918306E+01 -0.88260579036E+01  0.15437316675E+02  0.51100000000E-03 0. -1.
        -11    1    3    3    0    0 -0.26879303243E+02  0.63772268763E+00  0.66899798833E+01  0.27706668226E+02  0.51100000000E-03 0.  1.
        -12    1    3    3    0    0  0.27671699788E+02 -0.77890296770E+01 -0.57556904988E+01  0.29317570254E+02  0.00000000000E+00 0.  1.
</event>
<event>
 7    1  0.1375918E-013  0.7246154E+02  0.7816164E-02  0.1226708E+00
        -11   -1    0    0    0    0  0.00000000000E+00  0.00000000000E+00  0.45593999997E+02  0.45594000000E+02  0.51100000000E-03 0.  1.
         11   -1    0    0    0    0 -0.00000000000E+00 -0.00000000000E+00 -0.45593999997E+02  0.45594000000E+02  0.51100000000E-03 0. -1.
    9900012    2    1    2    0    0 -0.56468073191E+01  0.13618183584E+02 -0.11547245626E+02  0.72461541750E+02  0.69999962816E+02 0.  0.
         12    1    1    2    0    0  0.56468073191E+01 -0.13618183584E+02  0.11547245626E+02  0.18726458250E+02  0.00000000000E+00 0. -1.
         11    1    3    3    0    0 -0.43626580749E+01  0.25751983766E+02 -0.15729441180E+02  0.30489551874E+02  0.51100000000E-03 0. -1.
        -11    1    3    3    0    0  0.11780164284E+01  0.95825310121E+01  0.14802502470E+02  0.17672767269E+02  0.51100000000E-03 0.  1.
         12    1    3    3    0    0 -0.24621656726E+01 -0.21716331195E+02 -0.10620306916E+02  0.24299222608E+02  0.00000000000E+00 0. -1.
</event>
<event>
 7    1  0.1375918E-013  0.7246156E+02  0.7816164E-02  0.1226708E+00
        -11   -1    0    0    0    0  0.00000000000E+00  0.00000000000E+00  0.45593999997E+02  0.45594000000E+02  0.51100000000E-03 0. -1.
         11   -1    0    0    0    0 -0.00000000000E+00 -0.00000000000E+00 -0.45593999997E+02  0.45594000000E+02  0.51100000000E-03 0.  1.
    9900012    2    1    2    0    0  0.52717530379E+01  0.13590485180E+02 -0.11755289598E+02  0.72461561442E+02  0.69999988468E+02 0.  0.
         12    1    1    2    0    0 -0.52717530379E+01 -0.13590485180E+02  0.11755289598E+02  0.18726438558E+02  0.00000000000E+00 0. -1.
         11    1    3    3    0    0  0.16973128534E+02 -0.19031004851E+02  0.74545319341E+01  0.26567579575E+02  0.51100000000E-03 0. -1.
        -11    1    3    3    0    0 -0.53277591871E+01  0.55180981556E+01 -0.16155900747E+02  0.17884282329E+02  0.51100000000E-03 0.  1.
         12    1    3    3    0    0 -0.63736163094E+01  0.27103391875E+02 -0.30539207852E+01  0.28009699537E+02  0.00000000000E+00 0. -1.
</event>
<event>
 7    1  0.1375918E-013  0.7246157E+02  0.7816164E-02  0.1226708E+00
        -11   -1    0    0    0    0  0.00000000000E+00  0.00000000000E+00  0.45593999997E+02  0.45594000000E+02  0.51100000000E-03 0.  1.
         11   -1    0    0    0    0 -0.00000000000E+00 -0.00000000000E+00 -0.45593999997E+02  0.45594000000E+02  0.51100000000E-03 0. -1.
    9900012    2    1    2    0    0 -0.27945584853E+01  0.51810759899E+00  0.18509490984E+02  0.72461568170E+02  0.69999997232E+02 0.  0.
         12    1    1    2    0    0  0.27945584853E+01 -0.51810759899E+00 -0.18509490984E+02  0.18726431830E+02  0.00000000000E+00 0. -1.
         11    1    3    3    0    0  0.10688566189E+02 -0.11837883477E+02 -0.67563518050E+01  0.17321351632E+02  0.51100000000E-03 0. -1.
        -11    1    3    3    0    0 -0.23167847858E+02  0.17738201228E+02  0.18522707312E+01  0.29237371023E+02  0.51100000000E-03 0.  1.
        -12    1    3    3    0    0  0.96847231841E+01 -0.53822101521E+01  0.23413572058E+02  0.25902845515E+02  0.00000000000E+00 0.  1.
</event>
<event>
 7    1  0.1375918E-013  0.7246156E+02  0.7816164E-02  0.1226708E+00
        -11   -1    0    0    0    0  0.00000000000E+00  0.00000000000E+00  0.45593999997E+02  0.45594000000E+02  0.51100000000E-03 0. -1.
         11   -1    0    0    0    0 -0.00000000000E+00 -0.00000000000E+00 -0.45593999997E+02  0.45594000000E+02  0.51100000000E-03 0.  1.
    9900012    2    1    2    0    0 -0.52502364140E+01  0.17950025739E+02 -0.95446099092E+00  0.72461564081E+02  0.69999991906E+02 0.  0.
         12    1    1    2    0    0  0.52502364140E+01 -0.17950025739E+02  0.95446099092E+00  0.18726435919E+02  0.00000000000E+00 0. -1.
         11    1    3    3    0    0  0.16732532333E+02 -0.25951442344E+00  0.14521476593E+02  0.22156675488E+02  0.51100000000E-03 0. -1.
        -11    1    3    3    0    0 -0.28031154389E+02  0.22255204013E+01 -0.13826996158E+01  0.28153337563E+02  0.51100000000E-03 0.  1.
        -12    1    3    3    0    0  0.60483856427E+01  0.15984019761E+02 -0.14093237968E+02  0.22151551030E+02  0.00000000000E+00 0.  1.
</event>
<event>
 7    1  0.1375918E-013  0.7246159E+02  0.7816164E-02  0.1226708E+00
        -11   -1    0    0    0    0  0.00000000000E+00  0.00000000000E+00  0.45593999997E+02  0.45594000000E+02  0.51100000000E-03 0.  1.
         11   -1    0    0    0    0 -0.00000000000E+00 -0.00000000000E+00 -0.45593999997E+02  0.45594000000E+02  0.51100000000E-03 0. -1.
    9900012    2    1    2    0    0 -0.16053231108E+02 -0.34793182898E+01  0.89925893258E+01  0.72461586901E+02  0.70000021634E+02 0.  0.
         12    1    1    2    0    0  0.16053231108E+02  0.34793182898E+01 -0.89925893258E+01  0.18726413099E+02  0.00000000000E+00 0. -1.
         11    1    3    3    0    0  0.46991840734E+00 -0.20383133585E+02 -0.51678873851E+01  0.21033307356E+02  0.51100000000E-03 0. -1.
        -11    1    3    3    0    0  0.89833600004E+01  0.18367155268E+02 -0.29805059081E+01  0.20662443352E+02  0.51100000000E-03 0.  1.
        -12    1    3    3    0    0 -0.25506509516E+02 -0.14633399733E+01  0.17140982619E+02  0.30765836194E+02  0.00000000000E+00 0.  1.
</event>
<event>
 8    1  0.1375918E-013  0.7246153E+02  0.7816164E-02  0.1226708E+00
        -11   -1    0    0    0    0  0.00000000000E+00  0.00000000000E+00  0.45593999997E+02  0.45594000000E+02  0.51100000000E-03 0.  1.
         11   -1    0    0    0    0 -0.00000000000E+00 -0.00000000000E+00 -0.45593999997E+02  0.45594000000E+02  0.51100000000E-03 0. -1.
    9900012    2    1    2    0    0 -0.89184916457E+01 -0.83201191045E+01  0.14209745278E+02  0.72461528469E+02  0.69999945514E+02 0.  0.
         24    2    3    3    0    0 -0.20801611506E+02 -0.34023502267E+01  0.12426670645E+02  0.59477987205E+02  0.54211860236E+02 0.  0.
         12    1    1    2    0    0  0.89184916457E+01  0.83201191045E+01 -0.14209745278E+02  0.18726471531E+02  0.00000000000E+00 0. -1.
         11    1    3    3    0    0  0.11883119860E+02 -0.49177688778E+01  0.17830746328E+01  0.12983541264E+02  0.51100000000E-03 0. -1.
        -11    1    4    4    0    0 -0.12060982155E+02  0.22494531283E+02  0.18444968890E+02  0.31491079781E+02  0.51100000000E-03 0.  1.
         12    1    4    4    0    0 -0.87406293505E+01 -0.25896881509E+02 -0.60182982449E+01  0.27986907423E+02  0.00000000000E+00 0. -1.
</event>
<event>
 7    1  0.1375918E-013  0.7246157E+02  0.7816164E-02  0.1226708E+00
        -11   -1    0    0    0    0  0.00000000000E+00  0.00000000000E+00  0.45593999997E+02  0.45594000000E+02  0.51100000000E-03 0. -1.
         11   -1    0    0    0    0 -0.00000000000E+00 -0.00000000000E+00 -0.45593999997E+02  0.45594000000E+02  0.51100000000E-03 0.  1.
    9900012    2    1    2    0    0  0.23997017943E+01 -0.15463695610E+02  0.10285655593E+02  0.72461570506E+02  0.70000000275E+02 0.  0.
         12    1    1    2    0    0 -0.23997017943E+01  0.15463695610E+02 -0.10285655593E+02  0.18726429494E+02  0.00000000000E+00 0. -1.
         11    1    3    3    0    0  0.25175769715E+01 -0.26901807212E+01  0.83376228476E+01  0.91154386142E+01  0.51100000000E-03 0. -1.
        -11    1    3    3    0    0  0.18900820657E+02 -0.23552905057E+02 -0.16790697437E+02  0.34552972070E+02  0.51100000000E-03 0.  1.
        -12    1    3    3    0    0 -0.19018695835E+02  0.10779390168E+02  0.18738730183E+02  0.28793159822E+02  0.00000000000E+00 0.  1.
</event>
<event>
 7    1  0.1375918E-013  0.7246176E+02  0.7816164E-02  0.1226708E+00
        -11   -1    0    0    0    0  0.00000000000E+00  0.00000000000E+00  0.45593999997E+02  0.45594000000E+02  0.51100000000E-03 0.  1.
         11   -1    0    0    0    0 -0.00000000000E+00 -0.00000000000E+00 -0.45593999997E+02  0.45594000000E+02  0.51100000000E-03 0. -1.
    9900012    2    1    2    0    0 -0.16659440413E+02 -0.66920255116E+01  0.53246446552E+01  0.72461761696E+02  0.70000249335E+02 0.  0.
         12    1    1    2    0    0  0.16659440413E+02  0.66920255116E+01 -0.53246446552E+01  0.18726238304E+02  0.00000000000E+00 0. -1.
         11    1    3    3    0    0 -0.26024899190E+02 -0.20125185845E+02 -0.39094121374E+01  0.33130076768E+02  0.51100000000E-03 0. -1.
        -11    1    3    3    0    0 -0.81038513350E+01  0.10582909221E+02  0.15602182563E+02  0.20520684077E+02  0.51100000000E-03 0.  1.
         12    1    3    3    0    0  0.17469310112E+02  0.28502511124E+01 -0.63681257700E+01  0.18811000851E+02  0.00000000000E+00 0. -1.
</event>
<event>
 7    1  0.1375918E-013  0.7246156E+02  0.7816164E-02  0.1226708E+00
        -11   -1    0    0    0    0  0.00000000000E+00  0.00000000000E+00  0.45593999997E+02  0.45594000000E+02  0.51100000000E-03 0.  1.
         11   -1    0    0    0    0 -0.00000000000E+00 -0.00000000000E+00 -0.45593999997E+02  0.45594000000E+02  0.51100000000E-03 0. -1.
    9900012    2    1    2    0    0 -0.17655009033E+02  0.62280785432E+01 -0.43712597296E+00  0.72461564530E+02  0.69999992491E+02 0.  0.
         12    1    1    2    0    0  0.17655009033E+02 -0.62280785432E+01  0.43712597296E+00  0.18726435470E+02  0.00000000000E+00 0. -1.
         11    1    3    3    0    0 -0.98022543309E+01  0.11922643558E+02 -0.17376080284E+02  0.23241380890E+02  0.51100000000E-03 0. -1.
        -11    1    3    3    0    0 -0.13455012297E+02 -0.23032947551E+02  0.15710970513E+02  0.30957852372E+02  0.51100000000E-03 0.  1.
         12    1    3    3    0    0  0.56022575953E+01  0.17338382536E+02  0.12279837976E+01  0.18262331268E+02  0.00000000000E+00 0. -1.
</event>
<event>
 7    1  0.1375918E-013  0.7246151E+02  0.7816164E-02  0.1226708E+00
        -11   -1    0    0    0    0  0.00000000000E+00  0.00000000000E+00  0.45593999997E+02  0.45594000000E+02  0.51100000000E-03 0.  1.
         11   -1    0    0    0    0 -0.00000000000E+00 -0.00000000000E+00 -0.45593999997E+02  0.45594000000E+02  0.51100000000E-03 0. -1.
    9900012    2    1    2    0    0  0.16504014210E+02 -0.82707839908E+01 -0.31453299318E+01  0.72461509318E+02  0.69999920567E+02 0.  0.
         12    1    1    2    0    0 -0.16504014210E+02  0.82707839908E+01  0.31453299318E+01  0.18726490682E+02  0.00000000000E+00 0. -1.
         11    1    3    3    0    0 -0.85541659763E+01 -0.27500386336E+02 -0.35739084566E+01  0.29020989405E+02  0.51100000000E-03 0. -1.
        -11    1    3    3    0    0  0.67179777464E+01  0.14192057532E+02  0.13214876464E+02  0.20522638285E+02  0.51100000000E-03 0.  1.
        -12    1    3    3    0    0  0.18340202440E+02  0.50375448130E+01 -0.12786297939E+02  0.22917881627E+02  0.00000000000E+00 0.  1.
</event>
<event>
 7    1  0.1375918E-013  0.7246155E+02  0.7816164E-02  0.1226708E+00
        -11   -1    0    0    0    0  0.00000000000E+00  0.00000000000E+00  0.45593999997E+02  0.45594000000E+02  0.51100000000E-03 0. -1.
         11   -1    0    0    0    0 -0.00000000000E+00 -0.00000000000E+00 -0.45593999997E+02  0.45594000000E+02  0.51100000000E-03 0.  1.
    9900012    2    1    2    0    0  0.17739753546E+02  0.54928360067E+01 -0.24103315890E+01  0.72461553416E+02  0.69999978013E+02 0.  0.
         12    1    1    2    0    0 -0.17739753546E+02 -0.54928360067E+01  0.24103315890E+01  0.18726446584E+02  0.00000000000E+00 0. -1.
         11    1    3    3    0    0  0.66141798453E+01 -0.15448474849E+02  0.19989366722E+02  0.26114699546E+02  0.51100000000E-03 0. -1.
        -11    1    3    3    0    0 -0.14381422546E+01  0.50434496932E+01 -0.25335208164E+02  0.25872329059E+02  0.51100000000E-03 0.  1.
         12    1    3    3    0    0  0.12563715955E+02  0.15897861162E+02  0.29355098530E+01  0.20474524811E+02  0.00000000000E+00 0. -1.
</event>
<event>
 7    1  0.1375918E-013  0.7246148E+02  0.7816164E-02  0.1226708E+00
        -11   -1    0    0    0    0  0.00000000000E+00  0.00000000000E+00  0.45593999997E+02  0.45594000000E+02  0.51100000000E-03 0. -1.
         11   -1    0    0    0    0 -0.00000000000E+00 -0.00000000000E+00 -0.45593999997E+02  0.45594000000E+02  0.51100000000E-03 0.  1.
    9900012    2    1    2    0    0  0.12390454145E+02  0.77789756531E+01 -0.11689603363E+02  0.72461477555E+02  0.69999879189E+02 0.  0.
         12    1    1    2    0    0 -0.12390454145E+02 -0.77789756531E+01  0.11689603363E+02  0.18726522445E+02  0.00000000000E+00 0. -1.
         11    1    3    3    0    0  0.11078434156E+02 -0.19480059871E+02 -0.16072821265E+02  0.27577890050E+02  0.51100000000E-03 0. -1.
        -11    1    3    3    0    0 -0.31935830517E+01  0.35228600335E+02  0.49162500505E+01  0.35713061604E+02  0.51100000000E-03 0.  1.
        -12    1    3    3    0    0  0.45056030403E+01 -0.79695648109E+01 -0.53303214774E+00  0.91705259011E+01  0.00000000000E+00 0.  1.
</event>
<event>
 7    1  0.1375918E-013  0.7246158E+02  0.7816164E-02  0.1226708E+00
        -11   -1    0    0    0    0  0.00000000000E+00  0.00000000000E+00  0.45593999997E+02  0.45594000000E+02  0.51100000000E-03 0.  1.
         11   -1    0    0    0    0 -0.00000000000E+00 -0.00000000000E+00 -0.45593999997E+02  0.45594000000E+02  0.51100000000E-03 0. -1.
    9900012    2    1    2    0    0 -0.12616419139E+02  0.10595446891E+02  0.89017522077E+01  0.72461582321E+02  0.70000015667E+02 0.  0.
         12    1    1    2    0    0  0.12616419139E+02 -0.10595446891E+02 -0.89017522077E+01  0.18726417679E+02  0.00000000000E+00 0. -1.
         11    1    3    3    0    0 -0.11004349173E+02  0.10160961913E+02 -0.18789575132E+02  0.24028919693E+02  0.51100000000E-03 0. -1.
        -11    1    3    3    0    0 -0.12612156756E+02  0.20611451779E+01  0.33523193512E+02  0.35876445211E+02  0.51100000000E-03 0.  1.
         12    1    3    3    0    0  0.11000086789E+02 -0.16266601997E+01 -0.58318661725E+01  0.12556217417E+02  0.00000000000E+00 0. -1.
</event>
<event>
 7    1  0.1375918E-013  0.7246145E+02  0.7816164E-02  0.1226708E+00
        -11   -1    0    0    0    0  0.00000000000E+00  0.00000000000E+00  0.45593999997E+02  0.45594000000E+02  0.51100000000E-03 0. -1.
         11   -1    0    0    0    0 -0.00000000000E+00 -0.00000000000E+00 -0.45593999997E+02  0.45594000000E+02  0.51100000000E-03 0.  1.
    9900012    2    1    2    0    0 -0.14760194145E+02  0.10987529446E+02  0.34777029548E+01  0.72461453272E+02  0.69999847556E+02 0.  0.
         12    1    1    2    0    0  0.14760194145E+02 -0.10987529446E+02 -0.34777029548E+01  0.18726546728E+02  0.00000000000E+00 0. -1.
         11    1    3    3    0    0  0.11366520841E+02 -0.69695711643E+01 -0.21968696418E+02  0.25698177772E+02  0.51100000000E-03 0. -1.
        -11    1    3    3    0    0 -0.10545412362E+02  0.25718610231E+01  0.22086884030E+02  0.24609970285E+02  0.51100000000E-03 0.  1.
        -12    1    3    3    0    0 -0.15581302624E+02  0.15385239587E+02  0.33595153435E+01  0.22153305215E+02  0.00000000000E+00 0.  1.
</event>
<event>
 7    1  0.1375918E-013  0.7246156E+02  0.7816164E-02  0.1226708E+00
        -11   -1    0    0    0    0  0.00000000000E+00  0.00000000000E+00  0.45593999997E+02  0.45594000000E+02  0.51100000000E-03 0.  1.
         11   -1    0    0    0    0 -0.00000000000E+00 -0.00000000000E+00 -0.45593999997E+02  0.45594000000E+02  0.51100000000E-03 0. -1.
    9900012    2    1    2    0    0  0.18041496138E+02  0.75895171283E+00  0.49606435639E+01  0.72461559463E+02  0.69999985890E+02 0.  0.
         12    1    1    2    0    0 -0.18041496138E+02 -0.75895171283E+00 -0.49606435639E+01  0.18726440537E+02  0.00000000000E+00 0. -1.
         11    1    3    3    0    0 -0.78193423501E+01 -0.11539228909E+02 -0.14437054477E+02  0.20067995934E+02  0.51100000000E-03 0. -1.
        -11    1    3    3    0    0  0.20819938700E+02  0.14981118596E+02  0.30534517180E+02  0.39878070434E+02  0.51100000000E-03 0.  1.
        -12    1    3    3    0    0  0.50408997888E+01 -0.26829379748E+01 -0.11136819140E+02  0.12515493095E+02  0.00000000000E+00 0.  1.
</event>
<event>
 7    1  0.1375918E-013  0.7246158E+02  0.7816164E-02  0.1226708E+00
        -11   -1    0    0    0    0  0.00000000000E+00  0.00000000000E+00  0.45593999997E+02  0.45594000000E+02  0.51100000000E-03 0.  1.
         11   -1    0    0    0    0 -0.00000000000E+00 -0.00000000000E+00 -0.45593999997E+02  0.45594000000E+02  0.51100000000E-03 0. -1.
    9900012    2    1    2    0    0  0.24030982391E+01  0.73160088661E+01  0.17069854982E+02  0.72461579734E+02  0.70000012296E+02 0.  0.
         12    1    1    2    0    0 -0.24030982391E+01 -0.73160088661E+01 -0.17069854982E+02  0.18726420266E+02  0.00000000000E+00 0. -1.
         11    1    3    3    0    0 -0.26735687079E+01  0.10223391773E+02 -0.11519204944E+02  0.15631947792E+02  0.51100000000E-03 0. -1.
        -11    1    3    3    0    0 -0.28067372878E+01 -0.90274448073E+01  0.40328228828E+02  0.41421474800E+02  0.51100000000E-03 0.  1.
        -12    1    3    3    0    0  0.78834042348E+01  0.61200619004E+01 -0.11739168902E+02  0.15408157142E+02  0.00000000000E+00 0.  1.
</event>
<event>
 7    1  0.1375918E-013  0.7246148E+02  0.7816164E-02  0.1226708E+00
        -11   -1    0    0    0    0  0.00000000000E+00  0.00000000000E+00  0.45593999997E+02  0.45594000000E+02  0.51100000000E-03 0. -1.
         11   -1    0    0    0    0 -0.00000000000E+00 -0.00000000000E+00 -0.45593999997E+02  0.45594000000E+02  0.51100000000E-03 0.  1.
    9900012    2    1    2    0    0  0.10082450389E+02 -0.11973657649E+02 -0.10279029239E+02  0.72461475350E+02  0.69999876318E+02 0.  0.
         12    1    1    2    0    0 -0.10082450389E+02  0.11973657649E+02  0.10279029239E+02  0.18726524650E+02  0.00000000000E+00 0. -1.
         11    1    3    3    0    0  0.83702054572E+01 -0.23405533378E+02 -0.14891664661E+02  0.28976559643E+02  0.51100000000E-03 0. -1.
        -11    1    3    3    0    0  0.11871326947E+02  0.20074508963E+02 -0.84598560008E+01  0.24808939465E+02  0.51100000000E-03 0.  1.
        -12    1    3    3    0    0 -0.10159082015E+02 -0.86426332341E+01  0.13072491422E+02  0.18675976242E+02  0.00000000000E+00 0.  1.
</event>
<event>
 7    1  0.1375918E-013  0.7246155E+02  0.7816164E-02  0.1226708E+00
        -11   -1    0    0    0    0  0.00000000000E+00  0.00000000000E+00  0.45593999997E+02  0.45594000000E+02  0.51100000000E-03 0. -1.
         11   -1    0    0    0    0 -0.00000000000E+00 -0.00000000000E+00 -0.45593999997E+02  0.45594000000E+02  0.51100000000E-03 0.  1.
    9900012    2    1    2    0    0 -0.87193399252E+01  0.12916257082E+02 -0.10383806900E+02  0.72461547280E+02  0.69999970020E+02 0.  0.
         12    1    1    2    0    0  0.87193399252E+01 -0.12916257082E+02  0.10383806900E+02  0.18726452720E+02  0.00000000000E+00 0. -1.
         11    1    3    3    0    0  0.24776181438E+02  0.32036469663E+00 -0.16608883923E+02  0.29829797613E+02  0.51100000000E-03 0. -1.
        -11    1    3    3    0    0 -0.10187454977E+02  0.82050082676E+01 -0.76498199473E+01  0.15153420243E+02  0.51100000000E-03 0.  1.
         12    1    3    3    0    0 -0.23308066387E+02  0.43908841176E+01  0.13874896970E+02  0.27478329424E+02  0.00000000000E+00 0. -1.
</event>
<event>
 7    1  0.1375918E-013  0.7246131E+02  0.7816164E-02  0.1226709E+00
        -11   -1    0    0    0    0  0.00000000000E+00  0.00000000000E+00  0.45593999997E+02  0.45594000000E+02  0.51100000000E-03 0.  1.
         11   -1    0    0    0    0 -0.00000000000E+00 -0.00000000000E+00 -0.45593999997E+02  0.45594000000E+02  0.51100000000E-03 0. -1.
    9900012    2    1    2    0    0 -0.16993630764E+01 -0.18480913737E+02  0.25013949723E+01  0.72461308241E+02  0.69999658626E+02 0.  0.
         12    1    1    2    0    0  0.16993630764E+01  0.18480913737E+02 -0.25013949723E+01  0.18726691759E+02  0.00000000000E+00 0. -1.
         11    1    3    3    0    0  0.10308673340E+02 -0.35156971648E+02 -0.30575989359E+01  0.36764525197E+02  0.51100000000E-03 0. -1.
        -11    1    3    3    0    0 -0.15485147292E+02 -0.16122501036E+01 -0.18135521139E+01  0.15674122259E+02  0.51100000000E-03 0.  1.
         12    1    3    3    0    0  0.34771108755E+01  0.18288308014E+02  0.73725460221E+01  0.20022660785E+02  0.00000000000E+00 0. -1.
</event>
<event>
 7    1  0.1375918E-013  0.7246156E+02  0.7816164E-02  0.1226708E+00
        -11   -1    0    0    0    0  0.00000000000E+00  0.00000000000E+00  0.45593999997E+02  0.45594000000E+02  0.51100000000E-03 0. -1.
         11   -1    0    0    0    0 -0.00000000000E+00 -0.00000000000E+00 -0.45593999997E+02  0.45594000000E+02  0.51100000000E-03 0.  1.
    9900012    2    1    2    0    0 -0.15009442275E+02 -0.10881121779E+02 -0.26452667644E+01  0.72461558672E+02  0.69999984859E+02 0.  0.
         12    1    1    2    0    0  0.15009442275E+02  0.10881121779E+02  0.26452667644E+01  0.18726441328E+02  0.00000000000E+00 0. -1.
         11    1    3    3    0    0 -0.65848066689E+01  0.13629469309E+01  0.67133281265E+01  0.95018986522E+01  0.51100000000E-03 0. -1.
        -11    1    3    3    0    0  0.20853515188E+02  0.69299671526E+01  0.86308525574E+01  0.23609005836E+02  0.51100000000E-03 0.  1.
        -12    1    3    3    0    0 -0.29278150794E+02 -0.19174035862E+02 -0.17989447448E+02  0.39350654183E+02  0.00000000000E+00 0.  1.
</event>
<event>
 7    1  0.1375918E-013  0.7246152E+02  0.7816164E-02  0.1226708E+00
        -11   -1    0    0    0    0  0.00000000000E+00  0.00000000000E+00  0.45593999997E+02  0.45594000000E+02  0.51100000000E-03 0. -1.
         11   -1    0    0    0    0 -0.00000000000E+00 -0.00000000000E+00 -0.45593999997E+02  0.45594000000E+02  0.51100000000E-03 0.  1.
    9900012    2    1    2    0    0 -0.72030626949E+01  0.17261586357E+02  0.91357603649E+00  0.72461518832E+02  0.69999932961E+02 0.  0.
         12    1    1    2    0    0  0.72030626949E+01 -0.17261586357E+02 -0.91357603649E+00  0.18726481168E+02  0.00000000000E+00 0. -1.
         11    1    3    3    0    0 -0.47410577241E+01 -0.44140194299E+01  0.72327800917E-01  0.64781500016E+01  0.51100000000E-03 0. -1.
        -11    1    3    3    0    0  0.18363349253E+02  0.19607462634E+02 -0.22205019106E+02  0.34852949093E+02  0.51100000000E-03 0.  1.
        -12    1    3    3    0    0 -0.20825354224E+02  0.20681431537E+01  0.23046267342E+02  0.31130419738E+02  0.00000000000E+00 0.  1.
</event>
<event>
 7    1  0.1375918E-013  0.7246176E+02  0.7816164E-02  0.1226708E+00
        -11   -1    0    0    0    0  0.00000000000E+00  0.00000000000E+00  0.45593999997E+02  0.45594000000E+02  0.51100000000E-03 0. -1.
         11   -1    0    0    0    0 -0.00000000000E+00 -0.00000000000E+00 -0.45593999997E+02  0.45594000000E+02  0.51100000000E-03 0.  1.
    9900012    2    1    2    0    0 -0.70276988993E+01  0.54389747885E+01 -0.16483360565E+02  0.72461757075E+02  0.70000243316E+02 0.  0.
         12    1    1    2    0    0  0.70276988993E+01 -0.54389747885E+01  0.16483360565E+02  0.18726242925E+02  0.00000000000E+00 0. -1.
         11    1    3    3    0    0  0.18751450490E+02  0.18658414956E+02 -0.55328465389E+01  0.27025279559E+02  0.51100000000E-03 0. -1.
        -11    1    3    3    0    0 -0.23846704615E+02  0.24833984216E+01  0.32275396989E+01  0.24191932570E+02  0.51100000000E-03 0.  1.
         12    1    3    3    0    0 -0.19324447740E+01 -0.15702838589E+02 -0.14178053725E+02  0.21244544946E+02  0.00000000000E+00 0. -1.
</event>
<event>
 7    1  0.1375918E-013  0.7246156E+02  0.7816164E-02  0.1226708E+00
        -11   -1    0    0    0    0  0.00000000000E+00  0.00000000000E+00  0.45593999997E+02  0.45594000000E+02  0.51100000000E-03 0.  1.
         11   -1    0    0    0    0 -0.00000000000E+00 -0.00000000000E+00 -0.45593999997E+02  0.45594000000E+02  0.51100000000E-03 0. -1.
    9900012    2    1    2    0    0  0.14345672692E+02 -0.11418227533E+02 -0.38085942045E+01  0.72461557871E+02  0.69999983817E+02 0.  0.
         12    1    1    2    0    0 -0.14345672692E+02  0.11418227533E+02  0.38085942045E+01  0.18726442129E+02  0.00000000000E+00 0. -1.
         11    1    3    3    0    0 -0.12192999396E+01 -0.14656159666E+02 -0.28820549346E+02  0.32356046937E+02  0.51100000000E-03 0. -1.
        -11    1    3    3    0    0  0.56060556607E+01  0.14915829416E+02  0.11417712976E+02  0.19602907874E+02  0.51100000000E-03 0.  1.
        -12    1    3    3    0    0  0.99589169708E+01 -0.11677897284E+02  0.13594242166E+02  0.20502603061E+02  0.00000000000E+00 0.  1.
</event>
<event>
 7    1  0.1375918E-013  0.7246157E+02  0.7816164E-02  0.1226708E+00
        -11   -1    0    0    0    0  0.00000000000E+00  0.00000000000E+00  0.45593999997E+02  0.45594000000E+02  0.51100000000E-03 0. -1.
         11   -1    0    0    0    0 -0.00000000000E+00 -0.00000000000E+00 -0.45593999997E+02  0.45594000000E+02  0.51100000000E-03 0.  1.
    9900012    2    1    2    0    0  0.60104264930E+01  0.11049251169E+02 -0.13873278588E+02  0.72461573838E+02  0.70000004616E+02 0.  0.
         12    1    1    2    0    0 -0.60104264930E+01 -0.11049251169E+02  0.13873278588E+02  0.18726426162E+02  0.00000000000E+00 0. -1.
         11    1    3    3    0    0  0.20286886804E+02 -0.11007919918E+02 -0.46125841177E+01  0.23537374740E+02  0.51100000000E-03 0. -1.
        -11    1    3    3    0    0 -0.24842779429E+02  0.20407835074E+02 -0.16374475250E+02  0.36080006404E+02  0.51100000000E-03 0.  1.
        -12    1    3    3    0    0  0.10566319118E+02  0.16493360139E+01  0.71137807789E+01  0.12844192694E+02  0.00000000000E+00 0.  1.
</event>
<event>
 7    1  0.1375918E-013  0.7246168E+02  0.7816164E-02  0.1226708E+00
        -11   -1    0    0    0    0  0.00000000000E+00  0.00000000000E+00  0.45593999997E+02  0.45594000000E+02  0.51100000000E-03 0. -1.
         11   -1    0    0    0    0 -0.00000000000E+00 -0.00000000000E+00 -0.45593999997E+02  0.45594000000E+02  0.51100000000E-03 0.  1.
    9900012    2    1    2    0    0  0.17443586265E+02  0.45780139049E+01 -0.50436324657E+01  0.72461677842E+02  0.70000140101E+02 0.  0.
         12    1    1    2    0    0 -0.17443586265E+02 -0.45780139049E+01  0.50436324657E+01  0.18726322158E+02  0.00000000000E+00 0. -1.
         11    1    3    3    0    0 -0.52350560904E+01  0.15166789464E+02  0.90120860140E+01  0.18402581599E+02  0.51100000000E-03 0. -1.
        -11    1    3    3    0    0  0.79188841692E+01 -0.24775356175E+02 -0.19922043318E+02  0.32763009787E+02  0.51100000000E-03 0.  1.
        -12    1    3    3    0    0  0.14759758186E+02  0.14186580615E+02  0.58663248378E+01  0.21296086457E+02  0.00000000000E+00 0.  1.
</event>
<event>
 7    1  0.1375918E-013  0.7246156E+02  0.7816164E-02  0.1226708E+00
        -11   -1    0    0    0    0  0.00000000000E+00  0.00000000000E+00  0.45593999997E+02  0.45594000000E+02  0.51100000000E-03 0.  1.
         11   -1    0    0    0    0 -0.00000000000E+00 -0.00000000000E+00 -0.45593999997E+02  0.45594000000E+02  0.51100000000E-03 0. -1.
    9900012    2    1    2    0    0 -0.17184201075E+02 -0.61258562754E+01 -0.42257228036E+01  0.72461558402E+02  0.69999984508E+02 0.  0.
         12    1    1    2    0    0  0.17184201075E+02  0.61258562754E+01  0.42257228036E+01  0.18726441598E+02  0.00000000000E+00 0. -1.
         11    1    3    3    0    0 -0.17669523507E+02  0.14867346533E+02 -0.34927600743E+01  0.23354858747E+02  0.51100000000E-03 0. -1.
        -11    1    3    3    0    0 -0.27929716060E+01 -0.28356003209E+02  0.14426999206E+02  0.31937468822E+02  0.51100000000E-03 0.  1.
        -12    1    3    3    0    0  0.32782940374E+01  0.73628004000E+01 -0.15159961936E+02  0.17169230834E+02  0.00000000000E+00 0.  1.
</event>
<event>
 7    1  0.1375918E-013  0.7246155E+02  0.7816164E-02  0.1226708E+00
        -11   -1    0    0    0    0  0.00000000000E+00  0.00000000000E+00  0.45593999997E+02  0.45594000000E+02  0.51100000000E-03 0.  1.
         11   -1    0    0    0    0 -0.00000000000E+00 -0.00000000000E+00 -0.45593999997E+02  0.45594000000E+02  0.51100000000E-03 0. -1.
    9900012    2    1    2    0    0 -0.10050376380E+02  0.53596580585E+01  0.14864177859E+02  0.72461553906E+02  0.69999978651E+02 0.  0.
         12    1    1    2    0    0  0.10050376380E+02 -0.53596580585E+01 -0.14864177859E+02  0.18726446094E+02  0.00000000000E+00 0. -1.
         11    1    3    3    0    0 -0.75783515860E+01 -0.53622280753E+01  0.30088458931E+02  0.31488097177E+02  0.51100000000E-03 0. -1.
        -11    1    3    3    0    0 -0.12433059805E+02  0.17305060049E+02  0.39655895710E+00  0.21312046797E+02  0.51100000000E-03 0.  1.
         12    1    3    3    0    0  0.99610350102E+01 -0.65831739155E+01 -0.15620840029E+02  0.19661409932E+02  0.00000000000E+00 0. -1.
</event>
<event>
 7    1  0.1375918E-013  0.7246159E+02  0.7816164E-02  0.1226708E+00
        -11   -1    0    0    0    0  0.00000000000E+00  0.00000000000E+00  0.45593999997E+02  0.45594000000E+02  0.51100000000E-03 0.  1.
         11   -1    0    0    0    0 -0.00000000000E+00 -0.00000000000E+00 -0.45593999997E+02  0.45594000000E+02  0.51100000000E-03 0. -1.
    9900012    2    1    2    0    0  0.59278486470E+01  0.16120368098E+02  0.74614267360E+01  0.72461586939E+02  0.70000021682E+02 0.  0.
         12    1    1    2    0    0 -0.59278486470E+01 -0.16120368098E+02 -0.74614267360E+01  0.18726413061E+02  0.00000000000E+00 0. -1.
         11    1    3    3    0    0 -0.53376900019E+01  0.84223729598E+01 -0.21126633788E+02  0.23361548671E+02  0.51100000000E-03 0. -1.
        -11    1    3    3    0    0 -0.52353254176E+01  0.13997811546E+02  0.27628430412E+02  0.31411423520E+02  0.51100000000E-03 0.  1.
         12    1    3    3    0    0  0.16500864067E+02 -0.62998164077E+01  0.95963011278E+00  0.17688614747E+02  0.00000000000E+00 0. -1.
</event>
<event>
 7    1  0.1375918E-013  0.7246156E+02  0.7816164E-02  0.1226708E+00
        -11   -1    0    0    0    0  0.00000000000E+00  0.00000000000E+00  0.45593999997E+02  0.45594000000E+02  0.51100000000E-03 0.  1.
         11   -1    0    0    0    0 -0.00000000000E+00 -0.00000000000E+00 -0.45593999997E+02  0.45594000000E+02  0.51100000000E-03 0. -1.
    9900012    2    1    2    0    0  0.17956618312E+02  0.43310198740E+01  0.30792050310E+01  0.72461564729E+02  0.69999992750E+02 0.  0.
         12    1    1    2    0    0 -0.17956618312E+02 -0.43310198740E+01 -0.30792050310E+01  0.18726435271E+02  0.00000000000E+00 0. -1.
         11    1    3    3    0    0  0.21186711515E+02 -0.37867765613E+01 -0.14894953522E+02  0.26173957711E+02  0.51100000000E-03 0. -1.
        -11    1    3    3    0    0 -0.18807031026E+02 -0.61974563464E+01  0.22521233813E+01  0.19929499270E+02  0.51100000000E-03 0.  1.
         12    1    3    3    0    0  0.15576937822E+02  0.14315252782E+02  0.15722035172E+02  0.26358107748E+02  0.00000000000E+00 0. -1.
</event>
<event>
 7    1  0.1375918E-013  0.7246157E+02  0.7816164E-02  0.1226708E+00
        -11   -1    0    0    0    0  0.00000000000E+00  0.00000000000E+00  0.45593999997E+02  0.45594000000E+02  0.51100000000E-03 0.  1.
         11   -1    0    0    0    0 -0.00000000000E+00 -0.00000000000E+00 -0.45593999997E+02  0.45594000000E+02  0.51100000000E-03 0. -1.
    9900012    2    1    2    0    0  0.61767558905E+01  0.44460099881E+01  0.17110224971E+02  0.72461571705E+02  0.70000001837E+02 0.  0.
         12    1    1    2    0    0 -0.61767558905E+01 -0.44460099881E+01 -0.17110224971E+02  0.18726428295E+02  0.00000000000E+00 0. -1.
         11    1    3    3    0    0 -0.80560010723E+01  0.14532465842E+02 -0.10029195577E+02  0.19408155010E+02  0.51100000000E-03 0. -1.
        -11    1    3    3    0    0  0.98313754225E+00 -0.12759052167E+02  0.35104782201E+02  0.37364497926E+02  0.51100000000E-03 0.  1.
        -12    1    3    3    0    0  0.13249619421E+02  0.26725963136E+01 -0.79653616529E+01  0.15688918768E+02  0.00000000000E+00 0.  1.
</event>
<event>
 7    1  0.1375918E-013  0.7246158E+02  0.7816164E-02  0.1226708E+00
        -11   -1    0    0    0    0  0.00000000000E+00  0.00000000000E+00  0.45593999997E+02  0.45594000000E+02  0.51100000000E-03 0. -1.
         11   -1    0    0    0    0 -0.00000000000E+00 -0.00000000000E+00 -0.45593999997E+02  0.45594000000E+02  0.51100000000E-03 0.  1.
    9900012    2    1    2    0    0  0.10120040907E+02 -0.11878890692E+02 -0.10351590744E+02  0.72461582751E+02  0.70000016228E+02 0.  0.
         12    1    1    2    0    0 -0.10120040907E+02  0.11878890692E+02  0.10351590744E+02  0.18726417249E+02  0.00000000000E+00 0. -1.
         11    1    3    3    0    0  0.52440652370E+01  0.75052580197E+01  0.26152030928E+02  0.27708443479E+02  0.51100000000E-03 0. -1.
        -11    1    3    3    0    0  0.77148637739E+01 -0.92444472648E+01 -0.30125025573E+02  0.32442196201E+02  0.51100000000E-03 0.  1.
         12    1    3    3    0    0 -0.28388881042E+01 -0.10139701447E+02 -0.63785960984E+01  0.12310943071E+02  0.00000000000E+00 0. -1.
</event>
<event>
 7    1  0.1375918E-013  0.7246142E+02  0.7816164E-02  0.1226708E+00
        -11   -1    0    0    0    0  0.00000000000E+00  0.00000000000E+00  0.45593999997E+02  0.45594000000E+02  0.51100000000E-03 0.  1.
         11   -1    0    0    0    0 -0.00000000000E+00 -0.00000000000E+00 -0.45593999997E+02  0.45594000000E+02  0.51100000000E-03 0. -1.
    9900012    2    1    2    0    0 -0.12886974154E+02 -0.67470104959E+01  0.11793572979E+02  0.72461424843E+02  0.69999810523E+02 0.  0.
         12    1    1    2    0    0  0.12886974154E+02  0.67470104959E+01 -0.11793572979E+02  0.18726575157E+02  0.00000000000E+00 0. -1.
         11    1    3    3    0    0 -0.93060705313E+00 -0.24838934585E+00 -0.88497067210E+01  0.89019681005E+01  0.51100000000E-03 0. -1.
        -11    1    3    3    0    0 -0.34390834622E+02  0.35264326783E+00  0.20623482787E+02  0.40102143406E+02  0.51100000000E-03 0.  1.
        -12    1    3    3    0    0  0.22434467521E+02 -0.68512644179E+01  0.19796913128E-01  0.23457313337E+02  0.00000000000E+00 0.  1.
</event>
<event>
 7    1  0.1375918E-013  0.7246160E+02  0.7816164E-02  0.1226708E+00
        -11   -1    0    0    0    0  0.00000000000E+00  0.00000000000E+00  0.45593999997E+02  0.45594000000E+02  0.51100000000E-03 0.  1.
         11   -1    0    0    0    0 -0.00000000000E+00 -0.00000000000E+00 -0.45593999997E+02  0.45594000000E+02  0.51100000000E-03 0. -1.
    9900012    2    1    2    0    0  0.33531966273E+01  0.13208963690E+02  0.12843573804E+02  0.72461600521E+02  0.70000039376E+02 0.  0.
         12    1    1    2    0    0 -0.33531966273E+01 -0.13208963690E+02 -0.12843573804E+02  0.18726399479E+02  0.00000000000E+00 0. -1.
         11    1    3    3    0    0 -0.76147265712E+01 -0.15466713450E+02  0.78732085816E+01  0.18952327016E+02  0.51100000000E-03 0. -1.
        -11    1    3    3    0    0  0.21332086443E+02  0.95542941551E+01  0.16767623991E+02  0.28766224351E+02  0.51100000000E-03 0.  1.
        -12    1    3    3    0    0 -0.10364163245E+02  0.19121382984E+02 -0.11797258769E+02  0.24743049154E+02  0.00000000000E+00 0.  1.
</event>
<event>
 7    1  0.1375918E-013  0.7246148E+02  0.7816164E-02  0.1226708E+00
        -11   -1    0    0    0    0  0.00000000000E+00  0.00000000000E+00  0.45593999997E+02  0.45594000000E+02  0.51100000000E-03 0.  1.
         11   -1    0    0    0    0 -0.00000000000E+00 -0.00000000000E+00 -0.45593999997E+02  0.45594000000E+02  0.51100000000E-03 0. -1.
    9900012    2    1    2    0    0  0.98636493617E+01  0.83577366090E+01 -0.13547663932E+02  0.72461480356E+02  0.69999882839E+02 0.  0.
         12    1    1    2    0    0 -0.98636493617E+01 -0.83577366090E+01  0.13547663932E+02  0.18726519644E+02  0.00000000000E+00 0. -1.
         11    1    3    3    0    0 -0.13373843478E+02 -0.24905843221E+02 -0.12629649297E+02  0.30962376484E+02  0.51100000000E-03 0. -1.
        -11    1    3    3    0    0  0.14548786489E+02  0.17490055933E+02  0.33407093657E+01  0.22994120643E+02  0.51100000000E-03 0.  1.
         12    1    3    3    0    0  0.86887063505E+01  0.15773523898E+02 -0.42587240001E+01  0.18504983229E+02  0.00000000000E+00 0. -1.
</event>
<event>
 7    1  0.1375918E-013  0.7246153E+02  0.7816164E-02  0.1226708E+00
        -11   -1    0    0    0    0  0.00000000000E+00  0.00000000000E+00  0.45593999997E+02  0.45594000000E+02  0.51100000000E-03 0.  1.
         11   -1    0    0    0    0 -0.00000000000E+00 -0.00000000000E+00 -0.45593999997E+02  0.45594000000E+02  0.51100000000E-03 0. -1.
    9900012    2    1    2    0    0  0.11936928189E+02 -0.99091829388E+01  0.10488023142E+02  0.72461527013E+02  0.69999943618E+02 0.  0.
         12    1    1    2    0    0 -0.11936928189E+02  0.99091829388E+01 -0.10488023142E+02  0.18726472987E+02  0.00000000000E+00 0. -1.
         11    1    3    3    0    0  0.20983563695E+02 -0.24981950077E+02  0.13805232786E+02  0.35425869467E+02  0.51100000000E-03 0. -1.
        -11    1    3    3    0    0 -0.14029665554E+02  0.55379736648E+01  0.11328183482E+02  0.18863414567E+02  0.51100000000E-03 0.  1.
         12    1    3    3    0    0  0.49830300482E+01  0.95347934730E+01 -0.14645393127E+02  0.18172242978E+02  0.00000000000E+00 0. -1.
</event>
<event>
 7    1  0.1375918E-013  0.7246154E+02  0.7816164E-02  0.1226708E+00
        -11   -1    0    0    0    0  0.00000000000E+00  0.00000000000E+00  0.45593999997E+02  0.45594000000E+02  0.51100000000E-03 0. -1.
         11   -1    0    0    0    0 -0.00000000000E+00 -0.00000000000E+00 -0.45593999997E+02  0.45594000000E+02  0.51100000000E-03 0.  1.
    9900012    2    1    2    0    0  0.92023369155E+01  0.40356051297E+01 -0.15802254414E+02  0.72461538561E+02  0.69999958661E+02 0.  0.
         12    1    1    2    0    0 -0.92023369155E+01 -0.40356051297E+01  0.15802254414E+02  0.18726461439E+02  0.00000000000E+00 0. -1.
         11    1    3    3    0    0  0.33564645572E+02  0.17975940913E+02 -0.68194395118E+01  0.38681063062E+02  0.51100000000E-03 0. -1.
        -11    1    3    3    0    0 -0.10338028900E+02 -0.14487700724E+02 -0.85342999518E+01  0.19738353268E+02  0.51100000000E-03 0.  1.
         12    1    3    3    0    0 -0.14024279757E+02  0.54736494053E+00 -0.44851495034E+00  0.14042122231E+02  0.00000000000E+00 0. -1.
</event>
<event>
 7    1  0.1375918E-013  0.7246157E+02  0.7816164E-02  0.1226708E+00
        -11   -1    0    0    0    0  0.00000000000E+00  0.00000000000E+00  0.45593999997E+02  0.45594000000E+02  0.51100000000E-03 0.  1.
         11   -1    0    0    0    0 -0.00000000000E+00 -0.00000000000E+00 -0.45593999997E+02  0.45594000000E+02  0.51100000000E-03 0. -1.
    9900012    2    1    2    0    0 -0.10986969207E+02 -0.29561041696E+01  0.14873708988E+02  0.72461567792E+02  0.69999996740E+02 0.  0.
         12    1    1    2    0    0  0.10986969207E+02  0.29561041696E+01 -0.14873708988E+02  0.18726432208E+02  0.00000000000E+00 0. -1.
         11    1    3    3    0    0  0.19971142819E+02 -0.81261352902E+01 -0.26795578704E+01  0.21726956780E+02  0.51100000000E-03 0. -1.
        -11    1    3    3    0    0 -0.94263708720E+01  0.18661354470E+02  0.13797085363E+02  0.25049195262E+02  0.51100000000E-03 0.  1.
         12    1    3    3    0    0 -0.21531741154E+02 -0.13491323350E+02  0.37561814952E+01  0.25685415750E+02  0.00000000000E+00 0. -1.
</event>
<event>
 7    1  0.1375918E-013  0.7246155E+02  0.7816164E-02  0.1226708E+00
        -11   -1    0    0    0    0  0.00000000000E+00  0.00000000000E+00  0.45593999997E+02  0.45594000000E+02  0.51100000000E-03 0. -1.
         11   -1    0    0    0    0 -0.00000000000E+00 -0.00000000000E+00 -0.45593999997E+02  0.45594000000E+02  0.51100000000E-03 0.  1.
    9900012    2    1    2    0    0 -0.14405857473E+02 -0.23452298970E+01 -0.11732478604E+02  0.72461551137E+02  0.69999975045E+02 0.  0.
         12    1    1    2    0    0  0.14405857473E+02  0.23452298970E+01  0.11732478604E+02  0.18726448863E+02  0.00000000000E+00 0. -1.
         11    1    3    3    0    0 -0.15774742033E+00 -0.69263293113E+01 -0.36370519589E+02  0.37024500231E+02  0.51100000000E-03 0. -1.
        -11    1    3    3    0    0 -0.63082860899E+01  0.63417940601E+01 -0.55664133328E+00  0.89622918457E+01  0.51100000000E-03 0.  1.
         12    1    3    3    0    0 -0.79398239630E+01 -0.17606946458E+01  0.25194682318E+02  0.26474759060E+02  0.00000000000E+00 0. -1.
</event>
<event>
 7    1  0.1375918E-013  0.7246141E+02  0.7816164E-02  0.1226708E+00
        -11   -1    0    0    0    0  0.00000000000E+00  0.00000000000E+00  0.45593999997E+02  0.45594000000E+02  0.51100000000E-03 0.  1.
         11   -1    0    0    0    0 -0.00000000000E+00 -0.00000000000E+00 -0.45593999997E+02  0.45594000000E+02  0.51100000000E-03 0. -1.
    9900012    2    1    2    0    0  0.48973362669E+01  0.17828463624E+02 -0.29743891821E+01  0.72461414388E+02  0.69999796902E+02 0.  0.
         12    1    1    2    0    0 -0.48973362669E+01 -0.17828463624E+02  0.29743891821E+01  0.18726585612E+02  0.00000000000E+00 0. -1.
         11    1    3    3    0    0  0.42957210549E+01  0.39736169997E+01 -0.22487685191E+02  0.23236584020E+02  0.51100000000E-03 0. -1.
        -11    1    3    3    0    0 -0.13237853574E+02 -0.46487433797E+01  0.21885647864E+02  0.25996791435E+02  0.51100000000E-03 0.  1.
        -12    1    3    3    0    0  0.13839468786E+02  0.18503590004E+02 -0.23723518555E+01  0.23228038932E+02  0.00000000000E+00 0.  1.
</event>
<event>
 7    1  0.1375918E-013  0.7246156E+02  0.7816164E-02  0.1226708E+00
        -11   -1    0    0    0    0  0.00000000000E+00  0.00000000000E+00  0.45593999997E+02  0.45594000000E+02  0.51100000000E-03 0. -1.
         11   -1    0    0    0    0 -0.00000000000E+00 -0.00000000000E+00 -0.45593999997E+02  0.45594000000E+02  0.51100000000E-03 0.  1.
    9900012    2    1    2    0    0  0.39150484486E+00 -0.17177653169E+02 -0.74467884792E+01  0.72461556048E+02  0.69999981442E+02 0.  0.
         12    1    1    2    0    0 -0.39150484486E+00  0.17177653169E+02  0.74467884792E+01  0.18726443952E+02  0.00000000000E+00 0. -1.
         11    1    3    3    0    0 -0.26285922275E+02 -0.29998647002E+01 -0.80312346412E+01  0.27648682215E+02  0.51100000000E-03 0. -1.
        -11    1    3    3    0    0  0.16722044051E+02 -0.19369973456E+02  0.12466836352E+02  0.28464796465E+02  0.51100000000E-03 0.  1.
        -12    1    3    3    0    0  0.99553830696E+01  0.51921849877E+01 -0.11882390190E+02  0.16348077368E+02  0.00000000000E+00 0.  1.
</event>
<event>
 7    1  0.1375918E-013  0.7246152E+02  0.7816164E-02  0.1226708E+00
        -11   -1    0    0    0    0  0.00000000000E+00  0.00000000000E+00  0.45593999997E+02  0.45594000000E+02  0.51100000000E-03 0. -1.
         11   -1    0    0    0    0 -0.00000000000E+00 -0.00000000000E+00 -0.45593999997E+02  0.45594000000E+02  0.51100000000E-03 0.  1.
    9900012    2    1    2    0    0 -0.89259703945E+01  0.16509550154E+01 -0.16379326318E+02  0.72461523274E+02  0.69999938747E+02 0.  0.
         12    1    1    2    0    0  0.89259703945E+01 -0.16509550154E+01  0.16379326318E+02  0.18726476726E+02  0.00000000000E+00 0. -1.
         11    1    3    3    0    0  0.15469616927E+02 -0.11499148555E+02  0.53282976091E+00  0.19282722141E+02  0.51100000000E-03 0. -1.
        -11    1    3    3    0    0 -0.27208376550E+02  0.22830547072E+02 -0.22109254581E+02  0.41837169748E+02  0.51100000000E-03 0.  1.
        -12    1    3    3    0    0  0.28127892284E+01 -0.96804435010E+01  0.51970985024E+01  0.11341631385E+02  0.00000000000E+00 0.  1.
</event>
<event>
 7    1  0.1375918E-013  0.7246157E+02  0.7816164E-02  0.1226708E+00
        -11   -1    0    0    0    0  0.00000000000E+00  0.00000000000E+00  0.45593999997E+02  0.45594000000E+02  0.51100000000E-03 0.  1.
         11   -1    0    0    0    0 -0.00000000000E+00 -0.00000000000E+00 -0.45593999997E+02  0.45594000000E+02  0.51100000000E-03 0. -1.
    9900012    2    1    2    0    0 -0.97589243951E+01 -0.20289862088E+01  0.15853257772E+02  0.72461570218E+02  0.69999999900E+02 0.  0.
         12    1    1    2    0    0  0.97589243951E+01  0.20289862088E+01 -0.15853257772E+02  0.18726429782E+02  0.00000000000E+00 0. -1.
         11    1    3    3    0    0 -0.17750453141E+02 -0.26499325673E+02  0.87758528169E+01  0.33080333142E+02  0.51100000000E-03 0.  1.
        -11    1    3    3    0    0 -0.46623522723E+01  0.22786674711E+02 -0.25419602570E+01  0.23397257004E+02  0.51100000000E-03 0. -1.
        -12    1    3    3    0    0  0.12653881019E+02  0.16836647532E+01  0.96193652125E+01  0.15983980071E+02  0.00000000000E+00 0.  1.
</event>
<event>
 7    1  0.1375918E-013  0.7246159E+02  0.7816164E-02  0.1226708E+00
        -11   -1    0    0    0    0  0.00000000000E+00  0.00000000000E+00  0.45593999997E+02  0.45594000000E+02  0.51100000000E-03 0.  1.
         11   -1    0    0    0    0 -0.00000000000E+00 -0.00000000000E+00 -0.45593999997E+02  0.45594000000E+02  0.51100000000E-03 0. -1.
    9900012    2    1    2    0    0 -0.30925728311E+01  0.10744227345E+02  0.15022522457E+02  0.72461585263E+02  0.70000019499E+02 0.  0.
         12    1    1    2    0    0  0.30925728311E+01 -0.10744227345E+02 -0.15022522457E+02  0.18726414737E+02  0.00000000000E+00 0. -1.
         11    1    3    3    0    0 -0.12541597654E+00 -0.16878655367E+02  0.10957523683E+02  0.20123917653E+02  0.51100000000E-03 0. -1.
        -11    1    3    3    0    0  0.29956193773E+01  0.19083158436E+02  0.23419823681E+02  0.30358340087E+02  0.51100000000E-03 0.  1.
        -12    1    3    3    0    0 -0.59627762318E+01  0.85397242768E+01 -0.19354824908E+02  0.21979327522E+02  0.00000000000E+00 0.  1.
</event>
<event>
 7    1  0.1375918E-013  0.7246167E+02  0.7816164E-02  0.1226708E+00
        -11   -1    0    0    0    0  0.00000000000E+00  0.00000000000E+00  0.45593999997E+02  0.45594000000E+02  0.51100000000E-03 0. -1.
         11   -1    0    0    0    0 -0.00000000000E+00 -0.00000000000E+00 -0.45593999997E+02  0.45594000000E+02  0.51100000000E-03 0.  1.
    9900012    2    1    2    0    0 -0.24729153535E+01  0.63194494659E+01 -0.17453501866E+02  0.72461668824E+02  0.70000128354E+02 0.  0.
         12    1    1    2    0    0  0.24729153535E+01 -0.63194494659E+01  0.17453501866E+02  0.18726331176E+02  0.00000000000E+00 0. -1.
         11    1    3    3    0    0 -0.54716662484E+01 -0.16263778255E+02  0.20340492546E+02  0.26611750260E+02  0.51100000000E-03 0. -1.
        -11    1    3    3    0    0 -0.26654736278E+01  0.26225251294E+01 -0.12960846420E+02  0.13489474708E+02  0.51100000000E-03 0.  1.
         12    1    3    3    0    0  0.56642245227E+01  0.19960702591E+02 -0.24833147992E+02  0.32360443856E+02  0.00000000000E+00 0. -1.
</event>
<event>
 7    1  0.1375918E-013  0.7246159E+02  0.7816164E-02  0.1226708E+00
        -11   -1    0    0    0    0  0.00000000000E+00  0.00000000000E+00  0.45593999997E+02  0.45594000000E+02  0.51100000000E-03 0. -1.
         11   -1    0    0    0    0 -0.00000000000E+00 -0.00000000000E+00 -0.45593999997E+02  0.45594000000E+02  0.51100000000E-03 0.  1.
    9900012    2    1    2    0    0  0.91128677197E+01  0.14393318941E+02 -0.77760120058E+01  0.72461592151E+02  0.70000028472E+02 0.  0.
         12    1    1    2    0    0 -0.91128677197E+01 -0.14393318941E+02  0.77760120058E+01  0.18726407849E+02  0.00000000000E+00 0. -1.
         11    1    3    3    0    0  0.13009898951E+02 -0.12103709759E+02  0.45799475417E+01  0.18350291017E+02  0.51100000000E-03 0.  1.
        -11    1    3    3    0    0  0.78410206161E+01  0.24984302401E+02  0.10627013022E+02  0.28260049130E+02  0.51100000000E-03 0. -1.
        -12    1    3    3    0    0 -0.11738051848E+02  0.15127262989E+01 -0.22982972570E+02  0.25851252004E+02  0.00000000000E+00 0.  1.
</event>
<event>
 7    1  0.1375918E-013  0.7246154E+02  0.7816164E-02  0.1226708E+00
        -11   -1    0    0    0    0  0.00000000000E+00  0.00000000000E+00  0.45593999997E+02  0.45594000000E+02  0.51100000000E-03 0. -1.
         11   -1    0    0    0    0 -0.00000000000E+00 -0.00000000000E+00 -0.45593999997E+02  0.45594000000E+02  0.51100000000E-03 0.  1.
    9900012    2    1    2    0    0 -0.12260858400E+02 -0.80887270971E+01  0.11615686516E+02  0.72461539362E+02  0.69999959706E+02 0.  0.
         12    1    1    2    0    0  0.12260858400E+02  0.80887270971E+01 -0.11615686516E+02  0.18726460638E+02  0.00000000000E+00 0. -1.
         11    1    3    3    0    0 -0.61850641842E+01 -0.87385189342E+01 -0.14900670777E+02  0.18347935088E+02  0.51100000000E-03 0.  1.
        -11    1    3    3    0    0 -0.12351574694E+02  0.18142409511E+02  0.27876376962E+02  0.35479583045E+02  0.51100000000E-03 0. -1.
        -12    1    3    3    0    0  0.62757804776E+01 -0.17492617673E+02 -0.13600196694E+01  0.18634021229E+02  0.00000000000E+00 0.  1.
</event>
<event>
 7    1  0.1375918E-013  0.7246156E+02  0.7816164E-02  0.1226708E+00
        -11   -1    0    0    0    0  0.00000000000E+00  0.00000000000E+00  0.45593999997E+02  0.45594000000E+02  0.51100000000E-03 0.  1.
         11   -1    0    0    0    0 -0.00000000000E+00 -0.00000000000E+00 -0.45593999997E+02  0.45594000000E+02  0.51100000000E-03 0. -1.
    9900012    2    1    2    0    0  0.16405767963E+02  0.23123049217E+01  0.87283224404E+01  0.72461559091E+02  0.69999985405E+02 0.  0.
         12    1    1    2    0    0 -0.16405767963E+02 -0.23123049217E+01 -0.87283224404E+01  0.18726440909E+02  0.00000000000E+00 0. -1.
         11    1    3    3    0    0 -0.56031821470E+01  0.55319342732E+01 -0.16196772906E+02  0.18009258725E+02  0.51100000000E-03 0. -1.
        -11    1    3    3    0    0  0.32394970743E+02 -0.12146554210E+02  0.19559327722E+02  0.39743429769E+02  0.51100000000E-03 0.  1.
        -12    1    3    3    0    0 -0.10386020633E+02  0.89269248587E+01  0.53657676245E+01  0.14708870596E+02  0.00000000000E+00 0.  1.
</event>
<event>
 7    1  0.1375918E-013  0.7246158E+02  0.7816164E-02  0.1226708E+00
        -11   -1    0    0    0    0  0.00000000000E+00  0.00000000000E+00  0.45593999997E+02  0.45594000000E+02  0.51100000000E-03 0. -1.
         11   -1    0    0    0    0 -0.00000000000E+00 -0.00000000000E+00 -0.45593999997E+02  0.45594000000E+02  0.51100000000E-03 0.  1.
    9900012    2    1    2    0    0 -0.18344940140E+01  0.73921490002E+01 -0.17107590199E+02  0.72461578090E+02  0.70000010155E+02 0.  0.
         12    1    1    2    0    0  0.18344940140E+01 -0.73921490002E+01  0.17107590199E+02  0.18726421910E+02  0.00000000000E+00 0. -1.
         11    1    3    3    0    0  0.92344526530E+00  0.25580392373E+02  0.10124788712E+02  0.27526724684E+02  0.51100000000E-03 0. -1.
        -11    1    3    3    0    0  0.13452744572E+02 -0.62276606879E+01 -0.16227999899E+02  0.21979719633E+02  0.51100000000E-03 0.  1.
         12    1    3    3    0    0 -0.16210683851E+02 -0.11960582685E+02 -0.11004379012E+02  0.22955133773E+02  0.00000000000E+00 0. -1.
</event>
<event>
 7    1  0.1375918E-013  0.7246157E+02  0.7816164E-02  0.1226708E+00
        -11   -1    0    0    0    0  0.00000000000E+00  0.00000000000E+00  0.45593999997E+02  0.45594000000E+02  0.51100000000E-03 0. -1.
         11   -1    0    0    0    0 -0.00000000000E+00 -0.00000000000E+00 -0.45593999997E+02  0.45594000000E+02  0.51100000000E-03 0.  1.
    9900012    2    1    2    0    0  0.73241520884E+01  0.17039355873E+02 -0.25877559363E+01  0.72461565925E+02  0.69999994308E+02 0.  0.
         12    1    1    2    0    0 -0.73241520884E+01 -0.17039355873E+02  0.25877559363E+01  0.18726434075E+02  0.00000000000E+00 0. -1.
         11    1    3    3    0    0  0.26042189597E+02 -0.26710913565E+01 -0.14247452231E+02  0.29804702035E+02  0.51100000000E-03 0. -1.
        -11    1    3    3    0    0 -0.13725966868E+02  0.16957526892E+02 -0.71846445303E+01  0.22969087967E+02  0.51100000000E-03 0.  1.
         12    1    3    3    0    0 -0.49920706402E+01  0.27529203372E+01  0.18844340825E+02  0.19687775923E+02  0.00000000000E+00 0. -1.
</event>
<event>
 7    1  0.1375918E-013  0.7246156E+02  0.7816164E-02  0.1226708E+00
        -11   -1    0    0    0    0  0.00000000000E+00  0.00000000000E+00  0.45593999997E+02  0.45594000000E+02  0.51100000000E-03 0.  1.
         11   -1    0    0    0    0 -0.00000000000E+00 -0.00000000000E+00 -0.45593999997E+02  0.45594000000E+02  0.51100000000E-03 0. -1.
    9900012    2    1    2    0    0  0.13705856745E+02 -0.12659761303E+02  0.15998227651E+01  0.72461561517E+02  0.69999988566E+02 0.  0.
         12    1    1    2    0    0 -0.13705856745E+02  0.12659761303E+02 -0.15998227651E+01  0.18726438483E+02  0.00000000000E+00 0. -1.
         11    1    3    3    0    0 -0.16381111618E+02 -0.25425130669E+01  0.29582964985E+01  0.16839142168E+02  0.51100000000E-03 0.  1.
        -11    1    3    3    0    0  0.28552552221E+02  0.81867675365E+01 -0.14484227935E+02  0.33046395570E+02  0.51100000000E-03 0. -1.
        -12    1    3    3    0    0  0.15344161420E+01 -0.18304015773E+02  0.13125754202E+02  0.22576023779E+02  0.00000000000E+00 0.  1.
</event>
<event>
 7    1  0.1375918E-013  0.7246162E+02  0.7816164E-02  0.1226708E+00
        -11   -1    0    0    0    0  0.00000000000E+00  0.00000000000E+00  0.45593999997E+02  0.45594000000E+02  0.51100000000E-03 0.  1.
         11   -1    0    0    0    0 -0.00000000000E+00 -0.00000000000E+00 -0.45593999997E+02  0.45594000000E+02  0.51100000000E-03 0. -1.
    9900012    2    1    2    0    0  0.21984449681E+01 -0.17974742930E+02 -0.47699895594E+01  0.72461619034E+02  0.70000063493E+02 0.  0.
         12    1    1    2    0    0 -0.21984449681E+01  0.17974742930E+02  0.47699895594E+01  0.18726380966E+02  0.00000000000E+00 0. -1.
         11    1    3    3    0    0  0.95840559638E+00 -0.28283113682E+02 -0.13313630660E+02  0.31274683411E+02  0.51100000000E-03 0. -1.
        -11    1    3    3    0    0  0.20079944953E+02  0.61099380815E+01  0.44923249799E+01  0.21464307971E+02  0.51100000000E-03 0.  1.
        -12    1    3    3    0    0 -0.18839905581E+02  0.41984326712E+01  0.40513161211E+01  0.19722627652E+02  0.00000000000E+00 0.  1.
</event>
<event>
 7    1  0.1375918E-013  0.7246152E+02  0.7816164E-02  0.1226708E+00
        -11   -1    0    0    0    0  0.00000000000E+00  0.00000000000E+00  0.45593999997E+02  0.45594000000E+02  0.51100000000E-03 0.  1.
         11   -1    0    0    0    0 -0.00000000000E+00 -0.00000000000E+00 -0.45593999997E+02  0.45594000000E+02  0.51100000000E-03 0. -1.
    9900012    2    1    2    0    0  0.15861616958E+02  0.56917104003E+01  0.81666850957E+01  0.72461515940E+02  0.69999929193E+02 0.  0.
         12    1    1    2    0    0 -0.15861616958E+02 -0.56917104003E+01 -0.81666850957E+01  0.18726484060E+02  0.00000000000E+00 0. -1.
         11    1    3    3    0    0 -0.57870339718E+01 -0.13186147502E+02  0.28709039887E+01  0.14683539700E+02  0.51100000000E-03 0. -1.
        -11    1    3    3    0    0  0.34461377074E+02  0.82637276025E+01  0.15038591475E+02  0.38497206880E+02  0.51100000000E-03 0.  1.
        -12    1    3    3    0    0 -0.12812726144E+02  0.10614130300E+02 -0.97428103679E+01  0.19280769360E+02  0.00000000000E+00 0.  1.
</event>
<event>
 7    1  0.1375918E-013  0.7246153E+02  0.7816164E-02  0.1226708E+00
        -11   -1    0    0    0    0  0.00000000000E+00  0.00000000000E+00  0.45593999997E+02  0.45594000000E+02  0.51100000000E-03 0. -1.
         11   -1    0    0    0    0 -0.00000000000E+00 -0.00000000000E+00 -0.45593999997E+02  0.45594000000E+02  0.51100000000E-03 0.  1.
    9900012    2    1    2    0    0 -0.81924024311E+01 -0.13657467718E+02 -0.98508288150E+01  0.72461529152E+02  0.69999946405E+02 0.  0.
         12    1    1    2    0    0  0.81924024311E+01  0.13657467718E+02  0.98508288150E+01  0.18726470848E+02  0.00000000000E+00 0. -1.
         11    1    3    3    0    0  0.17972365244E+02 -0.23123559248E+02 -0.50353838252E+01  0.29716325401E+02  0.51100000000E-03 0. -1.
        -11    1    3    3    0    0 -0.26457357181E+02 -0.58210564052E+01 -0.44330767357E+01  0.27450475702E+02  0.51100000000E-03 0.  1.
        -12    1    3    3    0    0  0.29258950586E+00  0.15287147936E+02 -0.38236825413E+00  0.15294728049E+02  0.00000000000E+00 0.  1.
</event>
<event>
 7    1  0.1375918E-013  0.7246156E+02  0.7816164E-02  0.1226708E+00
        -11   -1    0    0    0    0  0.00000000000E+00  0.00000000000E+00  0.45593999997E+02  0.45594000000E+02  0.51100000000E-03 0. -1.
         11   -1    0    0    0    0 -0.00000000000E+00 -0.00000000000E+00 -0.45593999997E+02  0.45594000000E+02  0.51100000000E-03 0.  1.
    9900012    2    1    2    0    0  0.13834004808E+02  0.53531782744E+00 -0.12610054448E+02  0.72461555399E+02  0.69999980596E+02 0.  0.
         12    1    1    2    0    0 -0.13834004808E+02 -0.53531782744E+00  0.12610054448E+02  0.18726444601E+02  0.00000000000E+00 0. -1.
         11    1    3    3    0    0  0.84787895400E+01  0.50630111388E+01  0.21067277416E+02  0.23267018112E+02  0.51100000000E-03 0. -1.
        -11    1    3    3    0    0 -0.13919443212E+02 -0.56714393194E+01 -0.78780803608E+01  0.16969981547E+02  0.51100000000E-03 0.  1.
         12    1    3    3    0    0  0.19274658480E+02  0.11437460080E+01 -0.25799251504E+02  0.32224555739E+02  0.00000000000E+00 0. -1.
</event>
<event>
 7    1  0.1375918E-013  0.7246160E+02  0.7816164E-02  0.1226708E+00
        -11   -1    0    0    0    0  0.00000000000E+00  0.00000000000E+00  0.45593999997E+02  0.45594000000E+02  0.51100000000E-03 0.  1.
         11   -1    0    0    0    0 -0.00000000000E+00 -0.00000000000E+00 -0.45593999997E+02  0.45594000000E+02  0.51100000000E-03 0. -1.
    9900012    2    1    2    0    0  0.13491498808E+02  0.44614979654E+01  0.12196409260E+02  0.72461604110E+02  0.70000044052E+02 0.  0.
         12    1    1    2    0    0 -0.13491498808E+02 -0.44614979654E+01 -0.12196409260E+02  0.18726395890E+02  0.00000000000E+00 0. -1.
         11    1    3    3    0    0  0.23131451693E+02  0.37031168030E+01  0.40925883592E+00  0.23429567314E+02  0.51100000000E-03 0. -1.
        -11    1    3    3    0    0 -0.20438130436E+02 -0.15425057735E+02 -0.12109633272E+01  0.25634274210E+02  0.51100000000E-03 0.  1.
        -12    1    3    3    0    0  0.10798177550E+02  0.16183438897E+02  0.12998113752E+02  0.23397762586E+02  0.00000000000E+00 0.  1.
</event>
<event>
 7    1  0.1375918E-013  0.7246159E+02  0.7816164E-02  0.1226708E+00
        -11   -1    0    0    0    0  0.00000000000E+00  0.00000000000E+00  0.45593999997E+02  0.45594000000E+02  0.51100000000E-03 0. -1.
         11   -1    0    0    0    0 -0.00000000000E+00 -0.00000000000E+00 -0.45593999997E+02  0.45594000000E+02  0.51100000000E-03 0.  1.
    9900012    2    1    2    0    0 -0.66793355836E+00  0.17768239746E+02  0.58755280881E+01  0.72461593264E+02  0.70000029923E+02 0.  0.
         12    1    1    2    0    0  0.66793355836E+00 -0.17768239746E+02 -0.58755280881E+01  0.18726406736E+02  0.00000000000E+00 0. -1.
         11    1    3    3    0    0  0.52822533797E+01  0.10401282825E+02  0.52765854627E+01  0.12803563550E+02  0.51100000000E-03 0. -1.
        -11    1    3    3    0    0 -0.25355137392E+02  0.12896185521E+00  0.19212243036E+02  0.31812103138E+02  0.51100000000E-03 0.  1.
        -12    1    3    3    0    0  0.19404950454E+02  0.72379950663E+01 -0.18613300411E+02  0.27845926576E+02  0.00000000000E+00 0.  1.
</event>
<event>
 7    1  0.1375918E-013  0.7246156E+02  0.7816164E-02  0.1226708E+00
        -11   -1    0    0    0    0  0.00000000000E+00  0.00000000000E+00  0.45593999997E+02  0.45594000000E+02  0.51100000000E-03 0.  1.
         11   -1    0    0    0    0 -0.00000000000E+00 -0.00000000000E+00 -0.45593999997E+02  0.45594000000E+02  0.51100000000E-03 0. -1.
    9900012    2    1    2    0    0  0.24547709799E+01  0.17149318326E+02 -0.71101613023E+01  0.72461563784E+02  0.69999991519E+02 0.  0.
         12    1    1    2    0    0 -0.24547709799E+01 -0.17149318326E+02  0.71101613023E+01  0.18726436216E+02  0.00000000000E+00 0. -1.
         11    1    3    3    0    0 -0.18830567587E+02  0.68054042843E+01 -0.79852959096E+01  0.21556176705E+02  0.51100000000E-03 0. -1.
        -11    1    3    3    0    0  0.19665040080E+02  0.17909144061E+02 -0.16904543864E+02  0.31515311293E+02  0.51100000000E-03 0.  1.
        -12    1    3    3    0    0  0.16202984865E+01 -0.75652300192E+01  0.17779678472E+02  0.19390075786E+02  0.00000000000E+00 0.  1.
</event>
<event>
 7    1  0.1375918E-013  0.7246156E+02  0.7816164E-02  0.1226708E+00
        -11   -1    0    0    0    0  0.00000000000E+00  0.00000000000E+00  0.45593999997E+02  0.45594000000E+02  0.51100000000E-03 0.  1.
         11   -1    0    0    0    0 -0.00000000000E+00 -0.00000000000E+00 -0.45593999997E+02  0.45594000000E+02  0.51100000000E-03 0. -1.
    9900012    2    1    2    0    0 -0.17328233858E+02 -0.12013203691E+01 -0.69977737036E+01  0.72461556235E+02  0.69999981685E+02 0.  0.
         12    1    1    2    0    0  0.17328233858E+02  0.12013203691E+01  0.69977737036E+01  0.18726443765E+02  0.00000000000E+00 0. -1.
         11    1    3    3    0    0 -0.14576146220E+02 -0.13000917115E+02 -0.29120610702E+02  0.35064196161E+02  0.51100000000E-03 0. -1.
        -11    1    3    3    0    0  0.41945782375E+01 -0.12978313515E+01  0.22140561236E+02  0.22571736860E+02  0.51100000000E-03 0.  1.
         12    1    3    3    0    0 -0.69466658754E+01  0.13097428097E+02 -0.17724236933E-01  0.14825623214E+02  0.00000000000E+00 0. -1.
</event>
<event>
 7    1  0.1375918E-013  0.7246158E+02  0.7816164E-02  0.1226708E+00
        -11   -1    0    0    0    0  0.00000000000E+00  0.00000000000E+00  0.45593999997E+02  0.45594000000E+02  0.51100000000E-03 0. -1.
         11   -1    0    0    0    0 -0.00000000000E+00 -0.00000000000E+00 -0.45593999997E+02  0.45594000000E+02  0.51100000000E-03 0.  1.
    9900012    2    1    2    0    0  0.29693226358E+01 -0.70204841600E+01 -0.17104811666E+02  0.72461583982E+02  0.70000017830E+02 0.  0.
         12    1    1    2    0    0 -0.29693226358E+01  0.70204841600E+01  0.17104811666E+02  0.18726416018E+02  0.00000000000E+00 0. -1.
         11    1    3    3    0    0 -0.15586074902E+02 -0.86620712556E+01 -0.21610780304E+02  0.28017548695E+02  0.51100000000E-03 0. -1.
        -11    1    3    3    0    0  0.26806109196E+02  0.11635248320E+02 -0.31507005905E+01  0.29391723464E+02  0.51100000000E-03 0.  1.
         12    1    3    3    0    0 -0.82507116589E+01 -0.99936612239E+01  0.76566692282E+01  0.15052311823E+02  0.00000000000E+00 0. -1.
</event>
<event>
 7    1  0.1375918E-013  0.7246159E+02  0.7816164E-02  0.1226708E+00
        -11   -1    0    0    0    0  0.00000000000E+00  0.00000000000E+00  0.45593999997E+02  0.45594000000E+02  0.51100000000E-03 0.  1.
         11   -1    0    0    0    0 -0.00000000000E+00 -0.00000000000E+00 -0.45593999997E+02  0.45594000000E+02  0.51100000000E-03 0. -1.
    9900012    2    1    2    0    0 -0.12032371421E+02 -0.65753191892E+01 -0.12754049230E+02  0.72461586669E+02  0.70000021331E+02 0.  0.
         12    1    1    2    0    0  0.12032371421E+02  0.65753191892E+01  0.12754049230E+02  0.18726413331E+02  0.00000000000E+00 0. -1.
         11    1    3    3    0    0  0.59584995381E+01 -0.17895594080E+02 -0.33754504650E+02  0.38666815083E+02  0.51100000000E-03 0. -1.
        -11    1    3    3    0    0 -0.14571300150E+02  0.13806464508E+02  0.21642510276E+02  0.29518460352E+02  0.51100000000E-03 0.  1.
         12    1    3    3    0    0 -0.34195708091E+01 -0.24861896170E+01 -0.64205485583E+00  0.42763112337E+01  0.00000000000E+00 0. -1.
</event>
<event>
 7    1  0.1375918E-013  0.7246157E+02  0.7816164E-02  0.1226708E+00
        -11   -1    0    0    0    0  0.00000000000E+00  0.00000000000E+00  0.45593999997E+02  0.45594000000E+02  0.51100000000E-03 0.  1.
         11   -1    0    0    0    0 -0.00000000000E+00 -0.00000000000E+00 -0.45593999997E+02  0.45594000000E+02  0.51100000000E-03 0. -1.
    9900012    2    1    2    0    0  0.46477822149E+01  0.17030019495E+02  0.62494520930E+01  0.72461572285E+02  0.70000002593E+02 0.  0.
         12    1    1    2    0    0 -0.46477822149E+01 -0.17030019495E+02 -0.62494520930E+01  0.18726427715E+02  0.00000000000E+00 0. -1.
         11    1    3    3    0    0  0.23422321731E+01  0.34459767330E+02  0.16695243617E+02  0.38362648184E+02  0.51100000000E-03 0. -1.
        -11    1    3    3    0    0 -0.37647980353E+01 -0.18980505459E+02  0.26987552586E+01  0.19537568220E+02  0.51100000000E-03 0.  1.
         12    1    3    3    0    0  0.60703480771E+01  0.15507576233E+01 -0.13144546782E+02  0.14561355881E+02  0.00000000000E+00 0. -1.
</event>
<event>
 7    1  0.1375918E-013  0.7246183E+02  0.7816164E-02  0.1226707E+00
        -11   -1    0    0    0    0  0.00000000000E+00  0.00000000000E+00  0.45593999997E+02  0.45594000000E+02  0.51100000000E-03 0. -1.
         11   -1    0    0    0    0 -0.00000000000E+00 -0.00000000000E+00 -0.45593999997E+02  0.45594000000E+02  0.51100000000E-03 0.  1.
    9900012    2    1    2    0    0 -0.96545350630E+01 -0.14055186488E+02  0.77402363029E+01  0.72461826538E+02  0.70000333804E+02 0.  0.
         12    1    1    2    0    0  0.96545350630E+01  0.14055186488E+02 -0.77402363029E+01  0.18726173462E+02  0.00000000000E+00 0. -1.
         11    1    3    3    0    0  0.67824617242E+01 -0.95065374013E+01 -0.16312534647E+02  0.20061775277E+02  0.51100000000E-03 0. -1.
        -11    1    3    3    0    0 -0.22322773354E+02 -0.17107702846E+02  0.26113088804E+02  0.38378029054E+02  0.51100000000E-03 0.  1.
        -12    1    3    3    0    0  0.58857765672E+01  0.12559053759E+02 -0.20603178543E+01  0.14022022207E+02  0.00000000000E+00 0.  1.
</event>
<event>
 7    1  0.1375918E-013  0.7246158E+02  0.7816164E-02  0.1226708E+00
        -11   -1    0    0    0    0  0.00000000000E+00  0.00000000000E+00  0.45593999997E+02  0.45594000000E+02  0.51100000000E-03 0. -1.
         11   -1    0    0    0    0 -0.00000000000E+00 -0.00000000000E+00 -0.45593999997E+02  0.45594000000E+02  0.51100000000E-03 0.  1.
    9900012    2    1    2    0    0  0.18298368596E+00 -0.17174061454E+02 -0.74630322895E+01  0.72461582275E+02  0.70000015607E+02 0.  0.
         12    1    1    2    0    0 -0.18298368596E+00  0.17174061454E+02  0.74630322895E+01  0.18726417725E+02  0.00000000000E+00 0. -1.
         11    1    3    3    0    0 -0.14109106738E+02  0.12794185135E+01  0.21630376634E+02  0.25856855924E+02  0.51100000000E-03 0. -1.
        -11    1    3    3    0    0 -0.12286765381E+01 -0.14903566144E+02 -0.26563348536E+02  0.30483395735E+02  0.51100000000E-03 0.  1.
        -12    1    3    3    0    0  0.15520766962E+02 -0.35499138240E+01 -0.25300603877E+01  0.16121330615E+02  0.00000000000E+00 0.  1.
</event>
<event>
 7    1  0.1375918E-013  0.7246169E+02  0.7816164E-02  0.1226708E+00
        -11   -1    0    0    0    0  0.00000000000E+00  0.00000000000E+00  0.45593999997E+02  0.45594000000E+02  0.51100000000E-03 0. -1.
         11   -1    0    0    0    0 -0.00000000000E+00 -0.00000000000E+00 -0.45593999997E+02  0.45594000000E+02  0.51100000000E-03 0.  1.
    9900012    2    1    2    0    0 -0.81465655628E+01  0.14222498125E+02 -0.90569678673E+01  0.72461690958E+02  0.70000157186E+02 0.  0.
         12    1    1    2    0    0  0.81465655628E+01 -0.14222498125E+02  0.90569678673E+01  0.18726309042E+02  0.00000000000E+00 0. -1.
         11    1    3    3    0    0  0.16339970618E+01 -0.21068702017E+02  0.63749437630E-01  0.21132066045E+02  0.51100000000E-03 0.  1.
        -11    1    3    3    0    0 -0.16334457550E+02  0.17784699612E+02  0.85399394443E+01  0.25613289709E+02  0.51100000000E-03 0. -1.
         12    1    3    3    0    0  0.65538949250E+01  0.17506500530E+02 -0.17660656749E+02  0.25716335204E+02  0.00000000000E+00 0. -1.
</event>
<event>
 7    1  0.1375918E-013  0.7246155E+02  0.7816164E-02  0.1226708E+00
        -11   -1    0    0    0    0  0.00000000000E+00  0.00000000000E+00  0.45593999997E+02  0.45594000000E+02  0.51100000000E-03 0.  1.
         11   -1    0    0    0    0 -0.00000000000E+00 -0.00000000000E+00 -0.45593999997E+02  0.45594000000E+02  0.51100000000E-03 0. -1.
    9900012    2    1    2    0    0  0.59626379065E+01  0.39399058908E+01  0.17309073256E+02  0.72461550090E+02  0.69999973680E+02 0.  0.
         12    1    1    2    0    0 -0.59626379065E+01 -0.39399058908E+01 -0.17309073256E+02  0.18726449910E+02  0.00000000000E+00 0. -1.
         11    1    3    3    0    0  0.57894698442E+00 -0.23712265844E+02  0.12116912349E+02  0.26635057653E+02  0.51100000000E-03 0. -1.
        -11    1    3    3    0    0  0.10736945466E+02  0.15147492772E+02 -0.13322604155E+02  0.22852140314E+02  0.51100000000E-03 0.  1.
        -12    1    3    3    0    0 -0.53532545440E+01  0.12504678963E+02  0.18514765062E+02  0.22974352123E+02  0.00000000000E+00 0.  1.
</event>
<event>
 7    1  0.1375918E-013  0.7246164E+02  0.7816164E-02  0.1226708E+00
        -11   -1    0    0    0    0  0.00000000000E+00  0.00000000000E+00  0.45593999997E+02  0.45594000000E+02  0.51100000000E-03 0. -1.
         11   -1    0    0    0    0 -0.00000000000E+00 -0.00000000000E+00 -0.45593999997E+02  0.45594000000E+02  0.51100000000E-03 0.  1.
    9900012    2    1    2    0    0  0.39878704917E+01 -0.17960704676E+02 -0.34908997250E+01  0.72461644123E+02  0.70000096176E+02 0.  0.
         12    1    1    2    0    0 -0.39878704917E+01  0.17960704676E+02  0.34908997250E+01  0.18726355877E+02  0.00000000000E+00 0. -1.
         11    1    3    3    0    0  0.12806043199E+02  0.26623252757E+01  0.18811281700E+02  0.22911722714E+02  0.51100000000E-03 0. -1.
        -11    1    3    3    0    0 -0.12917973025E+02 -0.23696871266E+02 -0.29967589749E+02  0.40329544635E+02  0.51100000000E-03 0.  1.
        -12    1    3    3    0    0  0.40998003181E+01  0.30738413136E+01  0.76654083247E+01  0.92203767740E+01  0.00000000000E+00 0.  1.
</event>
<event>
 7    1  0.1375918E-013  0.7246157E+02  0.7816164E-02  0.1226708E+00
        -11   -1    0    0    0    0  0.00000000000E+00  0.00000000000E+00  0.45593999997E+02  0.45594000000E+02  0.51100000000E-03 0.  1.
         11   -1    0    0    0    0 -0.00000000000E+00 -0.00000000000E+00 -0.45593999997E+02  0.45594000000E+02  0.51100000000E-03 0. -1.
    9900012    2    1    2    0    0 -0.71122965245E+01 -0.72095709302E+01  0.15751715203E+02  0.72461569302E+02  0.69999998707E+02 0.  0.
         12    1    1    2    0    0  0.71122965245E+01  0.72095709302E+01 -0.15751715203E+02  0.18726430698E+02  0.00000000000E+00 0. -1.
         11    1    3    3    0    0 -0.17852772423E+02 -0.32378636799E+02  0.87430447726E+01  0.37993926308E+02  0.51100000000E-03 0. -1.
        -11    1    3    3    0    0  0.12036000453E+02  0.58126720537E+01  0.69561697447E+01  0.15067871816E+02  0.51100000000E-03 0.  1.
         12    1    3    3    0    0 -0.12955245545E+01  0.19356393815E+02  0.52500686057E-01  0.19399771177E+02  0.00000000000E+00 0. -1.
</event>
<event>
 7    1  0.1375918E-013  0.7246157E+02  0.7816164E-02  0.1226708E+00
        -11   -1    0    0    0    0  0.00000000000E+00  0.00000000000E+00  0.45593999997E+02  0.45594000000E+02  0.51100000000E-03 0.  1.
         11   -1    0    0    0    0 -0.00000000000E+00 -0.00000000000E+00 -0.45593999997E+02  0.45594000000E+02  0.51100000000E-03 0. -1.
    9900012    2    1    2    0    0  0.15938136833E+02  0.36602780606E+01  0.91245501344E+01  0.72461567976E+02  0.69999996980E+02 0.  0.
         12    1    1    2    0    0 -0.15938136833E+02 -0.36602780606E+01 -0.91245501344E+01  0.18726432024E+02  0.00000000000E+00 0. -1.
         11    1    3    3    0    0  0.12764382495E+02 -0.10102485248E+02  0.11024762788E+02  0.19660494995E+02  0.51100000000E-03 0. -1.
        -11    1    3    3    0    0 -0.11542285650E+02  0.29220772178E+02 -0.72947842999E+00  0.31426263280E+02  0.51100000000E-03 0.  1.
        -12    1    3    3    0    0  0.14716039987E+02 -0.15458008870E+02 -0.11707342234E+01  0.21374809701E+02  0.00000000000E+00 0.  1.
</event>
<event>
 7    1  0.1375918E-013  0.7246156E+02  0.7816164E-02  0.1226708E+00
        -11   -1    0    0    0    0  0.00000000000E+00  0.00000000000E+00  0.45593999997E+02  0.45594000000E+02  0.51100000000E-03 0.  1.
         11   -1    0    0    0    0 -0.00000000000E+00 -0.00000000000E+00 -0.45593999997E+02  0.45594000000E+02  0.51100000000E-03 0. -1.
    9900012    2    1    2    0    0 -0.11224844622E+02 -0.15234514754E+01  0.14911789176E+02  0.72461561534E+02  0.69999988589E+02 0.  0.
         12    1    1    2    0    0  0.11224844622E+02  0.15234514754E+01 -0.14911789176E+02  0.18726438466E+02  0.00000000000E+00 0. -1.
         11    1    3    3    0    0  0.22148656986E+02 -0.47592353346E+01 -0.95967682898E+01  0.24603074790E+02  0.51100000000E-03 0. -1.
        -11    1    3    3    0    0 -0.14502431261E+02  0.27398695303E+01  0.24935623338E+02  0.28976071318E+02  0.51100000000E-03 0.  1.
        -12    1    3    3    0    0 -0.18871070347E+02  0.49591432892E+00 -0.42706587318E+00  0.18882415426E+02  0.00000000000E+00 0.  1.
</event>
<event>
 7    1  0.1375918E-013  0.7246196E+02  0.7816164E-02  0.1226707E+00
        -11   -1    0    0    0    0  0.00000000000E+00  0.00000000000E+00  0.45593999997E+02  0.45594000000E+02  0.51100000000E-03 0.  1.
         11   -1    0    0    0    0 -0.00000000000E+00 -0.00000000000E+00 -0.45593999997E+02  0.45594000000E+02  0.51100000000E-03 0. -1.
    9900012    2    1    2    0    0 -0.92460652599E+01  0.65343803015E+01  0.14915656815E+02  0.72461957520E+02  0.70000504432E+02 0.  0.
         12    1    1    2    0    0  0.92460652599E+01 -0.65343803015E+01 -0.14915656815E+02  0.18726042480E+02  0.00000000000E+00 0. -1.
         11    1    3    3    0    0  0.12593345000E+01 -0.35150588228E+01  0.85248805049E+01  0.93067260513E+01  0.51100000000E-03 0.  1.
        -11    1    3    3    0    0  0.82713122282E+00 -0.26399975089E+01 -0.26224118659E+02  0.26369644150E+02  0.51100000000E-03 0. -1.
        -12    1    3    3    0    0 -0.11332530983E+02  0.12689436633E+02  0.32614894969E+02  0.36785587319E+02  0.00000000000E+00 0.  1.
</event>
<event>
 7    1  0.1375918E-013  0.7246159E+02  0.7816164E-02  0.1226708E+00
        -11   -1    0    0    0    0  0.00000000000E+00  0.00000000000E+00  0.45593999997E+02  0.45594000000E+02  0.51100000000E-03 0.  1.
         11   -1    0    0    0    0 -0.00000000000E+00 -0.00000000000E+00 -0.45593999997E+02  0.45594000000E+02  0.51100000000E-03 0. -1.
    9900012    2    1    2    0    0 -0.11475303157E+02  0.34287042443E+01  0.14395832919E+02  0.72461585480E+02  0.70000019783E+02 0.  0.
         12    1    1    2    0    0  0.11475303157E+02 -0.34287042443E+01 -0.14395832919E+02  0.18726414520E+02  0.00000000000E+00 0. -1.
         11    1    3    3    0    0  0.27429061192E+01 -0.22825438452E+02 -0.14796307936E+02  0.27339621492E+02  0.51100000000E-03 0. -1.
        -11    1    3    3    0    0 -0.42229228507E+01  0.59343921813E+01  0.18886280871E+02  0.20242077298E+02  0.51100000000E-03 0.  1.
         12    1    3    3    0    0 -0.99952864251E+01  0.20319750515E+02  0.10305859984E+02  0.24879886690E+02  0.00000000000E+00 0. -1.
</event>
<event>
 7    1  0.1375918E-013  0.7246158E+02  0.7816164E-02  0.1226708E+00
        -11   -1    0    0    0    0  0.00000000000E+00  0.00000000000E+00  0.45593999997E+02  0.45594000000E+02  0.51100000000E-03 0.  1.
         11   -1    0    0    0    0 -0.00000000000E+00 -0.00000000000E+00 -0.45593999997E+02  0.45594000000E+02  0.51100000000E-03 0. -1.
    9900012    2    1    2    0    0 -0.97397579637E+01  0.11686059308E+02  0.10920249239E+02  0.72461582543E+02  0.70000015956E+02 0.  0.
         12    1    1    2    0    0  0.97397579637E+01 -0.11686059308E+02 -0.10920249239E+02  0.18726417457E+02  0.00000000000E+00 0. -1.
         11    1    3    3    0    0 -0.19709879402E+02  0.34533113079E+02  0.11211356515E+02  0.41312343920E+02  0.51100000000E-03 0. -1.
        -11    1    3    3    0    0  0.18264399228E+01 -0.43757497957E+00  0.61671104580E+01  0.64467516096E+01  0.51100000000E-03 0.  1.
         12    1    3    3    0    0  0.81436815153E+01 -0.22409478792E+02 -0.64582177341E+01  0.24702487013E+02  0.00000000000E+00 0. -1.
</event>
<event>
 7    1  0.1375918E-013  0.7246151E+02  0.7816164E-02  0.1226708E+00
        -11   -1    0    0    0    0  0.00000000000E+00  0.00000000000E+00  0.45593999997E+02  0.45594000000E+02  0.51100000000E-03 0. -1.
         11   -1    0    0    0    0 -0.00000000000E+00 -0.00000000000E+00 -0.45593999997E+02  0.45594000000E+02  0.51100000000E-03 0.  1.
    9900012    2    1    2    0    0  0.91648605742E+01  0.11863592561E+02 -0.11222388096E+02  0.72461508274E+02  0.69999919207E+02 0.  0.
         12    1    1    2    0    0 -0.91648605742E+01 -0.11863592561E+02  0.11222388096E+02  0.18726491726E+02  0.00000000000E+00 0. -1.
         11    1    3    3    0    0 -0.37417125147E+01 -0.21308885211E+01  0.32034914803E+01  0.53668851635E+01  0.51100000000E-03 0. -1.
        -11    1    3    3    0    0  0.34308866014E+02 -0.11852060864E+01 -0.20738257852E+02  0.40107085903E+02  0.51100000000E-03 0.  1.
        -12    1    3    3    0    0 -0.21402292925E+02  0.15179687169E+02  0.63123782763E+01  0.26987537207E+02  0.00000000000E+00 0.  1.
</event>
<event>
 7    1  0.1375918E-013  0.7246155E+02  0.7816164E-02  0.1226708E+00
        -11   -1    0    0    0    0  0.00000000000E+00  0.00000000000E+00  0.45593999997E+02  0.45594000000E+02  0.51100000000E-03 0.  1.
         11   -1    0    0    0    0 -0.00000000000E+00 -0.00000000000E+00 -0.45593999997E+02  0.45594000000E+02  0.51100000000E-03 0. -1.
    9900012    2    1    2    0    0 -0.86334153390E+01  0.96125429401E+01  0.13555180716E+02  0.72461554357E+02  0.69999979238E+02 0.  0.
         12    1    1    2    0    0  0.86334153390E+01 -0.96125429401E+01 -0.13555180716E+02  0.18726445643E+02  0.00000000000E+00 0. -1.
         11    1    3    3    0    0 -0.33413518670E+02  0.12199989114E+02  0.96811482574E+01  0.36864991471E+02  0.51100000000E-03 0. -1.
        -11    1    3    3    0    0  0.31379721587E+01  0.10461686672E+01  0.11807065630E+02  0.12261653119E+02  0.51100000000E-03 0.  1.
         12    1    3    3    0    0  0.21642131173E+02 -0.36336148415E+01 -0.79330331717E+01  0.23334909766E+02  0.00000000000E+00 0. -1.
</event>
<event>
 7    1  0.1375918E-013  0.7246158E+02  0.7816164E-02  0.1226708E+00
        -11   -1    0    0    0    0  0.00000000000E+00  0.00000000000E+00  0.45593999997E+02  0.45594000000E+02  0.51100000000E-03 0.  1.
         11   -1    0    0    0    0 -0.00000000000E+00 -0.00000000000E+00 -0.45593999997E+02  0.45594000000E+02  0.51100000000E-03 0. -1.
    9900012    2    1    2    0    0  0.11591204780E+02 -0.33516865321E+01  0.14320931521E+02  0.72461577211E+02  0.70000009010E+02 0.  0.
         12    1    1    2    0    0 -0.11591204780E+02  0.33516865321E+01 -0.14320931521E+02  0.18726422789E+02  0.00000000000E+00 0. -1.
         11    1    3    3    0    0  0.95081517917E+01 -0.21938650463E+02  0.34714796943E+02  0.42152419405E+02  0.51100000000E-03 0. -1.
        -11    1    3    3    0    0  0.43497155049E+01  0.12632939436E+02 -0.61557463598E+01  0.14710689898E+02  0.51100000000E-03 0.  1.
         12    1    3    3    0    0 -0.22666625161E+01  0.59540244950E+01 -0.14238119062E+02  0.15598467908E+02  0.00000000000E+00 0. -1.
</event>
<event>
 7    1  0.1375918E-013  0.7246151E+02  0.7816164E-02  0.1226708E+00
        -11   -1    0    0    0    0  0.00000000000E+00  0.00000000000E+00  0.45593999997E+02  0.45594000000E+02  0.51100000000E-03 0. -1.
         11   -1    0    0    0    0 -0.00000000000E+00 -0.00000000000E+00 -0.45593999997E+02  0.45594000000E+02  0.51100000000E-03 0.  1.
    9900012    2    1    2    0    0 -0.16757122234E+02  0.29688142883E+01 -0.78144976061E+01  0.72461511363E+02  0.69999923231E+02 0.  0.
         12    1    1    2    0    0  0.16757122234E+02 -0.29688142883E+01  0.78144976061E+01  0.18726488637E+02  0.00000000000E+00 0. -1.
         11    1    3    3    0    0 -0.92549728072E+01  0.19510510322E+02  0.37089205262E+01  0.21910514061E+02  0.51100000000E-03 0. -1.
        -11    1    3    3    0    0  0.18523378047E+02 -0.29191093253E+01  0.62607527153E+00  0.18762427989E+02  0.51100000000E-03 0.  1.
        -12    1    3    3    0    0 -0.26025527474E+02 -0.13622586709E+02 -0.12149493404E+02  0.31788569312E+02  0.00000000000E+00 0.  1.
</event>
<event>
 7    1  0.1375918E-013  0.7246142E+02  0.7816164E-02  0.1226708E+00
        -11   -1    0    0    0    0  0.00000000000E+00  0.00000000000E+00  0.45593999997E+02  0.45594000000E+02  0.51100000000E-03 0.  1.
         11   -1    0    0    0    0 -0.00000000000E+00 -0.00000000000E+00 -0.45593999997E+02  0.45594000000E+02  0.51100000000E-03 0. -1.
    9900012    2    1    2    0    0  0.14313966111E+02  0.11876274475E+02  0.21792431090E+01  0.72461424719E+02  0.69999810361E+02 0.  0.
         12    1    1    2    0    0 -0.14313966111E+02 -0.11876274475E+02 -0.21792431090E+01  0.18726575281E+02  0.00000000000E+00 0. -1.
         11    1    3    3    0    0 -0.35442061245E+01 -0.13308856034E+02  0.67755374336E+01  0.15349102702E+02  0.51100000000E-03 0. -1.
        -11    1    3    3    0    0  0.14725905334E+02  0.12915516098E+02  0.20900385317E+02  0.28644178303E+02  0.51100000000E-03 0.  1.
        -12    1    3    3    0    0  0.31322669018E+01  0.12269614411E+02 -0.25496679642E+02  0.28468143714E+02  0.00000000000E+00 0.  1.
</event>
<event>
 7    1  0.1375918E-013  0.7246140E+02  0.7816164E-02  0.1226708E+00
        -11   -1    0    0    0    0  0.00000000000E+00  0.00000000000E+00  0.45593999997E+02  0.45594000000E+02  0.51100000000E-03 0. -1.
         11   -1    0    0    0    0 -0.00000000000E+00 -0.00000000000E+00 -0.45593999997E+02  0.45594000000E+02  0.51100000000E-03 0.  1.
    9900012    2    1    2    0    0 -0.20889436189E+01  0.15652890779E+02 -0.10065237877E+02  0.72461396231E+02  0.69999773250E+02 0.  0.
         12    1    1    2    0    0  0.20889436189E+01 -0.15652890779E+02  0.10065237877E+02  0.18726603769E+02  0.00000000000E+00 0. -1.
         11    1    3    3    0    0 -0.22450397264E+02 -0.98808974708E+01  0.71081354007E+00  0.24538902345E+02  0.51100000000E-03 0.  1.
        -11    1    3    3    0    0  0.25268965284E+02  0.17108347355E+02  0.34131003154E+01  0.30706113557E+02  0.51100000000E-03 0. -1.
         12    1    3    3    0    0 -0.49075116394E+01  0.84254408955E+01 -0.14189151732E+02  0.17216380330E+02  0.00000000000E+00 0. -1.
</event>
<event>
 8    1  0.1375918E-013  0.7246160E+02  0.7816164E-02  0.1226708E+00
        -11   -1    0    0    0    0  0.00000000000E+00  0.00000000000E+00  0.45593999997E+02  0.45594000000E+02  0.51100000000E-03 0. -1.
         11   -1    0    0    0    0 -0.00000000000E+00 -0.00000000000E+00 -0.45593999997E+02  0.45594000000E+02  0.51100000000E-03 0.  1.
    9900012    2    1    2    0    0  0.18291911752E+02 -0.31336921840E+01  0.25028016008E+01  0.72461599435E+02  0.70000037962E+02 0.  0.
        -24    2    3    3    0    0  0.64299007611E+01  0.81588028232E+01  0.58427491928E+01  0.55746845521E+02  0.54457904662E+02 0.  0.
         12    1    1    2    0    0 -0.18291911752E+02  0.31336921840E+01 -0.25028016008E+01  0.18726400565E+02  0.00000000000E+00 0. -1.
         11    1    4    4    0    0 -0.22782707291E+02 -0.50836791807E+01  0.16714034951E+01  0.23402759141E+02  0.51100000000E-03 0. -1.
        -11    1    3    3    0    0  0.11862010991E+02 -0.11292495007E+02 -0.33399475920E+01  0.16714753914E+02  0.51100000000E-03 0.  1.
        -12    1    4    4    0    0  0.29212608052E+02  0.13242482004E+02  0.41713456977E+01  0.32344086380E+02  0.00000000000E+00 0.  1.
</event>
<event>
 7    1  0.1375918E-013  0.7246158E+02  0.7816164E-02  0.1226708E+00
        -11   -1    0    0    0    0  0.00000000000E+00  0.00000000000E+00  0.45593999997E+02  0.45594000000E+02  0.51100000000E-03 0.  1.
         11   -1    0    0    0    0 -0.00000000000E+00 -0.00000000000E+00 -0.45593999997E+02  0.45594000000E+02  0.51100000000E-03 0. -1.
    9900012    2    1    2    0    0  0.17403596647E+02  0.37490096633E+01  0.58084936072E+01  0.72461578887E+02  0.70000011193E+02 0.  0.
         12    1    1    2    0    0 -0.17403596647E+02 -0.37490096633E+01 -0.58084936072E+01  0.18726421113E+02  0.00000000000E+00 0. -1.
         11    1    3    3    0    0  0.12421341283E+01 -0.78411424037E+01 -0.97844658891E+01  0.12600086682E+02  0.51100000000E-03 0. -1.
        -11    1    3    3    0    0  0.94195046234E+01  0.30258159186E+02 -0.40361675382E+01  0.31946422544E+02  0.51100000000E-03 0.  1.
        -12    1    3    3    0    0  0.67419578957E+01 -0.18668007119E+02  0.19629127034E+02  0.27915069661E+02  0.00000000000E+00 0.  1.
</event>
<event>
 7    1  0.1375918E-013  0.7246163E+02  0.7816164E-02  0.1226708E+00
        -11   -1    0    0    0    0  0.00000000000E+00  0.00000000000E+00  0.45593999997E+02  0.45594000000E+02  0.51100000000E-03 0.  1.
         11   -1    0    0    0    0 -0.00000000000E+00 -0.00000000000E+00 -0.45593999997E+02  0.45594000000E+02  0.51100000000E-03 0. -1.
    9900012    2    1    2    0    0  0.54132454356E+01  0.51174517737E+01  0.17180956065E+02  0.72461633826E+02  0.70000082761E+02 0.  0.
         12    1    1    2    0    0 -0.54132454356E+01 -0.51174517737E+01 -0.17180956065E+02  0.18726366174E+02  0.00000000000E+00 0. -1.
         11    1    3    3    0    0  0.26237436828E+02 -0.12377730382E+02  0.75723245789E+01  0.29982518248E+02  0.51100000000E-03 0. -1.
        -11    1    3    3    0    0 -0.26356618197E+02  0.39111560349E+01  0.73359745487E+01  0.27636660202E+02  0.51100000000E-03 0.  1.
        -12    1    3    3    0    0  0.55324268042E+01  0.13584026121E+02  0.22726569371E+01  0.14842455375E+02  0.00000000000E+00 0.  1.
</event>
<event>
 7    1  0.1375918E-013  0.7246160E+02  0.7816164E-02  0.1226708E+00
        -11   -1    0    0    0    0  0.00000000000E+00  0.00000000000E+00  0.45593999997E+02  0.45594000000E+02  0.51100000000E-03 0.  1.
         11   -1    0    0    0    0 -0.00000000000E+00 -0.00000000000E+00 -0.45593999997E+02  0.45594000000E+02  0.51100000000E-03 0. -1.
    9900012    2    1    2    0    0  0.13296349907E+02 -0.92670522168E+01 -0.93812016157E+01  0.72461598280E+02  0.70000036456E+02 0.  0.
         12    1    1    2    0    0 -0.13296349907E+02  0.92670522168E+01  0.93812016157E+01  0.18726401720E+02  0.00000000000E+00 0. -1.
         11    1    3    3    0    0  0.62205195517E+01  0.16656634233E+02 -0.29335062422E+02  0.34302831006E+02  0.51100000000E-03 0. -1.
        -11    1    3    3    0    0 -0.53473360983E+01 -0.23869439075E+01  0.27600282433E+01  0.64737362265E+01  0.51100000000E-03 0.  1.
         12    1    3    3    0    0  0.12423166453E+02 -0.23536742543E+02  0.17193832563E+02  0.31685031047E+02  0.00000000000E+00 0. -1.
</event>
<event>
 7    1  0.1375918E-013  0.7246146E+02  0.7816164E-02  0.1226708E+00
        -11   -1    0    0    0    0  0.00000000000E+00  0.00000000000E+00  0.45593999997E+02  0.45594000000E+02  0.51100000000E-03 0.  1.
         11   -1    0    0    0    0 -0.00000000000E+00 -0.00000000000E+00 -0.45593999997E+02  0.45594000000E+02  0.51100000000E-03 0. -1.
    9900012    2    1    2    0    0  0.14343527408E+02  0.11274563377E+02  0.42226404301E+01  0.72461461343E+02  0.69999858071E+02 0.  0.
         12    1    1    2    0    0 -0.14343527408E+02 -0.11274563377E+02 -0.42226404301E+01  0.18726538657E+02  0.00000000000E+00 0. -1.
         11    1    3    3    0    0  0.56768565306E+01  0.16964129355E+02 -0.22980236266E+02  0.29122150400E+02  0.51100000000E-03 0. -1.
        -11    1    3    3    0    0 -0.11259508554E+02  0.34341296734E+01  0.83766732874E+01  0.14447783052E+02  0.51100000000E-03 0.  1.
         12    1    3    3    0    0  0.19926179432E+02 -0.91236956509E+01  0.18826203409E+02  0.28891527891E+02  0.00000000000E+00 0. -1.
</event>
<event>
 7    1  0.1375918E-013  0.7246158E+02  0.7816164E-02  0.1226708E+00
        -11   -1    0    0    0    0  0.00000000000E+00  0.00000000000E+00  0.45593999997E+02  0.45594000000E+02  0.51100000000E-03 0.  1.
         11   -1    0    0    0    0 -0.00000000000E+00 -0.00000000000E+00 -0.45593999997E+02  0.45594000000E+02  0.51100000000E-03 0. -1.
    9900012    2    1    2    0    0  0.10907652277E+02  0.79426766755E+01  0.12985221588E+02  0.72461575604E+02  0.70000006917E+02 0.  0.
         12    1    1    2    0    0 -0.10907652277E+02 -0.79426766755E+01 -0.12985221588E+02  0.18726424396E+02  0.00000000000E+00 0. -1.
         11    1    3    3    0    0  0.42904815725E+01  0.18921469617E+02 -0.84482863113E+01  0.21161374872E+02  0.51100000000E-03 0. -1.
        -11    1    3    3    0    0 -0.10067651384E+02  0.38779867072E+01  0.26307679145E+02  0.28433965034E+02  0.51100000000E-03 0.  1.
        -12    1    3    3    0    0  0.16684822089E+02 -0.14856779649E+02 -0.48741712458E+01  0.22866235698E+02  0.00000000000E+00 0.  1.
</event>
<event>
 7    1  0.1375918E-013  0.7246158E+02  0.7816164E-02  0.1226708E+00
        -11   -1    0    0    0    0  0.00000000000E+00  0.00000000000E+00  0.45593999997E+02  0.45594000000E+02  0.51100000000E-03 0. -1.
         11   -1    0    0    0    0 -0.00000000000E+00 -0.00000000000E+00 -0.45593999997E+02  0.45594000000E+02  0.51100000000E-03 0.  1.
    9900012    2    1    2    0    0  0.10966530438E+01  0.31551426843E+01 -0.18426098504E+02  0.72461583383E+02  0.70000017050E+02 0.  0.
         12    1    1    2    0    0 -0.10966530438E+01 -0.31551426843E+01  0.18426098504E+02  0.18726416617E+02  0.00000000000E+00 0. -1.
         11    1    3    3    0    0 -0.88243771345E+01 -0.84228169923E+01  0.11212987471E+02  0.16569386415E+02  0.51100000000E-03 0. -1.
        -11    1    3    3    0    0  0.23481884826E+02  0.10939478766E+02 -0.32954428585E+02  0.41917364830E+02  0.51100000000E-03 0.  1.
         12    1    3    3    0    0 -0.13560854648E+02  0.63848091091E+00  0.33153426107E+01  0.13974832138E+02  0.00000000000E+00 0. -1.
</event>
<event>
 7    1  0.1375918E-013  0.7246156E+02  0.7816164E-02  0.1226708E+00
        -11   -1    0    0    0    0  0.00000000000E+00  0.00000000000E+00  0.45593999997E+02  0.45594000000E+02  0.51100000000E-03 0.  1.
         11   -1    0    0    0    0 -0.00000000000E+00 -0.00000000000E+00 -0.45593999997E+02  0.45594000000E+02  0.51100000000E-03 0. -1.
    9900012    2    1    2    0    0 -0.20854285087E+01 -0.82132066524E+01  0.16699516732E+02  0.72461557875E+02  0.69999983821E+02 0.  0.
         12    1    1    2    0    0  0.20854285087E+01  0.82132066524E+01 -0.16699516732E+02  0.18726442125E+02  0.00000000000E+00 0. -1.
         11    1    3    3    0    0  0.13700806074E+02  0.13292464994E+02 -0.84037364782E+01  0.20857240943E+02  0.51100000000E-03 0. -1.
        -11    1    3    3    0    0 -0.53686074927E+01  0.38517059281E+01  0.23202067041E+02  0.24124541451E+02  0.51100000000E-03 0.  1.
         12    1    3    3    0    0 -0.10417627090E+02 -0.25357377574E+02  0.19011861697E+01  0.27479775481E+02  0.00000000000E+00 0. -1.
</event>
<event>
 7    1  0.1375918E-013  0.7246162E+02  0.7816164E-02  0.1226708E+00
        -11   -1    0    0    0    0  0.00000000000E+00  0.00000000000E+00  0.45593999997E+02  0.45594000000E+02  0.51100000000E-03 0. -1.
         11   -1    0    0    0    0 -0.00000000000E+00 -0.00000000000E+00 -0.45593999997E+02  0.45594000000E+02  0.51100000000E-03 0.  1.
    9900012    2    1    2    0    0  0.13794077759E+02  0.11991183587E+02 -0.40758077480E+01  0.72461620909E+02  0.70000065935E+02 0.  0.
         12    1    1    2    0    0 -0.13794077759E+02 -0.11991183587E+02  0.40758077480E+01  0.18726379091E+02  0.00000000000E+00 0. -1.
         11    1    3    3    0    0  0.79900421729E+01  0.14922187905E+02  0.79638043383E+01  0.18706540182E+02  0.51100000000E-03 0. -1.
        -11    1    3    3    0    0  0.23427349430E+02 -0.10689617818E+02 -0.20312097500E+02  0.32797712352E+02  0.51100000000E-03 0.  1.
        -12    1    3    3    0    0 -0.17623313844E+02  0.77586135000E+01  0.82724854140E+01  0.20957368375E+02  0.00000000000E+00 0.  1.
</event>
<event>
 7    1  0.1375918E-013  0.7246159E+02  0.7816164E-02  0.1226708E+00
        -11   -1    0    0    0    0  0.00000000000E+00  0.00000000000E+00  0.45593999997E+02  0.45594000000E+02  0.51100000000E-03 0.  1.
         11   -1    0    0    0    0 -0.00000000000E+00 -0.00000000000E+00 -0.45593999997E+02  0.45594000000E+02  0.51100000000E-03 0. -1.
    9900012    2    1    2    0    0 -0.85836957546E+01 -0.66886205189E+01  0.15240104188E+02  0.72461594768E+02  0.70000031882E+02 0.  0.
         12    1    1    2    0    0  0.85836957546E+01  0.66886205189E+01 -0.15240104188E+02  0.18726405232E+02  0.00000000000E+00 0. -1.
         11    1    3    3    0    0  0.56039881075E+01 -0.34851201610E+00  0.33294799829E+01  0.65277546332E+01  0.51100000000E-03 0. -1.
        -11    1    3    3    0    0 -0.21400459404E+02 -0.92357645076E+01  0.34730389839E+02  0.41826773571E+02  0.51100000000E-03 0.  1.
        -12    1    3    3    0    0  0.72127755420E+01  0.28956560048E+01 -0.22819765634E+02  0.24107066564E+02  0.00000000000E+00 0.  1.
</event>
<event>
 7    1  0.1375918E-013  0.7246154E+02  0.7816164E-02  0.1226708E+00
        -11   -1    0    0    0    0  0.00000000000E+00  0.00000000000E+00  0.45593999997E+02  0.45594000000E+02  0.51100000000E-03 0. -1.
         11   -1    0    0    0    0 -0.00000000000E+00 -0.00000000000E+00 -0.45593999997E+02  0.45594000000E+02  0.51100000000E-03 0.  1.
    9900012    2    1    2    0    0 -0.11693644999E+02 -0.36159995351E+01 -0.14172629482E+02  0.72461542448E+02  0.69999963725E+02 0.  0.
         12    1    1    2    0    0  0.11693644999E+02  0.36159995351E+01  0.14172629482E+02  0.18726457552E+02  0.00000000000E+00 0. -1.
         11    1    3    3    0    0 -0.32000532822E+02 -0.11145964406E+02  0.93566592979E+01  0.35154141959E+02  0.51100000000E-03 0.  1.
        -11    1    3    3    0    0  0.14117627793E+02 -0.49086826369E+01 -0.10553834013E+02  0.18297158040E+02  0.51100000000E-03 0. -1.
        -12    1    3    3    0    0  0.61892600303E+01  0.12438647508E+02 -0.12975454767E+02  0.19010242448E+02  0.00000000000E+00 0.  1.
</event>
<event>
 7    1  0.1375918E-013  0.7246153E+02  0.7816164E-02  0.1226708E+00
        -11   -1    0    0    0    0  0.00000000000E+00  0.00000000000E+00  0.45593999997E+02  0.45594000000E+02  0.51100000000E-03 0. -1.
         11   -1    0    0    0    0 -0.00000000000E+00 -0.00000000000E+00 -0.45593999997E+02  0.45594000000E+02  0.51100000000E-03 0.  1.
    9900012    2    1    2    0    0  0.89165748511E+01  0.15179691785E+02 -0.63837632128E+01  0.72461527227E+02  0.69999943896E+02 0.  0.
         12    1    1    2    0    0 -0.89165748511E+01 -0.15179691785E+02  0.63837632128E+01  0.18726472773E+02  0.00000000000E+00 0. -1.
         11    1    3    3    0    0  0.15063595932E+02  0.21794580674E+02  0.11038035788E+02  0.28701113279E+02  0.51100000000E-03 0. -1.
        -11    1    3    3    0    0 -0.18442013542E+02  0.86944064149E+01 -0.71908267717E+01  0.21619633584E+02  0.51100000000E-03 0.  1.
         12    1    3    3    0    0  0.12294992461E+02 -0.15309295304E+02 -0.10230972229E+02  0.22140780363E+02  0.00000000000E+00 0. -1.
</event>
<event>
 7    1  0.1375918E-013  0.7246167E+02  0.7816164E-02  0.1226708E+00
        -11   -1    0    0    0    0  0.00000000000E+00  0.00000000000E+00  0.45593999997E+02  0.45594000000E+02  0.51100000000E-03 0. -1.
         11   -1    0    0    0    0 -0.00000000000E+00 -0.00000000000E+00 -0.45593999997E+02  0.45594000000E+02  0.51100000000E-03 0.  1.
    9900012    2    1    2    0    0 -0.63422147627E+01 -0.47093703149E+01 -0.16978621463E+02  0.72461669776E+02  0.70000129594E+02 0.  0.
         12    1    1    2    0    0  0.63422147627E+01  0.47093703149E+01  0.16978621463E+02  0.18726330224E+02  0.00000000000E+00 0. -1.
         11    1    3    3    0    0 -0.19965168858E+01 -0.24714890970E+02  0.77099898958E+01  0.25966437179E+02  0.51100000000E-03 0. -1.
        -11    1    3    3    0    0 -0.42530023474E+01  0.14621704632E+02  0.52262960635E+01  0.16099579067E+02  0.51100000000E-03 0.  1.
         12    1    3    3    0    0 -0.92695529550E-01  0.53838160227E+01 -0.29914907422E+02  0.30395653530E+02  0.00000000000E+00 0. -1.
</event>
<event>
 7    1  0.1375918E-013  0.7246154E+02  0.7816164E-02  0.1226708E+00
        -11   -1    0    0    0    0  0.00000000000E+00  0.00000000000E+00  0.45593999997E+02  0.45594000000E+02  0.51100000000E-03 0.  1.
         11   -1    0    0    0    0 -0.00000000000E+00 -0.00000000000E+00 -0.45593999997E+02  0.45594000000E+02  0.51100000000E-03 0. -1.
    9900012    2    1    2    0    0  0.72367440559E+01  0.30807782812E+00  0.17268901727E+02  0.72461538953E+02  0.69999959172E+02 0.  0.
         12    1    1    2    0    0 -0.72367440559E+01 -0.30807782812E+00 -0.17268901727E+02  0.18726461047E+02  0.00000000000E+00 0. -1.
         11    1    3    3    0    0  0.73910363577E+01 -0.10336755983E+02  0.10168824929E+02  0.16275163390E+02  0.51100000000E-03 0. -1.
        -11    1    3    3    0    0  0.21224953205E+02  0.22727240620E+02  0.54760951260E+01  0.31575524110E+02  0.51100000000E-03 0.  1.
        -12    1    3    3    0    0 -0.21379245507E+02 -0.12082406809E+02  0.16239816727E+01  0.24610851452E+02  0.00000000000E+00 0.  1.
</event>
<event>
 7    1  0.1375918E-013  0.7246157E+02  0.7816164E-02  0.1226708E+00
        -11   -1    0    0    0    0  0.00000000000E+00  0.00000000000E+00  0.45593999997E+02  0.45594000000E+02  0.51100000000E-03 0.  1.
         11   -1    0    0    0    0 -0.00000000000E+00 -0.00000000000E+00 -0.45593999997E+02  0.45594000000E+02  0.51100000000E-03 0. -1.
    9900012    2    1    2    0    0  0.57925192977E+01  0.31320637246E+01  0.17530436244E+02  0.72461566866E+02  0.69999995535E+02 0.  0.
         12    1    1    2    0    0 -0.57925192977E+01 -0.31320637246E+01 -0.17530436244E+02  0.18726433134E+02  0.00000000000E+00 0. -1.
         11    1    3    3    0    0 -0.10853301230E+02  0.23309374493E+02  0.10068692718E+02  0.27613396390E+02  0.51100000000E-03 0.  1.
        -11    1    3    3    0    0  0.25873863183E+02 -0.65425708382E+01 -0.19940523441E+00  0.26688982594E+02  0.51100000000E-03 0. -1.
        -12    1    3    3    0    0 -0.92280426555E+01 -0.13634739930E+02  0.76611487605E+01  0.18159187882E+02  0.00000000000E+00 0.  1.
</event>
<event>
 7    1  0.1375918E-013  0.7246159E+02  0.7816164E-02  0.1226708E+00
        -11   -1    0    0    0    0  0.00000000000E+00  0.00000000000E+00  0.45593999997E+02  0.45594000000E+02  0.51100000000E-03 0.  1.
         11   -1    0    0    0    0 -0.00000000000E+00 -0.00000000000E+00 -0.45593999997E+02  0.45594000000E+02  0.51100000000E-03 0. -1.
    9900012    2    1    2    0    0 -0.84251927716E+01  0.54125536146E+01  0.15823993295E+02  0.72461591543E+02  0.70000027681E+02 0.  0.
         12    1    1    2    0    0  0.84251927716E+01 -0.54125536146E+01 -0.15823993295E+02  0.18726408457E+02  0.00000000000E+00 0. -1.
         11    1    3    3    0    0  0.11922253614E+02 -0.97976131691E+01  0.59645509147E+01  0.16544159783E+02  0.51100000000E-03 0. -1.
        -11    1    3    3    0    0  0.23106148976E+01  0.27122685633E+02  0.12928957133E+02  0.30135310683E+02  0.51100000000E-03 0.  1.
        -12    1    3    3    0    0 -0.22658061283E+02 -0.11912518849E+02 -0.30695147522E+01  0.25782121078E+02  0.00000000000E+00 0.  1.
</event>
<event>
 7    1  0.1375918E-013  0.7246157E+02  0.7816164E-02  0.1226708E+00
        -11   -1    0    0    0    0  0.00000000000E+00  0.00000000000E+00  0.45593999997E+02  0.45594000000E+02  0.51100000000E-03 0.  1.
         11   -1    0    0    0    0 -0.00000000000E+00 -0.00000000000E+00 -0.45593999997E+02  0.45594000000E+02  0.51100000000E-03 0. -1.
    9900012    2    1    2    0    0 -0.12667058714E+02 -0.12706646732E+02  0.53633941949E+01  0.72461568282E+02  0.69999997378E+02 0.  0.
         12    1    1    2    0    0  0.12667058714E+02  0.12706646732E+02 -0.53633941949E+01  0.18726431718E+02  0.00000000000E+00 0. -1.
         11    1    3    3    0    0  0.40602463832E+01  0.12342209020E+02 -0.13739397394E+02  0.18909964707E+02  0.51100000000E-03 0. -1.
        -11    1    3    3    0    0 -0.13134632813E+02 -0.11772220025E+02  0.30802134974E+02  0.35494721617E+02  0.51100000000E-03 0.  1.
        -12    1    3    3    0    0 -0.35926722836E+01 -0.13276635727E+02 -0.11699343386E+02  0.18056881958E+02  0.00000000000E+00 0.  1.
</event>
<event>
 7    1  0.1375918E-013  0.7246139E+02  0.7816164E-02  0.1226708E+00
        -11   -1    0    0    0    0  0.00000000000E+00  0.00000000000E+00  0.45593999997E+02  0.45594000000E+02  0.51100000000E-03 0. -1.
         11   -1    0    0    0    0 -0.00000000000E+00 -0.00000000000E+00 -0.45593999997E+02  0.45594000000E+02  0.51100000000E-03 0.  1.
    9900012    2    1    2    0    0 -0.10249449461E+02  0.14960246808E+02 -0.46717861849E+01  0.72461393661E+02  0.69999769902E+02 0.  0.
         12    1    1    2    0    0  0.10249449461E+02 -0.14960246808E+02  0.46717861849E+01  0.18726606339E+02  0.00000000000E+00 0. -1.
         11    1    3    3    0    0  0.18917177470E+02 -0.32832855783E+01 -0.20911665059E+02  0.28389034915E+02  0.51100000000E-03 0. -1.
        -11    1    3    3    0    0 -0.10742847541E+02  0.19752103964E+02  0.90819942659E+01  0.24249474312E+02  0.51100000000E-03 0.  1.
         12    1    3    3    0    0 -0.18423779390E+02 -0.15085715774E+01  0.71578846083E+01  0.19822884434E+02  0.00000000000E+00 0. -1.
</event>
<event>
 7    1  0.1375918E-013  0.7246232E+02  0.7816164E-02  0.1226706E+00
        -11   -1    0    0    0    0  0.00000000000E+00  0.00000000000E+00  0.45593999997E+02  0.45594000000E+02  0.51100000000E-03 0.  1.
         11   -1    0    0    0    0 -0.00000000000E+00 -0.00000000000E+00 -0.45593999997E+02  0.45594000000E+02  0.51100000000E-03 0. -1.
    9900012    2    1    2    0    0  0.47177608421E+01  0.18104155610E+02 -0.79585821668E+00  0.72462319558E+02  0.70000976048E+02 0.  0.
         12    1    1    2    0    0 -0.47177608421E+01 -0.18104155610E+02  0.79585821668E+00  0.18725680442E+02  0.00000000000E+00 0. -1.
         11    1    3    3    0    0  0.73182327579E+01  0.70941792967E+00  0.79094694625E+01  0.10799051437E+02  0.51100000000E-03 0. -1.
        -11    1    3    3    0    0 -0.24240929560E+02 -0.85103407620E+01  0.31573712836E+01  0.25884697400E+02  0.51100000000E-03 0.  1.
        -12    1    3    3    0    0  0.21640457644E+02  0.25905078442E+02 -0.11862698963E+02  0.35778570721E+02  0.00000000000E+00 0.  1.
</event>
<event>
 7    1  0.1375918E-013  0.7246163E+02  0.7816164E-02  0.1226708E+00
        -11   -1    0    0    0    0  0.00000000000E+00  0.00000000000E+00  0.45593999997E+02  0.45594000000E+02  0.51100000000E-03 0.  1.
         11   -1    0    0    0    0 -0.00000000000E+00 -0.00000000000E+00 -0.45593999997E+02  0.45594000000E+02  0.51100000000E-03 0. -1.
    9900012    2    1    2    0    0  0.94882017608E+01  0.31591054988E+01  0.15832596430E+02  0.72461627422E+02  0.70000074419E+02 0.  0.
         12    1    1    2    0    0 -0.94882017608E+01 -0.31591054988E+01 -0.15832596430E+02  0.18726372578E+02  0.00000000000E+00 0. -1.
         11    1    3    3    0    0  0.42481091335E+00 -0.69570561791E+01  0.19271910573E+02  0.20493599790E+02  0.51100000000E-03 0. -1.
        -11    1    3    3    0    0 -0.11609192652E+02  0.12218873025E+02 -0.19449503524E+02  0.25736305089E+02  0.51100000000E-03 0.  1.
        -12    1    3    3    0    0  0.20672583499E+02 -0.21027113474E+01  0.16010189382E+02  0.26231722543E+02  0.00000000000E+00 0.  1.
</event>
<event>
 7    1  0.1375918E-013  0.7246154E+02  0.7816164E-02  0.1226708E+00
        -11   -1    0    0    0    0  0.00000000000E+00  0.00000000000E+00  0.45593999997E+02  0.45594000000E+02  0.51100000000E-03 0.  1.
         11   -1    0    0    0    0 -0.00000000000E+00 -0.00000000000E+00 -0.45593999997E+02  0.45594000000E+02  0.51100000000E-03 0. -1.
    9900012    2    1    2    0    0  0.89318689303E+01 -0.13815634241E+02 -0.89459702751E+01  0.72461537007E+02  0.69999956637E+02 0.  0.
         12    1    1    2    0    0 -0.89318689303E+01  0.13815634241E+02  0.89459702751E+01  0.18726462993E+02  0.00000000000E+00 0. -1.
         11    1    3    3    0    0  0.36286430280E+02 -0.69727050277E+01 -0.15398691418E+02  0.40030530043E+02  0.51100000000E-03 0. -1.
        -11    1    3    3    0    0 -0.78358865638E+01 -0.91714172335E+01  0.34440310824E+01  0.12545013458E+02  0.51100000000E-03 0.  1.
         12    1    3    3    0    0 -0.19518674786E+02  0.23284880202E+01  0.30086900605E+01  0.19885993506E+02  0.00000000000E+00 0. -1.
</event>
<event>
 7    1  0.1375918E-013  0.7246159E+02  0.7816164E-02  0.1226708E+00
        -11   -1    0    0    0    0  0.00000000000E+00  0.00000000000E+00  0.45593999997E+02  0.45594000000E+02  0.51100000000E-03 0. -1.
         11   -1    0    0    0    0 -0.00000000000E+00 -0.00000000000E+00 -0.45593999997E+02  0.45594000000E+02  0.51100000000E-03 0.  1.
    9900012    2    1    2    0    0 -0.71312397882E+01 -0.15697185892E+02 -0.73090451943E+01  0.72461591709E+02  0.70000027896E+02 0.  0.
         12    1    1    2    0    0  0.71312397882E+01  0.15697185892E+02  0.73090451943E+01  0.18726408291E+02  0.00000000000E+00 0. -1.
         11    1    3    3    0    0  0.26712745697E+01  0.10763204412E+02 -0.34417217508E+01  0.11611534176E+02  0.51100000000E-03 0. -1.
        -11    1    3    3    0    0 -0.14340377958E+02 -0.41941449301E+02 -0.53624585076E+01  0.44648489011E+02  0.51100000000E-03 0.  1.
        -12    1    3    3    0    0  0.45378636003E+01  0.15481058997E+02  0.14951350640E+01  0.16201568522E+02  0.00000000000E+00 0.  1.
</event>
<event>
 7    1  0.1375918E-013  0.7246157E+02  0.7816164E-02  0.1226708E+00
        -11   -1    0    0    0    0  0.00000000000E+00  0.00000000000E+00  0.45593999997E+02  0.45594000000E+02  0.51100000000E-03 0. -1.
         11   -1    0    0    0    0 -0.00000000000E+00 -0.00000000000E+00 -0.45593999997E+02  0.45594000000E+02  0.51100000000E-03 0.  1.
    9900012    2    1    2    0    0  0.14999756308E+02  0.77656713049E+01 -0.80858424723E+01  0.72461569785E+02  0.69999999337E+02 0.  0.
         12    1    1    2    0    0 -0.14999756308E+02 -0.77656713049E+01  0.80858424723E+01  0.18726430215E+02  0.00000000000E+00 0. -1.
         11    1    3    3    0    0  0.59850595952E+01 -0.88260328962E+01  0.21322644922E+02  0.23840616221E+02  0.51100000000E-03 0. -1.
        -11    1    3    3    0    0 -0.15029201156E+01  0.24301078973E+02 -0.12807543911E+02  0.27510623210E+02  0.51100000000E-03 0.  1.
        -12    1    3    3    0    0  0.10517616828E+02 -0.77093747717E+01 -0.16600943484E+02  0.21110330354E+02  0.00000000000E+00 0.  1.
</event>
<event>
 7    1  0.1778986E-013  0.7246135E+02  0.7816164E-02  0.1226709E+00
        -11   -1    0    0    0    0  0.00000000000E+00  0.00000000000E+00  0.45593999997E+02  0.45594000000E+02  0.51100000000E-03 0.  1.
         11   -1    0    0    0    0 -0.00000000000E+00 -0.00000000000E+00 -0.45593999997E+02  0.45594000000E+02  0.51100000000E-03 0. -1.
    9900012    2    1    2    0    0 -0.16389980609E+02  0.12680408113E+01  0.89692817573E+01  0.72461350350E+02  0.69999713481E+02 0.  0.
         12    1    1    2    0    0  0.16389980609E+02 -0.12680408113E+01 -0.89692817573E+01  0.18726649650E+02  0.00000000000E+00 0. -1.
         11    1    3    3    0    0  0.44902159304E+01 -0.15567830617E+02 -0.11601401035E+02  0.19927666583E+02  0.51100000000E-03 0. -1.
        -11    1    3    3    0    0 -0.25706024170E+02  0.72416979774E+01  0.28595416974E+02  0.39127225054E+02  0.51100000000E-03 0.  1.
         12    1    3    3    0    0  0.48258276309E+01  0.95941734509E+01 -0.80247341819E+01  0.13406458713E+02  0.00000000000E+00 0. -1.
</event>
<event>
 7    1  0.1375918E-013  0.7246155E+02  0.7816164E-02  0.1226708E+00
        -11   -1    0    0    0    0  0.00000000000E+00  0.00000000000E+00  0.45593999997E+02  0.45594000000E+02  0.51100000000E-03 0.  1.
         11   -1    0    0    0    0 -0.00000000000E+00 -0.00000000000E+00 -0.45593999997E+02  0.45594000000E+02  0.51100000000E-03 0. -1.
    9900012    2    1    2    0    0 -0.51927615502E+01  0.15993213415E+02  0.82420961413E+01  0.72461553549E+02  0.69999978187E+02 0.  0.
         12    1    1    2    0    0  0.51927615502E+01 -0.15993213415E+02 -0.82420961413E+01  0.18726446451E+02  0.00000000000E+00 0. -1.
         11    1    3    3    0    0  0.27707060915E+01  0.11444768709E+02 -0.30297907821E+02  0.32505734289E+02  0.51100000000E-03 0. -1.
        -11    1    3    3    0    0 -0.65219344800E+00  0.26649443584E+01  0.14529374495E+02  0.14786142438E+02  0.51100000000E-03 0.  1.
         12    1    3    3    0    0 -0.73112741936E+01  0.18835003479E+01  0.24010629468E+02  0.25169676822E+02  0.00000000000E+00 0. -1.
</event>
<event>
 7    1  0.1375918E-013  0.7246117E+02  0.7816164E-02  0.1226709E+00
        -11   -1    0    0    0    0  0.00000000000E+00  0.00000000000E+00  0.45593999997E+02  0.45594000000E+02  0.51100000000E-03 0.  1.
         11   -1    0    0    0    0 -0.00000000000E+00 -0.00000000000E+00 -0.45593999997E+02  0.45594000000E+02  0.51100000000E-03 0. -1.
    9900012    2    1    2    0    0 -0.12210122399E+02 -0.13209139594E+02  0.52082509018E+01  0.72461165369E+02  0.69999472508E+02 0.  0.
         12    1    1    2    0    0  0.12210122399E+02  0.13209139594E+02 -0.52082509018E+01  0.18726834631E+02  0.00000000000E+00 0. -1.
         11    1    3    3    0    0  0.22120585125E+02  0.28575698564E+00 -0.12699627460E+01  0.22158852610E+02  0.51100000000E-03 0. -1.
        -11    1    3    3    0    0 -0.24585087169E+02 -0.15865248075E+02  0.18521778020E+02  0.34629306503E+02  0.51100000000E-03 0.  1.
        -12    1    3    3    0    0 -0.97456203553E+01  0.23703514951E+01 -0.12043564373E+02  0.15673006257E+02  0.00000000000E+00 0.  1.
</event>
<event>
 7    1  0.1375918E-013  0.7246131E+02  0.7816164E-02  0.1226709E+00
        -11   -1    0    0    0    0  0.00000000000E+00  0.00000000000E+00  0.45593999997E+02  0.45594000000E+02  0.51100000000E-03 0.  1.
         11   -1    0    0    0    0 -0.00000000000E+00 -0.00000000000E+00 -0.45593999997E+02  0.45594000000E+02  0.51100000000E-03 0. -1.
    9900012    2    1    2    0    0 -0.17234850909E+02 -0.72825677965E+01  0.78306637045E+00  0.72461305884E+02  0.69999655555E+02 0.  0.
         12    1    1    2    0    0  0.17234850909E+02  0.72825677965E+01 -0.78306637045E+00  0.18726694116E+02  0.00000000000E+00 0. -1.
         11    1    3    3    0    0 -0.15395104972E+02 -0.40484478277E+01 -0.33380157548E+02  0.36981537354E+02  0.51100000000E-03 0. -1.
        -11    1    3    3    0    0  0.24773322938E+01  0.55105099366E+00  0.37417173016E+01  0.45212035032E+01  0.51100000000E-03 0.  1.
         12    1    3    3    0    0 -0.43170782311E+01 -0.37851709625E+01  0.30421506617E+02  0.30958565026E+02  0.00000000000E+00 0. -1.
</event>
<event>
 7    1  0.1375918E-013  0.7246156E+02  0.7816164E-02  0.1226708E+00
        -11   -1    0    0    0    0  0.00000000000E+00  0.00000000000E+00  0.45593999997E+02  0.45594000000E+02  0.51100000000E-03 0.  1.
         11   -1    0    0    0    0 -0.00000000000E+00 -0.00000000000E+00 -0.45593999997E+02  0.45594000000E+02  0.51100000000E-03 0. -1.
    9900012    2    1    2    0    0  0.17170866458E+02  0.72927361863E+01  0.16300518581E+01  0.72461555461E+02  0.69999980677E+02 0.  0.
         12    1    1    2    0    0 -0.17170866458E+02 -0.72927361863E+01 -0.16300518581E+01  0.18726444539E+02  0.00000000000E+00 0. -1.
         11    1    3    3    0    0  0.26391795546E+02 -0.65847499557E+01 -0.14388535730E+02  0.30771996439E+02  0.51100000000E-03 0. -1.
        -11    1    3    3    0    0  0.57090161830E+01  0.19675018533E+02  0.23259443955E+01  0.20618177359E+02  0.51100000000E-03 0.  1.
         12    1    3    3    0    0 -0.14929945271E+02 -0.57975323906E+01  0.13692643192E+02  0.21071381663E+02  0.00000000000E+00 0. -1.
</event>
<event>
 7    1  0.1375918E-013  0.7246159E+02  0.7816164E-02  0.1226708E+00
        -11   -1    0    0    0    0  0.00000000000E+00  0.00000000000E+00  0.45593999997E+02  0.45594000000E+02  0.51100000000E-03 0.  1.
         11   -1    0    0    0    0 -0.00000000000E+00 -0.00000000000E+00 -0.45593999997E+02  0.45594000000E+02  0.51100000000E-03 0. -1.
    9900012    2    1    2    0    0  0.61477256690E+00  0.17605147913E+02 -0.63528898316E+01  0.72461591173E+02  0.70000027198E+02 0.  0.
         12    1    1    2    0    0 -0.61477256690E+00 -0.17605147913E+02  0.63528898316E+01  0.18726408827E+02  0.00000000000E+00 0. -1.
         11    1    3    3    0    0  0.44720525781E+00 -0.17311995442E+02  0.13964013615E+02  0.22246322285E+02  0.51100000000E-03 0.  1.
        -11    1    3    3    0    0  0.45139262069E+01  0.37215156083E+02 -0.23605041411E+02  0.44300579594E+02  0.51100000000E-03 0. -1.
         12    1    3    3    0    0 -0.43463588978E+01 -0.22980127275E+01  0.32881379646E+01  0.59146892935E+01  0.00000000000E+00 0. -1.
</event>
<event>
 7    1  0.1375918E-013  0.7246159E+02  0.7816164E-02  0.1226708E+00
        -11   -1    0    0    0    0  0.00000000000E+00  0.00000000000E+00  0.45593999997E+02  0.45594000000E+02  0.51100000000E-03 0. -1.
         11   -1    0    0    0    0 -0.00000000000E+00 -0.00000000000E+00 -0.45593999997E+02  0.45594000000E+02  0.51100000000E-03 0.  1.
    9900012    2    1    2    0    0  0.10872574462E+02  0.12493473591E+02 -0.87394992214E+01  0.72461585382E+02  0.70000019655E+02 0.  0.
         12    1    1    2    0    0 -0.10872574462E+02 -0.12493473591E+02  0.87394992214E+01  0.18726414618E+02  0.00000000000E+00 0. -1.
         11    1    3    3    0    0  0.17052933460E+02  0.82854951446E+01 -0.13552188106E+02  0.23304801482E+02  0.51100000000E-03 0. -1.
        -11    1    3    3    0    0 -0.25041486312E+02 -0.73485833021E+01  0.67375517524E+01  0.26953150412E+02  0.51100000000E-03 0.  1.
        -12    1    3    3    0    0  0.18861127314E+02  0.11556561748E+02 -0.19248628678E+01  0.22203633488E+02  0.00000000000E+00 0.  1.
</event>
<event>
 7    1  0.1375918E-013  0.7246159E+02  0.7816164E-02  0.1226708E+00
        -11   -1    0    0    0    0  0.00000000000E+00  0.00000000000E+00  0.45593999997E+02  0.45594000000E+02  0.51100000000E-03 0.  1.
         11   -1    0    0    0    0 -0.00000000000E+00 -0.00000000000E+00 -0.45593999997E+02  0.45594000000E+02  0.51100000000E-03 0. -1.
    9900012    2    1    2    0    0  0.97203622532E+01 -0.15985905111E+02 -0.80232674675E+00  0.72461592636E+02  0.70000029104E+02 0.  0.
         12    1    1    2    0    0 -0.97203622532E+01  0.15985905111E+02  0.80232674675E+00  0.18726407364E+02  0.00000000000E+00 0. -1.
         11    1    3    3    0    0 -0.87389593237E+01 -0.26999134831E+01  0.10992531491E+02  0.14300164045E+02  0.51100000000E-03 0. -1.
        -11    1    3    3    0    0  0.33348511004E+02 -0.38068936565E+01  0.48340897654E+01  0.33911414739E+02  0.51100000000E-03 0.  1.
        -12    1    3    3    0    0 -0.14889189427E+02 -0.94790979714E+01 -0.16628948003E+02  0.24250013852E+02  0.00000000000E+00 0.  1.
</event>
<event>
 7    1  0.1375918E-013  0.7246159E+02  0.7816164E-02  0.1226708E+00
        -11   -1    0    0    0    0  0.00000000000E+00  0.00000000000E+00  0.45593999997E+02  0.45594000000E+02  0.51100000000E-03 0.  1.
         11   -1    0    0    0    0 -0.00000000000E+00 -0.00000000000E+00 -0.45593999997E+02  0.45594000000E+02  0.51100000000E-03 0. -1.
    9900012    2    1    2    0    0  0.14125368218E+02  0.53408423540E+01  0.11073741640E+02  0.72461591421E+02  0.70000027522E+02 0.  0.
         12    1    1    2    0    0 -0.14125368218E+02 -0.53408423540E+01 -0.11073741640E+02  0.18726408579E+02  0.00000000000E+00 0. -1.
         11    1    3    3    0    0  0.76908424536E+01  0.18949350614E+02 -0.92756654358E+01  0.22455843691E+02  0.51100000000E-03 0. -1.
        -11    1    3    3    0    0  0.22817936462E+01  0.18491430407E+01  0.30767967971E+02  0.30907826930E+02  0.51100000000E-03 0.  1.
        -12    1    3    3    0    0  0.41527321177E+01 -0.15457651301E+02 -0.10418560894E+02  0.19097920800E+02  0.00000000000E+00 0.  1.
</event>
<event>
 7    1  0.1375918E-013  0.7246161E+02  0.7816164E-02  0.1226708E+00
        -11   -1    0    0    0    0  0.00000000000E+00  0.00000000000E+00  0.45593999997E+02  0.45594000000E+02  0.51100000000E-03 0.  1.
         11   -1    0    0    0    0 -0.00000000000E+00 -0.00000000000E+00 -0.45593999997E+02  0.45594000000E+02  0.51100000000E-03 0. -1.
    9900012    2    1    2    0    0 -0.17655409748E+02  0.26296745549E+01  0.56611975452E+01  0.72461605812E+02  0.70000046268E+02 0.  0.
         12    1    1    2    0    0  0.17655409748E+02 -0.26296745549E+01 -0.56611975452E+01  0.18726394188E+02  0.00000000000E+00 0. -1.
         11    1    3    3    0    0  0.62076510014E+01  0.71000009671E+01  0.33728665622E+02  0.35022390404E+02  0.51100000000E-03 0. -1.
        -11    1    3    3    0    0 -0.13308823878E+01  0.90000419118E+00 -0.16037202471E+01  0.22700604323E+01  0.51100000000E-03 0.  1.
         12    1    3    3    0    0 -0.22532178362E+02 -0.53703306035E+01 -0.26463747830E+02  0.35169154976E+02  0.00000000000E+00 0. -1.
</event>
<event>
 7    1  0.1375918E-013  0.7246148E+02  0.7816164E-02  0.1226708E+00
        -11   -1    0    0    0    0  0.00000000000E+00  0.00000000000E+00  0.45593999997E+02  0.45594000000E+02  0.51100000000E-03 0.  1.
         11   -1    0    0    0    0 -0.00000000000E+00 -0.00000000000E+00 -0.45593999997E+02  0.45594000000E+02  0.51100000000E-03 0. -1.
    9900012    2    1    2    0    0 -0.17071765293E+02 -0.61376955656E+00  0.76720711712E+01  0.72461479786E+02  0.69999882096E+02 0.  0.
         12    1    1    2    0    0  0.17071765293E+02  0.61376955656E+00 -0.76720711712E+01  0.18726520214E+02  0.00000000000E+00 0. -1.
         11    1    3    3    0    0  0.15271190303E+01 -0.95587557305E+01 -0.22670240111E+02  0.24650389259E+02  0.51100000000E-03 0. -1.
        -11    1    3    3    0    0 -0.12634551784E+02  0.14311805584E+01  0.34933598012E+02  0.37175750791E+02  0.51100000000E-03 0.  1.
        -12    1    3    3    0    0 -0.59643325393E+01  0.75138056155E+01 -0.45912867299E+01  0.10635339736E+02  0.00000000000E+00 0.  1.
</event>
<event>
 7    1  0.1375918E-013  0.7246157E+02  0.7816164E-02  0.1226708E+00
        -11   -1    0    0    0    0  0.00000000000E+00  0.00000000000E+00  0.45593999997E+02  0.45594000000E+02  0.51100000000E-03 0. -1.
         11   -1    0    0    0    0 -0.00000000000E+00 -0.00000000000E+00 -0.45593999997E+02  0.45594000000E+02  0.51100000000E-03 0.  1.
    9900012    2    1    2    0    0 -0.38399580488E+01 -0.11365904696E+02 -0.14378812226E+02  0.72461566586E+02  0.69999995170E+02 0.  0.
         12    1    1    2    0    0  0.38399580488E+01  0.11365904696E+02  0.14378812226E+02  0.18726433414E+02  0.00000000000E+00 0. -1.
         11    1    3    3    0    0  0.22107194441E+01  0.26381939264E+02  0.50072161500E+01  0.26943760198E+02  0.51100000000E-03 0. -1.
        -11    1    3    3    0    0 -0.44911833986E+01 -0.38506908699E+02 -0.20068080080E+02  0.43654101574E+02  0.51100000000E-03 0.  1.
        -12    1    3    3    0    0 -0.15594940943E+01  0.75906473890E+00  0.68205170387E+00  0.18637048143E+01  0.00000000000E+00 0.  1.
</event>
<event>
 7    1  0.1375918E-013  0.7246157E+02  0.7816164E-02  0.1226708E+00
        -11   -1    0    0    0    0  0.00000000000E+00  0.00000000000E+00  0.45593999997E+02  0.45594000000E+02  0.51100000000E-03 0.  1.
         11   -1    0    0    0    0 -0.00000000000E+00 -0.00000000000E+00 -0.45593999997E+02  0.45594000000E+02  0.51100000000E-03 0. -1.
    9900012    2    1    2    0    0 -0.96902216672E+01 -0.15531941075E+02 -0.39417861270E+01  0.72461567681E+02  0.69999996596E+02 0.  0.
         12    1    1    2    0    0  0.96902216672E+01  0.15531941075E+02  0.39417861270E+01  0.18726432319E+02  0.00000000000E+00 0. -1.
         11    1    3    3    0    0  0.16650612095E+02  0.95024455036E+01 -0.13014734984E+02  0.23171592105E+02  0.51100000000E-03 0. -1.
        -11    1    3    3    0    0 -0.11279507404E+02 -0.63026201282E+01  0.19253298335E+02  0.23187061151E+02  0.51100000000E-03 0.  1.
         12    1    3    3    0    0 -0.15061326358E+02 -0.18731766450E+02 -0.10180349478E+02  0.26102914426E+02  0.00000000000E+00 0. -1.
</event>
<event>
 7    1  0.1375918E-013  0.7246153E+02  0.7816164E-02  0.1226708E+00
        -11   -1    0    0    0    0  0.00000000000E+00  0.00000000000E+00  0.45593999997E+02  0.45594000000E+02  0.51100000000E-03 0. -1.
         11   -1    0    0    0    0 -0.00000000000E+00 -0.00000000000E+00 -0.45593999997E+02  0.45594000000E+02  0.51100000000E-03 0.  1.
    9900012    2    1    2    0    0  0.46261084745E+00  0.18492020625E+02  0.29175327783E+01  0.72461525876E+02  0.69999942137E+02 0.  0.
         12    1    1    2    0    0 -0.46261084745E+00 -0.18492020625E+02 -0.29175327783E+01  0.18726474124E+02  0.00000000000E+00 0. -1.
         11    1    3    3    0    0  0.21988674713E+02  0.17006597321E+02  0.21303333019E+02  0.35022252441E+02  0.51100000000E-03 0. -1.
        -11    1    3    3    0    0 -0.47239531923E+00 -0.60460603761E+01 -0.13139964645E+02  0.14471927119E+02  0.51100000000E-03 0.  1.
         12    1    3    3    0    0 -0.21053668546E+02  0.75314836801E+01 -0.52458355956E+01  0.22967346315E+02  0.00000000000E+00 0. -1.
</event>
<event>
 7    1  0.1375918E-013  0.7246156E+02  0.7816164E-02  0.1226708E+00
        -11   -1    0    0    0    0  0.00000000000E+00  0.00000000000E+00  0.45593999997E+02  0.45594000000E+02  0.51100000000E-03 0.  1.
         11   -1    0    0    0    0 -0.00000000000E+00 -0.00000000000E+00 -0.45593999997E+02  0.45594000000E+02  0.51100000000E-03 0. -1.
    9900012    2    1    2    0    0  0.44691354667E+01 -0.16941351372E+02  0.66103669248E+01  0.72461561230E+02  0.69999988192E+02 0.  0.
         12    1    1    2    0    0 -0.44691354667E+01  0.16941351372E+02 -0.66103669248E+01  0.18726438770E+02  0.00000000000E+00 0. -1.
         11    1    3    3    0    0  0.25743849495E+02 -0.17251727659E+02  0.15343850341E+02  0.34580364914E+02  0.51100000000E-03 0.  1.
        -11    1    3    3    0    0 -0.21976408491E+02  0.34152784854E+01  0.58155688496E+01  0.22987985962E+02  0.51100000000E-03 0. -1.
         12    1    3    3    0    0  0.70169446311E+00 -0.31049021983E+01 -0.14549052266E+02  0.14893210353E+02  0.00000000000E+00 0. -1.
</event>
<event>
 7    1  0.1375918E-013  0.7246153E+02  0.7816164E-02  0.1226708E+00
        -11   -1    0    0    0    0  0.00000000000E+00  0.00000000000E+00  0.45593999997E+02  0.45594000000E+02  0.51100000000E-03 0.  1.
         11   -1    0    0    0    0 -0.00000000000E+00 -0.00000000000E+00 -0.45593999997E+02  0.45594000000E+02  0.51100000000E-03 0. -1.
    9900012    2    1    2    0    0  0.10417113213E+02 -0.30713513794E+01  0.15255526768E+02  0.72461533597E+02  0.69999952195E+02 0.  0.
         12    1    1    2    0    0 -0.10417113213E+02  0.30713513794E+01 -0.15255526768E+02  0.18726466403E+02  0.00000000000E+00 0. -1.
         11    1    3    3    0    0 -0.21217382537E+01  0.79878391952E+01  0.35660346743E+02  0.36605568952E+02  0.51100000000E-03 0.  1.
        -11    1    3    3    0    0  0.11283668157E+02 -0.29692046491E+01 -0.24174527150E+02  0.26842971269E+02  0.51100000000E-03 0. -1.
         12    1    3    3    0    0  0.12551833096E+01 -0.80899859254E+01  0.37697071753E+01  0.90129933763E+01  0.00000000000E+00 0. -1.
</event>
<event>
 7    1  0.1375918E-013  0.7246157E+02  0.7816164E-02  0.1226708E+00
        -11   -1    0    0    0    0  0.00000000000E+00  0.00000000000E+00  0.45593999997E+02  0.45594000000E+02  0.51100000000E-03 0.  1.
         11   -1    0    0    0    0 -0.00000000000E+00 -0.00000000000E+00 -0.45593999997E+02  0.45594000000E+02  0.51100000000E-03 0. -1.
    9900012    2    1    2    0    0  0.70389222904E+00 -0.13206111236E+02  0.13258290675E+02  0.72461571887E+02  0.70000002075E+02 0.  0.
         12    1    1    2    0    0 -0.70389222904E+00  0.13206111236E+02 -0.13258290675E+02  0.18726428113E+02  0.00000000000E+00 0. -1.
         11    1    3    3    0    0 -0.13627809775E+02 -0.10122379512E+02  0.15569649581E+02  0.23034620782E+02  0.51100000000E-03 0.  1.
        -11    1    3    3    0    0  0.19669271919E+02  0.15593718293E+02 -0.11883273486E+02  0.27771505128E+02  0.51100000000E-03 0. -1.
         12    1    3    3    0    0 -0.53375699154E+01 -0.18677450017E+02  0.95719145802E+01  0.21655445978E+02  0.00000000000E+00 0. -1.
</event>
<event>
 7    1  0.1375918E-013  0.7246156E+02  0.7816164E-02  0.1226708E+00
        -11   -1    0    0    0    0  0.00000000000E+00  0.00000000000E+00  0.45593999997E+02  0.45594000000E+02  0.51100000000E-03 0. -1.
         11   -1    0    0    0    0 -0.00000000000E+00 -0.00000000000E+00 -0.45593999997E+02  0.45594000000E+02  0.51100000000E-03 0.  1.
    9900012    2    1    2    0    0  0.15555937086E+01 -0.56183692177E+00 -0.18653254307E+02  0.72461563372E+02  0.69999990983E+02 0.  0.
         12    1    1    2    0    0 -0.15555937086E+01  0.56183692177E+00  0.18653254307E+02  0.18726436628E+02  0.00000000000E+00 0. -1.
         11    1    3    3    0    0  0.23519201603E+02  0.18399519207E+02  0.10002333694E+02  0.31491932788E+02  0.51100000000E-03 0. -1.
        -11    1    3    3    0    0 -0.13242941299E+02 -0.89282422635E+01 -0.16311405970E+02  0.22828731221E+02  0.51100000000E-03 0.  1.
         12    1    3    3    0    0 -0.87206665952E+01 -0.10033113866E+02 -0.12344182031E+02  0.18140899364E+02  0.00000000000E+00 0. -1.
</event>
<event>
 7    1  0.1375918E-013  0.7246156E+02  0.7816164E-02  0.1226708E+00
        -11   -1    0    0    0    0  0.00000000000E+00  0.00000000000E+00  0.45593999997E+02  0.45594000000E+02  0.51100000000E-03 0. -1.
         11   -1    0    0    0    0 -0.00000000000E+00 -0.00000000000E+00 -0.45593999997E+02  0.45594000000E+02  0.51100000000E-03 0.  1.
    9900012    2    1    2    0    0  0.49395226871E+01 -0.13654756660E+02 -0.11824897244E+02  0.72461562574E+02  0.69999989943E+02 0.  0.
         12    1    1    2    0    0 -0.49395226871E+01  0.13654756660E+02  0.11824897244E+02  0.18726437426E+02  0.00000000000E+00 0. -1.
         11    1    3    3    0    0  0.96487653833E+01 -0.71000697468E+01  0.39752272376E+01  0.12621889545E+02  0.51100000000E-03 0. -1.
        -11    1    3    3    0    0 -0.24766965911E+02 -0.21086673757E+02 -0.53857463675E+01  0.32970542531E+02  0.51100000000E-03 0.  1.
        -12    1    3    3    0    0  0.20057723215E+02  0.14531986844E+02 -0.10414378114E+02  0.26869130498E+02  0.00000000000E+00 0.  1.
</event>
<event>
 7    1  0.1375918E-013  0.7246161E+02  0.7816164E-02  0.1226708E+00
        -11   -1    0    0    0    0  0.00000000000E+00  0.00000000000E+00  0.45593999997E+02  0.45594000000E+02  0.51100000000E-03 0. -1.
         11   -1    0    0    0    0 -0.00000000000E+00 -0.00000000000E+00 -0.45593999997E+02  0.45594000000E+02  0.51100000000E-03 0.  1.
    9900012    2    1    2    0    0 -0.18559224462E+02  0.16400227478E+00 -0.24912102414E+01  0.72461605851E+02  0.70000046319E+02 0.  0.
         12    1    1    2    0    0  0.18559224462E+02 -0.16400227478E+00  0.24912102414E+01  0.18726394149E+02  0.00000000000E+00 0. -1.
         11    1    3    3    0    0  0.23864298161E+02 -0.54144714637E+01  0.14214656480E+01  0.24512074429E+02  0.51100000000E-03 0. -1.
        -11    1    3    3    0    0 -0.28871741917E+02 -0.12033564947E+01  0.64286017860E+01  0.29603250993E+02  0.51100000000E-03 0.  1.
         12    1    3    3    0    0 -0.13551780706E+02  0.67818302332E+01 -0.10341277675E+02  0.18346280429E+02  0.00000000000E+00 0. -1.
</event>
<event>
 7    1  0.1375918E-013  0.7246157E+02  0.7816164E-02  0.1226708E+00
        -11   -1    0    0    0    0  0.00000000000E+00  0.00000000000E+00  0.45593999997E+02  0.45594000000E+02  0.51100000000E-03 0.  1.
         11   -1    0    0    0    0 -0.00000000000E+00 -0.00000000000E+00 -0.45593999997E+02  0.45594000000E+02  0.51100000000E-03 0. -1.
    9900012    2    1    2    0    0  0.16420385640E+02 -0.62795725305E+01  0.64511288235E+01  0.72461570580E+02  0.70000000372E+02 0.  0.
         12    1    1    2    0    0 -0.16420385640E+02  0.62795725305E+01 -0.64511288235E+01  0.18726429420E+02  0.00000000000E+00 0. -1.
         11    1    3    3    0    0  0.11799078136E+01 -0.12897306004E+02  0.43599021147E+01  0.13665336854E+02  0.51100000000E-03 0. -1.
        -11    1    3    3    0    0 -0.13711198269E+02  0.21787115059E+02 -0.21739484185E+01  0.25834112962E+02  0.51100000000E-03 0.  1.
        -12    1    3    3    0    0  0.28951676095E+02 -0.15169381585E+02  0.42651751273E+01  0.32962120764E+02  0.00000000000E+00 0.  1.
</event>
<event>
 7    1  0.1375918E-013  0.7246164E+02  0.7816164E-02  0.1226708E+00
        -11   -1    0    0    0    0  0.00000000000E+00  0.00000000000E+00  0.45593999997E+02  0.45594000000E+02  0.51100000000E-03 0.  1.
         11   -1    0    0    0    0 -0.00000000000E+00 -0.00000000000E+00 -0.45593999997E+02  0.45594000000E+02  0.51100000000E-03 0. -1.
    9900012    2    1    2    0    0 -0.18133030171E+02  0.46096120500E+01  0.78820383772E+00  0.72461639656E+02  0.70000090357E+02 0.  0.
         12    1    1    2    0    0  0.18133030171E+02 -0.46096120500E+01 -0.78820383772E+00  0.18726360344E+02  0.00000000000E+00 0. -1.
         11    1    3    3    0    0  0.20400893204E+02  0.22603827007E+01 -0.21380251256E+00  0.20526847913E+02  0.51100000000E-03 0. -1.
        -11    1    3    3    0    0 -0.31591097409E+02 -0.37804171976E+01 -0.13633970941E+02  0.34614652296E+02  0.51100000000E-03 0.  1.
        -12    1    3    3    0    0 -0.69428259659E+01  0.61296465469E+01  0.14635977292E+02  0.17320139447E+02  0.00000000000E+00 0.  1.
</event>
<event>
 7    1  0.1375918E-013  0.7246155E+02  0.7816164E-02  0.1226708E+00
        -11   -1    0    0    0    0  0.00000000000E+00  0.00000000000E+00  0.45593999997E+02  0.45594000000E+02  0.51100000000E-03 0.  1.
         11   -1    0    0    0    0 -0.00000000000E+00 -0.00000000000E+00 -0.45593999997E+02  0.45594000000E+02  0.51100000000E-03 0. -1.
    9900012    2    1    2    0    0  0.16626010226E+01 -0.16569502414E+02  0.85654640743E+01  0.72461552734E+02  0.69999977124E+02 0.  0.
         12    1    1    2    0    0 -0.16626010226E+01  0.16569502414E+02 -0.85654640743E+01  0.18726447266E+02  0.00000000000E+00 0. -1.
         11    1    3    3    0    0 -0.77768256565E+01 -0.18459979246E+02 -0.15823520109E+02  0.25527115779E+02  0.51100000000E-03 0. -1.
        -11    1    3    3    0    0  0.24460089403E+02  0.83402206957E+00  0.11191625302E+02  0.26911782616E+02  0.51100000000E-03 0.  1.
        -12    1    3    3    0    0 -0.15020662724E+02  0.10564547628E+01  0.13197358882E+02  0.20022654339E+02  0.00000000000E+00 0.  1.
</event>
<event>
 7    1  0.1375918E-013  0.7246192E+02  0.7816164E-02  0.1226707E+00
        -11   -1    0    0    0    0  0.00000000000E+00  0.00000000000E+00  0.45593999997E+02  0.45594000000E+02  0.51100000000E-03 0.  1.
         11   -1    0    0    0    0 -0.00000000000E+00 -0.00000000000E+00 -0.45593999997E+02  0.45594000000E+02  0.51100000000E-03 0. -1.
    9900012    2    1    2    0    0 -0.17064951404E+02  0.69495500407E+01  0.33402276076E+01  0.72461923725E+02  0.70000460407E+02 0.  0.
         12    1    1    2    0    0  0.17064951404E+02 -0.69495500407E+01 -0.33402276076E+01  0.18726076275E+02  0.00000000000E+00 0. -1.
         11    1    3    3    0    0 -0.21611839638E+02  0.30990052017E+02  0.22307406097E+01  0.37847472049E+02  0.51100000000E-03 0. -1.
        -11    1    3    3    0    0  0.50683986730E+01 -0.18211090849E+02  0.11901330844E+02  0.22337729767E+02  0.51100000000E-03 0.  1.
         12    1    3    3    0    0 -0.52151043884E+00 -0.58294111268E+01 -0.10791843846E+02  0.12276721909E+02  0.00000000000E+00 0. -1.
</event>
<event>
 7    1  0.1375918E-013  0.7246162E+02  0.7816164E-02  0.1226708E+00
        -11   -1    0    0    0    0  0.00000000000E+00  0.00000000000E+00  0.45593999997E+02  0.45594000000E+02  0.51100000000E-03 0.  1.
         11   -1    0    0    0    0 -0.00000000000E+00 -0.00000000000E+00 -0.45593999997E+02  0.45594000000E+02  0.51100000000E-03 0. -1.
    9900012    2    1    2    0    0 -0.51707901687E+01  0.25084086441E+01  0.17822682720E+02  0.72461622768E+02  0.70000068356E+02 0.  0.
         12    1    1    2    0    0  0.51707901687E+01 -0.25084086441E+01 -0.17822682720E+02  0.18726377232E+02  0.00000000000E+00 0. -1.
         11    1    3    3    0    0 -0.13661590922E+01  0.15155156598E+02  0.25604487273E+02  0.29784810407E+02  0.51100000000E-03 0. -1.
        -11    1    3    3    0    0 -0.12474871590E+02 -0.21373349931E+02  0.46576382575E+01  0.25182059146E+02  0.51100000000E-03 0.  1.
         12    1    3    3    0    0  0.86702405131E+01  0.87266019768E+01 -0.12439442810E+02  0.17494753215E+02  0.00000000000E+00 0. -1.
</event>
<event>
 7    1  0.1375918E-013  0.7246155E+02  0.7816164E-02  0.1226708E+00
        -11   -1    0    0    0    0  0.00000000000E+00  0.00000000000E+00  0.45593999997E+02  0.45594000000E+02  0.51100000000E-03 0.  1.
         11   -1    0    0    0    0 -0.00000000000E+00 -0.00000000000E+00 -0.45593999997E+02  0.45594000000E+02  0.51100000000E-03 0. -1.
    9900012    2    1    2    0    0  0.10772771091E+02 -0.62561163718E+01 -0.13981720985E+02  0.72461545163E+02  0.69999967262E+02 0.  0.
         12    1    1    2    0    0 -0.10772771091E+02  0.62561163718E+01  0.13981720985E+02  0.18726454837E+02  0.00000000000E+00 0. -1.
         11    1    3    3    0    0 -0.13382570211E+01  0.10444237737E+02 -0.10763427345E+01  0.10584495628E+02  0.51100000000E-03 0. -1.
        -11    1    3    3    0    0 -0.84700312307E+01 -0.25345887450E+02  0.11242042761E+02  0.28992050038E+02  0.51100000000E-03 0.  1.
        -12    1    3    3    0    0  0.20581059343E+02  0.86455333418E+01 -0.24147421012E+02  0.32884999498E+02  0.00000000000E+00 0.  1.
</event>
<event>
 7    1  0.1375918E-013  0.7246158E+02  0.7816164E-02  0.1226708E+00
        -11   -1    0    0    0    0  0.00000000000E+00  0.00000000000E+00  0.45593999997E+02  0.45594000000E+02  0.51100000000E-03 0.  1.
         11   -1    0    0    0    0 -0.00000000000E+00 -0.00000000000E+00 -0.45593999997E+02  0.45594000000E+02  0.51100000000E-03 0. -1.
    9900012    2    1    2    0    0  0.15873123133E+02  0.95312137576E+01  0.28069002658E+01  0.72461581154E+02  0.70000014147E+02 0.  0.
         12    1    1    2    0    0 -0.15873123133E+02 -0.95312137576E+01 -0.28069002658E+01  0.18726418846E+02  0.00000000000E+00 0. -1.
         11    1    3    3    0    0 -0.13839546456E+02  0.26441898257E+02 -0.40909853705E+01  0.30123797753E+02  0.51100000000E-03 0.  1.
        -11    1    3    3    0    0  0.26721210472E+02 -0.18763361364E+02  0.13121023759E+02  0.35188749388E+02  0.51100000000E-03 0. -1.
         12    1    3    3    0    0  0.29914591170E+01  0.18526768648E+01 -0.62231381229E+01  0.71490340125E+01  0.00000000000E+00 0. -1.
</event>
<event>
 7    1  0.1375918E-013  0.7246158E+02  0.7816164E-02  0.1226708E+00
        -11   -1    0    0    0    0  0.00000000000E+00  0.00000000000E+00  0.45593999997E+02  0.45594000000E+02  0.51100000000E-03 0. -1.
         11   -1    0    0    0    0 -0.00000000000E+00 -0.00000000000E+00 -0.45593999997E+02  0.45594000000E+02  0.51100000000E-03 0.  1.
    9900012    2    1    2    0    0 -0.16865821323E+02 -0.79327190090E+01 -0.18152050166E+01  0.72461576716E+02  0.70000008365E+02 0.  0.
         12    1    1    2    0    0  0.16865821323E+02  0.79327190090E+01  0.18152050166E+01  0.18726423284E+02  0.00000000000E+00 0. -1.
         11    1    3    3    0    0  0.41109658214E+01 -0.32736703140E+02 -0.62737215366E+01  0.33584987043E+02  0.51100000000E-03 0. -1.
        -11    1    3    3    0    0 -0.13930360156E+02  0.10130520589E+02 -0.73904397802E+01  0.18743024886E+02  0.51100000000E-03 0.  1.
         12    1    3    3    0    0 -0.70464269882E+01  0.14673463543E+02  0.11848956300E+02  0.20133564787E+02  0.00000000000E+00 0. -1.
</event>
<event>
 7    1  0.1375918E-013  0.7246162E+02  0.7816164E-02  0.1226708E+00
        -11   -1    0    0    0    0  0.00000000000E+00  0.00000000000E+00  0.45593999997E+02  0.45594000000E+02  0.51100000000E-03 0. -1.
         11   -1    0    0    0    0 -0.00000000000E+00 -0.00000000000E+00 -0.45593999997E+02  0.45594000000E+02  0.51100000000E-03 0.  1.
    9900012    2    1    2    0    0 -0.24029750140E+01 -0.80019483464E+01 -0.16759232427E+02  0.72461619202E+02  0.70000063711E+02 0.  0.
         12    1    1    2    0    0  0.24029750140E+01  0.80019483464E+01  0.16759232427E+02  0.18726380798E+02  0.00000000000E+00 0. -1.
         11    1    3    3    0    0 -0.20365555330E+02 -0.11036895367E+01  0.19756838225E+02  0.28395538935E+02  0.51100000000E-03 0. -1.
        -11    1    3    3    0    0 -0.26002097670E+01 -0.25455540624E+01 -0.58068044559E+01  0.68527304462E+01  0.51100000000E-03 0.  1.
         12    1    3    3    0    0  0.20562790083E+02 -0.43527047473E+01 -0.30709266196E+02  0.37213349821E+02  0.00000000000E+00 0. -1.
</event>
<event>
 7    1  0.1375918E-013  0.7246169E+02  0.7816164E-02  0.1226708E+00
        -11   -1    0    0    0    0  0.00000000000E+00  0.00000000000E+00  0.45593999997E+02  0.45594000000E+02  0.51100000000E-03 0.  1.
         11   -1    0    0    0    0 -0.00000000000E+00 -0.00000000000E+00 -0.45593999997E+02  0.45594000000E+02  0.51100000000E-03 0. -1.
    9900012    2    1    2    0    0 -0.10597799408E+02 -0.73349441317E+01  0.13585282334E+02  0.72461690865E+02  0.70000157066E+02 0.  0.
         12    1    1    2    0    0  0.10597799408E+02  0.73349441317E+01 -0.13585282334E+02  0.18726309135E+02  0.00000000000E+00 0. -1.
         11    1    3    3    0    0  0.15755055126E+02 -0.10508261710E+02 -0.18308501262E+02  0.26340967045E+02  0.51100000000E-03 0. -1.
        -11    1    3    3    0    0 -0.26341570377E+02 -0.35195261523E+01  0.24470642074E+02  0.36125859409E+02  0.51100000000E-03 0.  1.
         12    1    3    3    0    0 -0.11284156381E-01  0.66928437304E+01  0.74231415226E+01  0.99948644111E+01  0.00000000000E+00 0. -1.
</event>
<event>
 7    1  0.1375918E-013  0.7246154E+02  0.7816164E-02  0.1226708E+00
        -11   -1    0    0    0    0  0.00000000000E+00  0.00000000000E+00  0.45593999997E+02  0.45594000000E+02  0.51100000000E-03 0. -1.
         11   -1    0    0    0    0 -0.00000000000E+00 -0.00000000000E+00 -0.45593999997E+02  0.45594000000E+02  0.51100000000E-03 0.  1.
    9900012    2    1    2    0    0  0.10765565623E+02 -0.47328925428E+01 -0.14573347159E+02  0.72461544852E+02  0.69999966856E+02 0.  0.
         12    1    1    2    0    0 -0.10765565623E+02  0.47328925428E+01  0.14573347159E+02  0.18726455148E+02  0.00000000000E+00 0. -1.
         11    1    3    3    0    0  0.11803030291E+02  0.24412137904E+02  0.84600782865E+01  0.28404875038E+02  0.51100000000E-03 0. -1.
        -11    1    3    3    0    0  0.63576716505E+01 -0.28746534313E+02 -0.21595976471E+02  0.36512592674E+02  0.51100000000E-03 0.  1.
         12    1    3    3    0    0 -0.73951363181E+01 -0.39849613393E+00 -0.14374489747E+01  0.75440771395E+01  0.00000000000E+00 0. -1.
</event>
<event>
 7    1  0.1375918E-013  0.7246151E+02  0.7816164E-02  0.1226708E+00
        -11   -1    0    0    0    0  0.00000000000E+00  0.00000000000E+00  0.45593999997E+02  0.45594000000E+02  0.51100000000E-03 0. -1.
         11   -1    0    0    0    0 -0.00000000000E+00 -0.00000000000E+00 -0.45593999997E+02  0.45594000000E+02  0.51100000000E-03 0.  1.
    9900012    2    1    2    0    0  0.66478383430E+01  0.17057409356E+02 -0.39411410123E+01  0.72461506440E+02  0.69999916818E+02 0.  0.
         12    1    1    2    0    0 -0.66478383430E+01 -0.17057409356E+02  0.39411410123E+01  0.18726493560E+02  0.00000000000E+00 0. -1.
         11    1    3    3    0    0 -0.17911721229E+02  0.34113946525E+02  0.81756204819E+01  0.39388220008E+02  0.51100000000E-03 0. -1.
        -11    1    3    3    0    0  0.81942003205E+01 -0.86948600243E+01 -0.20603511267E+01  0.12123966214E+02  0.51100000000E-03 0.  1.
         12    1    3    3    0    0  0.16365359252E+02 -0.83616771452E+01 -0.10056410368E+02  0.20949320218E+02  0.00000000000E+00 0. -1.
</event>
<event>
 7    1  0.1677164E-013  0.7246146E+02  0.7816164E-02  0.1226708E+00
        -11   -1    0    0    0    0  0.00000000000E+00  0.00000000000E+00  0.45593999997E+02  0.45594000000E+02  0.51100000000E-03 0.  1.
         11   -1    0    0    0    0 -0.00000000000E+00 -0.00000000000E+00 -0.45593999997E+02  0.45594000000E+02  0.51100000000E-03 0. -1.
    9900012    2    1    2    0    0 -0.62099875618E+01 -0.17665941623E+02  0.18400238456E+00  0.72461460121E+02  0.69999856479E+02 0.  0.
         12    1    1    2    0    0  0.62099875618E+01  0.17665941623E+02 -0.18400238456E+00  0.18726539879E+02  0.00000000000E+00 0. -1.
         11    1    3    3    0    0  0.16019323236E+02 -0.15054039685E+02 -0.12251367242E+02  0.25166223938E+02  0.51100000000E-03 0. -1.
        -11    1    3    3    0    0 -0.25229995805E+02 -0.16750957592E+02  0.12698231063E+02  0.32838884588E+02  0.51100000000E-03 0.  1.
         12    1    3    3    0    0  0.30006850079E+01  0.14139055654E+02 -0.26286143625E+00  0.14456351595E+02  0.00000000000E+00 0. -1.
</event>
<event>
 7    1  0.1375918E-013  0.7246165E+02  0.7816164E-02  0.1226708E+00
        -11   -1    0    0    0    0  0.00000000000E+00  0.00000000000E+00  0.45593999997E+02  0.45594000000E+02  0.51100000000E-03 0. -1.
         11   -1    0    0    0    0 -0.00000000000E+00 -0.00000000000E+00 -0.45593999997E+02  0.45594000000E+02  0.51100000000E-03 0.  1.
    9900012    2    1    2    0    0  0.43653759939E+01 -0.17940654337E+02 -0.31229300360E+01  0.72461647509E+02  0.70000100587E+02 0.  0.
         12    1    1    2    0    0 -0.43653759939E+01  0.17940654337E+02  0.31229300360E+01  0.18726352491E+02  0.00000000000E+00 0. -1.
         11    1    3    3    0    0  0.51413305226E+01  0.33081975917E+01  0.12487375524E+02  0.13903668530E+02  0.51100000000E-03 0. -1.
        -11    1    3    3    0    0 -0.22726609841E+02 -0.19135179969E+02  0.27862112398E+01  0.29839853898E+02  0.51100000000E-03 0.  1.
        -12    1    3    3    0    0  0.21950655312E+02 -0.21136719595E+01 -0.18396516800E+02  0.28718125081E+02  0.00000000000E+00 0.  1.
</event>
<event>
 7    1  0.1375918E-013  0.7246162E+02  0.7816164E-02  0.1226708E+00
        -11   -1    0    0    0    0  0.00000000000E+00  0.00000000000E+00  0.45593999997E+02  0.45594000000E+02  0.51100000000E-03 0. -1.
         11   -1    0    0    0    0 -0.00000000000E+00 -0.00000000000E+00 -0.45593999997E+02  0.45594000000E+02  0.51100000000E-03 0.  1.
    9900012    2    1    2    0    0  0.15508916285E+01  0.14993647906E+02 -0.11111368661E+02  0.72461621389E+02  0.70000066560E+02 0.  0.
         12    1    1    2    0    0 -0.15508916285E+01 -0.14993647906E+02  0.11111368661E+02  0.18726378611E+02  0.00000000000E+00 0. -1.
         11    1    3    3    0    0  0.18537520046E+02  0.15350514623E+02 -0.18841309334E+02  0.30565877810E+02  0.51100000000E-03 0. -1.
        -11    1    3    3    0    0 -0.13809229290E+02 -0.17797171123E+02 -0.74580182685E-01  0.22526421732E+02  0.51100000000E-03 0.  1.
         12    1    3    3    0    0 -0.31773991270E+01  0.17440304407E+02  0.78045208557E+01  0.19369321847E+02  0.00000000000E+00 0. -1.
</event>
<event>
 7    1  0.1375918E-013  0.7246155E+02  0.7816164E-02  0.1226708E+00
        -11   -1    0    0    0    0  0.00000000000E+00  0.00000000000E+00  0.45593999997E+02  0.45594000000E+02  0.51100000000E-03 0.  1.
         11   -1    0    0    0    0 -0.00000000000E+00 -0.00000000000E+00 -0.45593999997E+02  0.45594000000E+02  0.51100000000E-03 0. -1.
    9900012    2    1    2    0    0 -0.63592974954E+00 -0.82822558168E+01  0.16783318377E+02  0.72461549621E+02  0.69999973069E+02 0.  0.
         12    1    1    2    0    0  0.63592974954E+00  0.82822558168E+01 -0.16783318377E+02  0.18726450379E+02  0.00000000000E+00 0. -1.
         11    1    3    3    0    0 -0.87826742796E+01  0.51249642623E+01 -0.17991654583E+02  0.20666404164E+02  0.51100000000E-03 0. -1.
        -11    1    3    3    0    0  0.14405879431E+02  0.74663956972E+01  0.18428805923E+02  0.24553967396E+02  0.51100000000E-03 0.  1.
         12    1    3    3    0    0 -0.62591349014E+01 -0.20873615776E+02  0.16346167037E+02  0.27241178060E+02  0.00000000000E+00 0. -1.
</event>
<event>
 7    1  0.1375918E-013  0.7246159E+02  0.7816164E-02  0.1226708E+00
        -11   -1    0    0    0    0  0.00000000000E+00  0.00000000000E+00  0.45593999997E+02  0.45594000000E+02  0.51100000000E-03 0. -1.
         11   -1    0    0    0    0 -0.00000000000E+00 -0.00000000000E+00 -0.45593999997E+02  0.45594000000E+02  0.51100000000E-03 0.  1.
    9900012    2    1    2    0    0 -0.33504349358E+01  0.77457877400E+01 -0.16716936123E+02  0.72461585626E+02  0.70000019972E+02 0.  0.
         12    1    1    2    0    0  0.33504349358E+01 -0.77457877400E+01  0.16716936123E+02  0.18726414374E+02  0.00000000000E+00 0. -1.
         11    1    3    3    0    0  0.58234725098E+01 -0.18569585920E+02 -0.11924736398E+02  0.22824147119E+02  0.51100000000E-03 0. -1.
        -11    1    3    3    0    0 -0.23669446516E+02  0.76814466988E+01 -0.72039127483E+01  0.25906440916E+02  0.51100000000E-03 0.  1.
        -12    1    3    3    0    0  0.14495539071E+02  0.18633926961E+02  0.24117130231E+01  0.23730997591E+02  0.00000000000E+00 0.  1.
</event>
<event>
 7    1  0.1375918E-013  0.7246159E+02  0.7816164E-02  0.1226708E+00
        -11   -1    0    0    0    0  0.00000000000E+00  0.00000000000E+00  0.45593999997E+02  0.45594000000E+02  0.51100000000E-03 0.  1.
         11   -1    0    0    0    0 -0.00000000000E+00 -0.00000000000E+00 -0.45593999997E+02  0.45594000000E+02  0.51100000000E-03 0. -1.
    9900012    2    1    2    0    0  0.15441400426E+02 -0.10592569141E+02 -0.19722295023E+00  0.72461594445E+02  0.70000031461E+02 0.  0.
         12    1    1    2    0    0 -0.15441400426E+02  0.10592569141E+02  0.19722295023E+00  0.18726405555E+02  0.00000000000E+00 0. -1.
         11    1    3    3    0    0 -0.11275175668E+02 -0.24099435095E+02 -0.15125502810E+02  0.30605443858E+02  0.51100000000E-03 0. -1.
        -11    1    3    3    0    0  0.26449577715E+02  0.99032821703E+01  0.20721018395E+02  0.35028784772E+02  0.51100000000E-03 0.  1.
         12    1    3    3    0    0  0.26699837947E+00  0.36035837839E+01 -0.57927385360E+01  0.68273658148E+01  0.00000000000E+00 0. -1.
</event>
<event>
 7    1  0.1375918E-013  0.7246156E+02  0.7816164E-02  0.1226708E+00
        -11   -1    0    0    0    0  0.00000000000E+00  0.00000000000E+00  0.45593999997E+02  0.45594000000E+02  0.51100000000E-03 0.  1.
         11   -1    0    0    0    0 -0.00000000000E+00 -0.00000000000E+00 -0.45593999997E+02  0.45594000000E+02  0.51100000000E-03 0. -1.
    9900012    2    1    2    0    0  0.13430056097E+02  0.12833231736E+02  0.23709114415E+01  0.72461562415E+02  0.69999989736E+02 0.  0.
         12    1    1    2    0    0 -0.13430056097E+02 -0.12833231736E+02 -0.23709114415E+01  0.18726437585E+02  0.00000000000E+00 0. -1.
         11    1    3    3    0    0  0.30709903810E+02  0.82245504091E+01 -0.12767171382E+02  0.34259919539E+02  0.51100000000E-03 0. -1.
        -11    1    3    3    0    0 -0.38084733658E+01  0.24958011884E+00  0.22097486335E+02  0.22424666379E+02  0.51100000000E-03 0.  1.
         12    1    3    3    0    0 -0.13471374347E+02  0.43591012077E+01 -0.69594035117E+01  0.15776976497E+02  0.00000000000E+00 0. -1.
</event>
<event>
 7    1  0.1375918E-013  0.7246154E+02  0.7816164E-02  0.1226708E+00
        -11   -1    0    0    0    0  0.00000000000E+00  0.00000000000E+00  0.45593999997E+02  0.45594000000E+02  0.51100000000E-03 0.  1.
         11   -1    0    0    0    0 -0.00000000000E+00 -0.00000000000E+00 -0.45593999997E+02  0.45594000000E+02  0.51100000000E-03 0. -1.
    9900012    2    1    2    0    0 -0.49634733171E+01 -0.95632875960E+01  0.15316252670E+02  0.72461544573E+02  0.69999966493E+02 0.  0.
         12    1    1    2    0    0  0.49634733171E+01  0.95632875960E+01 -0.15316252670E+02  0.18726455427E+02  0.00000000000E+00 0. -1.
         11    1    3    3    0    0 -0.25883556889E+02 -0.18641374648E+02 -0.99259960955E+00  0.31913079141E+02  0.51100000000E-03 0. -1.
        -11    1    3    3    0    0  0.23871176306E+02  0.91898905333E+01  0.16905512904E+01  0.25634841723E+02  0.51100000000E-03 0.  1.
        -12    1    3    3    0    0 -0.29510927337E+01 -0.11180348147E+00  0.14618300989E+02  0.14913623709E+02  0.00000000000E+00 0.  1.
</event>
<event>
 7    1  0.1375918E-013  0.7246164E+02  0.7816164E-02  0.1226708E+00
        -11   -1    0    0    0    0  0.00000000000E+00  0.00000000000E+00  0.45593999997E+02  0.45594000000E+02  0.51100000000E-03 0. -1.
         11   -1    0    0    0    0 -0.00000000000E+00 -0.00000000000E+00 -0.45593999997E+02  0.45594000000E+02  0.51100000000E-03 0.  1.
    9900012    2    1    2    0    0 -0.11144082405E+02 -0.10713224489E+02 -0.10569430860E+02  0.72461638359E+02  0.70000088667E+02 0.  0.
         12    1    1    2    0    0  0.11144082405E+02  0.10713224489E+02  0.10569430860E+02  0.18726361641E+02  0.00000000000E+00 0. -1.
         11    1    3    3    0    0  0.99369077100E+01 -0.34448769983E+02  0.51543881276E+01  0.36221921614E+02  0.51100000000E-03 0. -1.
        -11    1    3    3    0    0 -0.20149922950E+02  0.19497151472E+02 -0.15128748446E+02  0.31859650661E+02  0.51100000000E-03 0.  1.
         12    1    3    3    0    0 -0.93106716512E+00  0.42383940222E+01 -0.59507054168E+00  0.43800660843E+01  0.00000000000E+00 0. -1.
</event>
<event>
 7    1  0.1375918E-013  0.7246155E+02  0.7816164E-02  0.1226708E+00
        -11   -1    0    0    0    0  0.00000000000E+00  0.00000000000E+00  0.45593999997E+02  0.45594000000E+02  0.51100000000E-03 0.  1.
         11   -1    0    0    0    0 -0.00000000000E+00 -0.00000000000E+00 -0.45593999997E+02  0.45594000000E+02  0.51100000000E-03 0. -1.
    9900012    2    1    2    0    0 -0.15433787594E+02 -0.95702918073E+01  0.45702948814E+01  0.72461551323E+02  0.69999975286E+02 0.  0.
         12    1    1    2    0    0  0.15433787594E+02  0.95702918073E+01 -0.45702948814E+01  0.18726448677E+02  0.00000000000E+00 0. -1.
         11    1    3    3    0    0  0.15776114542E+02 -0.86508463100E+01  0.74859706960E+01  0.19487500852E+02  0.51100000000E-03 0. -1.
        -11    1    3    3    0    0 -0.21689609446E+02 -0.15361684268E+01  0.19124524267E+02  0.28957665653E+02  0.51100000000E-03 0.  1.
         12    1    3    3    0    0 -0.95202926894E+01  0.61672292951E+00 -0.22040200082E+02  0.24016384818E+02  0.00000000000E+00 0. -1.
</event>
<event>
 7    1  0.1375918E-013  0.7246121E+02  0.7816164E-02  0.1226709E+00
        -11   -1    0    0    0    0  0.00000000000E+00  0.00000000000E+00  0.45593999997E+02  0.45594000000E+02  0.51100000000E-03 0.  1.
         11   -1    0    0    0    0 -0.00000000000E+00 -0.00000000000E+00 -0.45593999997E+02  0.45594000000E+02  0.51100000000E-03 0. -1.
    9900012    2    1    2    0    0  0.17962984389E+02 -0.52084948084E+01 -0.94623297730E+00  0.72461212150E+02  0.69999533449E+02 0.  0.
         12    1    1    2    0    0 -0.17962984389E+02  0.52084948084E+01  0.94623297730E+00  0.18726787850E+02  0.00000000000E+00 0. -1.
         11    1    3    3    0    0 -0.12241062467E+02  0.12628582707E+02  0.14236627643E+02  0.22627555732E+02  0.51100000000E-03 0.  1.
        -11    1    3    3    0    0  0.90097265400E+01 -0.21502246775E+02 -0.16055180460E+02  0.28307077004E+02  0.51100000000E-03 0. -1.
        -12    1    3    3    0    0  0.21194320316E+02  0.36651692593E+01  0.87231983918E+00  0.21526579414E+02  0.00000000000E+00 0.  1.
</event>
<event>
 7    1  0.1375918E-013  0.7246154E+02  0.7816164E-02  0.1226708E+00
        -11   -1    0    0    0    0  0.00000000000E+00  0.00000000000E+00  0.45593999997E+02  0.45594000000E+02  0.51100000000E-03 0.  1.
         11   -1    0    0    0    0 -0.00000000000E+00 -0.00000000000E+00 -0.45593999997E+02  0.45594000000E+02  0.51100000000E-03 0. -1.
    9900012    2    1    2    0    0  0.12119766405E+02  0.12293020648E+02  0.72576263097E+01  0.72461541872E+02  0.69999962975E+02 0.  0.
         12    1    1    2    0    0 -0.12119766405E+02 -0.12293020648E+02 -0.72576263097E+01  0.18726458128E+02  0.00000000000E+00 0. -1.
         11    1    3    3    0    0 -0.80059842312E+01 -0.10216442406E+02  0.23203627596E+02  0.26587211453E+02  0.51100000000E-03 0. -1.
        -11    1    3    3    0    0 -0.68472114947E+01  0.11956821855E+02 -0.27693007048E+01  0.14054142477E+02  0.51100000000E-03 0.  1.
         12    1    3    3    0    0  0.26972962131E+02  0.10552641200E+02 -0.13176700582E+02  0.31820187942E+02  0.00000000000E+00 0. -1.
</event>
<event>
 7    1  0.1375918E-013  0.7246158E+02  0.7816164E-02  0.1226708E+00
        -11   -1    0    0    0    0  0.00000000000E+00  0.00000000000E+00  0.45593999997E+02  0.45594000000E+02  0.51100000000E-03 0.  1.
         11   -1    0    0    0    0 -0.00000000000E+00 -0.00000000000E+00 -0.45593999997E+02  0.45594000000E+02  0.51100000000E-03 0. -1.
    9900012    2    1    2    0    0  0.18300701749E+02  0.37820773346E+01 -0.12079090098E+01  0.72461579156E+02  0.70000011544E+02 0.  0.
         12    1    1    2    0    0 -0.18300701749E+02 -0.37820773346E+01  0.12079090098E+01  0.18726420844E+02  0.00000000000E+00 0. -1.
         11    1    3    3    0    0  0.34981283973E+02 -0.19278527093E+01 -0.88154613819E+01  0.36126433593E+02  0.51100000000E-03 0. -1.
        -11    1    3    3    0    0 -0.12962582975E+02 -0.10340215096E+02 -0.28451204104E+01  0.16823891228E+02  0.51100000000E-03 0.  1.
        -12    1    3    3    0    0 -0.37179992494E+01  0.16050145140E+02  0.10452672782E+02  0.19511254335E+02  0.00000000000E+00 0.  1.
</event>
<event>
 7    1  0.1375918E-013  0.7246165E+02  0.7816164E-02  0.1226708E+00
        -11   -1    0    0    0    0  0.00000000000E+00  0.00000000000E+00  0.45593999997E+02  0.45594000000E+02  0.51100000000E-03 0.  1.
         11   -1    0    0    0    0 -0.00000000000E+00 -0.00000000000E+00 -0.45593999997E+02  0.45594000000E+02  0.51100000000E-03 0. -1.
    9900012    2    1    2    0    0 -0.14725468689E+02 -0.23155002695E+01  0.11334696618E+02  0.72461646457E+02  0.70000099216E+02 0.  0.
         12    1    1    2    0    0  0.14725468689E+02  0.23155002695E+01 -0.11334696618E+02  0.18726353543E+02  0.00000000000E+00 0. -1.
         11    1    3    3    0    0 -0.65672404105E+01  0.44123882244E+01  0.26102171628E+02  0.27274918523E+02  0.51100000000E-03 0.  1.
        -11    1    3    3    0    0 -0.12082080848E+02 -0.21599930114E+02 -0.16444560645E+02  0.29714596305E+02  0.51100000000E-03 0. -1.
         12    1    3    3    0    0  0.39238525697E+01  0.14872041620E+02  0.16770856342E+01  0.15472131629E+02  0.00000000000E+00 0. -1.
</event>
<event>
 7    1  0.1375918E-013  0.7246158E+02  0.7816164E-02  0.1226708E+00
        -11   -1    0    0    0    0  0.00000000000E+00  0.00000000000E+00  0.45593999997E+02  0.45594000000E+02  0.51100000000E-03 0.  1.
         11   -1    0    0    0    0 -0.00000000000E+00 -0.00000000000E+00 -0.45593999997E+02  0.45594000000E+02  0.51100000000E-03 0. -1.
    9900012    2    1    2    0    0  0.17132328988E+02 -0.41838850403E+01  0.62973966601E+01  0.72461580287E+02  0.70000013017E+02 0.  0.
         12    1    1    2    0    0 -0.17132328988E+02  0.41838850403E+01 -0.62973966601E+01  0.18726419713E+02  0.00000000000E+00 0. -1.
         11    1    3    3    0    0 -0.96431725597E+01 -0.12203893728E+01 -0.14698434186E+02  0.17621693875E+02  0.51100000000E-03 0. -1.
        -11    1    3    3    0    0  0.19970020724E+01  0.18050279879E+02  0.69613152370E+01  0.19448921078E+02  0.51100000000E-03 0.  1.
        -12    1    3    3    0    0  0.24778499475E+02 -0.21013775547E+02  0.14034515609E+02  0.35390965335E+02  0.00000000000E+00 0.  1.
</event>
<event>
 7    1  0.1375918E-013  0.7246159E+02  0.7816164E-02  0.1226708E+00
        -11   -1    0    0    0    0  0.00000000000E+00  0.00000000000E+00  0.45593999997E+02  0.45594000000E+02  0.51100000000E-03 0.  1.
         11   -1    0    0    0    0 -0.00000000000E+00 -0.00000000000E+00 -0.45593999997E+02  0.45594000000E+02  0.51100000000E-03 0. -1.
    9900012    2    1    2    0    0 -0.75669438961E+01  0.46075355632E+00  0.17123301613E+02  0.72461591057E+02  0.70000027047E+02 0.  0.
         12    1    1    2    0    0  0.75669438961E+01 -0.46075355632E+00 -0.17123301613E+02  0.18726408943E+02  0.00000000000E+00 0. -1.
         11    1    3    3    0    0  0.29594058700E+02  0.39700577604E+01  0.59552029243E+01  0.30447234868E+02  0.51100000000E-03 0. -1.
        -11    1    3    3    0    0 -0.21093421476E+02 -0.78388345999E+01  0.11704906734E+02  0.25365027092E+02  0.51100000000E-03 0.  1.
         12    1    3    3    0    0 -0.16067581121E+02  0.43295303958E+01 -0.53680804539E+00  0.16649329097E+02  0.00000000000E+00 0. -1.
</event>
<event>
 7    1  0.1375918E-013  0.7246157E+02  0.7816164E-02  0.1226708E+00
        -11   -1    0    0    0    0  0.00000000000E+00  0.00000000000E+00  0.45593999997E+02  0.45594000000E+02  0.51100000000E-03 0. -1.
         11   -1    0    0    0    0 -0.00000000000E+00 -0.00000000000E+00 -0.45593999997E+02  0.45594000000E+02  0.51100000000E-03 0.  1.
    9900012    2    1    2    0    0 -0.11405875041E+02 -0.10084357343E+02  0.10903710420E+02  0.72461570832E+02  0.70000000700E+02 0.  0.
         12    1    1    2    0    0  0.11405875041E+02  0.10084357343E+02 -0.10903710420E+02  0.18726429168E+02  0.00000000000E+00 0. -1.
         11    1    3    3    0    0 -0.69065209711E+01  0.53943135406E+01  0.70599055108E+01  0.11253484642E+02  0.51100000000E-03 0. -1.
        -11    1    3    3    0    0 -0.26448126423E+02 -0.25410692803E+02  0.53716199589E+01  0.37068328817E+02  0.51100000000E-03 0.  1.
        -12    1    3    3    0    0  0.21948772353E+02  0.99320219191E+01 -0.15278150499E+01  0.24139757373E+02  0.00000000000E+00 0.  1.
</event>
<event>
 7    1  0.1375918E-013  0.7246157E+02  0.7816164E-02  0.1226708E+00
        -11   -1    0    0    0    0  0.00000000000E+00  0.00000000000E+00  0.45593999997E+02  0.45594000000E+02  0.51100000000E-03 0.  1.
         11   -1    0    0    0    0 -0.00000000000E+00 -0.00000000000E+00 -0.45593999997E+02  0.45594000000E+02  0.51100000000E-03 0. -1.
    9900012    2    1    2    0    0 -0.17494316849E+02 -0.60449749587E+01  0.28436604885E+01  0.72461568166E+02  0.69999997227E+02 0.  0.
         12    1    1    2    0    0  0.17494316849E+02  0.60449749587E+01 -0.28436604885E+01  0.18726431834E+02  0.00000000000E+00 0. -1.
         11    1    3    3    0    0 -0.33739745478E+01 -0.74563379050E+01 -0.30949297281E+02  0.32013117338E+02  0.51100000000E-03 0. -1.
        -11    1    3    3    0    0 -0.60750967649E+01 -0.58162678366E+01  0.52236519392E+01  0.99006218034E+01  0.51100000000E-03 0.  1.
         12    1    3    3    0    0 -0.80452455364E+01  0.72276307829E+01  0.28569305831E+02  0.30547829025E+02  0.00000000000E+00 0. -1.
</event>
<event>
 7    1  0.1375918E-013  0.7246155E+02  0.7816164E-02  0.1226708E+00
        -11   -1    0    0    0    0  0.00000000000E+00  0.00000000000E+00  0.45593999997E+02  0.45594000000E+02  0.51100000000E-03 0. -1.
         11   -1    0    0    0    0 -0.00000000000E+00 -0.00000000000E+00 -0.45593999997E+02  0.45594000000E+02  0.51100000000E-03 0.  1.
    9900012    2    1    2    0    0  0.83308524220E+01 -0.15844467025E+02 -0.54981512283E+01  0.72461550675E+02  0.69999974443E+02 0.  0.
         12    1    1    2    0    0 -0.83308524220E+01  0.15844467025E+02  0.54981512283E+01  0.18726449325E+02  0.00000000000E+00 0. -1.
         11    1    3    3    0    0  0.16435224423E+01 -0.34444755965E+02 -0.42388871416E+01  0.34743496427E+02  0.51100000000E-03 0. -1.
        -11    1    3    3    0    0  0.16252857516E+02  0.41912457498E+01  0.74385514236E+01  0.18359029547E+02  0.51100000000E-03 0.  1.
         12    1    3    3    0    0 -0.95655275363E+01  0.14409043191E+02 -0.86978155103E+01  0.19359024701E+02  0.00000000000E+00 0. -1.
</event>
<event>
 7    1  0.1375918E-013  0.7246155E+02  0.7816164E-02  0.1226708E+00
        -11   -1    0    0    0    0  0.00000000000E+00  0.00000000000E+00  0.45593999997E+02  0.45594000000E+02  0.51100000000E-03 0.  1.
         11   -1    0    0    0    0 -0.00000000000E+00 -0.00000000000E+00 -0.45593999997E+02  0.45594000000E+02  0.51100000000E-03 0. -1.
    9900012    2    1    2    0    0 -0.91685601363E+01 -0.10502912511E+02  0.12502249978E+02  0.72461550238E+02  0.69999973872E+02 0.  0.
         12    1    1    2    0    0  0.91685601363E+01  0.10502912511E+02 -0.12502249978E+02  0.18726449762E+02  0.00000000000E+00 0. -1.
         11    1    3    3    0    0 -0.28000622405E+02  0.14380257575E+02  0.12936509894E+02  0.34032043010E+02  0.51100000000E-03 0. -1.
        -11    1    3    3    0    0  0.16835546574E+02 -0.23226755155E+02  0.78560274070E+01  0.29742813424E+02  0.51100000000E-03 0.  1.
         12    1    3    3    0    0  0.19965156941E+01 -0.16564149308E+01 -0.82902873225E+01  0.86866938031E+01  0.00000000000E+00 0. -1.
</event>
<event>
 7    1  0.1375918E-013  0.7246152E+02  0.7816164E-02  0.1226708E+00
        -11   -1    0    0    0    0  0.00000000000E+00  0.00000000000E+00  0.45593999997E+02  0.45594000000E+02  0.51100000000E-03 0. -1.
         11   -1    0    0    0    0 -0.00000000000E+00 -0.00000000000E+00 -0.45593999997E+02  0.45594000000E+02  0.51100000000E-03 0.  1.
    9900012    2    1    2    0    0 -0.87064260196E+01  0.92600928223E+01  0.13752446493E+02  0.72461522551E+02  0.69999937806E+02 0.  0.
         12    1    1    2    0    0  0.87064260196E+01 -0.92600928223E+01 -0.13752446493E+02  0.18726477449E+02  0.00000000000E+00 0. -1.
         11    1    3    3    0    0  0.97469479263E+01  0.12645045549E+02  0.32277340324E+02  0.36010093994E+02  0.51100000000E-03 0. -1.
        -11    1    3    3    0    0 -0.18890910229E+02 -0.44453472889E+01 -0.15836616324E+01  0.19471404321E+02  0.51100000000E-03 0.  1.
         12    1    3    3    0    0  0.43753628295E+00  0.10603945621E+01 -0.16941232199E+02  0.16980024236E+02  0.00000000000E+00 0. -1.
</event>
<event>
 7    1  0.1375918E-013  0.7246156E+02  0.7816164E-02  0.1226708E+00
        -11   -1    0    0    0    0  0.00000000000E+00  0.00000000000E+00  0.45593999997E+02  0.45594000000E+02  0.51100000000E-03 0.  1.
         11   -1    0    0    0    0 -0.00000000000E+00 -0.00000000000E+00 -0.45593999997E+02  0.45594000000E+02  0.51100000000E-03 0. -1.
    9900012    2    1    2    0    0 -0.25392157558E+01 -0.13130317026E+02  0.13108275075E+02  0.72461555669E+02  0.69999980948E+02 0.  0.
         12    1    1    2    0    0  0.25392157558E+01  0.13130317026E+02 -0.13108275075E+02  0.18726444331E+02  0.00000000000E+00 0. -1.
         11    1    3    3    0    0 -0.10098635691E+02 -0.23015921529E+02 -0.18441164459E+02  0.31173572678E+02  0.51100000000E-03 0. -1.
        -11    1    3    3    0    0  0.92980604355E+01  0.27721620424E+01  0.32487410795E+02  0.33905319209E+02  0.51100000000E-03 0.  1.
         12    1    3    3    0    0 -0.17386405008E+01  0.71134424605E+01 -0.93797126173E+00  0.73826637820E+01  0.00000000000E+00 0. -1.
</event>
<event>
 7    1  0.1375918E-013  0.7246151E+02  0.7816164E-02  0.1226708E+00
        -11   -1    0    0    0    0  0.00000000000E+00  0.00000000000E+00  0.45593999997E+02  0.45594000000E+02  0.51100000000E-03 0.  1.
         11   -1    0    0    0    0 -0.00000000000E+00 -0.00000000000E+00 -0.45593999997E+02  0.45594000000E+02  0.51100000000E-03 0. -1.
    9900012    2    1    2    0    0 -0.25594168469E+01  0.17931301586E+02  0.47538483413E+01  0.72461514339E+02  0.69999927107E+02 0.  0.
         12    1    1    2    0    0  0.25594168469E+01 -0.17931301586E+02 -0.47538483413E+01  0.18726485661E+02  0.00000000000E+00 0. -1.
         11    1    3    3    0    0  0.13154655443E+02  0.29951136151E+01  0.81369379453E-01  0.13491563535E+02  0.51100000000E-03 0. -1.
        -11    1    3    3    0    0 -0.18392540449E+02  0.34445001018E+02  0.41911137969E+01  0.39272243053E+02  0.51100000000E-03 0.  1.
        -12    1    3    3    0    0  0.26784681595E+01 -0.19508813047E+02  0.48136516497E+00  0.19697707750E+02  0.00000000000E+00 0.  1.
</event>
<event>
 7    1  0.1375918E-013  0.7246159E+02  0.7816164E-02  0.1226708E+00
        -11   -1    0    0    0    0  0.00000000000E+00  0.00000000000E+00  0.45593999997E+02  0.45594000000E+02  0.51100000000E-03 0.  1.
         11   -1    0    0    0    0 -0.00000000000E+00 -0.00000000000E+00 -0.45593999997E+02  0.45594000000E+02  0.51100000000E-03 0. -1.
    9900012    2    1    2    0    0 -0.48848186522E+01 -0.17937246263E+02 -0.22521145117E+01  0.72461594138E+02  0.70000031060E+02 0.  0.
         12    1    1    2    0    0  0.48848186522E+01  0.17937246263E+02  0.22521145117E+01  0.18726405862E+02  0.00000000000E+00 0. -1.
         11    1    3    3    0    0 -0.11499019022E+02 -0.22016612928E+02 -0.30120277379E+02  0.39040873363E+02  0.51100000000E-03 0. -1.
        -11    1    3    3    0    0 -0.51035789826E+01  0.34254963693E+01  0.59307456904E+01  0.85413282640E+01  0.51100000000E-03 0.  1.
         12    1    3    3    0    0  0.11717779352E+02  0.65387029649E+00  0.21937417177E+02  0.24879392511E+02  0.00000000000E+00 0. -1.
</event>
<event>
 7    1  0.1375918E-013  0.7246159E+02  0.7816164E-02  0.1226708E+00
        -11   -1    0    0    0    0  0.00000000000E+00  0.00000000000E+00  0.45593999997E+02  0.45594000000E+02  0.51100000000E-03 0.  1.
         11   -1    0    0    0    0 -0.00000000000E+00 -0.00000000000E+00 -0.45593999997E+02  0.45594000000E+02  0.51100000000E-03 0. -1.
    9900012    2    1    2    0    0 -0.10275212096E+02  0.14724499710E+02  0.53185997554E+01  0.72461591410E+02  0.70000027507E+02 0.  0.
         12    1    1    2    0    0  0.10275212096E+02 -0.14724499710E+02 -0.53185997554E+01  0.18726408590E+02  0.00000000000E+00 0. -1.
         11    1    3    3    0    0 -0.47551005021E+01  0.90517068804E+01 -0.30625945005E+02  0.32287658415E+02  0.51100000000E-03 0. -1.
        -11    1    3    3    0    0  0.75117363175E+00  0.96196224556E+01  0.13926838168E+02  0.16942792557E+02  0.51100000000E-03 0.  1.
         12    1    3    3    0    0 -0.62712852255E+01 -0.39468296262E+01  0.22017706592E+02  0.23231140438E+02  0.00000000000E+00 0. -1.
</event>
<event>
 7    1  0.1375918E-013  0.7246156E+02  0.7816164E-02  0.1226708E+00
        -11   -1    0    0    0    0  0.00000000000E+00  0.00000000000E+00  0.45593999997E+02  0.45594000000E+02  0.51100000000E-03 0.  1.
         11   -1    0    0    0    0 -0.00000000000E+00 -0.00000000000E+00 -0.45593999997E+02  0.45594000000E+02  0.51100000000E-03 0. -1.
    9900012    2    1    2    0    0 -0.45044690596E+01 -0.11147419153E+02  0.14357026390E+02  0.72461564086E+02  0.69999991913E+02 0.  0.
         12    1    1    2    0    0  0.45044690596E+01  0.11147419153E+02 -0.14357026390E+02  0.18726435914E+02  0.00000000000E+00 0. -1.
         11    1    3    3    0    0 -0.11997530527E+02  0.43875059992E+01  0.89086635781E+01  0.15574184879E+02  0.51100000000E-03 0. -1.
        -11    1    3    3    0    0  0.10364097113E+02 -0.33595714198E+02  0.12461554793E+02  0.37301164453E+02  0.51100000000E-03 0.  1.
        -12    1    3    3    0    0 -0.28710356457E+01  0.18060789046E+02 -0.70131919815E+01  0.19586214754E+02  0.00000000000E+00 0.  1.
</event>
<event>
 7    1  0.1375918E-013  0.7246156E+02  0.7816164E-02  0.1226708E+00
        -11   -1    0    0    0    0  0.00000000000E+00  0.00000000000E+00  0.45593999997E+02  0.45594000000E+02  0.51100000000E-03 0.  1.
         11   -1    0    0    0    0 -0.00000000000E+00 -0.00000000000E+00 -0.45593999997E+02  0.45594000000E+02  0.51100000000E-03 0. -1.
    9900012    2    1    2    0    0  0.12170420980E+02 -0.11033950174E+02  0.89895595597E+01  0.72461564559E+02  0.69999992528E+02 0.  0.
         12    1    1    2    0    0 -0.12170420980E+02  0.11033950174E+02 -0.89895595597E+01  0.18726435441E+02  0.00000000000E+00 0. -1.
         11    1    3    3    0    0 -0.52182077808E+01  0.62330724922E+01  0.27094467556E+01  0.85686630882E+01  0.51100000000E-03 0. -1.
        -11    1    3    3    0    0  0.16612593833E+02 -0.27378597573E+01 -0.24569203119E+02  0.29784557947E+02  0.51100000000E-03 0.  1.
        -12    1    3    3    0    0  0.77603492718E+00 -0.14529162909E+02  0.30849315923E+02  0.34108343524E+02  0.00000000000E+00 0.  1.
</event>
<event>
 7    1  0.1375918E-013  0.7246158E+02  0.7816164E-02  0.1226708E+00
        -11   -1    0    0    0    0  0.00000000000E+00  0.00000000000E+00  0.45593999997E+02  0.45594000000E+02  0.51100000000E-03 0.  1.
         11   -1    0    0    0    0 -0.00000000000E+00 -0.00000000000E+00 -0.45593999997E+02  0.45594000000E+02  0.51100000000E-03 0. -1.
    9900012    2    1    2    0    0 -0.14592505306E+02  0.11533532850E+02  0.21714568298E+01  0.72461579737E+02  0.70000012301E+02 0.  0.
         12    1    1    2    0    0  0.14592505306E+02 -0.11533532850E+02 -0.21714568298E+01  0.18726420263E+02  0.00000000000E+00 0. -1.
         11    1    3    3    0    0 -0.10309855633E+02  0.12917043457E+02 -0.54659652931E+01  0.17407467124E+02  0.51100000000E-03 0. -1.
        -11    1    3    3    0    0 -0.10422858347E+02 -0.14398406267E+02  0.26141961693E+02  0.31612532967E+02  0.51100000000E-03 0.  1.
        -12    1    3    3    0    0  0.61402086738E+01  0.13014895660E+02 -0.18504539570E+02  0.23441579646E+02  0.00000000000E+00 0.  1.
</event>
<event>
 7    1  0.1375918E-013  0.7246163E+02  0.7816164E-02  0.1226708E+00
        -11   -1    0    0    0    0  0.00000000000E+00  0.00000000000E+00  0.45593999997E+02  0.45594000000E+02  0.51100000000E-03 0. -1.
         11   -1    0    0    0    0 -0.00000000000E+00 -0.00000000000E+00 -0.45593999997E+02  0.45594000000E+02  0.51100000000E-03 0.  1.
    9900012    2    1    2    0    0  0.13064921585E+02  0.11898501548E+02  0.61976024532E+01  0.72461633794E+02  0.70000082720E+02 0.  0.
         12    1    1    2    0    0 -0.13064921585E+02 -0.11898501548E+02 -0.61976024532E+01  0.18726366206E+02  0.00000000000E+00 0. -1.
         11    1    3    3    0    0  0.27034373864E+02 -0.11057303826E+02  0.81132039329E+01  0.30314112497E+02  0.51100000000E-03 0. -1.
        -11    1    3    3    0    0  0.13698355580E+01  0.18666097761E+02 -0.12959873227E+02  0.22765279910E+02  0.51100000000E-03 0.  1.
         12    1    3    3    0    0 -0.15339287837E+02  0.42897076134E+01  0.11044271748E+02  0.19382241387E+02  0.00000000000E+00 0. -1.
</event>
<event>
 7    1  0.1375918E-013  0.7246200E+02  0.7816164E-02  0.1226707E+00
        -11   -1    0    0    0    0  0.00000000000E+00  0.00000000000E+00  0.45593999997E+02  0.45594000000E+02  0.51100000000E-03 0. -1.
         11   -1    0    0    0    0 -0.00000000000E+00 -0.00000000000E+00 -0.45593999997E+02  0.45594000000E+02  0.51100000000E-03 0.  1.
    9900012    2    1    2    0    0 -0.87842902953E+01 -0.14871032992E+02  0.72354427469E+01  0.72462001763E+02  0.70000562066E+02 0.  0.
         12    1    1    2    0    0  0.87842902953E+01  0.14871032992E+02 -0.72354427469E+01  0.18725998237E+02  0.00000000000E+00 0. -1.
         11    1    3    3    0    0 -0.21548305065E+02  0.11832491845E+02 -0.19270191310E+01  0.24658684422E+02  0.51100000000E-03 0. -1.
        -11    1    3    3    0    0  0.19296505502E+02 -0.23638603404E+01  0.11343318590E+02  0.22508083819E+02  0.51100000000E-03 0.  1.
         12    1    3    3    0    0 -0.65324907325E+01 -0.24339664496E+02 -0.21808567117E+01  0.25295233522E+02  0.00000000000E+00 0. -1.
</event>
<event>
 7    1  0.1375918E-013  0.7246154E+02  0.7816164E-02  0.1226708E+00
        -11   -1    0    0    0    0  0.00000000000E+00  0.00000000000E+00  0.45593999997E+02  0.45594000000E+02  0.51100000000E-03 0.  1.
         11   -1    0    0    0    0 -0.00000000000E+00 -0.00000000000E+00 -0.45593999997E+02  0.45594000000E+02  0.51100000000E-03 0. -1.
    9900012    2    1    2    0    0 -0.13500196642E+02 -0.89832808327E+01  0.93661919752E+01  0.72461542887E+02  0.69999964296E+02 0.  0.
         12    1    1    2    0    0  0.13500196642E+02  0.89832808327E+01 -0.93661919752E+01  0.18726457113E+02  0.00000000000E+00 0. -1.
         11    1    3    3    0    0  0.13639469370E+02 -0.30671117546E+01 -0.49877492324E+01  0.14843178294E+02  0.51100000000E-03 0. -1.
        -11    1    3    3    0    0 -0.12873265484E+02  0.12520400220E+02  0.25969014238E+02  0.31573265378E+02  0.51100000000E-03 0.  1.
        -12    1    3    3    0    0 -0.14266400529E+02 -0.18436569299E+02 -0.11615073030E+02  0.26045099214E+02  0.00000000000E+00 0.  1.
</event>
<event>
 7    1  0.1375918E-013  0.7246164E+02  0.7816164E-02  0.1226708E+00
        -11   -1    0    0    0    0  0.00000000000E+00  0.00000000000E+00  0.45593999997E+02  0.45594000000E+02  0.51100000000E-03 0. -1.
         11   -1    0    0    0    0 -0.00000000000E+00 -0.00000000000E+00 -0.45593999997E+02  0.45594000000E+02  0.51100000000E-03 0.  1.
    9900012    2    1    2    0    0  0.56406885846E+01 -0.40537902873E+01 -0.17390400244E+02  0.72461638793E+02  0.70000089232E+02 0.  0.
         12    1    1    2    0    0 -0.56406885846E+01  0.40537902873E+01  0.17390400244E+02  0.18726361207E+02  0.00000000000E+00 0. -1.
         11    1    3    3    0    0  0.51441840519E+01  0.55822472462E+01  0.23964629853E+02  0.25138170143E+02  0.51100000000E-03 0. -1.
        -11    1    3    3    0    0  0.73266448873E+01 -0.12963059868E+02 -0.31821218277E+02  0.35132756500E+02  0.51100000000E-03 0.  1.
         12    1    3    3    0    0 -0.68301403546E+01  0.33270223345E+01 -0.95338118209E+01  0.12190712150E+02  0.00000000000E+00 0. -1.
</event>
<event>
 7    1  0.1375918E-013  0.7246157E+02  0.7816164E-02  0.1226708E+00
        -11   -1    0    0    0    0  0.00000000000E+00  0.00000000000E+00  0.45593999997E+02  0.45594000000E+02  0.51100000000E-03 0. -1.
         11   -1    0    0    0    0 -0.00000000000E+00 -0.00000000000E+00 -0.45593999997E+02  0.45594000000E+02  0.51100000000E-03 0.  1.
    9900012    2    1    2    0    0  0.63654650359E+01 -0.30930115656E+01 -0.17337632329E+02  0.72461565196E+02  0.69999993359E+02 0.  0.
         12    1    1    2    0    0 -0.63654650359E+01  0.30930115656E+01  0.17337632329E+02  0.18726434804E+02  0.00000000000E+00 0. -1.
         11    1    3    3    0    0  0.12832560309E+02 -0.11155767995E+02  0.16704145401E+02  0.23835986187E+02  0.51100000000E-03 0. -1.
        -11    1    3    3    0    0  0.71966293533E+01  0.13476303449E+02 -0.29536170397E+02  0.33253384650E+02  0.51100000000E-03 0.  1.
        -12    1    3    3    0    0 -0.13663724626E+02 -0.54135470192E+01 -0.45056073335E+01  0.15372194360E+02  0.00000000000E+00 0.  1.
</event>
<event>
 7    1  0.1375918E-013  0.7246157E+02  0.7816164E-02  0.1226708E+00
        -11   -1    0    0    0    0  0.00000000000E+00  0.00000000000E+00  0.45593999997E+02  0.45594000000E+02  0.51100000000E-03 0. -1.
         11   -1    0    0    0    0 -0.00000000000E+00 -0.00000000000E+00 -0.45593999997E+02  0.45594000000E+02  0.51100000000E-03 0.  1.
    9900012    2    1    2    0    0 -0.64291511863E+01 -0.62086226563E+01 -0.16455946673E+02  0.72461570517E+02  0.70000000290E+02 0.  0.
         12    1    1    2    0    0  0.64291511863E+01  0.62086226563E+01  0.16455946673E+02  0.18726429483E+02  0.00000000000E+00 0. -1.
         11    1    3    3    0    0 -0.32769865891E+02 -0.10982894838E+01  0.46517241068E+01  0.33116595352E+02  0.51100000000E-03 0. -1.
        -11    1    3    3    0    0  0.14409453012E+02 -0.12161752081E+02 -0.15443531420E+02  0.24373001718E+02  0.51100000000E-03 0.  1.
         12    1    3    3    0    0  0.11931261692E+02  0.70514189080E+01 -0.56641393604E+01  0.14971973447E+02  0.00000000000E+00 0. -1.
</event>
<event>
 7    1  0.1375918E-013  0.7246143E+02  0.7816164E-02  0.1226708E+00
        -11   -1    0    0    0    0  0.00000000000E+00  0.00000000000E+00  0.45593999997E+02  0.45594000000E+02  0.51100000000E-03 0.  1.
         11   -1    0    0    0    0 -0.00000000000E+00 -0.00000000000E+00 -0.45593999997E+02  0.45594000000E+02  0.51100000000E-03 0. -1.
    9900012    2    1    2    0    0  0.11807845494E+02 -0.41659610038E+01  0.13924936079E+02  0.72461433547E+02  0.69999821861E+02 0.  0.
         12    1    1    2    0    0 -0.11807845494E+02  0.41659610038E+01 -0.13924936079E+02  0.18726566453E+02  0.00000000000E+00 0. -1.
         11    1    3    3    0    0 -0.17139607674E+02  0.15072021899E+02  0.24995870221E+02  0.33848567528E+02  0.51100000000E-03 0. -1.
        -11    1    3    3    0    0  0.15773487267E+02 -0.31346983854E+01 -0.33939487604E+01  0.16436183346E+02  0.51100000000E-03 0.  1.
         12    1    3    3    0    0  0.13173965901E+02 -0.16103284517E+02 -0.76769853813E+01  0.22176682672E+02  0.00000000000E+00 0. -1.
</event>
<event>
 7    1  0.1375918E-013  0.7246142E+02  0.7816164E-02  0.1226708E+00
        -11   -1    0    0    0    0  0.00000000000E+00  0.00000000000E+00  0.45593999997E+02  0.45594000000E+02  0.51100000000E-03 0.  1.
         11   -1    0    0    0    0 -0.00000000000E+00 -0.00000000000E+00 -0.45593999997E+02  0.45594000000E+02  0.51100000000E-03 0. -1.
    9900012    2    1    2    0    0 -0.13944622543E+02  0.92963437925E+01  0.83552629964E+01  0.72461416609E+02  0.69999799795E+02 0.  0.
         12    1    1    2    0    0  0.13944622543E+02 -0.92963437925E+01 -0.83552629964E+01  0.18726583391E+02  0.00000000000E+00 0. -1.
         11    1    3    3    0    0  0.15059447790E+02 -0.35671426207E+01 -0.15044107899E+02  0.21583249453E+02  0.51100000000E-03 0. -1.
        -11    1    3    3    0    0 -0.31377449986E+02  0.15882058679E+02  0.27951387714E+02  0.44922869798E+02  0.51100000000E-03 0.  1.
        -12    1    3    3    0    0  0.23733796528E+01 -0.30185722655E+01 -0.45520168185E+01  0.59552973573E+01  0.00000000000E+00 0.  1.
</event>
<event>
 7    1  0.1375918E-013  0.7246156E+02  0.7816164E-02  0.1226708E+00
        -11   -1    0    0    0    0  0.00000000000E+00  0.00000000000E+00  0.45593999997E+02  0.45594000000E+02  0.51100000000E-03 0.  1.
         11   -1    0    0    0    0 -0.00000000000E+00 -0.00000000000E+00 -0.45593999997E+02  0.45594000000E+02  0.51100000000E-03 0. -1.
    9900012    2    1    2    0    0 -0.74501014042E+01 -0.10645668578E+02  0.13485003153E+02  0.72461559323E+02  0.69999985707E+02 0.  0.
         12    1    1    2    0    0  0.74501014042E+01  0.10645668578E+02 -0.13485003153E+02  0.18726440677E+02  0.00000000000E+00 0. -1.
         11    1    3    3    0    0 -0.34480488869E+02 -0.96228113355E+01 -0.37395238216E+01  0.35992869423E+02  0.51100000000E-03 0. -1.
        -11    1    3    3    0    0  0.12320165802E+02  0.57697266866E+01  0.11625580382E+01  0.13653855605E+02  0.51100000000E-03 0.  1.
         12    1    3    3    0    0  0.14710221662E+02 -0.67925839292E+01  0.16061968936E+02  0.22814834295E+02  0.00000000000E+00 0. -1.
</event>
<event>
 7    1  0.1375918E-013  0.7246155E+02  0.7816164E-02  0.1226708E+00
        -11   -1    0    0    0    0  0.00000000000E+00  0.00000000000E+00  0.45593999997E+02  0.45594000000E+02  0.51100000000E-03 0.  1.
         11   -1    0    0    0    0 -0.00000000000E+00 -0.00000000000E+00 -0.45593999997E+02  0.45594000000E+02  0.51100000000E-03 0. -1.
    9900012    2    1    2    0    0 -0.12222087133E+02 -0.86919796482E+01  0.11213834505E+02  0.72461547896E+02  0.69999970823E+02 0.  0.
         12    1    1    2    0    0  0.12222087133E+02  0.86919796482E+01 -0.11213834505E+02  0.18726452104E+02  0.00000000000E+00 0. -1.
         11    1    3    3    0    0 -0.14161259993E+02  0.66027142737E+01 -0.27286207801E+01  0.15861352149E+02  0.51100000000E-03 0. -1.
        -11    1    3    3    0    0 -0.11550345165E+02 -0.26656313921E+02  0.22738376020E+02  0.36891778075E+02  0.51100000000E-03 0.  1.
        -12    1    3    3    0    0  0.13489518026E+02  0.11361619999E+02 -0.87959207352E+01  0.19708417672E+02  0.00000000000E+00 0.  1.
</event>
<event>
 7    1  0.1375918E-013  0.7246160E+02  0.7816164E-02  0.1226708E+00
        -11   -1    0    0    0    0  0.00000000000E+00  0.00000000000E+00  0.45593999997E+02  0.45594000000E+02  0.51100000000E-03 0. -1.
         11   -1    0    0    0    0 -0.00000000000E+00 -0.00000000000E+00 -0.45593999997E+02  0.45594000000E+02  0.51100000000E-03 0.  1.
    9900012    2    1    2    0    0 -0.52855226310E+01 -0.17422429475E+02 -0.43818189047E+01  0.72461597911E+02  0.70000035976E+02 0.  0.
         12    1    1    2    0    0  0.52855226310E+01  0.17422429475E+02  0.43818189047E+01  0.18726402089E+02  0.00000000000E+00 0. -1.
         11    1    3    3    0    0  0.19878883766E+02 -0.15645983152E+02  0.72048076125E+01  0.26303537054E+02  0.51100000000E-03 0. -1.
        -11    1    3    3    0    0 -0.22972756535E+02  0.78611002080E+00  0.94499832216E+01  0.24852921256E+02  0.51100000000E-03 0.  1.
        -12    1    3    3    0    0 -0.21916498611E+01 -0.25625563431E+01 -0.21036609739E+02  0.21305139601E+02  0.00000000000E+00 0.  1.
</event>
<event>
 7    1  0.1375918E-013  0.7246157E+02  0.7816164E-02  0.1226708E+00
        -11   -1    0    0    0    0  0.00000000000E+00  0.00000000000E+00  0.45593999997E+02  0.45594000000E+02  0.51100000000E-03 0. -1.
         11   -1    0    0    0    0 -0.00000000000E+00 -0.00000000000E+00 -0.45593999997E+02  0.45594000000E+02  0.51100000000E-03 0.  1.
    9900012    2    1    2    0    0 -0.13755397011E+02  0.82042980981E+01 -0.97034875981E+01  0.72461571462E+02  0.70000001521E+02 0.  0.
         12    1    1    2    0    0  0.13755397011E+02 -0.82042980981E+01  0.97034875981E+01  0.18726428538E+02  0.00000000000E+00 0. -1.
         11    1    3    3    0    0  0.12271358526E+02  0.52675251912E+01  0.18249381324E+02  0.22613557453E+02  0.51100000000E-03 0. -1.
        -11    1    3    3    0    0 -0.15896442032E+02  0.15214468549E+02 -0.25600953509E+02  0.33757750863E+02  0.51100000000E-03 0.  1.
        -12    1    3    3    0    0 -0.10130313505E+02 -0.12277695642E+02 -0.23519154133E+01  0.16090263146E+02  0.00000000000E+00 0.  1.
</event>
<event>
 7    1  0.1375918E-013  0.7246155E+02  0.7816164E-02  0.1226708E+00
        -11   -1    0    0    0    0  0.00000000000E+00  0.00000000000E+00  0.45593999997E+02  0.45594000000E+02  0.51100000000E-03 0.  1.
         11   -1    0    0    0    0 -0.00000000000E+00 -0.00000000000E+00 -0.45593999997E+02  0.45594000000E+02  0.51100000000E-03 0. -1.
    9900012    2    1    2    0    0 -0.82778450226E+01 -0.15898650958E+02 -0.54212513984E+01  0.72461553801E+02  0.69999978515E+02 0.  0.
         12    1    1    2    0    0  0.82778450226E+01  0.15898650958E+02  0.54212513984E+01  0.18726446199E+02  0.00000000000E+00 0. -1.
         11    1    3    3    0    0  0.10183315423E+02 -0.64505014873E+01  0.25985730863E+02  0.28645542257E+02  0.51100000000E-03 0.  1.
        -11    1    3    3    0    0 -0.17972551249E+02  0.19571597262E+01 -0.24586802428E+02  0.30518091789E+02  0.51100000000E-03 0. -1.
         12    1    3    3    0    0 -0.48860919679E+00 -0.11405309197E+02 -0.68201798342E+01  0.13297919755E+02  0.00000000000E+00 0. -1.
</event>
<event>
 7    1  0.1375918E-013  0.7246136E+02  0.7816164E-02  0.1226709E+00
        -11   -1    0    0    0    0  0.00000000000E+00  0.00000000000E+00  0.45593999997E+02  0.45594000000E+02  0.51100000000E-03 0.  1.
         11   -1    0    0    0    0 -0.00000000000E+00 -0.00000000000E+00 -0.45593999997E+02  0.45594000000E+02  0.51100000000E-03 0. -1.
    9900012    2    1    2    0    0 -0.12429239432E+00  0.64831622029E+01  0.17568163695E+02  0.72461355443E+02  0.69999720116E+02 0.  0.
         12    1    1    2    0    0  0.12429239432E+00 -0.64831622029E+01 -0.17568163695E+02  0.18726644557E+02  0.00000000000E+00 0. -1.
         11    1    3    3    0    0 -0.11155816111E+02 -0.10511496234E+02  0.10929025012E+02  0.18825179260E+02  0.51100000000E-03 0. -1.
        -11    1    3    3    0    0  0.19728118535E+02  0.11438337567E+02 -0.16601552023E+02  0.28207193357E+02  0.51100000000E-03 0.  1.
        -12    1    3    3    0    0 -0.86965948187E+01  0.55563208704E+01  0.23240690706E+02  0.25428982826E+02  0.00000000000E+00 0.  1.
</event>
<event>
 7    1  0.1375918E-013  0.7246155E+02  0.7816164E-02  0.1226708E+00
        -11   -1    0    0    0    0  0.00000000000E+00  0.00000000000E+00  0.45593999997E+02  0.45594000000E+02  0.51100000000E-03 0.  1.
         11   -1    0    0    0    0 -0.00000000000E+00 -0.00000000000E+00 -0.45593999997E+02  0.45594000000E+02  0.51100000000E-03 0. -1.
    9900012    2    1    2    0    0  0.13454322342E+02  0.11340329869E+02  0.64076417250E+01  0.72461554963E+02  0.69999980029E+02 0.  0.
         12    1    1    2    0    0 -0.13454322342E+02 -0.11340329869E+02 -0.64076417250E+01  0.18726445037E+02  0.00000000000E+00 0. -1.
         11    1    3    3    0    0 -0.11725573671E+02  0.16343357215E+02  0.14036689275E+02  0.24528005403E+02  0.51100000000E-03 0. -1.
        -11    1    3    3    0    0  0.21211207265E+02 -0.17184185060E+02 -0.16911832742E+02  0.32112639518E+02  0.51100000000E-03 0.  1.
        -12    1    3    3    0    0  0.39686887488E+01  0.12181157714E+02  0.92827851924E+01  0.15820910043E+02  0.00000000000E+00 0.  1.
</event>
<event>
 7    1  0.1375918E-013  0.7246154E+02  0.7816164E-02  0.1226708E+00
        -11   -1    0    0    0    0  0.00000000000E+00  0.00000000000E+00  0.45593999997E+02  0.45594000000E+02  0.51100000000E-03 0. -1.
         11   -1    0    0    0    0 -0.00000000000E+00 -0.00000000000E+00 -0.45593999997E+02  0.45594000000E+02  0.51100000000E-03 0.  1.
    9900012    2    1    2    0    0  0.12637553731E+02  0.79413667841E+01  0.11309603210E+02  0.72461542902E+02  0.69999964316E+02 0.  0.
         12    1    1    2    0    0 -0.12637553731E+02 -0.79413667841E+01 -0.11309603210E+02  0.18726457098E+02  0.00000000000E+00 0. -1.
         11    1    3    3    0    0 -0.15786052366E+02  0.12822624051E+02  0.13059813867E+02  0.24169771934E+02  0.51100000000E-03 0. -1.
        -11    1    3    3    0    0  0.14655602067E+02 -0.21810202020E+02 -0.29265305290E+01  0.26439292073E+02  0.51100000000E-03 0.  1.
        -12    1    3    3    0    0  0.13768004029E+02  0.16928944753E+02  0.11763198713E+01  0.21852478894E+02  0.00000000000E+00 0.  1.
</event>
<event>
 7    1  0.1375918E-013  0.7246160E+02  0.7816164E-02  0.1226708E+00
        -11   -1    0    0    0    0  0.00000000000E+00  0.00000000000E+00  0.45593999997E+02  0.45594000000E+02  0.51100000000E-03 0. -1.
         11   -1    0    0    0    0 -0.00000000000E+00 -0.00000000000E+00 -0.45593999997E+02  0.45594000000E+02  0.51100000000E-03 0.  1.
    9900012    2    1    2    0    0 -0.16460550328E+02  0.43753198332E+01 -0.77836408406E+01  0.72461596035E+02  0.70000033531E+02 0.  0.
         12    1    1    2    0    0  0.16460550328E+02 -0.43753198332E+01  0.77836408406E+01  0.18726403965E+02  0.00000000000E+00 0. -1.
         11    1    3    3    0    0 -0.22498127469E+02 -0.17550034287E+02  0.71602471077E+01  0.29418337512E+02  0.51100000000E-03 0. -1.
        -11    1    3    3    0    0  0.12134673130E+02  0.17536639824E+02  0.48513099358E+01  0.21870510663E+02  0.51100000000E-03 0.  1.
        -12    1    3    3    0    0 -0.60970959890E+01  0.43887142955E+01 -0.19795197884E+02  0.21172747860E+02  0.00000000000E+00 0.  1.
</event>
<event>
 7    1  0.1375918E-013  0.7246152E+02  0.7816164E-02  0.1226708E+00
        -11   -1    0    0    0    0  0.00000000000E+00  0.00000000000E+00  0.45593999997E+02  0.45594000000E+02  0.51100000000E-03 0.  1.
         11   -1    0    0    0    0 -0.00000000000E+00 -0.00000000000E+00 -0.45593999997E+02  0.45594000000E+02  0.51100000000E-03 0. -1.
    9900012    2    1    2    0    0 -0.64574542468E+01  0.11238100552E+02  0.13516196997E+02  0.72461516063E+02  0.69999929354E+02 0.  0.
         12    1    1    2    0    0  0.64574542468E+01 -0.11238100552E+02 -0.13516196997E+02  0.18726483937E+02  0.00000000000E+00 0. -1.
         11    1    3    3    0    0 -0.26100612440E+02 -0.12700559805E+02 -0.10452769196E+02  0.30851362583E+02  0.51100000000E-03 0. -1.
        -11    1    3    3    0    0  0.56377306060E+01  0.17732433719E+02  0.11658714733E+02  0.21957887910E+02  0.51100000000E-03 0.  1.
        -12    1    3    3    0    0  0.14005427588E+02  0.62062266380E+01  0.12310251461E+02  0.19652265570E+02  0.00000000000E+00 0.  1.
</event>
<event>
 7    1  0.1375918E-013  0.7246159E+02  0.7816164E-02  0.1226708E+00
        -11   -1    0    0    0    0  0.00000000000E+00  0.00000000000E+00  0.45593999997E+02  0.45594000000E+02  0.51100000000E-03 0. -1.
         11   -1    0    0    0    0 -0.00000000000E+00 -0.00000000000E+00 -0.45593999997E+02  0.45594000000E+02  0.51100000000E-03 0.  1.
    9900012    2    1    2    0    0  0.16351573976E+02 -0.42873502823E+01 -0.80574768429E+01  0.72461594125E+02  0.70000031043E+02 0.  0.
         12    1    1    2    0    0 -0.16351573976E+02  0.42873502823E+01  0.80574768429E+01  0.18726405875E+02  0.00000000000E+00 0. -1.
         11    1    3    3    0    0  0.10427823495E+01 -0.48974655002E+01  0.93027974457E+01  0.10564781301E+02  0.51100000000E-03 0. -1.
        -11    1    3    3    0    0  0.73524682738E+01  0.28903329723E+02 -0.11267449990E+02  0.31881290569E+02  0.51100000000E-03 0.  1.
        -12    1    3    3    0    0  0.79563233527E+01 -0.28293214505E+02 -0.60928242986E+01  0.30015522255E+02  0.00000000000E+00 0.  1.
</event>
<event>
 7    1  0.1375918E-013  0.7246158E+02  0.7816164E-02  0.1226708E+00
        -11   -1    0    0    0    0  0.00000000000E+00  0.00000000000E+00  0.45593999997E+02  0.45594000000E+02  0.51100000000E-03 0.  1.
         11   -1    0    0    0    0 -0.00000000000E+00 -0.00000000000E+00 -0.45593999997E+02  0.45594000000E+02  0.51100000000E-03 0. -1.
    9900012    2    1    2    0    0 -0.44016168203E+01 -0.17071451982E+01  0.18121542081E+02  0.72461578485E+02  0.70000010670E+02 0.  0.
         12    1    1    2    0    0  0.44016168203E+01  0.17071451982E+01 -0.18121542081E+02  0.18726421515E+02  0.00000000000E+00 0. -1.
         11    1    3    3    0    0 -0.19827934822E+02  0.11845208144E+02  0.23611922661E+02  0.33029968926E+02  0.51100000000E-03 0. -1.
        -11    1    3    3    0    0  0.24253970674E+02 -0.34922227818E+01  0.10673514091E+01  0.24527330729E+02  0.51100000000E-03 0.  1.
         12    1    3    3    0    0 -0.88276526725E+01 -0.10060130561E+02 -0.65577319892E+01  0.14904278830E+02  0.00000000000E+00 0. -1.
</event>
<event>
 7    1  0.1375918E-013  0.7246162E+02  0.7816164E-02  0.1226708E+00
        -11   -1    0    0    0    0  0.00000000000E+00  0.00000000000E+00  0.45593999997E+02  0.45594000000E+02  0.51100000000E-03 0. -1.
         11   -1    0    0    0    0 -0.00000000000E+00 -0.00000000000E+00 -0.45593999997E+02  0.45594000000E+02  0.51100000000E-03 0.  1.
    9900012    2    1    2    0    0 -0.23064014910E+01  0.38158307138E+01 -0.18187837724E+02  0.72461615059E+02  0.70000058315E+02 0.  0.
         12    1    1    2    0    0  0.23064014910E+01 -0.38158307138E+01  0.18187837724E+02  0.18726384941E+02  0.00000000000E+00 0. -1.
         11    1    3    3    0    0  0.20967561005E+02 -0.15890006450E+02 -0.72253933014E+01  0.27282544385E+02  0.51100000000E-03 0. -1.
        -11    1    3    3    0    0 -0.27322668187E+02  0.91261318331E+01 -0.15807303821E+02  0.32858565602E+02  0.51100000000E-03 0.  1.
        -12    1    3    3    0    0  0.40487056907E+01  0.10579705330E+02  0.48448593979E+01  0.12320505072E+02  0.00000000000E+00 0.  1.
</event>
<event>
 7    1  0.1375918E-013  0.7246148E+02  0.7816164E-02  0.1226708E+00
        -11   -1    0    0    0    0  0.00000000000E+00  0.00000000000E+00  0.45593999997E+02  0.45594000000E+02  0.51100000000E-03 0.  1.
         11   -1    0    0    0    0 -0.00000000000E+00 -0.00000000000E+00 -0.45593999997E+02  0.45594000000E+02  0.51100000000E-03 0. -1.
    9900012    2    1    2    0    0  0.18381730979E+02 -0.34040442489E+01 -0.10986798045E+01  0.72461477409E+02  0.69999879000E+02 0.  0.
         12    1    1    2    0    0 -0.18381730979E+02  0.34040442489E+01  0.10986798045E+01  0.18726522591E+02  0.00000000000E+00 0. -1.
         11    1    3    3    0    0  0.40217001183E+02 -0.44944593152E+01  0.17141429959E+02  0.43948105419E+02  0.51100000000E-03 0. -1.
        -11    1    3    3    0    0 -0.91292196631E+01  0.86902049321E+00 -0.84735019858E+01  0.12485915443E+02  0.51100000000E-03 0.  1.
         12    1    3    3    0    0 -0.12706050540E+02  0.22139457308E+00 -0.97666077774E+01  0.16027456547E+02  0.00000000000E+00 0. -1.
</event>
<event>
 7    1  0.1375918E-013  0.7246161E+02  0.7816164E-02  0.1226708E+00
        -11   -1    0    0    0    0  0.00000000000E+00  0.00000000000E+00  0.45593999997E+02  0.45594000000E+02  0.51100000000E-03 0.  1.
         11   -1    0    0    0    0 -0.00000000000E+00 -0.00000000000E+00 -0.45593999997E+02  0.45594000000E+02  0.51100000000E-03 0. -1.
    9900012    2    1    2    0    0  0.10790503912E+02  0.14548743886E+02 -0.47514837850E+01  0.72461614297E+02  0.70000057321E+02 0.  0.
         12    1    1    2    0    0 -0.10790503912E+02 -0.14548743886E+02  0.47514837850E+01  0.18726385703E+02  0.00000000000E+00 0. -1.
         11    1    3    3    0    0 -0.76394351778E+01 -0.14021845295E+02  0.85793280055E+01  0.18126720183E+02  0.51100000000E-03 0. -1.
        -11    1    3    3    0    0  0.68837387396E+01  0.30418478802E+02  0.59838002752E+01  0.31756504494E+02  0.51100000000E-03 0.  1.
         12    1    3    3    0    0  0.11546200350E+02 -0.18478896206E+01 -0.19314612066E+02  0.22578389620E+02  0.00000000000E+00 0. -1.
</event>
<event>
 7    1  0.1375918E-013  0.7246153E+02  0.7816164E-02  0.1226708E+00
        -11   -1    0    0    0    0  0.00000000000E+00  0.00000000000E+00  0.45593999997E+02  0.45594000000E+02  0.51100000000E-03 0. -1.
         11   -1    0    0    0    0 -0.00000000000E+00 -0.00000000000E+00 -0.45593999997E+02  0.45594000000E+02  0.51100000000E-03 0.  1.
    9900012    2    1    2    0    0 -0.38104190298E+01 -0.90712783691E+01 -0.15933399778E+02  0.72461531755E+02  0.69999949796E+02 0.  0.
         12    1    1    2    0    0  0.38104190298E+01  0.90712783691E+01  0.15933399778E+02  0.18726468245E+02  0.00000000000E+00 0. -1.
         11    1    3    3    0    0  0.36951871288E+01 -0.12523179158E+02  0.15152074341E+02  0.20001744455E+02  0.51100000000E-03 0. -1.
        -11    1    3    3    0    0  0.14750052535E+02 -0.24868313768E+01 -0.24144141380E+02  0.28402252434E+02  0.51100000000E-03 0.  1.
        -12    1    3    3    0    0 -0.22255658694E+02  0.59387321657E+01 -0.69413327388E+01  0.24057534866E+02  0.00000000000E+00 0.  1.
</event>
<event>
 7    1  0.1375918E-013  0.7246160E+02  0.7816164E-02  0.1226708E+00
        -11   -1    0    0    0    0  0.00000000000E+00  0.00000000000E+00  0.45593999997E+02  0.45594000000E+02  0.51100000000E-03 0. -1.
         11   -1    0    0    0    0 -0.00000000000E+00 -0.00000000000E+00 -0.45593999997E+02  0.45594000000E+02  0.51100000000E-03 0.  1.
    9900012    2    1    2    0    0 -0.65851716647E+01  0.11591407913E+02 -0.13151157700E+02  0.72461596926E+02  0.70000034692E+02 0.  0.
         12    1    1    2    0    0  0.65851716647E+01 -0.11591407913E+02  0.13151157700E+02  0.18726403074E+02  0.00000000000E+00 0. -1.
         11    1    3    3    0    0  0.17329627528E+02  0.19831759363E+02  0.37422101505E+01  0.26601105368E+02  0.51100000000E-03 0. -1.
        -11    1    3    3    0    0 -0.27740766765E+02  0.47133635625E+01 -0.15893298439E+02  0.32316603663E+02  0.51100000000E-03 0.  1.
         12    1    3    3    0    0  0.38259675715E+01 -0.12953715013E+02 -0.10000694109E+01  0.13543887895E+02  0.00000000000E+00 0. -1.
</event>
<event>
 7    1  0.1375918E-013  0.7246157E+02  0.7816164E-02  0.1226708E+00
        -11   -1    0    0    0    0  0.00000000000E+00  0.00000000000E+00  0.45593999997E+02  0.45594000000E+02  0.51100000000E-03 0.  1.
         11   -1    0    0    0    0 -0.00000000000E+00 -0.00000000000E+00 -0.45593999997E+02  0.45594000000E+02  0.51100000000E-03 0. -1.
    9900012    2    1    2    0    0 -0.72448120407E+00  0.14551517672E+02  0.11764669908E+02  0.72461574884E+02  0.70000005979E+02 0.  0.
         12    1    1    2    0    0  0.72448120407E+00 -0.14551517672E+02 -0.11764669908E+02  0.18726425116E+02  0.00000000000E+00 0. -1.
         11    1    3    3    0    0 -0.34940100866E+00  0.17858179730E+02  0.11797226894E+00  0.17861987069E+02  0.51100000000E-03 0.  1.
        -11    1    3    3    0    0  0.18168006593E+02 -0.15970682574E+02  0.19226571382E+02  0.30899841631E+02  0.51100000000E-03 0. -1.
        -12    1    3    3    0    0 -0.18543086788E+02  0.12664020515E+02 -0.75798737429E+01  0.23699746185E+02  0.00000000000E+00 0.  1.
</event>
<event>
 7    1  0.1375918E-013  0.7246145E+02  0.7816164E-02  0.1226708E+00
        -11   -1    0    0    0    0  0.00000000000E+00  0.00000000000E+00  0.45593999997E+02  0.45594000000E+02  0.51100000000E-03 0.  1.
         11   -1    0    0    0    0 -0.00000000000E+00 -0.00000000000E+00 -0.45593999997E+02  0.45594000000E+02  0.51100000000E-03 0. -1.
    9900012    2    1    2    0    0 -0.49206249033E+01  0.73265266694E+01  0.16516453575E+02  0.72461447162E+02  0.69999839597E+02 0.  0.
         12    1    1    2    0    0  0.49206249033E+01 -0.73265266694E+01 -0.16516453575E+02  0.18726552838E+02  0.00000000000E+00 0. -1.
         11    1    3    3    0    0  0.16691677170E+02  0.13049133775E+02 -0.13318150055E+02  0.25025289212E+02  0.51100000000E-03 0. -1.
        -11    1    3    3    0    0 -0.68647889836E+01  0.11646370137E+02  0.15265806759E+02  0.20391373701E+02  0.51100000000E-03 0.  1.
         12    1    3    3    0    0 -0.14747513090E+02 -0.17368977242E+02  0.14568796871E+02  0.27044784249E+02  0.00000000000E+00 0. -1.
</event>
<event>
 7    1  0.1375918E-013  0.7246156E+02  0.7816164E-02  0.1226708E+00
        -11   -1    0    0    0    0  0.00000000000E+00  0.00000000000E+00  0.45593999997E+02  0.45594000000E+02  0.51100000000E-03 0. -1.
         11   -1    0    0    0    0 -0.00000000000E+00 -0.00000000000E+00 -0.45593999997E+02  0.45594000000E+02  0.51100000000E-03 0.  1.
    9900012    2    1    2    0    0 -0.16797748621E+02  0.81368560390E+01 -0.15188085111E+01  0.72461559755E+02  0.69999986271E+02 0.  0.
         12    1    1    2    0    0  0.16797748621E+02 -0.81368560390E+01  0.15188085111E+01  0.18726440245E+02  0.00000000000E+00 0. -1.
         11    1    3    3    0    0 -0.37817096445E+02 -0.14580293218E+02  0.19794363777E+01  0.40578761717E+02  0.51100000000E-03 0.  1.
        -11    1    3    3    0    0  0.17508568903E+02  0.20506771856E+02 -0.50875612338E+01  0.27440134048E+02  0.51100000000E-03 0. -1.
        -12    1    3    3    0    0  0.35107789206E+01  0.22103774006E+01  0.15893163450E+01  0.44426639899E+01  0.00000000000E+00 0.  1.
</event>
<event>
 7    1  0.1375918E-013  0.7246091E+02  0.7816164E-02  0.1226710E+00
        -11   -1    0    0    0    0  0.00000000000E+00  0.00000000000E+00  0.45593999997E+02  0.45594000000E+02  0.51100000000E-03 0.  1.
         11   -1    0    0    0    0 -0.00000000000E+00 -0.00000000000E+00 -0.45593999997E+02  0.45594000000E+02  0.51100000000E-03 0. -1.
    9900012    2    1    2    0    0  0.94277335441E+01  0.15181101127E+02  0.55996452494E+01  0.72460906843E+02  0.69999135726E+02 0.  0.
         12    1    1    2    0    0 -0.94277335441E+01 -0.15181101127E+02 -0.55996452494E+01  0.18727093157E+02  0.00000000000E+00 0. -1.
         11    1    3    3    0    0  0.10511675907E+02 -0.87053525177E+00  0.61342940994E+01  0.12201750955E+02  0.51100000000E-03 0. -1.
        -11    1    3    3    0    0 -0.16440457780E+02  0.11733612075E+01 -0.23614042676E+02  0.28797368635E+02  0.51100000000E-03 0.  1.
        -12    1    3    3    0    0  0.15356515417E+02  0.14878275171E+02  0.23079393826E+02  0.31461787253E+02  0.00000000000E+00 0.  1.
</event>
<event>
 7    1  0.1375918E-013  0.7246145E+02  0.7816164E-02  0.1226708E+00
        -11   -1    0    0    0    0  0.00000000000E+00  0.00000000000E+00  0.45593999997E+02  0.45594000000E+02  0.51100000000E-03 0.  1.
         11   -1    0    0    0    0 -0.00000000000E+00 -0.00000000000E+00 -0.45593999997E+02  0.45594000000E+02  0.51100000000E-03 0. -1.
    9900012    2    1    2    0    0  0.10837216741E+02  0.69236515659E+01  0.13612541246E+02  0.72461454753E+02  0.69999849486E+02 0.  0.
         12    1    1    2    0    0 -0.10837216741E+02 -0.69236515659E+01 -0.13612541246E+02  0.18726545247E+02  0.00000000000E+00 0. -1.
         11    1    3    3    0    0 -0.10111004760E+02  0.10383491764E+02 -0.77667317226E+01  0.16442975411E+02  0.51100000000E-03 0. -1.
        -11    1    3    3    0    0  0.32616302227E+02 -0.11120544591E+02  0.55330574810E+01  0.34901352528E+02  0.51100000000E-03 0.  1.
        -12    1    3    3    0    0 -0.11668080726E+02  0.76607043931E+01  0.15846215487E+02  0.21117126815E+02  0.00000000000E+00 0.  1.
</event>
<event>
 7    1  0.1375918E-013  0.7246160E+02  0.7816164E-02  0.1226708E+00
        -11   -1    0    0    0    0  0.00000000000E+00  0.00000000000E+00  0.45593999997E+02  0.45594000000E+02  0.51100000000E-03 0.  1.
         11   -1    0    0    0    0 -0.00000000000E+00 -0.00000000000E+00 -0.45593999997E+02  0.45594000000E+02  0.51100000000E-03 0. -1.
    9900012    2    1    2    0    0 -0.21297143777E+01 -0.18326777421E+02  0.32049357378E+01  0.72461599731E+02  0.70000038347E+02 0.  0.
         12    1    1    2    0    0  0.21297143777E+01  0.18326777421E+02 -0.32049357378E+01  0.18726400269E+02  0.00000000000E+00 0. -1.
         11    1    3    3    0    0 -0.18784170771E+02 -0.28742029490E+02 -0.95502001816E+01  0.35639243181E+02  0.51100000000E-03 0. -1.
        -11    1    3    3    0    0  0.17298275718E+02 -0.19758393689E+01  0.16370795645E+02  0.23898477657E+02  0.51100000000E-03 0.  1.
        -12    1    3    3    0    0 -0.64381932540E+00  0.12391091439E+02 -0.36156597253E+01  0.12923878892E+02  0.00000000000E+00 0.  1.
</event>
<event>
 7    1  0.1375918E-013  0.7246156E+02  0.7816164E-02  0.1226708E+00
        -11   -1    0    0    0    0  0.00000000000E+00  0.00000000000E+00  0.45593999997E+02  0.45594000000E+02  0.51100000000E-03 0.  1.
         11   -1    0    0    0    0 -0.00000000000E+00 -0.00000000000E+00 -0.45593999997E+02  0.45594000000E+02  0.51100000000E-03 0. -1.
    9900012    2    1    2    0    0 -0.20717954864E+01  0.13835442142E+01  0.18559980005E+02  0.72461564437E+02  0.69999992369E+02 0.  0.
         12    1    1    2    0    0  0.20717954864E+01 -0.13835442142E+01 -0.18559980005E+02  0.18726435563E+02  0.00000000000E+00 0. -1.
         11    1    3    3    0    0 -0.24013648223E+01 -0.11307520688E+02  0.56919123338E+01  0.12885047280E+02  0.51100000000E-03 0. -1.
        -11    1    3    3    0    0  0.23469094023E+02  0.17066613598E+02  0.19678973323E+02  0.35061797804E+02  0.51100000000E-03 0.  1.
        -12    1    3    3    0    0 -0.23139524687E+02 -0.43755486954E+01 -0.68109056519E+01  0.24514719353E+02  0.00000000000E+00 0.  1.
</event>
<event>
 7    1  0.1375918E-013  0.7246155E+02  0.7816164E-02  0.1226708E+00
        -11   -1    0    0    0    0  0.00000000000E+00  0.00000000000E+00  0.45593999997E+02  0.45594000000E+02  0.51100000000E-03 0.  1.
         11   -1    0    0    0    0 -0.00000000000E+00 -0.00000000000E+00 -0.45593999997E+02  0.45594000000E+02  0.51100000000E-03 0. -1.
    9900012    2    1    2    0    0 -0.85807287982E+01 -0.47281277738E+01  0.15959193306E+02  0.72461549457E+02  0.69999972856E+02 0.  0.
         12    1    1    2    0    0  0.85807287982E+01  0.47281277738E+01 -0.15959193306E+02  0.18726450543E+02  0.00000000000E+00 0. -1.
         11    1    3    3    0    0  0.49172216858E+01 -0.20201737420E+02 -0.10317247608E+02  0.23210662687E+02  0.51100000000E-03 0. -1.
        -11    1    3    3    0    0 -0.20100477022E+02  0.33463521182E+01  0.28733803807E+02  0.35225824766E+02  0.51100000000E-03 0.  1.
         12    1    3    3    0    0  0.66025265376E+01  0.12127257528E+02 -0.24573628928E+01  0.14025062004E+02  0.00000000000E+00 0. -1.
</event>
<event>
 7    1  0.1375918E-013  0.7246148E+02  0.7816164E-02  0.1226708E+00
        -11   -1    0    0    0    0  0.00000000000E+00  0.00000000000E+00  0.45593999997E+02  0.45594000000E+02  0.51100000000E-03 0. -1.
         11   -1    0    0    0    0 -0.00000000000E+00 -0.00000000000E+00 -0.45593999997E+02  0.45594000000E+02  0.51100000000E-03 0.  1.
    9900012    2    1    2    0    0 -0.92839378553E+00 -0.17935675997E+02  0.53039652348E+01  0.72461483087E+02  0.69999886396E+02 0.  0.
         12    1    1    2    0    0  0.92839378553E+00  0.17935675997E+02 -0.53039652348E+01  0.18726516913E+02  0.00000000000E+00 0. -1.
         11    1    3    3    0    0 -0.23524782010E+02  0.35917961049E+01 -0.35802074673E+01  0.24065208365E+02  0.51100000000E-03 0. -1.
        -11    1    3    3    0    0  0.26591819806E+02 -0.28573666221E+01  0.11523606812E+02  0.29121863588E+02  0.51100000000E-03 0.  1.
        -12    1    3    3    0    0 -0.39954315818E+01 -0.18670105479E+02 -0.26394341095E+01  0.19274411134E+02  0.00000000000E+00 0.  1.
</event>
<event>
 7    1  0.1375918E-013  0.7246143E+02  0.7816164E-02  0.1226708E+00
        -11   -1    0    0    0    0  0.00000000000E+00  0.00000000000E+00  0.45593999997E+02  0.45594000000E+02  0.51100000000E-03 0.  1.
         11   -1    0    0    0    0 -0.00000000000E+00 -0.00000000000E+00 -0.45593999997E+02  0.45594000000E+02  0.51100000000E-03 0. -1.
    9900012    2    1    2    0    0  0.11393309729E+02 -0.77095451465E+01  0.12705903461E+02  0.72461425949E+02  0.69999811963E+02 0.  0.
         12    1    1    2    0    0 -0.11393309729E+02  0.77095451465E+01 -0.12705903461E+02  0.18726574051E+02  0.00000000000E+00 0. -1.
         11    1    3    3    0    0  0.49057625588E+01 -0.37049677493E+01 -0.24371943032E+02  0.25135331701E+02  0.51100000000E-03 0. -1.
        -11    1    3    3    0    0  0.12505176850E+02  0.79537081072E+01  0.12713649950E+02  0.19526336472E+02  0.51100000000E-03 0.  1.
         12    1    3    3    0    0 -0.60176296803E+01 -0.11958285504E+02  0.24364196543E+02  0.27799757775E+02  0.00000000000E+00 0. -1.
</event>
<event>
 7    1  0.1375918E-013  0.7246157E+02  0.7816164E-02  0.1226708E+00
        -11   -1    0    0    0    0  0.00000000000E+00  0.00000000000E+00  0.45593999997E+02  0.45594000000E+02  0.51100000000E-03 0.  1.
         11   -1    0    0    0    0 -0.00000000000E+00 -0.00000000000E+00 -0.45593999997E+02  0.45594000000E+02  0.51100000000E-03 0. -1.
    9900012    2    1    2    0    0 -0.13370677108E+02  0.62442155754E+01 -0.11528825868E+02  0.72461573209E+02  0.70000003797E+02 0.  0.
         12    1    1    2    0    0  0.13370677108E+02 -0.62442155754E+01  0.11528825868E+02  0.18726426791E+02  0.00000000000E+00 0. -1.
         11    1    3    3    0    0 -0.16186736704E+02 -0.13830085424E+02  0.11134200629E+02  0.24026071919E+02  0.51100000000E-03 0. -1.
        -11    1    3    3    0    0 -0.12010844763E+02  0.23905524624E+02 -0.99890099024E+01  0.28557220077E+02  0.51100000000E-03 0.  1.
         12    1    3    3    0    0  0.14826904360E+02 -0.38312236247E+01 -0.12674016594E+02  0.19878281213E+02  0.00000000000E+00 0. -1.
</event>
<event>
 7    1  0.1375918E-013  0.7246155E+02  0.7816164E-02  0.1226708E+00
        -11   -1    0    0    0    0  0.00000000000E+00  0.00000000000E+00  0.45593999997E+02  0.45594000000E+02  0.51100000000E-03 0.  1.
         11   -1    0    0    0    0 -0.00000000000E+00 -0.00000000000E+00 -0.45593999997E+02  0.45594000000E+02  0.51100000000E-03 0. -1.
    9900012    2    1    2    0    0 -0.73375356967E+01 -0.58693770626E+01  0.16198481361E+02  0.72461553044E+02  0.69999977528E+02 0.  0.
         12    1    1    2    0    0  0.73375356967E+01  0.58693770626E+01 -0.16198481361E+02  0.18726446956E+02  0.00000000000E+00 0. -1.
         11    1    3    3    0    0  0.59731023531E+01  0.27407003204E+01 -0.42232004718E+01  0.78118379690E+01  0.51100000000E-03 0. -1.
        -11    1    3    3    0    0 -0.22838683450E+02 -0.18735805475E+02 -0.10011578047E+02  0.31190824994E+02  0.51100000000E-03 0.  1.
        -12    1    3    3    0    0  0.95280454005E+01  0.10125728092E+02  0.30433259880E+02  0.33458890081E+02  0.00000000000E+00 0.  1.
</event>
<event>
 7    1  0.1375918E-013  0.7246156E+02  0.7816164E-02  0.1226708E+00
        -11   -1    0    0    0    0  0.00000000000E+00  0.00000000000E+00  0.45593999997E+02  0.45594000000E+02  0.51100000000E-03 0. -1.
         11   -1    0    0    0    0 -0.00000000000E+00 -0.00000000000E+00 -0.45593999997E+02  0.45594000000E+02  0.51100000000E-03 0.  1.
    9900012    2    1    2    0    0  0.11826941315E+02  0.11322649532E+02  0.90884881590E+01  0.72461560127E+02  0.69999986756E+02 0.  0.
         12    1    1    2    0    0 -0.11826941315E+02 -0.11322649532E+02 -0.90884881590E+01  0.18726439873E+02  0.00000000000E+00 0. -1.
         11    1    3    3    0    0  0.98965049129E+01  0.55893469432E+01  0.33031620191E+02  0.34932356654E+02  0.51100000000E-03 0. -1.
        -11    1    3    3    0    0 -0.35022432306E+01 -0.10354471888E+02 -0.14308592343E+02  0.18006015962E+02  0.51100000000E-03 0.  1.
         12    1    3    3    0    0  0.54326796324E+01  0.16087774476E+02 -0.96345396890E+01  0.19523187511E+02  0.00000000000E+00 0. -1.
</event>
<event>
 7    1  0.1375918E-013  0.7246203E+02  0.7816164E-02  0.1226707E+00
        -11   -1    0    0    0    0  0.00000000000E+00  0.00000000000E+00  0.45593999997E+02  0.45594000000E+02  0.51100000000E-03 0. -1.
         11   -1    0    0    0    0 -0.00000000000E+00 -0.00000000000E+00 -0.45593999997E+02  0.45594000000E+02  0.51100000000E-03 0.  1.
    9900012    2    1    2    0    0  0.16253284164E+02 -0.16634863685E+01  0.91501619912E+01  0.72462031468E+02  0.70000600761E+02 0.  0.
         12    1    1    2    0    0 -0.16253284164E+02  0.16634863685E+01 -0.91501619912E+01  0.18725968532E+02  0.00000000000E+00 0. -1.
         11    1    3    3    0    0  0.11453384956E+02  0.33461033659E+01  0.34205555514E+02  0.36227012891E+02  0.51100000000E-03 0. -1.
        -11    1    3    3    0    0  0.61611198518E+01  0.84808262867E+01 -0.18292346097E+02  0.21083020142E+02  0.51100000000E-03 0.  1.
         12    1    3    3    0    0 -0.13612206444E+01 -0.13490416021E+02 -0.67630474265E+01  0.15151998435E+02  0.00000000000E+00 0. -1.
</event>
<event>
 7    1  0.1375918E-013  0.7246155E+02  0.7816164E-02  0.1226708E+00
        -11   -1    0    0    0    0  0.00000000000E+00  0.00000000000E+00  0.45593999997E+02  0.45594000000E+02  0.51100000000E-03 0.  1.
         11   -1    0    0    0    0 -0.00000000000E+00 -0.00000000000E+00 -0.45593999997E+02  0.45594000000E+02  0.51100000000E-03 0. -1.
    9900012    2    1    2    0    0 -0.75807957377E+01 -0.13291223290E+02  0.10796059705E+02  0.72461548502E+02  0.69999971611E+02 0.  0.
         12    1    1    2    0    0  0.75807957377E+01  0.13291223290E+02 -0.10796059705E+02  0.18726451498E+02  0.00000000000E+00 0. -1.
         11    1    3    3    0    0  0.66973177051E+01  0.29994741853E+01 -0.26210489411E+02  0.27218388366E+02  0.51100000000E-03 0. -1.
        -11    1    3    3    0    0 -0.14386130451E+02 -0.60220794591E+01  0.24741466628E+02  0.29246647014E+02  0.51100000000E-03 0.  1.
         12    1    3    3    0    0  0.10801700803E+00 -0.10268618017E+02  0.12265082487E+02  0.15996513122E+02  0.00000000000E+00 0. -1.
</event>
<event>
 7    1  0.1375918E-013  0.7246156E+02  0.7816164E-02  0.1226708E+00
        -11   -1    0    0    0    0  0.00000000000E+00  0.00000000000E+00  0.45593999997E+02  0.45594000000E+02  0.51100000000E-03 0. -1.
         11   -1    0    0    0    0 -0.00000000000E+00 -0.00000000000E+00 -0.45593999997E+02  0.45594000000E+02  0.51100000000E-03 0.  1.
    9900012    2    1    2    0    0  0.12294458464E+02  0.14121284946E+02  0.33958898683E+00  0.72461555646E+02  0.69999980918E+02 0.  0.
         12    1    1    2    0    0 -0.12294458464E+02 -0.14121284946E+02 -0.33958898683E+00  0.18726444354E+02  0.00000000000E+00 0. -1.
         11    1    3    3    0    0  0.40272870762E+01 -0.56007696522E+01  0.21450789313E+01  0.72241972408E+01  0.51100000000E-03 0. -1.
        -11    1    3    3    0    0  0.10940247233E+02  0.19966497786E+02 -0.29583442607E+02  0.37330016342E+02  0.51100000000E-03 0.  1.
        -12    1    3    3    0    0 -0.26730758452E+01 -0.24444318715E+00  0.27777952662E+02  0.27907342064E+02  0.00000000000E+00 0.  1.
</event>
<event>
 7    1  0.1375918E-013  0.7246167E+02  0.7816164E-02  0.1226708E+00
        -11   -1    0    0    0    0  0.00000000000E+00  0.00000000000E+00  0.45593999997E+02  0.45594000000E+02  0.51100000000E-03 0.  1.
         11   -1    0    0    0    0 -0.00000000000E+00 -0.00000000000E+00 -0.45593999997E+02  0.45594000000E+02  0.51100000000E-03 0. -1.
    9900012    2    1    2    0    0  0.26802241350E-01  0.61984700783E+01  0.17670696266E+02  0.72461674782E+02  0.70000136114E+02 0.  0.
         12    1    1    2    0    0 -0.26802241350E-01 -0.61984700783E+01 -0.17670696266E+02  0.18726325218E+02  0.00000000000E+00 0. -1.
         11    1    3    3    0    0  0.20252153511E+02  0.87595222239E+01  0.98784427218E+01  0.24175660948E+02  0.51100000000E-03 0.  1.
        -11    1    3    3    0    0 -0.19341606388E+02  0.15951097652E+02  0.14032296240E+02  0.28730481931E+02  0.51100000000E-03 0. -1.
         12    1    3    3    0    0 -0.88374488126E+00 -0.18512149797E+02 -0.62400426962E+01  0.19555531902E+02  0.00000000000E+00 0. -1.
</event>
<event>
 7    1  0.1375918E-013  0.7246163E+02  0.7816164E-02  0.1226708E+00
        -11   -1    0    0    0    0  0.00000000000E+00  0.00000000000E+00  0.45593999997E+02  0.45594000000E+02  0.51100000000E-03 0.  1.
         11   -1    0    0    0    0 -0.00000000000E+00 -0.00000000000E+00 -0.45593999997E+02  0.45594000000E+02  0.51100000000E-03 0. -1.
    9900012    2    1    2    0    0 -0.72953401577E+01 -0.80478762805E+01  0.15254064188E+02  0.72461634231E+02  0.70000083290E+02 0.  0.
         12    1    1    2    0    0  0.72953401577E+01  0.80478762805E+01 -0.15254064188E+02  0.18726365769E+02  0.00000000000E+00 0. -1.
         11    1    3    3    0    0 -0.17925878012E+02  0.11730975867E+02 -0.13339589368E+02  0.25236829081E+02  0.51100000000E-03 0. -1.
        -11    1    3    3    0    0  0.28334891437E+01  0.49192849180E+01  0.18628299248E+02  0.19474125345E+02  0.51100000000E-03 0.  1.
         12    1    3    3    0    0  0.77970487104E+01 -0.24698137066E+02  0.99653543087E+01  0.27750679805E+02  0.00000000000E+00 0. -1.
</event>
<event>
 7    1  0.1375918E-013  0.7246158E+02  0.7816164E-02  0.1226708E+00
        -11   -1    0    0    0    0  0.00000000000E+00  0.00000000000E+00  0.45593999997E+02  0.45594000000E+02  0.51100000000E-03 0. -1.
         11   -1    0    0    0    0 -0.00000000000E+00 -0.00000000000E+00 -0.45593999997E+02  0.45594000000E+02  0.51100000000E-03 0.  1.
    9900012    2    1    2    0    0  0.75945118917E+01  0.14011051607E+02 -0.98332347655E+01  0.72461583259E+02  0.70000016888E+02 0.  0.
         12    1    1    2    0    0 -0.75945118917E+01 -0.14011051607E+02  0.98332347655E+01  0.18726416741E+02  0.00000000000E+00 0. -1.
         11    1    3    3    0    0 -0.15702069586E+02 -0.47509804319E-01 -0.25062806049E+02  0.29575352809E+02  0.51100000000E-03 0.  1.
        -11    1    3    3    0    0  0.27021351261E+02  0.13240257017E+02  0.31927583184E+01  0.30259734562E+02  0.51100000000E-03 0. -1.
         12    1    3    3    0    0 -0.37247697839E+01  0.81830439517E+00  0.12036812965E+02  0.12626495887E+02  0.00000000000E+00 0. -1.
</event>
<event>
 7    1  0.1375918E-013  0.7246156E+02  0.7816164E-02  0.1226708E+00
        -11   -1    0    0    0    0  0.00000000000E+00  0.00000000000E+00  0.45593999997E+02  0.45594000000E+02  0.51100000000E-03 0.  1.
         11   -1    0    0    0    0 -0.00000000000E+00 -0.00000000000E+00 -0.45593999997E+02  0.45594000000E+02  0.51100000000E-03 0. -1.
    9900012    2    1    2    0    0 -0.15103674798E+02 -0.25912487642E+01  0.10763092597E+02  0.72461555468E+02  0.69999980686E+02 0.  0.
         12    1    1    2    0    0  0.15103674798E+02  0.25912487642E+01 -0.10763092597E+02  0.18726444532E+02  0.00000000000E+00 0. -1.
         11    1    3    3    0    0  0.27920385546E+01  0.15222418256E+01 -0.17279293528E+02  0.17569481624E+02  0.51100000000E-03 0.  1.
        -11    1    3    3    0    0 -0.26517272499E+01  0.49333404091E+01  0.35297033923E+02  0.35738636082E+02  0.51100000000E-03 0. -1.
        -12    1    3    3    0    0 -0.15243986102E+02 -0.90468309989E+01 -0.72546477979E+01  0.19153437761E+02  0.00000000000E+00 0.  1.
</event>
<event>
 7    1  0.1375918E-013  0.7246155E+02  0.7816164E-02  0.1226708E+00
        -11   -1    0    0    0    0  0.00000000000E+00  0.00000000000E+00  0.45593999997E+02  0.45594000000E+02  0.51100000000E-03 0.  1.
         11   -1    0    0    0    0 -0.00000000000E+00 -0.00000000000E+00 -0.45593999997E+02  0.45594000000E+02  0.51100000000E-03 0. -1.
    9900012    2    1    2    0    0  0.57175824069E+01 -0.97822459352E+01  0.14909626323E+02  0.72461547020E+02  0.69999969681E+02 0.  0.
         12    1    1    2    0    0 -0.57175824069E+01  0.97822459352E+01 -0.14909626323E+02  0.18726452980E+02  0.00000000000E+00 0. -1.
         11    1    3    3    0    0 -0.26226549639E+01 -0.30897925471E+02 -0.22369001029E+01  0.31089609837E+02  0.51100000000E-03 0. -1.
        -11    1    3    3    0    0  0.11582311508E+02  0.54778200418E+01  0.21312400110E+02  0.24867144006E+02  0.51100000000E-03 0.  1.
        -12    1    3    3    0    0 -0.32420741373E+01  0.15637859494E+02 -0.41658736845E+01  0.16504793177E+02  0.00000000000E+00 0.  1.
</event>
<event>
 7    1  0.1375918E-013  0.7246168E+02  0.7816164E-02  0.1226708E+00
        -11   -1    0    0    0    0  0.00000000000E+00  0.00000000000E+00  0.45593999997E+02  0.45594000000E+02  0.51100000000E-03 0.  1.
         11   -1    0    0    0    0 -0.00000000000E+00 -0.00000000000E+00 -0.45593999997E+02  0.45594000000E+02  0.51100000000E-03 0. -1.
    9900012    2    1    2    0    0  0.47933237988E+01 -0.10334190770E+02  0.14862828761E+02  0.72461678132E+02  0.70000140479E+02 0.  0.
         12    1    1    2    0    0 -0.47933237988E+01  0.10334190770E+02 -0.14862828761E+02  0.18726321868E+02  0.00000000000E+00 0. -1.
         11    1    3    3    0    0  0.46660514761E+01 -0.10917402226E+02 -0.24777807527E+02  0.27475470038E+02  0.51100000000E-03 0. -1.
        -11    1    3    3    0    0  0.93939218117E+01 -0.34001044997E+01  0.12310355483E+02  0.15854063516E+02  0.51100000000E-03 0.  1.
         12    1    3    3    0    0 -0.92666494890E+01  0.39833159557E+01  0.27330280806E+02  0.29132144577E+02  0.00000000000E+00 0. -1.
</event>
<event>
 7    1  0.1375918E-013  0.7246157E+02  0.7816164E-02  0.1226708E+00
        -11   -1    0    0    0    0  0.00000000000E+00  0.00000000000E+00  0.45593999997E+02  0.45594000000E+02  0.51100000000E-03 0.  1.
         11   -1    0    0    0    0 -0.00000000000E+00 -0.00000000000E+00 -0.45593999997E+02  0.45594000000E+02  0.51100000000E-03 0. -1.
    9900012    2    1    2    0    0 -0.15220620090E+02 -0.89337894142E+01  0.62609339569E+01  0.72461570462E+02  0.70000000219E+02 0.  0.
         12    1    1    2    0    0  0.15220620090E+02  0.89337894142E+01 -0.62609339569E+01  0.18726429538E+02  0.00000000000E+00 0. -1.
         11    1    3    3    0    0 -0.11527664318E+02 -0.23717921543E+02 -0.74445815607E+01  0.27401617504E+02  0.51100000000E-03 0. -1.
        -11    1    3    3    0    0 -0.89070711344E+01  0.70300539446E+00  0.24819536364E+02  0.26378770221E+02  0.51100000000E-03 0.  1.
         12    1    3    3    0    0  0.52141153625E+01  0.14081126734E+02 -0.11114020846E+02  0.18681182738E+02  0.00000000000E+00 0. -1.
</event>
<event>
 7    1  0.1375918E-013  0.7246162E+02  0.7816164E-02  0.1226708E+00
        -11   -1    0    0    0    0  0.00000000000E+00  0.00000000000E+00  0.45593999997E+02  0.45594000000E+02  0.51100000000E-03 0.  1.
         11   -1    0    0    0    0 -0.00000000000E+00 -0.00000000000E+00 -0.45593999997E+02  0.45594000000E+02  0.51100000000E-03 0. -1.
    9900012    2    1    2    0    0  0.39266649088E+01  0.18303867903E+02 -0.47666224353E+00  0.72461615288E+02  0.70000058612E+02 0.  0.
         12    1    1    2    0    0 -0.39266649088E+01 -0.18303867903E+02  0.47666224353E+00  0.18726384712E+02  0.00000000000E+00 0. -1.
         11    1    3    3    0    0  0.14823330646E+02 -0.83721516227E+01 -0.22135754312E+02  0.27925179919E+02  0.51100000000E-03 0. -1.
        -11    1    3    3    0    0 -0.18641646094E+02  0.12784236462E+02  0.95142829150E+01  0.24524870043E+02  0.51100000000E-03 0.  1.
         12    1    3    3    0    0  0.77449803563E+01  0.13891783063E+02  0.12144809154E+02  0.20011565326E+02  0.00000000000E+00 0. -1.
</event>
<event>
 8    1  0.1375918E-013  0.7246144E+02  0.7816164E-02  0.1226708E+00
        -11   -1    0    0    0    0  0.00000000000E+00  0.00000000000E+00  0.45593999997E+02  0.45594000000E+02  0.51100000000E-03 0.  1.
         11   -1    0    0    0    0 -0.00000000000E+00 -0.00000000000E+00 -0.45593999997E+02  0.45594000000E+02  0.51100000000E-03 0. -1.
    9900012    2    1    2    0    0 -0.54615852746E+01  0.16214663965E+02 -0.76118325762E+01  0.72461435009E+02  0.69999823765E+02 0.  0.
        -24    2    3    3    0    0  0.80417748645E-01  0.42144116534E+01 -0.17609211274E+01  0.58006227708E+02  0.57826065724E+02 0.  0.
         12    1    1    2    0    0  0.54615852746E+01 -0.16214663965E+02  0.76118325762E+01  0.18726564991E+02  0.00000000000E+00 0. -1.
         11    1    4    4    0    0 -0.15075888707E+02 -0.20793614716E+02  0.84411084673E+01  0.27035331433E+02  0.51100000000E-03 0. -1.
        -11    1    3    3    0    0 -0.55420030232E+01  0.12000252312E+02 -0.58509114488E+01  0.14455207300E+02  0.51100000000E-03 0.  1.
        -12    1    4    4    0    0  0.15156306455E+02  0.25008026370E+02 -0.10202029595E+02  0.30970896276E+02  0.00000000000E+00 0.  1.
</event>
<event>
 7    1  0.1375918E-013  0.7246118E+02  0.7816164E-02  0.1226709E+00
        -11   -1    0    0    0    0  0.00000000000E+00  0.00000000000E+00  0.45593999997E+02  0.45594000000E+02  0.51100000000E-03 0.  1.
         11   -1    0    0    0    0 -0.00000000000E+00 -0.00000000000E+00 -0.45593999997E+02  0.45594000000E+02  0.51100000000E-03 0. -1.
    9900012    2    1    2    0    0 -0.90428823700E+01  0.52693482094E+01  0.15529135819E+02  0.72461179357E+02  0.69999490729E+02 0.  0.
         12    1    1    2    0    0  0.90428823700E+01 -0.52693482094E+01 -0.15529135819E+02  0.18726820643E+02  0.00000000000E+00 0. -1.
         11    1    3    3    0    0 -0.27027223171E+02  0.25207819561E+02  0.14729917907E+02  0.39785367174E+02  0.51100000000E-03 0. -1.
        -11    1    3    3    0    0  0.38296075303E+01  0.82938583167E+00  0.58494433824E+01  0.70405797232E+01  0.51100000000E-03 0.  1.
         12    1    3    3    0    0  0.14154733271E+02 -0.20767857183E+02 -0.50502254702E+01  0.25635232459E+02  0.00000000000E+00 0. -1.
</event>
<event>
 7    1  0.1375918E-013  0.7246158E+02  0.7816164E-02  0.1226708E+00
        -11   -1    0    0    0    0  0.00000000000E+00  0.00000000000E+00  0.45593999997E+02  0.45594000000E+02  0.51100000000E-03 0.  1.
         11   -1    0    0    0    0 -0.00000000000E+00 -0.00000000000E+00 -0.45593999997E+02  0.45594000000E+02  0.51100000000E-03 0. -1.
    9900012    2    1    2    0    0 -0.31744901096E+00 -0.24046369702E+01  0.18568677538E+02  0.72461579136E+02  0.70000011518E+02 0.  0.
         12    1    1    2    0    0  0.31744901096E+00  0.24046369702E+01 -0.18568677538E+02  0.18726420864E+02  0.00000000000E+00 0. -1.
         11    1    3    3    0    0 -0.21038425584E+02  0.47258928732E+00 -0.80586757135E+01  0.22533995345E+02  0.51100000000E-03 0. -1.
        -11    1    3    3    0    0  0.42851495171E+01 -0.13257694092E+02  0.27111482705E+02  0.30482149756E+02  0.51100000000E-03 0.  1.
        -12    1    3    3    0    0  0.16435827056E+02  0.10380467834E+02 -0.48412945314E+00  0.19445434035E+02  0.00000000000E+00 0.  1.
</event>
<event>
 7    1  0.1375918E-013  0.7246157E+02  0.7816164E-02  0.1226708E+00
        -11   -1    0    0    0    0  0.00000000000E+00  0.00000000000E+00  0.45593999997E+02  0.45594000000E+02  0.51100000000E-03 0.  1.
         11   -1    0    0    0    0 -0.00000000000E+00 -0.00000000000E+00 -0.45593999997E+02  0.45594000000E+02  0.51100000000E-03 0. -1.
    9900012    2    1    2    0    0 -0.71081703590E+01  0.14079456682E+02  0.10095644461E+02  0.72461568856E+02  0.69999998127E+02 0.  0.
         12    1    1    2    0    0  0.71081703590E+01 -0.14079456682E+02 -0.10095644461E+02  0.18726431144E+02  0.00000000000E+00 0. -1.
         11    1    3    3    0    0  0.83233675982E+01  0.12781757436E+02 -0.87236277195E+01  0.17571381624E+02  0.51100000000E-03 0. -1.
        -11    1    3    3    0    0 -0.10975139051E+02 -0.13887426504E+02  0.30470194193E+02  0.35238431102E+02  0.51100000000E-03 0.  1.
        -12    1    3    3    0    0 -0.44563989061E+01  0.15185125750E+02 -0.11650922013E+02  0.19651756131E+02  0.00000000000E+00 0.  1.
</event>
<event>
 7    1  0.1375918E-013  0.7246164E+02  0.7816164E-02  0.1226708E+00
        -11   -1    0    0    0    0  0.00000000000E+00  0.00000000000E+00  0.45593999997E+02  0.45594000000E+02  0.51100000000E-03 0.  1.
         11   -1    0    0    0    0 -0.00000000000E+00 -0.00000000000E+00 -0.45593999997E+02  0.45594000000E+02  0.51100000000E-03 0. -1.
    9900012    2    1    2    0    0  0.10553316126E+02  0.12236337158E+02 -0.94644762643E+01  0.72461635183E+02  0.70000084530E+02 0.  0.
         12    1    1    2    0    0 -0.10553316126E+02 -0.12236337158E+02  0.94644762643E+01  0.18726364817E+02  0.00000000000E+00 0. -1.
         11    1    3    3    0    0 -0.95069692925E+01 -0.24020320122E+02  0.14636063363E+01  0.25874705557E+02  0.51100000000E-03 0. -1.
        -11    1    3    3    0    0  0.43136137399E+01  0.15946676917E+02  0.38211702999E+01  0.16955975670E+02  0.51100000000E-03 0.  1.
         12    1    3    3    0    0  0.15746671678E+02  0.20309980362E+02 -0.14749252900E+02  0.29630953957E+02  0.00000000000E+00 0. -1.
</event>
<event>
 7    1  0.1375918E-013  0.7246154E+02  0.7816164E-02  0.1226708E+00
        -11   -1    0    0    0    0  0.00000000000E+00  0.00000000000E+00  0.45593999997E+02  0.45594000000E+02  0.51100000000E-03 0.  1.
         11   -1    0    0    0    0 -0.00000000000E+00 -0.00000000000E+00 -0.45593999997E+02  0.45594000000E+02  0.51100000000E-03 0. -1.
    9900012    2    1    2    0    0 -0.11600489387E+02 -0.35061314834E+01  0.14276414509E+02  0.72461539490E+02  0.69999959871E+02 0.  0.
         12    1    1    2    0    0  0.11600489387E+02  0.35061314834E+01 -0.14276414509E+02  0.18726460510E+02  0.00000000000E+00 0. -1.
         11    1    3    3    0    0  0.28736284350E+00 -0.67517968945E+01 -0.21708854133E+02  0.22736395641E+02  0.51100000000E-03 0. -1.
        -11    1    3    3    0    0 -0.10694405019E+02  0.17157341486E+02  0.23438788652E+02  0.30953537428E+02  0.51100000000E-03 0.  1.
        -12    1    3    3    0    0 -0.11934472121E+01 -0.13911676075E+02  0.12546479991E+02  0.18771606421E+02  0.00000000000E+00 0.  1.
</event>
<event>
 7    1  0.1375918E-013  0.7246155E+02  0.7816164E-02  0.1226708E+00
        -11   -1    0    0    0    0  0.00000000000E+00  0.00000000000E+00  0.45593999997E+02  0.45594000000E+02  0.51100000000E-03 0. -1.
         11   -1    0    0    0    0 -0.00000000000E+00 -0.00000000000E+00 -0.45593999997E+02  0.45594000000E+02  0.51100000000E-03 0.  1.
    9900012    2    1    2    0    0  0.62155981865E+01 -0.16602276762E+02 -0.60341171701E+01  0.72461552806E+02  0.69999977218E+02 0.  0.
         12    1    1    2    0    0 -0.62155981865E+01  0.16602276762E+02  0.60341171701E+01  0.18726447194E+02  0.00000000000E+00 0. -1.
         11    1    3    3    0    0 -0.38938497077E+01  0.56790824260E+00  0.63379415446E+01  0.74601667945E+01  0.51100000000E-03 0. -1.
        -11    1    3    3    0    0  0.84197051603E+01 -0.19143903739E+02 -0.35783167795E+02  0.41446538855E+02  0.51100000000E-03 0.  1.
        -12    1    3    3    0    0  0.16897427339E+01  0.19737187346E+01  0.23411109081E+02  0.23554847156E+02  0.00000000000E+00 0.  1.
</event>
<event>
 7    1  0.1375918E-013  0.7246158E+02  0.7816164E-02  0.1226708E+00
        -11   -1    0    0    0    0  0.00000000000E+00  0.00000000000E+00  0.45593999997E+02  0.45594000000E+02  0.51100000000E-03 0.  1.
         11   -1    0    0    0    0 -0.00000000000E+00 -0.00000000000E+00 -0.45593999997E+02  0.45594000000E+02  0.51100000000E-03 0. -1.
    9900012    2    1    2    0    0  0.14557171210E+02  0.45352413254E+01  0.10871937895E+02  0.72461583335E+02  0.70000016988E+02 0.  0.
         12    1    1    2    0    0 -0.14557171210E+02 -0.45352413254E+01 -0.10871937895E+02  0.18726416665E+02  0.00000000000E+00 0. -1.
         11    1    3    3    0    0  0.13854219588E+02  0.15594414633E+02 -0.17611886084E+02  0.27300250912E+02  0.51100000000E-03 0. -1.
        -11    1    3    3    0    0  0.12847511200E+02  0.20216582846E+01  0.23114043627E+02  0.26521777076E+02  0.51100000000E-03 0.  1.
         12    1    3    3    0    0 -0.12144559578E+02 -0.13080831592E+02  0.53697803532E+01  0.18639555347E+02  0.00000000000E+00 0. -1.
</event>
<event>
 7    1  0.1375918E-013  0.7246171E+02  0.7816164E-02  0.1226708E+00
        -11   -1    0    0    0    0  0.00000000000E+00  0.00000000000E+00  0.45593999997E+02  0.45594000000E+02  0.51100000000E-03 0.  1.
         11   -1    0    0    0    0 -0.00000000000E+00 -0.00000000000E+00 -0.45593999997E+02  0.45594000000E+02  0.51100000000E-03 0. -1.
    9900012    2    1    2    0    0  0.66933297636E+01 -0.38368401568E+01  0.17063177905E+02  0.72461707096E+02  0.70000178210E+02 0.  0.
         12    1    1    2    0    0 -0.66933297636E+01  0.38368401568E+01 -0.17063177905E+02  0.18726292904E+02  0.00000000000E+00 0. -1.
         11    1    3    3    0    0  0.92193015255E+01  0.16878050562E+02 -0.19041176605E+01  0.19325883569E+02  0.51100000000E-03 0. -1.
        -11    1    3    3    0    0 -0.10138366668E+02 -0.33152167558E+02  0.16313708750E+02  0.38314354829E+02  0.51100000000E-03 0.  1.
        -12    1    3    3    0    0  0.76123949066E+01  0.12437276839E+02  0.26535868146E+01  0.14821468698E+02  0.00000000000E+00 0.  1.
</event>
<event>
 7    1  0.1375918E-013  0.7246156E+02  0.7816164E-02  0.1226708E+00
        -11   -1    0    0    0    0  0.00000000000E+00  0.00000000000E+00  0.45593999997E+02  0.45594000000E+02  0.51100000000E-03 0.  1.
         11   -1    0    0    0    0 -0.00000000000E+00 -0.00000000000E+00 -0.45593999997E+02  0.45594000000E+02  0.51100000000E-03 0. -1.
    9900012    2    1    2    0    0  0.16077457740E+02 -0.77044940164E+01 -0.57302526661E+01  0.72461556904E+02  0.69999982556E+02 0.  0.
         12    1    1    2    0    0 -0.16077457740E+02  0.77044940164E+01  0.57302526661E+01  0.18726443096E+02  0.00000000000E+00 0. -1.
         11    1    3    3    0    0  0.24146747163E+01  0.10553000145E+02 -0.10681498353E+02  0.15208250175E+02  0.51100000000E-03 0. -1.
        -11    1    3    3    0    0  0.16971971217E+02 -0.34668179064E+02  0.98000266859E+01  0.39824251028E+02  0.51100000000E-03 0.  1.
        -12    1    3    3    0    0 -0.33091881937E+01  0.16410684902E+02 -0.48487809990E+01  0.17429055701E+02  0.00000000000E+00 0.  1.
</event>
<event>
 7    1  0.1375918E-013  0.7246145E+02  0.7816164E-02  0.1226708E+00
        -11   -1    0    0    0    0  0.00000000000E+00  0.00000000000E+00  0.45593999997E+02  0.45594000000E+02  0.51100000000E-03 0.  1.
         11   -1    0    0    0    0 -0.00000000000E+00 -0.00000000000E+00 -0.45593999997E+02  0.45594000000E+02  0.51100000000E-03 0. -1.
    9900012    2    1    2    0    0 -0.42409431270E+01  0.10626817618E+02  0.14824607493E+02  0.72461445629E+02  0.69999837600E+02 0.  0.
         12    1    1    2    0    0  0.42409431270E+01 -0.10626817618E+02 -0.14824607493E+02  0.18726554371E+02  0.00000000000E+00 0. -1.
         11    1    3    3    0    0  0.12323507015E+02  0.21707503100E+02  0.67601980012E+01  0.25860873792E+02  0.51100000000E-03 0. -1.
        -11    1    3    3    0    0 -0.27344832364E+02 -0.82560812900E+00  0.13816722878E+02  0.30648381966E+02  0.51100000000E-03 0.  1.
         12    1    3    3    0    0  0.10780382222E+02 -0.10255077353E+02 -0.57523133859E+01  0.15952189870E+02  0.00000000000E+00 0. -1.
</event>
<event>
 7    1  0.1375918E-013  0.7246190E+02  0.7816164E-02  0.1226707E+00
        -11   -1    0    0    0    0  0.00000000000E+00  0.00000000000E+00  0.45593999997E+02  0.45594000000E+02  0.51100000000E-03 0. -1.
         11   -1    0    0    0    0 -0.00000000000E+00 -0.00000000000E+00 -0.45593999997E+02  0.45594000000E+02  0.51100000000E-03 0.  1.
    9900012    2    1    2    0    0  0.18210762402E+00  0.53509523407E+01 -0.17944386806E+02  0.72461898645E+02  0.70000427736E+02 0.  0.
         12    1    1    2    0    0 -0.18210762402E+00 -0.53509523407E+01  0.17944386806E+02  0.18726101355E+02  0.00000000000E+00 0. -1.
         11    1    3    3    0    0 -0.71813086225E+01  0.13417620811E+02  0.14741036863E+02  0.21187305393E+02  0.51100000000E-03 0. -1.
        -11    1    3    3    0    0 -0.12108305467E+02 -0.13010110034E+02 -0.22730485752E+02  0.28853925333E+02  0.51100000000E-03 0.  1.
        -12    1    3    3    0    0  0.19471721713E+02  0.49434415632E+01 -0.99549379170E+01  0.22420667918E+02  0.00000000000E+00 0.  1.
</event>
<event>
 7    1  0.1375918E-013  0.7246148E+02  0.7816164E-02  0.1226708E+00
        -11   -1    0    0    0    0  0.00000000000E+00  0.00000000000E+00  0.45593999997E+02  0.45594000000E+02  0.51100000000E-03 0. -1.
         11   -1    0    0    0    0 -0.00000000000E+00 -0.00000000000E+00 -0.45593999997E+02  0.45594000000E+02  0.51100000000E-03 0.  1.
    9900012    2    1    2    0    0  0.24075722125E+01  0.42912234538E+01 -0.18068521060E+02  0.72461482545E+02  0.69999885691E+02 0.  0.
         12    1    1    2    0    0 -0.24075722125E+01 -0.42912234538E+01  0.18068521060E+02  0.18726517455E+02  0.00000000000E+00 0. -1.
         11    1    3    3    0    0  0.18495825522E+02  0.28322581530E+02 -0.69515500254E+01  0.34533870827E+02  0.51100000000E-03 0. -1.
        -11    1    3    3    0    0 -0.24954099808E+01 -0.64279664654E+01 -0.13897298312E+02  0.15513888116E+02  0.51100000000E-03 0.  1.
         12    1    3    3    0    0 -0.13592843329E+02 -0.17603391611E+02  0.27803272773E+01  0.22413723603E+02  0.00000000000E+00 0. -1.
</event>
<event>
 7    1  0.1375918E-013  0.7246158E+02  0.7816164E-02  0.1226708E+00
        -11   -1    0    0    0    0  0.00000000000E+00  0.00000000000E+00  0.45593999997E+02  0.45594000000E+02  0.51100000000E-03 0.  1.
         11   -1    0    0    0    0 -0.00000000000E+00 -0.00000000000E+00 -0.45593999997E+02  0.45594000000E+02  0.51100000000E-03 0. -1.
    9900012    2    1    2    0    0 -0.61477098691E+01  0.16332061722E+02 -0.67932449220E+01  0.72461581408E+02  0.70000014477E+02 0.  0.
         12    1    1    2    0    0  0.61477098691E+01 -0.16332061722E+02  0.67932449220E+01  0.18726418592E+02  0.00000000000E+00 0. -1.
         11    1    3    3    0    0 -0.11943621849E+02 -0.26002776580E+01 -0.16507872803E+02  0.20540725681E+02  0.51100000000E-03 0. -1.
        -11    1    3    3    0    0 -0.13186485654E+01  0.12986231319E+02  0.28292080469E+02  0.31158030353E+02  0.51100000000E-03 0.  1.
         12    1    3    3    0    0  0.71145605451E+01  0.59461080610E+01 -0.18577452589E+02  0.20762825374E+02  0.00000000000E+00 0. -1.
</event>
<event>
 7    1  0.1375918E-013  0.7246159E+02  0.7816164E-02  0.1226708E+00
        -11   -1    0    0    0    0  0.00000000000E+00  0.00000000000E+00  0.45593999997E+02  0.45594000000E+02  0.51100000000E-03 0.  1.
         11   -1    0    0    0    0 -0.00000000000E+00 -0.00000000000E+00 -0.45593999997E+02  0.45594000000E+02  0.51100000000E-03 0. -1.
    9900012    2    1    2    0    0  0.12951155760E+02 -0.12449869272E+02  0.52864667119E+01  0.72461590555E+02  0.70000026393E+02 0.  0.
         12    1    1    2    0    0 -0.12951155760E+02  0.12449869272E+02 -0.52864667119E+01  0.18726409445E+02  0.00000000000E+00 0. -1.
         11    1    3    3    0    0  0.94783080586E+01  0.15457178072E+02  0.40026039324E+01  0.18568347156E+02  0.51100000000E-03 0. -1.
        -11    1    3    3    0    0 -0.88992686379E+01 -0.30121922109E+02 -0.13759121006E+02  0.34290532002E+02  0.51100000000E-03 0.  1.
        -12    1    3    3    0    0  0.12372116340E+02  0.22148747655E+01  0.15042983786E+02  0.19602711397E+02  0.00000000000E+00 0.  1.
</event>
<event>
 7    1  0.1375918E-013  0.7246161E+02  0.7816164E-02  0.1226708E+00
        -11   -1    0    0    0    0  0.00000000000E+00  0.00000000000E+00  0.45593999997E+02  0.45594000000E+02  0.51100000000E-03 0. -1.
         11   -1    0    0    0    0 -0.00000000000E+00 -0.00000000000E+00 -0.45593999997E+02  0.45594000000E+02  0.51100000000E-03 0.  1.
    9900012    2    1    2    0    0 -0.16933816128E+02 -0.61446564800E+01 -0.51153486489E+01  0.72461608898E+02  0.70000050288E+02 0.  0.
         12    1    1    2    0    0  0.16933816128E+02  0.61446564800E+01  0.51153486489E+01  0.18726391102E+02  0.00000000000E+00 0. -1.
         11    1    3    3    0    0 -0.13883154525E+02 -0.22197342335E+01 -0.55510982964E+00  0.14070442311E+02  0.51100000000E-03 0. -1.
        -11    1    3    3    0    0  0.20726289199E+02  0.41135927516E+01  0.15544918117E+02  0.26232521587E+02  0.51100000000E-03 0.  1.
        -12    1    3    3    0    0 -0.23776950801E+02 -0.80385149980E+01 -0.20105156937E+02  0.32158645000E+02  0.00000000000E+00 0.  1.
</event>
<event>
 7    1  0.1375918E-013  0.7246157E+02  0.7816164E-02  0.1226708E+00
        -11   -1    0    0    0    0  0.00000000000E+00  0.00000000000E+00  0.45593999997E+02  0.45594000000E+02  0.51100000000E-03 0. -1.
         11   -1    0    0    0    0 -0.00000000000E+00 -0.00000000000E+00 -0.45593999997E+02  0.45594000000E+02  0.51100000000E-03 0.  1.
    9900012    2    1    2    0    0 -0.36866300670E+01  0.12775440355E+02 -0.13186210832E+02  0.72461567515E+02  0.69999996380E+02 0.  0.
         12    1    1    2    0    0  0.36866300670E+01 -0.12775440355E+02  0.13186210832E+02  0.18726432485E+02  0.00000000000E+00 0. -1.
         11    1    3    3    0    0 -0.16145911288E+02  0.25488241484E+02  0.10951918395E+02  0.32098059475E+02  0.51100000000E-03 0. -1.
        -11    1    3    3    0    0 -0.52919834374E+01 -0.10042230683E+02 -0.14664365056E+01  0.11445607108E+02  0.51100000000E-03 0.  1.
         12    1    3    3    0    0  0.17751264658E+02 -0.26705704469E+01 -0.22671692721E+02  0.28917900932E+02  0.00000000000E+00 0. -1.
</event>
<event>
 7    1  0.1375918E-013  0.7246152E+02  0.7816164E-02  0.1226708E+00
        -11   -1    0    0    0    0  0.00000000000E+00  0.00000000000E+00  0.45593999997E+02  0.45594000000E+02  0.51100000000E-03 0.  1.
         11   -1    0    0    0    0 -0.00000000000E+00 -0.00000000000E+00 -0.45593999997E+02  0.45594000000E+02  0.51100000000E-03 0. -1.
    9900012    2    1    2    0    0  0.17374040017E+02  0.30662819768E+01  0.62786626677E+01  0.72461522580E+02  0.69999937843E+02 0.  0.
         12    1    1    2    0    0 -0.17374040017E+02 -0.30662819768E+01 -0.62786626677E+01  0.18726477420E+02  0.00000000000E+00 0. -1.
         11    1    3    3    0    0 -0.65394819574E+01 -0.18658389190E+01  0.30800140719E-01  0.68005241013E+01  0.51100000000E-03 0. -1.
        -11    1    3    3    0    0  0.32534433122E+02 -0.20530558705E+02  0.31152814533E+01  0.38596608117E+02  0.51100000000E-03 0.  1.
        -12    1    3    3    0    0 -0.86209111472E+01  0.25462679601E+02  0.31325810737E+01  0.27064390362E+02  0.00000000000E+00 0.  1.
</event>
<event>
 7    1  0.1693670E-013  0.7246156E+02  0.7816164E-02  0.1226708E+00
        -11   -1    0    0    0    0  0.00000000000E+00  0.00000000000E+00  0.45593999997E+02  0.45594000000E+02  0.51100000000E-03 0. -1.
         11   -1    0    0    0    0 -0.00000000000E+00 -0.00000000000E+00 -0.45593999997E+02  0.45594000000E+02  0.51100000000E-03 0.  1.
    9900012    2    1    2    0    0 -0.13582878143E+02  0.17324685678E+01 -0.12774330905E+02  0.72461559974E+02  0.69999986555E+02 0.  0.
         12    1    1    2    0    0  0.13582878143E+02 -0.17324685678E+01  0.12774330905E+02  0.18726440026E+02  0.00000000000E+00 0. -1.
         11    1    3    3    0    0 -0.29205191731E+01  0.40261521356E+01  0.21922523525E+02  0.22479687970E+02  0.51100000000E-03 0. -1.
        -11    1    3    3    0    0  0.12973612832E+01 -0.16599294743E+02 -0.21233679372E+02  0.26983121987E+02  0.51100000000E-03 0.  1.
         12    1    3    3    0    0 -0.11959720253E+02  0.14305611175E+02 -0.13463175059E+02  0.22998750016E+02  0.00000000000E+00 0. -1.
</event>
<event>
 7    1  0.1375918E-013  0.7246136E+02  0.7816164E-02  0.1226709E+00
        -11   -1    0    0    0    0  0.00000000000E+00  0.00000000000E+00  0.45593999997E+02  0.45594000000E+02  0.51100000000E-03 0.  1.
         11   -1    0    0    0    0 -0.00000000000E+00 -0.00000000000E+00 -0.45593999997E+02  0.45594000000E+02  0.51100000000E-03 0. -1.
    9900012    2    1    2    0    0 -0.14830358890E+02  0.66926803365E+01  0.92712161298E+01  0.72461362196E+02  0.69999728913E+02 0.  0.
         12    1    1    2    0    0  0.14830358890E+02 -0.66926803365E+01 -0.92712161298E+01  0.18726637804E+02  0.00000000000E+00 0. -1.
         11    1    3    3    0    0 -0.15389497889E+02  0.47377809155E+01 -0.25981442628E+02  0.30566625175E+02  0.51100000000E-03 0. -1.
        -11    1    3    3    0    0  0.42730258158E+01  0.11347910176E+02  0.23129186527E+02  0.26114997312E+02  0.51100000000E-03 0.  1.
        -12    1    3    3    0    0 -0.37138868173E+01 -0.93930107551E+01  0.12123472232E+02  0.15779739709E+02  0.00000000000E+00 0.  1.
</event>
<event>
 7    1  0.1375918E-013  0.7246157E+02  0.7816164E-02  0.1226708E+00
        -11   -1    0    0    0    0  0.00000000000E+00  0.00000000000E+00  0.45593999997E+02  0.45594000000E+02  0.51100000000E-03 0.  1.
         11   -1    0    0    0    0 -0.00000000000E+00 -0.00000000000E+00 -0.45593999997E+02  0.45594000000E+02  0.51100000000E-03 0. -1.
    9900012    2    1    2    0    0 -0.16251490418E+02  0.24720373263E+01  0.89698061758E+01  0.72461565952E+02  0.69999994343E+02 0.  0.
         12    1    1    2    0    0  0.16251490418E+02 -0.24720373263E+01 -0.89698061758E+01  0.18726434048E+02  0.00000000000E+00 0. -1.
         11    1    3    3    0    0 -0.18870441185E+02  0.73173327855E+01 -0.15444722690E+02  0.25459308098E+02  0.51100000000E-03 0. -1.
        -11    1    3    3    0    0 -0.11179195987E+01 -0.21851317065E+02  0.18376915448E+02  0.28573428624E+02  0.51100000000E-03 0.  1.
        -12    1    3    3    0    0  0.37368703660E+01  0.17006021606E+02  0.60376134183E+01  0.18428829229E+02  0.00000000000E+00 0.  1.
</event>
<event>
 7    1  0.1375918E-013  0.7246153E+02  0.7816164E-02  0.1226708E+00
        -11   -1    0    0    0    0  0.00000000000E+00  0.00000000000E+00  0.45593999997E+02  0.45594000000E+02  0.51100000000E-03 0.  1.
         11   -1    0    0    0    0 -0.00000000000E+00 -0.00000000000E+00 -0.45593999997E+02  0.45594000000E+02  0.51100000000E-03 0. -1.
    9900012    2    1    2    0    0 -0.16873174802E+01 -0.14107490120E+02  0.12198863089E+02  0.72461532676E+02  0.69999950995E+02 0.  0.
         12    1    1    2    0    0  0.16873174802E+01  0.14107490120E+02 -0.12198863089E+02  0.18726467324E+02  0.00000000000E+00 0. -1.
         11    1    3    3    0    0 -0.47979083786E+01 -0.27325735113E+01 -0.65049611717E+00  0.55596787915E+01  0.51100000000E-03 0. -1.
        -11    1    3    3    0    0  0.17563756296E+02 -0.14774494364E+02 -0.20260890042E+02  0.30614945443E+02  0.51100000000E-03 0.  1.
        -12    1    3    3    0    0 -0.14453165398E+02  0.33995777549E+01  0.33110249249E+02  0.36286908441E+02  0.00000000000E+00 0.  1.
</event>
<event>
 7    1  0.1375918E-013  0.7246156E+02  0.7816164E-02  0.1226708E+00
        -11   -1    0    0    0    0  0.00000000000E+00  0.00000000000E+00  0.45593999997E+02  0.45594000000E+02  0.51100000000E-03 0. -1.
         11   -1    0    0    0    0 -0.00000000000E+00 -0.00000000000E+00 -0.45593999997E+02  0.45594000000E+02  0.51100000000E-03 0.  1.
    9900012    2    1    2    0    0 -0.29728397159E+01 -0.10316918281E+02 -0.15342844666E+02  0.72461562506E+02  0.69999989854E+02 0.  0.
         12    1    1    2    0    0  0.29728397159E+01  0.10316918281E+02  0.15342844666E+02  0.18726437494E+02  0.00000000000E+00 0. -1.
         11    1    3    3    0    0  0.25414245653E+02 -0.53616403840E+01 -0.12088228005E+02  0.28648845113E+02  0.51100000000E-03 0. -1.
        -11    1    3    3    0    0 -0.72194597204E+01 -0.40943642425E+01 -0.16750558233E+02  0.18693999534E+02  0.51100000000E-03 0.  1.
         12    1    3    3    0    0 -0.21167625649E+02 -0.86091365441E+00  0.13495941572E+02  0.25118717858E+02  0.00000000000E+00 0. -1.
</event>
<event>
 7    1  0.1375918E-013  0.7246158E+02  0.7816164E-02  0.1226708E+00
        -11   -1    0    0    0    0  0.00000000000E+00  0.00000000000E+00  0.45593999997E+02  0.45594000000E+02  0.51100000000E-03 0. -1.
         11   -1    0    0    0    0 -0.00000000000E+00 -0.00000000000E+00 -0.45593999997E+02  0.45594000000E+02  0.51100000000E-03 0.  1.
    9900012    2    1    2    0    0  0.93317632946E+01 -0.16197949269E+02 -0.11060501299E+01  0.72461582468E+02  0.70000015858E+02 0.  0.
         12    1    1    2    0    0 -0.93317632946E+01  0.16197949269E+02  0.11060501299E+01  0.18726417532E+02  0.00000000000E+00 0. -1.
         11    1    3    3    0    0 -0.11540431443E+02 -0.25529496742E+02 -0.20430127701E+02  0.34674585505E+02  0.51100000000E-03 0. -1.
        -11    1    3    3    0    0  0.17344388338E+02  0.69394638747E+01  0.71368294287E+00  0.18694740151E+02  0.51100000000E-03 0.  1.
         12    1    3    3    0    0  0.35278064000E+01  0.23920835984E+01  0.18610394629E+02  0.19092256812E+02  0.00000000000E+00 0. -1.
</event>
<event>
 7    1  0.1375918E-013  0.7246155E+02  0.7816164E-02  0.1226708E+00
        -11   -1    0    0    0    0  0.00000000000E+00  0.00000000000E+00  0.45593999997E+02  0.45594000000E+02  0.51100000000E-03 0.  1.
         11   -1    0    0    0    0 -0.00000000000E+00 -0.00000000000E+00 -0.45593999997E+02  0.45594000000E+02  0.51100000000E-03 0. -1.
    9900012    2    1    2    0    0  0.17706145001E+02  0.60157476191E+01  0.99157270697E+00  0.72461547943E+02  0.69999970883E+02 0.  0.
         12    1    1    2    0    0 -0.17706145001E+02 -0.60157476191E+01 -0.99157270697E+00  0.18726452057E+02  0.00000000000E+00 0. -1.
         11    1    3    3    0    0 -0.17571604056E+01 -0.20498319440E+02 -0.21053721436E+01  0.20680940614E+02  0.51100000000E-03 0. -1.
        -11    1    3    3    0    0  0.26837476411E+02  0.19681996584E+02  0.14739234920E+02  0.36398848553E+02  0.51100000000E-03 0.  1.
         12    1    3    3    0    0 -0.73741710043E+01  0.68320704751E+01 -0.11642290069E+02  0.15381758776E+02  0.00000000000E+00 0. -1.
</event>
<event>
 7    1  0.1375918E-013  0.7246159E+02  0.7816164E-02  0.1226708E+00
        -11   -1    0    0    0    0  0.00000000000E+00  0.00000000000E+00  0.45593999997E+02  0.45594000000E+02  0.51100000000E-03 0. -1.
         11   -1    0    0    0    0 -0.00000000000E+00 -0.00000000000E+00 -0.45593999997E+02  0.45594000000E+02  0.51100000000E-03 0.  1.
    9900012    2    1    2    0    0  0.16539666127E+02  0.75445610872E+01 -0.44941605376E+01  0.72461589865E+02  0.70000025495E+02 0.  0.
         12    1    1    2    0    0 -0.16539666127E+02 -0.75445610872E+01  0.44941605376E+01  0.18726410135E+02  0.00000000000E+00 0. -1.
         11    1    3    3    0    0  0.39856219476E+01  0.59326270007E+01 -0.36638761768E+02  0.37329346493E+02  0.51100000000E-03 0.  1.
        -11    1    3    3    0    0  0.91457633846E+01  0.32375687977E+01  0.17508325230E+02  0.20016700333E+02  0.51100000000E-03 0. -1.
        -12    1    3    3    0    0  0.34082807950E+01 -0.16256347111E+01  0.14636276000E+02  0.15115543039E+02  0.00000000000E+00 0.  1.
</event>
<event>
 7    1  0.1375918E-013  0.7246158E+02  0.7816164E-02  0.1226708E+00
        -11   -1    0    0    0    0  0.00000000000E+00  0.00000000000E+00  0.45593999997E+02  0.45594000000E+02  0.51100000000E-03 0.  1.
         11   -1    0    0    0    0 -0.00000000000E+00 -0.00000000000E+00 -0.45593999997E+02  0.45594000000E+02  0.51100000000E-03 0. -1.
    9900012    2    1    2    0    0 -0.14875255987E+02  0.10782733733E+02 -0.36246883170E+01  0.72461576080E+02  0.70000007537E+02 0.  0.
         12    1    1    2    0    0  0.14875255987E+02 -0.10782733733E+02  0.36246883170E+01  0.18726423920E+02  0.00000000000E+00 0. -1.
         11    1    3    3    0    0 -0.29114443058E+02 -0.10258913630E+02  0.13614752772E+02  0.33738073400E+02  0.51100000000E-03 0.  1.
        -11    1    3    3    0    0  0.32090388195E+01  0.15308603002E+02 -0.20581954339E+02  0.25850882010E+02  0.51100000000E-03 0. -1.
        -12    1    3    3    0    0  0.11030148251E+02  0.57330443613E+01  0.33425132505E+01  0.12872620670E+02  0.00000000000E+00 0.  1.
</event>
<event>
 7    1  0.1375918E-013  0.7246159E+02  0.7816164E-02  0.1226708E+00
        -11   -1    0    0    0    0  0.00000000000E+00  0.00000000000E+00  0.45593999997E+02  0.45594000000E+02  0.51100000000E-03 0.  1.
         11   -1    0    0    0    0 -0.00000000000E+00 -0.00000000000E+00 -0.45593999997E+02  0.45594000000E+02  0.51100000000E-03 0. -1.
    9900012    2    1    2    0    0  0.13971058399E+02 -0.51562373098E+01  0.11353460147E+02  0.72461593156E+02  0.70000029781E+02 0.  0.
         12    1    1    2    0    0 -0.13971058399E+02  0.51562373098E+01 -0.11353460147E+02  0.18726406844E+02  0.00000000000E+00 0. -1.
         11    1    3    3    0    0  0.16977050225E+02  0.20795027953E+01  0.28134340283E+02  0.32925456256E+02  0.51100000000E-03 0.  1.
        -11    1    3    3    0    0  0.10501319292E+02  0.12453209411E+01 -0.20582481091E+02  0.23140161176E+02  0.51100000000E-03 0. -1.
         12    1    3    3    0    0 -0.13507311118E+02 -0.84810610462E+01  0.38016009556E+01  0.16395975724E+02  0.00000000000E+00 0. -1.
</event>
<event>
 7    1  0.1375918E-013  0.7246156E+02  0.7816164E-02  0.1226708E+00
        -11   -1    0    0    0    0  0.00000000000E+00  0.00000000000E+00  0.45593999997E+02  0.45594000000E+02  0.51100000000E-03 0. -1.
         11   -1    0    0    0    0 -0.00000000000E+00 -0.00000000000E+00 -0.45593999997E+02  0.45594000000E+02  0.51100000000E-03 0.  1.
    9900012    2    1    2    0    0 -0.16268732309E+02 -0.52507326191E+01 -0.76444575461E+01  0.72461559464E+02  0.69999985891E+02 0.  0.
         12    1    1    2    0    0  0.16268732309E+02  0.52507326191E+01  0.76444575461E+01  0.18726440536E+02  0.00000000000E+00 0. -1.
         11    1    3    3    0    0  0.70720750190E+01 -0.27642916000E+00 -0.66293048187E+01  0.96973367888E+01  0.51100000000E-03 0. -1.
        -11    1    3    3    0    0 -0.21106306709E+02  0.22516056404E+02  0.10885510374E+02  0.32725270285E+02  0.51100000000E-03 0.  1.
        -12    1    3    3    0    0 -0.22345006190E+01 -0.27490359863E+02 -0.11900663101E+02  0.30038952390E+02  0.00000000000E+00 0.  1.
</event>
<event>
 7    1  0.1375918E-013  0.7246170E+02  0.7816164E-02  0.1226708E+00
        -11   -1    0    0    0    0  0.00000000000E+00  0.00000000000E+00  0.45593999997E+02  0.45594000000E+02  0.51100000000E-03 0. -1.
         11   -1    0    0    0    0 -0.00000000000E+00 -0.00000000000E+00 -0.45593999997E+02  0.45594000000E+02  0.51100000000E-03 0.  1.
    9900012    2    1    2    0    0 -0.16698346811E+02  0.61724881168E+01 -0.58086053652E+01  0.72461700524E+02  0.70000169649E+02 0.  0.
         12    1    1    2    0    0  0.16698346811E+02 -0.61724881168E+01  0.58086053652E+01  0.18726299476E+02  0.00000000000E+00 0. -1.
         11    1    3    3    0    0 -0.36877271149E+01 -0.13988054851E+02  0.19376479156E+02  0.24180838582E+02  0.51100000000E-03 0. -1.
        -11    1    3    3    0    0 -0.22709903885E+02  0.10513697940E+02 -0.79111942434E+01  0.26246229700E+02  0.51100000000E-03 0.  1.
         12    1    3    3    0    0  0.96992841893E+01  0.96468450271E+01 -0.17273890277E+02  0.22034632243E+02  0.00000000000E+00 0. -1.
</event>
<event>
 7    1  0.1375918E-013  0.7246162E+02  0.7816164E-02  0.1226708E+00
        -11   -1    0    0    0    0  0.00000000000E+00  0.00000000000E+00  0.45593999997E+02  0.45594000000E+02  0.51100000000E-03 0. -1.
         11   -1    0    0    0    0 -0.00000000000E+00 -0.00000000000E+00 -0.45593999997E+02  0.45594000000E+02  0.51100000000E-03 0.  1.
    9900012    2    1    2    0    0 -0.51764042671E+01 -0.15709113724E+02 -0.87810057126E+01  0.72461615500E+02  0.70000058888E+02 0.  0.
         12    1    1    2    0    0  0.51764042671E+01  0.15709113724E+02  0.87810057126E+01  0.18726384500E+02  0.00000000000E+00 0. -1.
         11    1    3    3    0    0 -0.17630201884E+02  0.12543456437E+02  0.10373751375E+01  0.21661912780E+02  0.51100000000E-03 0. -1.
        -11    1    3    3    0    0  0.25955717828E+02 -0.11683070071E+02 -0.52932997076E+01  0.28951898665E+02  0.51100000000E-03 0.  1.
        -12    1    3    3    0    0 -0.13501920211E+02 -0.16569500091E+02 -0.45250811425E+01  0.21847804054E+02  0.00000000000E+00 0.  1.
</event>
<event>
 7    1  0.1375918E-013  0.7246157E+02  0.7816164E-02  0.1226708E+00
        -11   -1    0    0    0    0  0.00000000000E+00  0.00000000000E+00  0.45593999997E+02  0.45594000000E+02  0.51100000000E-03 0. -1.
         11   -1    0    0    0    0 -0.00000000000E+00 -0.00000000000E+00 -0.45593999997E+02  0.45594000000E+02  0.51100000000E-03 0.  1.
    9900012    2    1    2    0    0 -0.10832896854E+02  0.38753730257E+00 -0.15270144560E+02  0.72461570701E+02  0.70000000530E+02 0.  0.
         12    1    1    2    0    0  0.10832896854E+02 -0.38753730257E+00  0.15270144560E+02  0.18726429299E+02  0.00000000000E+00 0. -1.
         11    1    3    3    0    0 -0.22909578978E+02 -0.30011448226E+02 -0.91673953692E+01  0.38853274916E+02  0.51100000000E-03 0. -1.
        -11    1    3    3    0    0  0.11411000321E+01  0.68478100447E+01 -0.25708733040E+01  0.74029724772E+01  0.51100000000E-03 0.  1.
         12    1    3    3    0    0  0.10935582092E+02  0.23551175484E+02 -0.35318758870E+01  0.26205323308E+02  0.00000000000E+00 0. -1.
</event>
<event>
 7    1  0.1375918E-013  0.7246167E+02  0.7816164E-02  0.1226708E+00
        -11   -1    0    0    0    0  0.00000000000E+00  0.00000000000E+00  0.45593999997E+02  0.45594000000E+02  0.51100000000E-03 0.  1.
         11   -1    0    0    0    0 -0.00000000000E+00 -0.00000000000E+00 -0.45593999997E+02  0.45594000000E+02  0.51100000000E-03 0. -1.
    9900012    2    1    2    0    0 -0.94589980813E+01  0.13389345066E+02  0.90514112668E+01  0.72461674896E+02  0.70000136263E+02 0.  0.
         12    1    1    2    0    0  0.94589980813E+01 -0.13389345066E+02 -0.90514112668E+01  0.18726325104E+02  0.00000000000E+00 0. -1.
         11    1    3    3    0    0  0.18508205411E+01 -0.38963697219E+01 -0.15835959567E+02  0.16412947613E+02  0.51100000000E-03 0. -1.
        -11    1    3    3    0    0  0.89397957180E+01 -0.25483293064E+01  0.26071371486E+02  0.27679059614E+02  0.51100000000E-03 0.  1.
        -12    1    3    3    0    0 -0.20249614340E+02  0.19834044094E+02 -0.11840006518E+01  0.28369667668E+02  0.00000000000E+00 0.  1.
</event>
<event>
 7    1  0.1375918E-013  0.7246161E+02  0.7816164E-02  0.1226708E+00
        -11   -1    0    0    0    0  0.00000000000E+00  0.00000000000E+00  0.45593999997E+02  0.45594000000E+02  0.51100000000E-03 0. -1.
         11   -1    0    0    0    0 -0.00000000000E+00 -0.00000000000E+00 -0.45593999997E+02  0.45594000000E+02  0.51100000000E-03 0.  1.
    9900012    2    1    2    0    0  0.15366565050E+02  0.78242166227E+01 -0.73025946783E+01  0.72461612836E+02  0.70000055418E+02 0.  0.
         12    1    1    2    0    0 -0.15366565050E+02 -0.78242166227E+01  0.73025946783E+01  0.18726387164E+02  0.00000000000E+00 0. -1.
         11    1    3    3    0    0  0.67412047915E+01 -0.27151047214E+02  0.99732703051E+01  0.29699988682E+02  0.51100000000E-03 0. -1.
        -11    1    3    3    0    0 -0.19170321603E+01  0.54780175676E+01 -0.83887971113E+01  0.10200764972E+02  0.51100000000E-03 0.  1.
         12    1    3    3    0    0  0.10542392418E+02  0.29497246269E+02 -0.88870678720E+01  0.32560859183E+02  0.00000000000E+00 0. -1.
</event>
<event>
 7    1  0.1375918E-013  0.7246157E+02  0.7816164E-02  0.1226708E+00
        -11   -1    0    0    0    0  0.00000000000E+00  0.00000000000E+00  0.45593999997E+02  0.45594000000E+02  0.51100000000E-03 0. -1.
         11   -1    0    0    0    0 -0.00000000000E+00 -0.00000000000E+00 -0.45593999997E+02  0.45594000000E+02  0.51100000000E-03 0.  1.
    9900012    2    1    2    0    0 -0.11123618074E+02  0.12367081903E+02 -0.86022942134E+01  0.72461573230E+02  0.70000003824E+02 0.  0.
         12    1    1    2    0    0  0.11123618074E+02 -0.12367081903E+02  0.86022942134E+01  0.18726426770E+02  0.00000000000E+00 0. -1.
         11    1    3    3    0    0 -0.26985997707E+02  0.21679913344E+02 -0.13229363287E+02  0.37057776082E+02  0.51100000000E-03 0. -1.
        -11    1    3    3    0    0  0.12913158768E+02  0.78896844212E+01 -0.43928391951E+01  0.15757341974E+02  0.51100000000E-03 0.  1.
         12    1    3    3    0    0  0.29492208647E+01 -0.17202515863E+02  0.90199082690E+01  0.19646455174E+02  0.00000000000E+00 0. -1.
</event>
<event>
 7    1  0.1375918E-013  0.7246157E+02  0.7816164E-02  0.1226708E+00
        -11   -1    0    0    0    0  0.00000000000E+00  0.00000000000E+00  0.45593999997E+02  0.45594000000E+02  0.51100000000E-03 0.  1.
         11   -1    0    0    0    0 -0.00000000000E+00 -0.00000000000E+00 -0.45593999997E+02  0.45594000000E+02  0.51100000000E-03 0. -1.
    9900012    2    1    2    0    0 -0.15731671856E+02  0.21611871259E+01  0.99258734995E+01  0.72461569643E+02  0.69999999151E+02 0.  0.
         12    1    1    2    0    0  0.15731671856E+02 -0.21611871259E+01 -0.99258734995E+01  0.18726430357E+02  0.00000000000E+00 0. -1.
         11    1    3    3    0    0  0.16166569430E+02 -0.58502325782E+01 -0.14071405518E+02  0.22216832400E+02  0.51100000000E-03 0. -1.
        -11    1    3    3    0    0 -0.23695320087E+02 -0.54034583304E+01  0.24504006328E+02  0.34512488788E+02  0.51100000000E-03 0.  1.
         12    1    3    3    0    0 -0.82029211996E+01  0.13414878035E+02 -0.50672731100E+00  0.15732248455E+02  0.00000000000E+00 0. -1.
</event>
<event>
 7    1  0.1375918E-013  0.7246161E+02  0.7816164E-02  0.1226708E+00
        -11   -1    0    0    0    0  0.00000000000E+00  0.00000000000E+00  0.45593999997E+02  0.45594000000E+02  0.51100000000E-03 0. -1.
         11   -1    0    0    0    0 -0.00000000000E+00 -0.00000000000E+00 -0.45593999997E+02  0.45594000000E+02  0.51100000000E-03 0.  1.
    9900012    2    1    2    0    0  0.84587085448E+01 -0.15397075041E+02 -0.64852054392E+01  0.72461613278E+02  0.70000055995E+02 0.  0.
         12    1    1    2    0    0 -0.84587085448E+01  0.15397075041E+02  0.64852054392E+01  0.18726386722E+02  0.00000000000E+00 0. -1.
         11    1    3    3    0    0 -0.92380621215E+01 -0.17555828879E+01 -0.48191105240E+00  0.94157369101E+01  0.51100000000E-03 0. -1.
        -11    1    3    3    0    0  0.19058356216E+02  0.20608416107E+02  0.88338271620E+00  0.28083947753E+02  0.51100000000E-03 0.  1.
        -12    1    3    3    0    0 -0.13615855494E+01 -0.34249908260E+02 -0.68866771030E+01  0.34961928616E+02  0.00000000000E+00 0.  1.
</event>
<event>
 7    1  0.1375918E-013  0.7246160E+02  0.7816164E-02  0.1226708E+00
        -11   -1    0    0    0    0  0.00000000000E+00  0.00000000000E+00  0.45593999997E+02  0.45594000000E+02  0.51100000000E-03 0.  1.
         11   -1    0    0    0    0 -0.00000000000E+00 -0.00000000000E+00 -0.45593999997E+02  0.45594000000E+02  0.51100000000E-03 0. -1.
    9900012    2    1    2    0    0 -0.14861121309E+02 -0.92253496989E+01  0.66871643992E+01  0.72461596947E+02  0.70000034719E+02 0.  0.
         12    1    1    2    0    0  0.14861121309E+02  0.92253496989E+01 -0.66871643992E+01  0.18726403053E+02  0.00000000000E+00 0. -1.
         11    1    3    3    0    0 -0.45956021183E+01 -0.30925030637E+02 -0.46166688816E+01  0.31603650273E+02  0.51100000000E-03 0. -1.
        -11    1    3    3    0    0  0.22398818370E+00  0.27135764535E+02  0.10206638954E+02  0.28992677810E+02  0.51100000000E-03 0.  1.
         12    1    3    3    0    0 -0.10489507374E+02 -0.54360835966E+01  0.10971943263E+01  0.11865268864E+02  0.00000000000E+00 0. -1.
</event>
<event>
 7    1  0.1375918E-013  0.7246159E+02  0.7816164E-02  0.1226708E+00
        -11   -1    0    0    0    0  0.00000000000E+00  0.00000000000E+00  0.45593999997E+02  0.45594000000E+02  0.51100000000E-03 0.  1.
         11   -1    0    0    0    0 -0.00000000000E+00 -0.00000000000E+00 -0.45593999997E+02  0.45594000000E+02  0.51100000000E-03 0. -1.
    9900012    2    1    2    0    0 -0.14092408328E+01  0.41947882943E+01  0.18196054257E+02  0.72461585525E+02  0.70000019841E+02 0.  0.
         12    1    1    2    0    0  0.14092408328E+01 -0.41947882943E+01 -0.18196054257E+02  0.18726414475E+02  0.00000000000E+00 0. -1.
         11    1    3    3    0    0 -0.25425803680E+02  0.13805482824E+02 -0.35677056559E+01  0.29151181326E+02  0.51100000000E-03 0. -1.
        -11    1    3    3    0    0  0.31641734839E+01 -0.15458261704E+02  0.86932826266E+01  0.18015077348E+02  0.51100000000E-03 0.  1.
         12    1    3    3    0    0  0.20852389364E+02  0.58475671744E+01  0.13070477286E+02  0.25295326852E+02  0.00000000000E+00 0. -1.
</event>
<event>
 7    1  0.1375918E-013  0.7246168E+02  0.7816164E-02  0.1226708E+00
        -11   -1    0    0    0    0  0.00000000000E+00  0.00000000000E+00  0.45593999997E+02  0.45594000000E+02  0.51100000000E-03 0. -1.
         11   -1    0    0    0    0 -0.00000000000E+00 -0.00000000000E+00 -0.45593999997E+02  0.45594000000E+02  0.51100000000E-03 0.  1.
    9900012    2    1    2    0    0 -0.76014391479E+01  0.57256248779E+01 -0.16127942687E+02  0.72461676477E+02  0.70000138323E+02 0.  0.
         12    1    1    2    0    0  0.76014391479E+01 -0.57256248779E+01  0.16127942687E+02  0.18726323523E+02  0.00000000000E+00 0. -1.
         11    1    3    3    0    0  0.16096133040E+02  0.15850349552E+01  0.12032319430E+02  0.20158733734E+02  0.51100000000E-03 0. -1.
        -11    1    3    3    0    0  0.25958122010E+01 -0.71089078539E+01 -0.21702332496E+02  0.22984038981E+02  0.51100000000E-03 0.  1.
         12    1    3    3    0    0 -0.26293384389E+02  0.11249497777E+02 -0.64579296214E+01  0.29318903762E+02  0.00000000000E+00 0. -1.
</event>
<event>
 7    1  0.1375918E-013  0.7246151E+02  0.7816164E-02  0.1226708E+00
        -11   -1    0    0    0    0  0.00000000000E+00  0.00000000000E+00  0.45593999997E+02  0.45594000000E+02  0.51100000000E-03 0.  1.
         11   -1    0    0    0    0 -0.00000000000E+00 -0.00000000000E+00 -0.45593999997E+02  0.45594000000E+02  0.51100000000E-03 0. -1.
    9900012    2    1    2    0    0  0.18303574169E+02  0.85734863634E+00 -0.38633493008E+01  0.72461512292E+02  0.69999924442E+02 0.  0.
         12    1    1    2    0    0 -0.18303574169E+02 -0.85734863634E+00  0.38633493008E+01  0.18726487708E+02  0.00000000000E+00 0. -1.
         11    1    3    3    0    0  0.54353859365E+01 -0.11034918567E+02 -0.17613545483E+01  0.12426392001E+02  0.51100000000E-03 0. -1.
        -11    1    3    3    0    0 -0.20762961288E+02  0.15831421286E+02 -0.18944352087E-01  0.26110052098E+02  0.51100000000E-03 0.  1.
        -12    1    3    3    0    0  0.33631149521E+02 -0.39391540831E+01 -0.20830504004E+01  0.33925068194E+02  0.00000000000E+00 0.  1.
</event>
<event>
 7    1  0.1375918E-013  0.7246157E+02  0.7816164E-02  0.1226708E+00
        -11   -1    0    0    0    0  0.00000000000E+00  0.00000000000E+00  0.45593999997E+02  0.45594000000E+02  0.51100000000E-03 0. -1.
         11   -1    0    0    0    0 -0.00000000000E+00 -0.00000000000E+00 -0.45593999997E+02  0.45594000000E+02  0.51100000000E-03 0.  1.
    9900012    2    1    2    0    0 -0.71760592358E+01  0.17294132135E+02 -0.31040987946E+00  0.72461569834E+02  0.69999999400E+02 0.  0.
         12    1    1    2    0    0  0.71760592358E+01 -0.17294132135E+02  0.31040987946E+00  0.18726430166E+02  0.00000000000E+00 0. -1.
         11    1    3    3    0    0 -0.80503465658E+00  0.62949766614E+01  0.24977062345E+01  0.68200695495E+01  0.51100000000E-03 0. -1.
        -11    1    3    3    0    0 -0.12009587692E+02 -0.24978700225E+02  0.55776127652E+01  0.28271459564E+02  0.51100000000E-03 0.  1.
        -12    1    3    3    0    0  0.56385631124E+01  0.35977855699E+02 -0.83857288792E+01  0.37370040721E+02  0.00000000000E+00 0.  1.
</event>
<event>
 7    1  0.1375918E-013  0.7246157E+02  0.7816164E-02  0.1226708E+00
        -11   -1    0    0    0    0  0.00000000000E+00  0.00000000000E+00  0.45593999997E+02  0.45594000000E+02  0.51100000000E-03 0.  1.
         11   -1    0    0    0    0 -0.00000000000E+00 -0.00000000000E+00 -0.45593999997E+02  0.45594000000E+02  0.51100000000E-03 0. -1.
    9900012    2    1    2    0    0  0.15202997958E+02  0.92931226782E+00  0.10894233078E+02  0.72461572617E+02  0.70000003025E+02 0.  0.
         12    1    1    2    0    0 -0.15202997958E+02 -0.92931226782E+00 -0.10894233078E+02  0.18726427383E+02  0.00000000000E+00 0. -1.
         11    1    3    3    0    0 -0.54932061093E+01  0.18920878452E+02  0.89533326800E+01  0.21641097964E+02  0.51100000000E-03 0. -1.
        -11    1    3    3    0    0  0.35029233828E+01 -0.26090289139E+02 -0.10240946644E+02  0.28246250158E+02  0.51100000000E-03 0.  1.
        -12    1    3    3    0    0  0.17193280684E+02  0.80987229549E+01  0.12181847042E+02  0.22574224495E+02  0.00000000000E+00 0.  1.
</event>
<event>
 7    1  0.1375918E-013  0.7246188E+02  0.7816164E-02  0.1226707E+00
        -11   -1    0    0    0    0  0.00000000000E+00  0.00000000000E+00  0.45593999997E+02  0.45594000000E+02  0.51100000000E-03 0.  1.
         11   -1    0    0    0    0 -0.00000000000E+00 -0.00000000000E+00 -0.45593999997E+02  0.45594000000E+02  0.51100000000E-03 0. -1.
    9900012    2    1    2    0    0  0.71868065672E+00 -0.53365208261E+01  0.17935236390E+02  0.72461877583E+02  0.70000400299E+02 0.  0.
         12    1    1    2    0    0 -0.71868065672E+00  0.53365208261E+01 -0.17935236390E+02  0.18726122417E+02  0.00000000000E+00 0. -1.
         11    1    3    3    0    0  0.84314573159E+01 -0.20162971511E+02 -0.68716362941E+01  0.22909698345E+02  0.51100000000E-03 0. -1.
        -11    1    3    3    0    0  0.84449811487E+01  0.89101478066E+00  0.26808650119E+02  0.28121439071E+02  0.51100000000E-03 0.  1.
         12    1    3    3    0    0 -0.16157757808E+02  0.13935435904E+02 -0.20017774352E+01  0.21430740167E+02  0.00000000000E+00 0. -1.
</event>
<event>
 7    1  0.1375918E-013  0.7246146E+02  0.7816164E-02  0.1226708E+00
        -11   -1    0    0    0    0  0.00000000000E+00  0.00000000000E+00  0.45593999997E+02  0.45594000000E+02  0.51100000000E-03 0.  1.
         11   -1    0    0    0    0 -0.00000000000E+00 -0.00000000000E+00 -0.45593999997E+02  0.45594000000E+02  0.51100000000E-03 0. -1.
    9900012    2    1    2    0    0  0.98360843485E+01 -0.43217319413E+01  0.15338103718E+02  0.72461458730E+02  0.69999854666E+02 0.  0.
         12    1    1    2    0    0 -0.98360843485E+01  0.43217319413E+01 -0.15338103718E+02  0.18726541270E+02  0.00000000000E+00 0. -1.
         11    1    3    3    0    0  0.31683269754E+02  0.87324198088E+01  0.11861127647E+02  0.34939534733E+02  0.51100000000E-03 0. -1.
        -11    1    3    3    0    0 -0.13394916089E+02 -0.16926397854E+02  0.12182013221E+02  0.24785644388E+02  0.51100000000E-03 0.  1.
         12    1    3    3    0    0 -0.84522693165E+01  0.38722461042E+01 -0.87050371498E+01  0.12736279609E+02  0.00000000000E+00 0. -1.
</event>
<event>
 7    1  0.1375918E-013  0.7246157E+02  0.7816164E-02  0.1226708E+00
        -11   -1    0    0    0    0  0.00000000000E+00  0.00000000000E+00  0.45593999997E+02  0.45594000000E+02  0.51100000000E-03 0. -1.
         11   -1    0    0    0    0 -0.00000000000E+00 -0.00000000000E+00 -0.45593999997E+02  0.45594000000E+02  0.51100000000E-03 0.  1.
    9900012    2    1    2    0    0  0.18300175651E+02 -0.39315414243E+01 -0.57060908661E+00  0.72461573711E+02  0.70000004451E+02 0.  0.
         12    1    1    2    0    0 -0.18300175651E+02  0.39315414243E+01  0.57060908661E+00  0.18726426289E+02  0.00000000000E+00 0. -1.
         11    1    3    3    0    0 -0.75508056296E+01 -0.12474426973E+02  0.48593782944E+01  0.15370086260E+02  0.51100000000E-03 0. -1.
        -11    1    3    3    0    0  0.24539716555E+02  0.42386209579E+01 -0.26019318257E+02  0.36016225774E+02  0.51100000000E-03 0.  1.
        -12    1    3    3    0    0  0.13112647251E+01  0.43042645910E+01  0.20589330876E+02  0.21075261677E+02  0.00000000000E+00 0.  1.
</event>
<event>
 7    1  0.1375918E-013  0.7246157E+02  0.7816164E-02  0.1226708E+00
        -11   -1    0    0    0    0  0.00000000000E+00  0.00000000000E+00  0.45593999997E+02  0.45594000000E+02  0.51100000000E-03 0.  1.
         11   -1    0    0    0    0 -0.00000000000E+00 -0.00000000000E+00 -0.45593999997E+02  0.45594000000E+02  0.51100000000E-03 0. -1.
    9900012    2    1    2    0    0  0.16583206493E+02  0.82894592247E+01  0.26384207471E+01  0.72461571193E+02  0.70000001171E+02 0.  0.
         12    1    1    2    0    0 -0.16583206493E+02 -0.82894592247E+01 -0.26384207471E+01  0.18726428807E+02  0.00000000000E+00 0. -1.
         11    1    3    3    0    0  0.20817862180E+02  0.26637855692E+02  0.20574932070E+02  0.39576338531E+02  0.51100000000E-03 0. -1.
        -11    1    3    3    0    0 -0.15948270642E+01 -0.21345053907E+02 -0.19140258312E+02  0.28714182700E+02  0.51100000000E-03 0.  1.
         12    1    3    3    0    0 -0.26398286229E+01  0.29966574397E+01  0.12037469889E+01  0.41710499616E+01  0.00000000000E+00 0. -1.
</event>
<event>
 7    1  0.1375918E-013  0.7246160E+02  0.7816164E-02  0.1226708E+00
        -11   -1    0    0    0    0  0.00000000000E+00  0.00000000000E+00  0.45593999997E+02  0.45594000000E+02  0.51100000000E-03 0. -1.
         11   -1    0    0    0    0 -0.00000000000E+00 -0.00000000000E+00 -0.45593999997E+02  0.45594000000E+02  0.51100000000E-03 0.  1.
    9900012    2    1    2    0    0  0.85809010875E+01  0.13770265052E+02 -0.93501809343E+01  0.72461602947E+02  0.70000042537E+02 0.  0.
         12    1    1    2    0    0 -0.85809010875E+01 -0.13770265052E+02  0.93501809343E+01  0.18726397053E+02  0.00000000000E+00 0. -1.
         11    1    3    3    0    0  0.88399788197E+01  0.31106694966E+02  0.62114032347E+01  0.32929519092E+02  0.51100000000E-03 0. -1.
        -11    1    3    3    0    0  0.10004870745E+01  0.31819606952E+01 -0.18471401798E+02  0.18770150050E+02  0.51100000000E-03 0.  1.
         12    1    3    3    0    0 -0.12595648068E+01 -0.20518390609E+02  0.29098176290E+01  0.20761933805E+02  0.00000000000E+00 0. -1.
</event>
<event>
 7    1  0.1375918E-013  0.7246157E+02  0.7816164E-02  0.1226708E+00
        -11   -1    0    0    0    0  0.00000000000E+00  0.00000000000E+00  0.45593999997E+02  0.45594000000E+02  0.51100000000E-03 0.  1.
         11   -1    0    0    0    0 -0.00000000000E+00 -0.00000000000E+00 -0.45593999997E+02  0.45594000000E+02  0.51100000000E-03 0. -1.
    9900012    2    1    2    0    0  0.93871817446E+00 -0.68844639265E+01  0.17389708774E+02  0.72461574644E+02  0.70000005666E+02 0.  0.
         12    1    1    2    0    0 -0.93871817446E+00  0.68844639265E+01 -0.17389708774E+02  0.18726425356E+02  0.00000000000E+00 0. -1.
         11    1    3    3    0    0 -0.32413763696E+02 -0.12263874523E+02  0.56705601906E+01  0.35117089122E+02  0.51100000000E-03 0. -1.
        -11    1    3    3    0    0  0.12952835678E+02 -0.31754351166E+00  0.94629719177E+01  0.16044457727E+02  0.51100000000E-03 0.  1.
         12    1    3    3    0    0  0.20399646193E+02  0.56969541079E+01  0.22561766660E+01  0.21300027794E+02  0.00000000000E+00 0. -1.
</event>
<event>
 7    1  0.1375918E-013  0.7246150E+02  0.7816164E-02  0.1226708E+00
        -11   -1    0    0    0    0  0.00000000000E+00  0.00000000000E+00  0.45593999997E+02  0.45594000000E+02  0.51100000000E-03 0.  1.
         11   -1    0    0    0    0 -0.00000000000E+00 -0.00000000000E+00 -0.45593999997E+02  0.45594000000E+02  0.51100000000E-03 0. -1.
    9900012    2    1    2    0    0  0.34518877347E-01  0.10257922092E+02  0.15667023425E+02  0.72461500588E+02  0.69999909195E+02 0.  0.
         12    1    1    2    0    0 -0.34518877347E-01 -0.10257922092E+02 -0.15667023425E+02  0.18726499412E+02  0.00000000000E+00 0. -1.
         11    1    3    3    0    0  0.18122508718E+02  0.30185466931E+02 -0.50299836979E+01  0.35565270593E+02  0.51100000000E-03 0. -1.
        -11    1    3    3    0    0 -0.11279801388E+02 -0.97403764597E+01  0.19560201729E+02  0.24590858970E+02  0.51100000000E-03 0.  1.
         12    1    3    3    0    0 -0.68081884523E+01 -0.10187168379E+02  0.11368053939E+01  0.12305371026E+02  0.00000000000E+00 0. -1.
</event>
<event>
 7    1  0.1375918E-013  0.7246159E+02  0.7816164E-02  0.1226708E+00
        -11   -1    0    0    0    0  0.00000000000E+00  0.00000000000E+00  0.45593999997E+02  0.45594000000E+02  0.51100000000E-03 0.  1.
         11   -1    0    0    0    0 -0.00000000000E+00 -0.00000000000E+00 -0.45593999997E+02  0.45594000000E+02  0.51100000000E-03 0. -1.
    9900012    2    1    2    0    0  0.89124622121E+00 -0.82935858278E+01  0.16766058857E+02  0.72461585092E+02  0.70000019277E+02 0.  0.
         12    1    1    2    0    0 -0.89124622121E+00  0.82935858278E+01 -0.16766058857E+02  0.18726414908E+02  0.00000000000E+00 0. -1.
         11    1    3    3    0    0  0.24531143598E+02  0.14037650294E+01  0.69236442415E+01  0.25528110238E+02  0.51100000000E-03 0. -1.
        -11    1    3    3    0    0 -0.27038465793E+02 -0.20774955067E+02  0.53957456668E+01  0.34522332802E+02  0.51100000000E-03 0.  1.
        -12    1    3    3    0    0  0.33985684168E+01  0.11077604210E+02  0.44466689485E+01  0.12411142053E+02  0.00000000000E+00 0.  1.
</event>
<event>
 7    1  0.1375918E-013  0.7246146E+02  0.7816164E-02  0.1226708E+00
        -11   -1    0    0    0    0  0.00000000000E+00  0.00000000000E+00  0.45593999997E+02  0.45594000000E+02  0.51100000000E-03 0. -1.
         11   -1    0    0    0    0 -0.00000000000E+00 -0.00000000000E+00 -0.45593999997E+02  0.45594000000E+02  0.51100000000E-03 0.  1.
    9900012    2    1    2    0    0  0.12916699667E+02 -0.11532870148E+02  0.71298696732E+01  0.72461460926E+02  0.69999857528E+02 0.  0.
         12    1    1    2    0    0 -0.12916699667E+02  0.11532870148E+02 -0.71298696732E+01  0.18726539074E+02  0.00000000000E+00 0. -1.
         11    1    3    3    0    0  0.20384474075E+01  0.18924638865E+02 -0.78256686102E+01  0.20580046488E+02  0.51100000000E-03 0. -1.
        -11    1    3    3    0    0  0.23636230964E+02 -0.16000938888E+02  0.15719328974E+02  0.32585253768E+02  0.51100000000E-03 0.  1.
         12    1    3    3    0    0 -0.12757978704E+02 -0.14456570124E+02 -0.76379069057E+00  0.19296160670E+02  0.00000000000E+00 0. -1.
</event>
<event>
 7    1  0.1375918E-013  0.7246159E+02  0.7816164E-02  0.1226708E+00
        -11   -1    0    0    0    0  0.00000000000E+00  0.00000000000E+00  0.45593999997E+02  0.45594000000E+02  0.51100000000E-03 0. -1.
         11   -1    0    0    0    0 -0.00000000000E+00 -0.00000000000E+00 -0.45593999997E+02  0.45594000000E+02  0.51100000000E-03 0.  1.
    9900012    2    1    2    0    0 -0.12724623495E+02  0.11215959123E+02 -0.79350293869E+01  0.72461588878E+02  0.70000024208E+02 0.  0.
         12    1    1    2    0    0  0.12724623495E+02 -0.11215959123E+02  0.79350293869E+01  0.18726411122E+02  0.00000000000E+00 0. -1.
         11    1    3    3    0    0 -0.17540586900E+02 -0.16729051515E+02 -0.18804006933E+02  0.30677744871E+02  0.51100000000E-03 0.  1.
        -11    1    3    3    0    0  0.51527156142E+00  0.29964944019E+02  0.52113358985E-01  0.29969419262E+02  0.51100000000E-03 0. -1.
        -12    1    3    3    0    0  0.43006918435E+01 -0.20199333803E+01  0.10816864187E+02  0.11814424744E+02  0.00000000000E+00 0.  1.
</event>
<event>
 7    1  0.1375918E-013  0.7246166E+02  0.7816164E-02  0.1226708E+00
        -11   -1    0    0    0    0  0.00000000000E+00  0.00000000000E+00  0.45593999997E+02  0.45594000000E+02  0.51100000000E-03 0. -1.
         11   -1    0    0    0    0 -0.00000000000E+00 -0.00000000000E+00 -0.45593999997E+02  0.45594000000E+02  0.51100000000E-03 0.  1.
    9900012    2    1    2    0    0  0.16803000403E+01  0.16369210121E+02 -0.89387555698E+01  0.72461660279E+02  0.70000117222E+02 0.  0.
         12    1    1    2    0    0 -0.16803000403E+01 -0.16369210121E+02  0.89387555698E+01  0.18726339721E+02  0.00000000000E+00 0. -1.
         11    1    3    3    0    0 -0.12544331637E+02 -0.14075093598E+02  0.86848533220E+01  0.20758015163E+02  0.51100000000E-03 0. -1.
        -11    1    3    3    0    0  0.18774924462E+02  0.14378301066E+02 -0.24127128991E+02  0.33783896811E+02  0.51100000000E-03 0.  1.
        -12    1    3    3    0    0 -0.45502927845E+01  0.16066002653E+02  0.65035200990E+01  0.17919748306E+02  0.00000000000E+00 0.  1.
</event>
<event>
 7    1  0.1375918E-013  0.7246164E+02  0.7816164E-02  0.1226708E+00
        -11   -1    0    0    0    0  0.00000000000E+00  0.00000000000E+00  0.45593999997E+02  0.45594000000E+02  0.51100000000E-03 0.  1.
         11   -1    0    0    0    0 -0.00000000000E+00 -0.00000000000E+00 -0.45593999997E+02  0.45594000000E+02  0.51100000000E-03 0. -1.
    9900012    2    1    2    0    0  0.61075251352E+01 -0.41373824457E+01  0.17212115383E+02  0.72461635891E+02  0.70000085452E+02 0.  0.
         12    1    1    2    0    0 -0.61075251352E+01  0.41373824457E+01 -0.17212115383E+02  0.18726364109E+02  0.00000000000E+00 0. -1.
         11    1    3    3    0    0  0.14446131362E+02  0.16243845260E+02 -0.54111789713E+00  0.21745023086E+02  0.51100000000E-03 0.  1.
        -11    1    3    3    0    0 -0.89969471358E+01 -0.29122626296E+02  0.24937903536E+02  0.39382374906E+02  0.51100000000E-03 0. -1.
         12    1    3    3    0    0  0.65834090866E+00  0.87413985910E+01 -0.71846702557E+01  0.11334237899E+02  0.00000000000E+00 0. -1.
</event>
<event>
 7    1  0.1375918E-013  0.7246152E+02  0.7816164E-02  0.1226708E+00
        -11   -1    0    0    0    0  0.00000000000E+00  0.00000000000E+00  0.45593999997E+02  0.45594000000E+02  0.51100000000E-03 0.  1.
         11   -1    0    0    0    0 -0.00000000000E+00 -0.00000000000E+00 -0.45593999997E+02  0.45594000000E+02  0.51100000000E-03 0. -1.
    9900012    2    1    2    0    0  0.10458936498E+01 -0.13785397039E+02  0.12631305011E+02  0.72461523254E+02  0.69999938721E+02 0.  0.
         12    1    1    2    0    0 -0.10458936498E+01  0.13785397039E+02 -0.12631305011E+02  0.18726476746E+02  0.00000000000E+00 0. -1.
         11    1    3    3    0    0  0.24002464972E+01 -0.63103044958E+01  0.47625271082E+01  0.82621299188E+01  0.51100000000E-03 0. -1.
        -11    1    3    3    0    0 -0.13599797200E+02  0.14144461660E+02  0.26620640841E+02  0.33070814906E+02  0.51100000000E-03 0.  1.
        -12    1    3    3    0    0  0.12245444353E+02 -0.21619554203E+02 -0.18751862938E+02  0.31128578429E+02  0.00000000000E+00 0.  1.
</event>
<event>
 7    1  0.1375918E-013  0.7246155E+02  0.7816164E-02  0.1226708E+00
        -11   -1    0    0    0    0  0.00000000000E+00  0.00000000000E+00  0.45593999997E+02  0.45594000000E+02  0.51100000000E-03 0.  1.
         11   -1    0    0    0    0 -0.00000000000E+00 -0.00000000000E+00 -0.45593999997E+02  0.45594000000E+02  0.51100000000E-03 0. -1.
    9900012    2    1    2    0    0 -0.18570382669E+02 -0.94854476250E+00 -0.22183788699E+01  0.72461546667E+02  0.69999969221E+02 0.  0.
         12    1    1    2    0    0  0.18570382669E+02  0.94854476250E+00  0.22183788699E+01  0.18726453333E+02  0.00000000000E+00 0. -1.
         11    1    3    3    0    0 -0.76166925481E+00 -0.11126976802E+02  0.28222589222E+02  0.30346404984E+02  0.51100000000E-03 0. -1.
        -11    1    3    3    0    0 -0.11447245299E+01  0.67264131996E+01  0.45937906713E+00  0.68385713545E+01  0.51100000000E-03 0.  1.
         12    1    3    3    0    0 -0.16663988884E+02  0.34520188402E+01 -0.30900347159E+02  0.35276570328E+02  0.00000000000E+00 0. -1.
</event>
<event>
 7    1  0.1375918E-013  0.7246185E+02  0.7816164E-02  0.1226707E+00
        -11   -1    0    0    0    0  0.00000000000E+00  0.00000000000E+00  0.45593999997E+02  0.45594000000E+02  0.51100000000E-03 0. -1.
         11   -1    0    0    0    0 -0.00000000000E+00 -0.00000000000E+00 -0.45593999997E+02  0.45594000000E+02  0.51100000000E-03 0.  1.
    9900012    2    1    2    0    0  0.11134754614E+02  0.10090062878E+02 -0.11174825677E+02  0.72461845614E+02  0.70000358654E+02 0.  0.
         12    1    1    2    0    0 -0.11134754614E+02 -0.10090062878E+02  0.11174825677E+02  0.18726154386E+02  0.00000000000E+00 0. -1.
         11    1    3    3    0    0 -0.23335250905E+02 -0.14022578197E+01  0.87713259549E+01  0.24968708839E+02  0.51100000000E-03 0. -1.
        -11    1    3    3    0    0  0.27779584806E+02 -0.21463701300E+01 -0.13971841468E+02  0.31169289228E+02  0.51100000000E-03 0.  1.
         12    1    3    3    0    0  0.66904207131E+01  0.13638690828E+02 -0.59743101641E+01  0.16323847547E+02  0.00000000000E+00 0. -1.
</event>
<event>
 7    1  0.1375918E-013  0.7246156E+02  0.7816164E-02  0.1226708E+00
        -11   -1    0    0    0    0  0.00000000000E+00  0.00000000000E+00  0.45593999997E+02  0.45594000000E+02  0.51100000000E-03 0.  1.
         11   -1    0    0    0    0 -0.00000000000E+00 -0.00000000000E+00 -0.45593999997E+02  0.45594000000E+02  0.51100000000E-03 0. -1.
    9900012    2    1    2    0    0 -0.77917612352E+01 -0.41180136909E+01  0.16523012547E+02  0.72461560842E+02  0.69999987686E+02 0.  0.
         12    1    1    2    0    0  0.77917612352E+01  0.41180136909E+01 -0.16523012547E+02  0.18726439158E+02  0.00000000000E+00 0. -1.
         11    1    3    3    0    0  0.12959690131E+02  0.12667200796E+02 -0.54992028907E+01  0.18938130240E+02  0.51100000000E-03 0. -1.
        -11    1    3    3    0    0 -0.67067256688E+01 -0.20125238034E+02  0.30219653328E+02  0.36921982919E+02  0.51100000000E-03 0.  1.
         12    1    3    3    0    0 -0.14044725697E+02  0.33400235467E+01 -0.81974378901E+01  0.16601447683E+02  0.00000000000E+00 0. -1.
</event>
<event>
 7    1  0.1375918E-013  0.7246155E+02  0.7816164E-02  0.1226708E+00
        -11   -1    0    0    0    0  0.00000000000E+00  0.00000000000E+00  0.45593999997E+02  0.45594000000E+02  0.51100000000E-03 0.  1.
         11   -1    0    0    0    0 -0.00000000000E+00 -0.00000000000E+00 -0.45593999997E+02  0.45594000000E+02  0.51100000000E-03 0. -1.
    9900012    2    1    2    0    0  0.16934604583E+02 -0.20798350121E+01  0.77183743684E+01  0.72461552153E+02  0.69999976368E+02 0.  0.
         12    1    1    2    0    0 -0.16934604583E+02  0.20798350121E+01 -0.77183743684E+01  0.18726447847E+02  0.00000000000E+00 0. -1.
         11    1    3    3    0    0  0.16870816772E+02 -0.13017811984E+02  0.27298199345E+01  0.21483477477E+02  0.51100000000E-03 0. -1.
        -11    1    3    3    0    0 -0.87144841133E+01 -0.77203324501E+01 -0.17147181976E+02  0.20726109536E+02  0.51100000000E-03 0.  1.
        -12    1    3    3    0    0  0.87782719243E+01  0.18658309421E+02  0.22135736410E+02  0.30251965140E+02  0.00000000000E+00 0.  1.
</event>
<event>
 7    1  0.1375918E-013  0.7246156E+02  0.7816164E-02  0.1226708E+00
        -11   -1    0    0    0    0  0.00000000000E+00  0.00000000000E+00  0.45593999997E+02  0.45594000000E+02  0.51100000000E-03 0. -1.
         11   -1    0    0    0    0 -0.00000000000E+00 -0.00000000000E+00 -0.45593999997E+02  0.45594000000E+02  0.51100000000E-03 0.  1.
    9900012    2    1    2    0    0  0.80430727298E+01 -0.12397448692E+02 -0.11501816192E+02  0.72461560703E+02  0.69999987506E+02 0.  0.
         12    1    1    2    0    0 -0.80430727298E+01  0.12397448692E+02  0.11501816192E+02  0.18726439297E+02  0.00000000000E+00 0. -1.
         11    1    3    3    0    0  0.18152802816E+02  0.42634862786E+01 -0.26031824179E+02  0.32021202908E+02  0.51100000000E-03 0. -1.
        -11    1    3    3    0    0  0.31597359345E+01 -0.22114179157E+02  0.41210637631E+01  0.22715721819E+02  0.51100000000E-03 0.  1.
         12    1    3    3    0    0 -0.13269466021E+02  0.54532441859E+01  0.10408944224E+02  0.17724635976E+02  0.00000000000E+00 0. -1.
</event>
<event>
 7    1  0.1375918E-013  0.7246158E+02  0.7816164E-02  0.1226708E+00
        -11   -1    0    0    0    0  0.00000000000E+00  0.00000000000E+00  0.45593999997E+02  0.45594000000E+02  0.51100000000E-03 0. -1.
         11   -1    0    0    0    0 -0.00000000000E+00 -0.00000000000E+00 -0.45593999997E+02  0.45594000000E+02  0.51100000000E-03 0.  1.
    9900012    2    1    2    0    0  0.16183147373E+02  0.30538374019E+01 -0.89139575266E+01  0.72461579611E+02  0.70000012137E+02 0.  0.
         12    1    1    2    0    0 -0.16183147373E+02 -0.30538374019E+01  0.89139575266E+01  0.18726420389E+02  0.00000000000E+00 0. -1.
         11    1    3    3    0    0 -0.76714540685E+01  0.45574671014E+01  0.29516717565E+01  0.93986211927E+01  0.51100000000E-03 0. -1.
        -11    1    3    3    0    0  0.10870647736E+02 -0.23254366763E+02 -0.23850281162E+02  0.35039584295E+02  0.51100000000E-03 0.  1.
        -12    1    3    3    0    0  0.12983953706E+02  0.21750737063E+02  0.11984651879E+02  0.28023374124E+02  0.00000000000E+00 0.  1.
</event>
<event>
 7    1  0.1375918E-013  0.7246163E+02  0.7816164E-02  0.1226708E+00
        -11   -1    0    0    0    0  0.00000000000E+00  0.00000000000E+00  0.45593999997E+02  0.45594000000E+02  0.51100000000E-03 0.  1.
         11   -1    0    0    0    0 -0.00000000000E+00 -0.00000000000E+00 -0.45593999997E+02  0.45594000000E+02  0.51100000000E-03 0. -1.
    9900012    2    1    2    0    0 -0.91224138164E+01 -0.96877168903E+00  0.16325443504E+02  0.72461626672E+02  0.70000073443E+02 0.  0.
         12    1    1    2    0    0  0.91224138164E+01  0.96877168903E+00 -0.16325443504E+02  0.18726373328E+02  0.00000000000E+00 0. -1.
         11    1    3    3    0    0 -0.13190933608E+01  0.27627008499E+02  0.24954784778E+02  0.37252287038E+02  0.51100000000E-03 0. -1.
        -11    1    3    3    0    0 -0.12257959817E+01 -0.25529492156E+02 -0.24468496930E+01  0.25675759370E+02  0.51100000000E-03 0.  1.
        -12    1    3    3    0    0 -0.65775244739E+01 -0.30662880320E+01 -0.61824915819E+01  0.95335802645E+01  0.00000000000E+00 0.  1.
</event>
<event>
 7    1  0.1375918E-013  0.7246161E+02  0.7816164E-02  0.1226708E+00
        -11   -1    0    0    0    0  0.00000000000E+00  0.00000000000E+00  0.45593999997E+02  0.45594000000E+02  0.51100000000E-03 0.  1.
         11   -1    0    0    0    0 -0.00000000000E+00 -0.00000000000E+00 -0.45593999997E+02  0.45594000000E+02  0.51100000000E-03 0. -1.
    9900012    2    1    2    0    0  0.11874941217E+02  0.14357074331E+02  0.18809284003E+01  0.72461609427E+02  0.70000050977E+02 0.  0.
         12    1    1    2    0    0 -0.11874941217E+02 -0.14357074331E+02 -0.18809284003E+01  0.18726390573E+02  0.00000000000E+00 0. -1.
         11    1    3    3    0    0  0.87202996729E+01 -0.23401806777E+02 -0.95136598701E+01  0.26724481496E+02  0.51100000000E-03 0. -1.
        -11    1    3    3    0    0  0.76850597800E+01  0.24988050189E+02 -0.25817772858E+01  0.26270294446E+02  0.51100000000E-03 0.  1.
         12    1    3    3    0    0 -0.45304182362E+01  0.12770830920E+02  0.13976365556E+02  0.19466833485E+02  0.00000000000E+00 0. -1.
</event>
<event>
 7    1  0.1375918E-013  0.7246154E+02  0.7816164E-02  0.1226708E+00
        -11   -1    0    0    0    0  0.00000000000E+00  0.00000000000E+00  0.45593999997E+02  0.45594000000E+02  0.51100000000E-03 0. -1.
         11   -1    0    0    0    0 -0.00000000000E+00 -0.00000000000E+00 -0.45593999997E+02  0.45594000000E+02  0.51100000000E-03 0.  1.
    9900012    2    1    2    0    0 -0.98023212744E+01 -0.15684049806E+02 -0.29335167606E+01  0.72461536338E+02  0.69999955766E+02 0.  0.
         12    1    1    2    0    0  0.98023212744E+01  0.15684049806E+02  0.29335167606E+01  0.18726463662E+02  0.00000000000E+00 0. -1.
         11    1    3    3    0    0  0.56013866866E+01  0.87707994368E+00  0.29585500690E+02  0.30123855221E+02  0.51100000000E-03 0. -1.
        -11    1    3    3    0    0 -0.11785427859E+02 -0.10202563534E+02 -0.96649960542E+01  0.18341231188E+02  0.51100000000E-03 0.  1.
         12    1    3    3    0    0 -0.36182801024E+01 -0.63585662154E+01 -0.22854021397E+02  0.23996449929E+02  0.00000000000E+00 0. -1.
</event>
<event>
 7    1  0.1375918E-013  0.7246159E+02  0.7816164E-02  0.1226708E+00
        -11   -1    0    0    0    0  0.00000000000E+00  0.00000000000E+00  0.45593999997E+02  0.45594000000E+02  0.51100000000E-03 0.  1.
         11   -1    0    0    0    0 -0.00000000000E+00 -0.00000000000E+00 -0.45593999997E+02  0.45594000000E+02  0.51100000000E-03 0. -1.
    9900012    2    1    2    0    0 -0.90281358358E-01 -0.18308075867E+02  0.39350692096E+01  0.72461586506E+02  0.70000021119E+02 0.  0.
         12    1    1    2    0    0  0.90281358358E-01  0.18308075867E+02 -0.39350692096E+01  0.18726413494E+02  0.00000000000E+00 0. -1.
         11    1    3    3    0    0 -0.19856240613E+02 -0.33064323941E+02  0.58453309741E+01  0.39008815714E+02  0.51100000000E-03 0. -1.
        -11    1    3    3    0    0 -0.39220105792E+01  0.56987088472E+01 -0.40259311788E+01  0.80040971774E+01  0.51100000000E-03 0.  1.
         12    1    3    3    0    0  0.23687969834E+02  0.90575392268E+01  0.21156694142E+01  0.25448673615E+02  0.00000000000E+00 0. -1.
</event>
<event>
 7    1  0.1375918E-013  0.7246149E+02  0.7816164E-02  0.1226708E+00
        -11   -1    0    0    0    0  0.00000000000E+00  0.00000000000E+00  0.45593999997E+02  0.45594000000E+02  0.51100000000E-03 0.  1.
         11   -1    0    0    0    0 -0.00000000000E+00 -0.00000000000E+00 -0.45593999997E+02  0.45594000000E+02  0.51100000000E-03 0. -1.
    9900012    2    1    2    0    0  0.13297360913E+02  0.10931690258E+02  0.73729567663E+01  0.72461490699E+02  0.69999896312E+02 0.  0.
         12    1    1    2    0    0 -0.13297360913E+02 -0.10931690258E+02 -0.73729567663E+01  0.18726509301E+02  0.00000000000E+00 0. -1.
         11    1    3    3    0    0 -0.80920204034E+01  0.60901342930E+01 -0.20622416149E+02  0.22975086028E+02  0.51100000000E-03 0. -1.
        -11    1    3    3    0    0  0.14362053812E+02 -0.11816821456E+02  0.25000997200E+02  0.31160162391E+02  0.51100000000E-03 0.  1.
        -12    1    3    3    0    0  0.70273275045E+01  0.16658377421E+02  0.29943757155E+01  0.18326242279E+02  0.00000000000E+00 0.  1.
</event>
<event>
 7    1  0.1375918E-013  0.7246147E+02  0.7816164E-02  0.1226708E+00
        -11   -1    0    0    0    0  0.00000000000E+00  0.00000000000E+00  0.45593999997E+02  0.45594000000E+02  0.51100000000E-03 0. -1.
         11   -1    0    0    0    0 -0.00000000000E+00 -0.00000000000E+00 -0.45593999997E+02  0.45594000000E+02  0.51100000000E-03 0.  1.
    9900012    2    1    2    0    0 -0.10026246454E+01  0.58081736722E+01 -0.17774776699E+02  0.72461472712E+02  0.69999872881E+02 0.  0.
         12    1    1    2    0    0  0.10026246454E+01 -0.58081736722E+01  0.17774776699E+02  0.18726527288E+02  0.00000000000E+00 0. -1.
         11    1    3    3    0    0 -0.18555801789E+02  0.23069176322E+02 -0.29453551293E+01  0.29751971250E+02  0.51100000000E-03 0. -1.
        -11    1    3    3    0    0  0.80778289760E+01 -0.24890509327E+02 -0.40979051907E+01  0.26487385729E+02  0.51100000000E-03 0.  1.
         12    1    3    3    0    0  0.94753481677E+01  0.76295066781E+01 -0.10731516379E+02  0.16222115732E+02  0.00000000000E+00 0. -1.
</event>
<event>
 7    1  0.1375918E-013  0.7246157E+02  0.7816164E-02  0.1226708E+00
        -11   -1    0    0    0    0  0.00000000000E+00  0.00000000000E+00  0.45593999997E+02  0.45594000000E+02  0.51100000000E-03 0.  1.
         11   -1    0    0    0    0 -0.00000000000E+00 -0.00000000000E+00 -0.45593999997E+02  0.45594000000E+02  0.51100000000E-03 0. -1.
    9900012    2    1    2    0    0  0.17182796849E+02 -0.72476462880E+01 -0.17036504917E+01  0.72461566563E+02  0.69999995139E+02 0.  0.
         12    1    1    2    0    0 -0.17182796849E+02  0.72476462880E+01  0.17036504917E+01  0.18726433437E+02  0.00000000000E+00 0. -1.
         11    1    3    3    0    0  0.24886992658E-01 -0.25816025993E+02  0.72389589978E+01  0.26811757590E+02  0.51100000000E-03 0. -1.
        -11    1    3    3    0    0  0.33741687133E+01  0.27720144592E+02 -0.81318444700E+01  0.29084675096E+02  0.51100000000E-03 0.  1.
         12    1    3    3    0    0  0.13783741143E+02 -0.91517648864E+01 -0.81076501947E+00  0.16565133877E+02  0.00000000000E+00 0. -1.
</event>
<event>
 7    1  0.1375918E-013  0.7246160E+02  0.7816164E-02  0.1226708E+00
        -11   -1    0    0    0    0  0.00000000000E+00  0.00000000000E+00  0.45593999997E+02  0.45594000000E+02  0.51100000000E-03 0.  1.
         11   -1    0    0    0    0 -0.00000000000E+00 -0.00000000000E+00 -0.45593999997E+02  0.45594000000E+02  0.51100000000E-03 0. -1.
    9900012    2    1    2    0    0  0.17422842969E+02 -0.68608470087E+01  0.22661095852E+00  0.72461600685E+02  0.70000039589E+02 0.  0.
         12    1    1    2    0    0 -0.17422842969E+02  0.68608470087E+01 -0.22661095852E+00  0.18726399315E+02  0.00000000000E+00 0. -1.
         11    1    3    3    0    0 -0.20724553745E+02  0.91666513422E+01  0.13617840439E+02  0.26438233739E+02  0.51100000000E-03 0. -1.
        -11    1    3    3    0    0  0.19029153468E+02 -0.21586492230E+01 -0.59411658350E+00  0.19160412912E+02  0.51100000000E-03 0.  1.
         12    1    3    3    0    0  0.19118243246E+02 -0.13868849128E+02 -0.12797112897E+02  0.26862954034E+02  0.00000000000E+00 0. -1.
</event>
<event>
 7    1  0.1375918E-013  0.7246159E+02  0.7816164E-02  0.1226708E+00
        -11   -1    0    0    0    0  0.00000000000E+00  0.00000000000E+00  0.45593999997E+02  0.45594000000E+02  0.51100000000E-03 0.  1.
         11   -1    0    0    0    0 -0.00000000000E+00 -0.00000000000E+00 -0.45593999997E+02  0.45594000000E+02  0.51100000000E-03 0. -1.
    9900012    2    1    2    0    0 -0.13548554409E+02 -0.97615172578E+01  0.84751428276E+01  0.72461585722E+02  0.70000020098E+02 0.  0.
         12    1    1    2    0    0  0.13548554409E+02  0.97615172578E+01 -0.84751428276E+01  0.18726414278E+02  0.00000000000E+00 0. -1.
         11    1    3    3    0    0 -0.11370736667E+02 -0.23557462864E+02 -0.15175662209E+02  0.30241501826E+02  0.51100000000E-03 0. -1.
        -11    1    3    3    0    0  0.13415917047E+02  0.13002584088E+02  0.16960633962E+02  0.25233254404E+02  0.51100000000E-03 0.  1.
         12    1    3    3    0    0 -0.15593734789E+02  0.79336151817E+00  0.66901710752E+01  0.16986829492E+02  0.00000000000E+00 0. -1.
</event>
<event>
 7    1  0.1375918E-013  0.7246156E+02  0.7816164E-02  0.1226708E+00
        -11   -1    0    0    0    0  0.00000000000E+00  0.00000000000E+00  0.45593999997E+02  0.45594000000E+02  0.51100000000E-03 0.  1.
         11   -1    0    0    0    0 -0.00000000000E+00 -0.00000000000E+00 -0.45593999997E+02  0.45594000000E+02  0.51100000000E-03 0. -1.
    9900012    2    1    2    0    0 -0.72664747465E+01  0.88727635555E+01 -0.14803779329E+02  0.72461562250E+02  0.69999989521E+02 0.  0.
         12    1    1    2    0    0  0.72664747465E+01 -0.88727635555E+01  0.14803779329E+02  0.18726437750E+02  0.00000000000E+00 0. -1.
         11    1    3    3    0    0  0.58745520414E+01  0.57102455589E+01 -0.34678685805E+02  0.35633250139E+02  0.51100000000E-03 0. -1.
        -11    1    3    3    0    0  0.54004425895E+01  0.98881985210E+01  0.66844404978E+01  0.13100495990E+02  0.51100000000E-03 0.  1.
         12    1    3    3    0    0 -0.18541469377E+02 -0.67256805244E+01  0.13190465978E+02  0.23727816122E+02  0.00000000000E+00 0. -1.
</event>
<event>
 7    1  0.1651473E-013  0.7246154E+02  0.7816164E-02  0.1226708E+00
        -11   -1    0    0    0    0  0.00000000000E+00  0.00000000000E+00  0.45593999997E+02  0.45594000000E+02  0.51100000000E-03 0. -1.
         11   -1    0    0    0    0 -0.00000000000E+00 -0.00000000000E+00 -0.45593999997E+02  0.45594000000E+02  0.51100000000E-03 0.  1.
    9900012    2    1    2    0    0 -0.18355647286E+01  0.62685955141E+01 -0.17550374652E+02  0.72461541766E+02  0.69999962836E+02 0.  0.
         12    1    1    2    0    0  0.18355647286E+01 -0.62685955141E+01  0.17550374652E+02  0.18726458234E+02  0.00000000000E+00 0. -1.
         11    1    3    3    0    0 -0.24731936082E+02 -0.44472787810E+01  0.12957448912E+02  0.28272644614E+02  0.51100000000E-03 0. -1.
        -11    1    3    3    0    0  0.11975161550E+02 -0.32475292491E+01 -0.20132246618E+02  0.23648642551E+02  0.51100000000E-03 0.  1.
        -12    1    3    3    0    0  0.10921209803E+02  0.13963403544E+02 -0.10375576946E+02  0.20540254601E+02  0.00000000000E+00 0.  1.
</event>
<event>
 7    1  0.1375918E-013  0.7246155E+02  0.7816164E-02  0.1226708E+00
        -11   -1    0    0    0    0  0.00000000000E+00  0.00000000000E+00  0.45593999997E+02  0.45594000000E+02  0.51100000000E-03 0. -1.
         11   -1    0    0    0    0 -0.00000000000E+00 -0.00000000000E+00 -0.45593999997E+02  0.45594000000E+02  0.51100000000E-03 0.  1.
    9900012    2    1    2    0    0  0.11640653685E+02  0.14467023122E+02 -0.24249748974E+01  0.72461545998E+02  0.69999968350E+02 0.  0.
         12    1    1    2    0    0 -0.11640653685E+02 -0.14467023122E+02  0.24249748974E+01  0.18726454002E+02  0.00000000000E+00 0. -1.
         11    1    3    3    0    0  0.22084586664E+02 -0.17561825266E+01  0.47650007295E+01  0.22660943877E+02  0.51100000000E-03 0. -1.
        -11    1    3    3    0    0 -0.22541516248E+02  0.23720130294E+02 -0.11884909626E+02  0.34814014606E+02  0.51100000000E-03 0.  1.
         12    1    3    3    0    0  0.12097583269E+02 -0.74969246447E+01  0.46949339991E+01  0.14986587514E+02  0.00000000000E+00 0. -1.
</event>
<event>
 7    1  0.1375918E-013  0.7246154E+02  0.7816164E-02  0.1226708E+00
        -11   -1    0    0    0    0  0.00000000000E+00  0.00000000000E+00  0.45593999997E+02  0.45594000000E+02  0.51100000000E-03 0. -1.
         11   -1    0    0    0    0 -0.00000000000E+00 -0.00000000000E+00 -0.45593999997E+02  0.45594000000E+02  0.51100000000E-03 0.  1.
    9900012    2    1    2    0    0 -0.18009702563E+02  0.44171206785E+01 -0.26114992339E+01  0.72461540918E+02  0.69999961732E+02 0.  0.
         12    1    1    2    0    0  0.18009702563E+02 -0.44171206785E+01  0.26114992339E+01  0.18726459082E+02  0.00000000000E+00 0. -1.
         11    1    3    3    0    0  0.20905224062E+01  0.54386724378E+01  0.22498997573E+02  0.23241220576E+02  0.51100000000E-03 0. -1.
        -11    1    3    3    0    0 -0.29065567314E+02  0.74397216729E+01 -0.18062869562E+02  0.35020335791E+02  0.51100000000E-03 0.  1.
         12    1    3    3    0    0  0.89653423448E+01 -0.84612734322E+01 -0.70476272454E+01  0.14199984551E+02  0.00000000000E+00 0. -1.
</event>
<event>
 7    1  0.1375918E-013  0.7246157E+02  0.7816164E-02  0.1226708E+00
        -11   -1    0    0    0    0  0.00000000000E+00  0.00000000000E+00  0.45593999997E+02  0.45594000000E+02  0.51100000000E-03 0.  1.
         11   -1    0    0    0    0 -0.00000000000E+00 -0.00000000000E+00 -0.45593999997E+02  0.45594000000E+02  0.51100000000E-03 0. -1.
    9900012    2    1    2    0    0 -0.79959732106E+00 -0.64563014835E+01  0.17560067530E+02  0.72461570645E+02  0.70000000457E+02 0.  0.
         12    1    1    2    0    0  0.79959732106E+00  0.64563014835E+01 -0.17560067530E+02  0.18726429355E+02  0.00000000000E+00 0. -1.
         11    1    3    3    0    0 -0.11091368709E+02 -0.31109889200E+01 -0.18631318234E+02  0.21904856341E+02  0.51100000000E-03 0. -1.
        -11    1    3    3    0    0 -0.96673325862E+01  0.75441361297E+01  0.15923607339E+02  0.20098074043E+02  0.51100000000E-03 0.  1.
         12    1    3    3    0    0  0.19959103975E+02 -0.10889448693E+02  0.20267778425E+02  0.30458640262E+02  0.00000000000E+00 0. -1.
</event>
<event>
 8    1  0.1375918E-013  0.7246155E+02  0.7816164E-02  0.1226708E+00
        -11   -1    0    0    0    0  0.00000000000E+00  0.00000000000E+00  0.45593999997E+02  0.45594000000E+02  0.51100000000E-03 0.  1.
         11   -1    0    0    0    0 -0.00000000000E+00 -0.00000000000E+00 -0.45593999997E+02  0.45594000000E+02  0.51100000000E-03 0. -1.
    9900012    2    1    2    0    0  0.18633614113E+02  0.61084404494E+00 -0.17593648011E+01  0.72461546255E+02  0.69999968685E+02 0.  0.
         24    2    3    3    0    0  0.18244521480E+02 -0.38831134752E+01  0.96481870392E+01  0.60194546356E+02  0.56412363570E+02 0.  0.
         12    1    1    2    0    0 -0.18633614113E+02 -0.61084404494E+00  0.17593648011E+01  0.18726453745E+02  0.00000000000E+00 0. -1.
         11    1    3    3    0    0  0.38909263254E+00  0.44939575201E+01 -0.11407551840E+02  0.12266999899E+02  0.51100000000E-03 0. -1.
        -11    1    4    4    0    0 -0.16185410682E+01 -0.15808870063E+02  0.26944784937E+02  0.31281967384E+02  0.51100000000E-03 0.  1.
         12    1    4    4    0    0  0.19863062548E+02  0.11925756588E+02 -0.17296597897E+02  0.28912578972E+02  0.00000000000E+00 0. -1.
</event>
<event>
 7    1  0.1375918E-013  0.7246161E+02  0.7816164E-02  0.1226708E+00
        -11   -1    0    0    0    0  0.00000000000E+00  0.00000000000E+00  0.45593999997E+02  0.45594000000E+02  0.51100000000E-03 0.  1.
         11   -1    0    0    0    0 -0.00000000000E+00 -0.00000000000E+00 -0.45593999997E+02  0.45594000000E+02  0.51100000000E-03 0. -1.
    9900012    2    1    2    0    0  0.12600892618E+02 -0.32711865932E+01  0.13460850411E+02  0.72461610859E+02  0.70000052843E+02 0.  0.
         12    1    1    2    0    0 -0.12600892618E+02  0.32711865932E+01 -0.13460850411E+02  0.18726389141E+02  0.00000000000E+00 0. -1.
         11    1    3    3    0    0 -0.18498735922E+01 -0.96441676576E+01 -0.27859596959E+01  0.10207525352E+02  0.51100000000E-03 0. -1.
        -11    1    3    3    0    0 -0.13213487262E+02  0.23617776338E+02  0.11102539829E+02  0.29251700731E+02  0.51100000000E-03 0.  1.
        -12    1    3    3    0    0  0.27664253472E+02 -0.17244795274E+02  0.51442702780E+01  0.33002384776E+02  0.00000000000E+00 0.  1.
</event>
<event>
 7    1  0.1375918E-013  0.7246154E+02  0.7816164E-02  0.1226708E+00
        -11   -1    0    0    0    0  0.00000000000E+00  0.00000000000E+00  0.45593999997E+02  0.45594000000E+02  0.51100000000E-03 0.  1.
         11   -1    0    0    0    0 -0.00000000000E+00 -0.00000000000E+00 -0.45593999997E+02  0.45594000000E+02  0.51100000000E-03 0. -1.
    9900012    2    1    2    0    0  0.14167705306E+02 -0.94470471187E+01  0.77916348938E+01  0.72461544189E+02  0.69999965993E+02 0.  0.
         12    1    1    2    0    0 -0.14167705306E+02  0.94470471187E+01 -0.77916348938E+01  0.18726455811E+02  0.00000000000E+00 0. -1.
         11    1    3    3    0    0 -0.92369008095E+01 -0.14738858837E+01 -0.26114579839E+02  0.27739213338E+02  0.51100000000E-03 0. -1.
        -11    1    3    3    0    0 -0.32297581696E+00 -0.20374608234E+01  0.11068309114E+02  0.11258908778E+02  0.51100000000E-03 0.  1.
         12    1    3    3    0    0  0.23727581933E+02 -0.59357004116E+01  0.22837905619E+02  0.33463422073E+02  0.00000000000E+00 0. -1.
</event>
<event>
 7    1  0.1375918E-013  0.7246158E+02  0.7816164E-02  0.1226708E+00
        -11   -1    0    0    0    0  0.00000000000E+00  0.00000000000E+00  0.45593999997E+02  0.45594000000E+02  0.51100000000E-03 0.  1.
         11   -1    0    0    0    0 -0.00000000000E+00 -0.00000000000E+00 -0.45593999997E+02  0.45594000000E+02  0.51100000000E-03 0. -1.
    9900012    2    1    2    0    0 -0.17731348972E+02  0.37906847425E+01 -0.46806813988E+01  0.72461580012E+02  0.70000012660E+02 0.  0.
         12    1    1    2    0    0  0.17731348972E+02 -0.37906847425E+01  0.46806813988E+01  0.18726419988E+02  0.00000000000E+00 0. -1.
         11    1    3    3    0    0  0.11233351766E+02 -0.15046551100E+02  0.11846145976E+02  0.22201758188E+02  0.51100000000E-03 0. -1.
        -11    1    3    3    0    0 -0.24323225640E+02  0.18658416975E+01  0.22858595912E+01  0.24501547402E+02  0.51100000000E-03 0.  1.
         12    1    3    3    0    0 -0.46414750984E+01  0.16971394145E+02 -0.18812686966E+02  0.25758274422E+02  0.00000000000E+00 0. -1.
</event>
<event>
 7    1  0.1375918E-013  0.7246154E+02  0.7816164E-02  0.1226708E+00
        -11   -1    0    0    0    0  0.00000000000E+00  0.00000000000E+00  0.45593999997E+02  0.45594000000E+02  0.51100000000E-03 0. -1.
         11   -1    0    0    0    0 -0.00000000000E+00 -0.00000000000E+00 -0.45593999997E+02  0.45594000000E+02  0.51100000000E-03 0.  1.
    9900012    2    1    2    0    0  0.12751695237E+02  0.63331326141E+01 -0.12164133006E+02  0.72461536588E+02  0.69999956091E+02 0.  0.
         12    1    1    2    0    0 -0.12751695237E+02 -0.63331326141E+01  0.12164133006E+02  0.18726463412E+02  0.00000000000E+00 0. -1.
         11    1    3    3    0    0  0.18489746511E+02 -0.33955912798E+01  0.59122343414E+01  0.19706731879E+02  0.51100000000E-03 0. -1.
        -11    1    3    3    0    0 -0.12059930497E+02 -0.17625253100E+02 -0.97071122252E+01  0.23458889540E+02  0.51100000000E-03 0.  1.
         12    1    3    3    0    0  0.63218792234E+01  0.27353976994E+02 -0.83692551225E+01  0.29295915169E+02  0.00000000000E+00 0. -1.
</event>
<event>
 7    1  0.1375918E-013  0.7246163E+02  0.7816164E-02  0.1226708E+00
        -11   -1    0    0    0    0  0.00000000000E+00  0.00000000000E+00  0.45593999997E+02  0.45594000000E+02  0.51100000000E-03 0. -1.
         11   -1    0    0    0    0 -0.00000000000E+00 -0.00000000000E+00 -0.45593999997E+02  0.45594000000E+02  0.51100000000E-03 0.  1.
    9900012    2    1    2    0    0  0.39299504117E+01  0.17054682814E+02 -0.66611064998E+01  0.72461626728E+02  0.70000073515E+02 0.  0.
         12    1    1    2    0    0 -0.39299504117E+01 -0.17054682814E+02  0.66611064998E+01  0.18726373272E+02  0.00000000000E+00 0. -1.
         11    1    3    3    0    0  0.11972918013E+02 -0.86933190568E+01  0.91195389393E+01  0.17380752363E+02  0.51100000000E-03 0. -1.
        -11    1    3    3    0    0 -0.11578687156E+01  0.35610354873E+02 -0.21656317762E+02  0.41694533616E+02  0.51100000000E-03 0.  1.
         12    1    3    3    0    0 -0.68850988861E+01 -0.98623530024E+01  0.58756723232E+01  0.13386340750E+02  0.00000000000E+00 0. -1.
</event>
<event>
 7    1  0.1375918E-013  0.7246156E+02  0.7816164E-02  0.1226708E+00
        -11   -1    0    0    0    0  0.00000000000E+00  0.00000000000E+00  0.45593999997E+02  0.45594000000E+02  0.51100000000E-03 0.  1.
         11   -1    0    0    0    0 -0.00000000000E+00 -0.00000000000E+00 -0.45593999997E+02  0.45594000000E+02  0.51100000000E-03 0. -1.
    9900012    2    1    2    0    0 -0.46715263333E+01 -0.13506539809E+01  0.18084027786E+02  0.72461561859E+02  0.69999989012E+02 0.  0.
         12    1    1    2    0    0  0.46715263333E+01  0.13506539809E+01 -0.18084027786E+02  0.18726438141E+02  0.00000000000E+00 0. -1.
         11    1    3    3    0    0 -0.21621237982E+02  0.74118379737E+01 -0.98355278522E+01  0.24882742663E+02  0.51100000000E-03 0. -1.
        -11    1    3    3    0    0  0.27164615455E+02 -0.67156596607E+01  0.22011004552E+02  0.35601976618E+02  0.51100000000E-03 0.  1.
        -12    1    3    3    0    0 -0.10214903806E+02 -0.20468322938E+01  0.59085510863E+01  0.11976842578E+02  0.00000000000E+00 0.  1.
</event>
<event>
 7    1  0.1375918E-013  0.7246140E+02  0.7816164E-02  0.1226708E+00
        -11   -1    0    0    0    0  0.00000000000E+00  0.00000000000E+00  0.45593999997E+02  0.45594000000E+02  0.51100000000E-03 0. -1.
         11   -1    0    0    0    0 -0.00000000000E+00 -0.00000000000E+00 -0.45593999997E+02  0.45594000000E+02  0.51100000000E-03 0.  1.
    9900012    2    1    2    0    0  0.71840957384E+01  0.15147323500E+02 -0.83446263624E+01  0.72461403141E+02  0.69999782252E+02 0.  0.
         12    1    1    2    0    0 -0.71840957384E+01 -0.15147323500E+02  0.83446263624E+01  0.18726596859E+02  0.00000000000E+00 0. -1.
         11    1    3    3    0    0 -0.19153346372E+02 -0.26716825099E+00  0.25439507738E+01  0.19323398819E+02  0.51100000000E-03 0. -1.
        -11    1    3    3    0    0  0.11957228826E+02  0.32414790441E-01 -0.25053037975E+02  0.27760242865E+02  0.51100000000E-03 0.  1.
         12    1    3    3    0    0  0.14380213284E+02  0.15382076960E+02  0.14164460839E+02  0.25377761457E+02  0.00000000000E+00 0. -1.
</event>
<event>
 7    1  0.1375918E-013  0.7246156E+02  0.7816164E-02  0.1226708E+00
        -11   -1    0    0    0    0  0.00000000000E+00  0.00000000000E+00  0.45593999997E+02  0.45594000000E+02  0.51100000000E-03 0.  1.
         11   -1    0    0    0    0 -0.00000000000E+00 -0.00000000000E+00 -0.45593999997E+02  0.45594000000E+02  0.51100000000E-03 0. -1.
    9900012    2    1    2    0    0  0.32447930073E+00 -0.17282203943E+02  0.72041371670E+01  0.72461562745E+02  0.69999990166E+02 0.  0.
         12    1    1    2    0    0 -0.32447930073E+00  0.17282203943E+02 -0.72041371670E+01  0.18726437255E+02  0.00000000000E+00 0. -1.
         11    1    3    3    0    0  0.25460859470E+02 -0.29411582561E+01  0.64000384985E+01  0.26417158626E+02  0.51100000000E-03 0. -1.
        -11    1    3    3    0    0 -0.15671702098E+02 -0.48000173320E+01 -0.17080987248E+02  0.23672822786E+02  0.51100000000E-03 0.  1.
        -12    1    3    3    0    0 -0.94646780712E+01 -0.95410283548E+01  0.17885085917E+02  0.22371581332E+02  0.00000000000E+00 0.  1.
</event>
<event>
 7    1  0.1375918E-013  0.7246085E+02  0.7816164E-02  0.1226710E+00
        -11   -1    0    0    0    0  0.00000000000E+00  0.00000000000E+00  0.45593999997E+02  0.45594000000E+02  0.51100000000E-03 0.  1.
         11   -1    0    0    0    0 -0.00000000000E+00 -0.00000000000E+00 -0.45593999997E+02  0.45594000000E+02  0.51100000000E-03 0. -1.
    9900012    2    1    2    0    0  0.59477816308E+01  0.10040254043E+02 -0.14646612398E+02  0.72460852265E+02  0.69999064627E+02 0.  0.
         12    1    1    2    0    0 -0.59477816308E+01 -0.10040254043E+02  0.14646612398E+02  0.18727147735E+02  0.00000000000E+00 0. -1.
         11    1    3    3    0    0 -0.14545766667E+02  0.26366560080E+02 -0.42282855849E+01  0.30408111050E+02  0.51100000000E-03 0. -1.
        -11    1    3    3    0    0  0.19634330006E+02  0.36165498397E+01 -0.10229725711E+01  0.19990818409E+02  0.51100000000E-03 0.  1.
         12    1    3    3    0    0  0.85921829151E+00 -0.19942855876E+02 -0.93953542415E+01  0.22061922806E+02  0.00000000000E+00 0. -1.
</event>
<event>
 7    1  0.1375918E-013  0.7246154E+02  0.7816164E-02  0.1226708E+00
        -11   -1    0    0    0    0  0.00000000000E+00  0.00000000000E+00  0.45593999997E+02  0.45594000000E+02  0.51100000000E-03 0.  1.
         11   -1    0    0    0    0 -0.00000000000E+00 -0.00000000000E+00 -0.45593999997E+02  0.45594000000E+02  0.51100000000E-03 0. -1.
    9900012    2    1    2    0    0  0.11744635841E+02  0.53697986361E+01  0.13561312702E+02  0.72461537156E+02  0.69999956831E+02 0.  0.
         12    1    1    2    0    0 -0.11744635841E+02 -0.53697986361E+01 -0.13561312702E+02  0.18726462844E+02  0.00000000000E+00 0. -1.
         11    1    3    3    0    0 -0.48744690504E+01  0.11963007588E+02 -0.17299806130E+02  0.21590676031E+02  0.51100000000E-03 0. -1.
        -11    1    3    3    0    0  0.17237138227E+02 -0.17586590109E+02  0.31330875832E+02  0.39850104976E+02  0.51100000000E-03 0.  1.
        -12    1    3    3    0    0 -0.61803333535E+00  0.10993381157E+02 -0.46975699946E+00  0.11020756149E+02  0.00000000000E+00 0.  1.
</event>
<event>
 7    1  0.1375918E-013  0.7246156E+02  0.7816164E-02  0.1226708E+00
        -11   -1    0    0    0    0  0.00000000000E+00  0.00000000000E+00  0.45593999997E+02  0.45594000000E+02  0.51100000000E-03 0. -1.
         11   -1    0    0    0    0 -0.00000000000E+00 -0.00000000000E+00 -0.45593999997E+02  0.45594000000E+02  0.51100000000E-03 0.  1.
    9900012    2    1    2    0    0 -0.75906603857E+01 -0.16372339672E+02 -0.50008097247E+01  0.72461555347E+02  0.69999980529E+02 0.  0.
         12    1    1    2    0    0  0.75906603857E+01  0.16372339672E+02  0.50008097247E+01  0.18726444653E+02  0.00000000000E+00 0. -1.
         11    1    3    3    0    0  0.18606967650E+01 -0.44855484144E-01  0.24343121722E+02  0.24414171702E+02  0.51100000000E-03 0. -1.
        -11    1    3    3    0    0 -0.17794538419E+02 -0.20661273404E+02 -0.15659207408E+02  0.31444309392E+02  0.51100000000E-03 0.  1.
        -12    1    3    3    0    0  0.83431812684E+01  0.43337892165E+01 -0.13684724038E+02  0.16603074253E+02  0.00000000000E+00 0.  1.
</event>
<event>
 7    1  0.1375918E-013  0.7246154E+02  0.7816164E-02  0.1226708E+00
        -11   -1    0    0    0    0  0.00000000000E+00  0.00000000000E+00  0.45593999997E+02  0.45594000000E+02  0.51100000000E-03 0. -1.
         11   -1    0    0    0    0 -0.00000000000E+00 -0.00000000000E+00 -0.45593999997E+02  0.45594000000E+02  0.51100000000E-03 0.  1.
    9900012    2    1    2    0    0  0.31910786646E-01 -0.12941254331E+02  0.13535261003E+02  0.72461538178E+02  0.69999958162E+02 0.  0.
         12    1    1    2    0    0 -0.31910786646E-01  0.12941254331E+02 -0.13535261003E+02  0.18726461822E+02  0.00000000000E+00 0. -1.
         11    1    3    3    0    0 -0.48824159460E+01 -0.11674775908E+02  0.32163271475E+02  0.34563194444E+02  0.51100000000E-03 0. -1.
        -11    1    3    3    0    0 -0.87815602011E+01  0.70929821063E+01 -0.18711263390E+02  0.21852633083E+02  0.51100000000E-03 0.  1.
        -12    1    3    3    0    0  0.13695886934E+02 -0.83594605295E+01  0.83252918359E-01  0.16045710651E+02  0.00000000000E+00 0.  1.
</event>
<event>
 7    1  0.1375918E-013  0.7246158E+02  0.7816164E-02  0.1226708E+00
        -11   -1    0    0    0    0  0.00000000000E+00  0.00000000000E+00  0.45593999997E+02  0.45594000000E+02  0.51100000000E-03 0.  1.
         11   -1    0    0    0    0 -0.00000000000E+00 -0.00000000000E+00 -0.45593999997E+02  0.45594000000E+02  0.51100000000E-03 0. -1.
    9900012    2    1    2    0    0  0.14544011033E+02  0.36926528094E+00  0.11790423591E+02  0.72461582771E+02  0.70000016253E+02 0.  0.
         12    1    1    2    0    0 -0.14544011033E+02 -0.36926528094E+00 -0.11790423591E+02  0.18726417229E+02  0.00000000000E+00 0. -1.
         11    1    3    3    0    0 -0.15307777783E+02  0.51978031815E+01  0.93976326002E+01  0.18699217024E+02  0.51100000000E-03 0.  1.
        -11    1    3    3    0    0  0.37593978295E+02  0.45948377001E+00  0.12836324104E+02  0.39727692434E+02  0.51100000000E-03 0. -1.
         12    1    3    3    0    0 -0.77421894787E+01 -0.52880216706E+01 -0.10443533114E+02  0.14034673313E+02  0.00000000000E+00 0. -1.
</event>
<event>
 7    1  0.1375918E-013  0.7246157E+02  0.7816164E-02  0.1226708E+00
        -11   -1    0    0    0    0  0.00000000000E+00  0.00000000000E+00  0.45593999997E+02  0.45594000000E+02  0.51100000000E-03 0.  1.
         11   -1    0    0    0    0 -0.00000000000E+00 -0.00000000000E+00 -0.45593999997E+02  0.45594000000E+02  0.51100000000E-03 0. -1.
    9900012    2    1    2    0    0 -0.30966556358E+01  0.27429790510E+01  0.18263786900E+02  0.72461571559E+02  0.70000001648E+02 0.  0.
         12    1    1    2    0    0  0.30966556358E+01 -0.27429790510E+01 -0.18263786900E+02  0.18726428441E+02  0.00000000000E+00 0. -1.
         11    1    3    3    0    0 -0.12579090162E+02  0.22367393801E+01 -0.65647393948E+01  0.14364272204E+02  0.51100000000E-03 0. -1.
        -11    1    3    3    0    0  0.26334602289E+02  0.43726151102E+01 -0.13444878655E+01  0.26728985923E+02  0.51100000000E-03 0.  1.
        -12    1    3    3    0    0 -0.16852167762E+02 -0.38663754392E+01  0.26173014161E+02  0.31368313432E+02  0.00000000000E+00 0.  1.
</event>
<event>
 7    1  0.1375918E-013  0.7246155E+02  0.7816164E-02  0.1226708E+00
        -11   -1    0    0    0    0  0.00000000000E+00  0.00000000000E+00  0.45593999997E+02  0.45594000000E+02  0.51100000000E-03 0.  1.
         11   -1    0    0    0    0 -0.00000000000E+00 -0.00000000000E+00 -0.45593999997E+02  0.45594000000E+02  0.51100000000E-03 0. -1.
    9900012    2    1    2    0    0  0.63574440073E+01 -0.38542458728E+00  0.17610057111E+02  0.72461554585E+02  0.69999979536E+02 0.  0.
         12    1    1    2    0    0 -0.63574440073E+01  0.38542458728E+00 -0.17610057111E+02  0.18726445415E+02  0.00000000000E+00 0. -1.
         11    1    3    3    0    0  0.15404503443E+02 -0.17446599122E+02 -0.14368152959E+02  0.27351898782E+02  0.51100000000E-03 0. -1.
        -11    1    3    3    0    0  0.30375004552E+01  0.15460216299E+02  0.68494632593E+01  0.17180216652E+02  0.51100000000E-03 0.  1.
         12    1    3    3    0    0 -0.12084559891E+02  0.16009582365E+01  0.25128746810E+02  0.27929439151E+02  0.00000000000E+00 0. -1.
</event>
<event>
 7    1  0.1375918E-013  0.7246158E+02  0.7816164E-02  0.1226708E+00
        -11   -1    0    0    0    0  0.00000000000E+00  0.00000000000E+00  0.45593999997E+02  0.45594000000E+02  0.51100000000E-03 0.  1.
         11   -1    0    0    0    0 -0.00000000000E+00 -0.00000000000E+00 -0.45593999997E+02  0.45594000000E+02  0.51100000000E-03 0. -1.
    9900012    2    1    2    0    0  0.30127783640E+01  0.16579428903E+02  0.81685063925E+01  0.72461580350E+02  0.70000013100E+02 0.  0.
         12    1    1    2    0    0 -0.30127783640E+01 -0.16579428903E+02 -0.81685063925E+01  0.18726419650E+02  0.00000000000E+00 0. -1.
         11    1    3    3    0    0  0.15586125681E+01 -0.75608253814E+01  0.18647767159E+02  0.20182531404E+02  0.51100000000E-03 0.  1.
        -11    1    3    3    0    0  0.12266100703E+02  0.33791647746E+02 -0.11517283505E+02  0.37748913937E+02  0.51100000000E-03 0. -1.
        -12    1    3    3    0    0 -0.10811934907E+02 -0.96513934617E+01  0.10380227391E+01  0.14530135009E+02  0.00000000000E+00 0.  1.
</event>
<event>
 7    1  0.1375918E-013  0.7246158E+02  0.7816164E-02  0.1226708E+00
        -11   -1    0    0    0    0  0.00000000000E+00  0.00000000000E+00  0.45593999997E+02  0.45594000000E+02  0.51100000000E-03 0. -1.
         11   -1    0    0    0    0 -0.00000000000E+00 -0.00000000000E+00 -0.45593999997E+02  0.45594000000E+02  0.51100000000E-03 0.  1.
    9900012    2    1    2    0    0 -0.47549514514E+01  0.56696175340E+00 -0.18103807858E+02  0.72461578348E+02  0.70000010491E+02 0.  0.
         12    1    1    2    0    0  0.47549514514E+01 -0.56696175340E+00  0.18103807858E+02  0.18726421652E+02  0.00000000000E+00 0. -1.
         11    1    3    3    0    0  0.27536293487E+02  0.73168402466E+01 -0.22365513024E+02  0.36221537561E+02  0.51100000000E-03 0. -1.
        -11    1    3    3    0    0 -0.17128433948E+02  0.10170754954E+01  0.77868238612E+01  0.18842832011E+02  0.51100000000E-03 0.  1.
         12    1    3    3    0    0 -0.15162810990E+02 -0.77669539886E+01 -0.35251186952E+01  0.17397208776E+02  0.00000000000E+00 0. -1.
</event>
<event>
 7    1  0.1375918E-013  0.7246169E+02  0.7816164E-02  0.1226708E+00
        -11   -1    0    0    0    0  0.00000000000E+00  0.00000000000E+00  0.45593999997E+02  0.45594000000E+02  0.51100000000E-03 0.  1.
         11   -1    0    0    0    0 -0.00000000000E+00 -0.00000000000E+00 -0.45593999997E+02  0.45594000000E+02  0.51100000000E-03 0. -1.
    9900012    2    1    2    0    0  0.35293277257E+01 -0.67409105462E+01  0.17110777885E+02  0.72461688323E+02  0.70000153754E+02 0.  0.
         12    1    1    2    0    0 -0.35293277257E+01  0.67409105462E+01 -0.17110777885E+02  0.18726311677E+02  0.00000000000E+00 0. -1.
         11    1    3    3    0    0 -0.11267011382E+02  0.13528869997E+01 -0.48650743980E+01  0.12346853764E+02  0.51100000000E-03 0. -1.
        -11    1    3    3    0    0  0.12617259763E+02  0.37193969670E+01  0.37928754107E+02  0.40144981580E+02  0.51100000000E-03 0.  1.
        -12    1    3    3    0    0  0.21790793446E+01 -0.11813194513E+02 -0.15952901824E+02  0.19969852979E+02  0.00000000000E+00 0.  1.
</event>
<event>
 7    1  0.1375918E-013  0.7246142E+02  0.7816164E-02  0.1226708E+00
        -11   -1    0    0    0    0  0.00000000000E+00  0.00000000000E+00  0.45593999997E+02  0.45594000000E+02  0.51100000000E-03 0. -1.
         11   -1    0    0    0    0 -0.00000000000E+00 -0.00000000000E+00 -0.45593999997E+02  0.45594000000E+02  0.51100000000E-03 0.  1.
    9900012    2    1    2    0    0  0.95410564412E+01  0.16102779371E+02 -0.59465136827E+00  0.72461418045E+02  0.69999801666E+02 0.  0.
         12    1    1    2    0    0 -0.95410564412E+01 -0.16102779371E+02  0.59465136827E+00  0.18726581955E+02  0.00000000000E+00 0. -1.
         11    1    3    3    0    0 -0.74245273307E+01  0.42508345325E+01  0.97218915917E+01  0.12950226897E+02  0.51100000000E-03 0. -1.
        -11    1    3    3    0    0  0.81774713332E+01  0.18783028005E+01 -0.32546121466E+02  0.33610252626E+02  0.51100000000E-03 0.  1.
        -12    1    3    3    0    0  0.87881124387E+01  0.99736420379E+01  0.22229578506E+02  0.25900938522E+02  0.00000000000E+00 0.  1.
</event>
<event>
 7    1  0.1375918E-013  0.7246155E+02  0.7816164E-02  0.1226708E+00
        -11   -1    0    0    0    0  0.00000000000E+00  0.00000000000E+00  0.45593999997E+02  0.45594000000E+02  0.51100000000E-03 0.  1.
         11   -1    0    0    0    0 -0.00000000000E+00 -0.00000000000E+00 -0.45593999997E+02  0.45594000000E+02  0.51100000000E-03 0. -1.
    9900012    2    1    2    0    0 -0.13439508639E+01  0.17089395038E+02 -0.75383284963E+01  0.72461547501E+02  0.69999970307E+02 0.  0.
         12    1    1    2    0    0  0.13439508639E+01 -0.17089395038E+02  0.75383284963E+01  0.18726452499E+02  0.00000000000E+00 0. -1.
         11    1    3    3    0    0  0.26550363141E+02  0.20398131106E+02  0.54888638310E+01  0.33928353363E+02  0.51100000000E-03 0. -1.
        -11    1    3    3    0    0 -0.14413282268E+02 -0.12113031965E+02 -0.18191960194E+01  0.18915013178E+02  0.51100000000E-03 0.  1.
        -12    1    3    3    0    0 -0.13481031737E+02  0.88042958963E+01 -0.11207996308E+02  0.19618180959E+02  0.00000000000E+00 0.  1.
</event>
<event>
 7    1  0.1375918E-013  0.7246167E+02  0.7816164E-02  0.1226708E+00
        -11   -1    0    0    0    0  0.00000000000E+00  0.00000000000E+00  0.45593999997E+02  0.45594000000E+02  0.51100000000E-03 0.  1.
         11   -1    0    0    0    0 -0.00000000000E+00 -0.00000000000E+00 -0.45593999997E+02  0.45594000000E+02  0.51100000000E-03 0. -1.
    9900012    2    1    2    0    0 -0.65841116777E+01 -0.15351173180E+02  0.84656014662E+01  0.72461669533E+02  0.70000129277E+02 0.  0.
         12    1    1    2    0    0  0.65841116777E+01  0.15351173180E+02 -0.84656014662E+01  0.18726330467E+02  0.00000000000E+00 0. -1.
         11    1    3    3    0    0  0.13177210576E+02 -0.11928535979E+02 -0.21155693956E+02  0.27631363271E+02  0.51100000000E-03 0. -1.
        -11    1    3    3    0    0 -0.17312351986E+02  0.56457266380E+01  0.56212467530E+01  0.19057549052E+02  0.51100000000E-03 0.  1.
        -12    1    3    3    0    0 -0.24489702679E+01 -0.90683638389E+01  0.24000048669E+02  0.25772757210E+02  0.00000000000E+00 0.  1.
</event>
<event>
 7    1  0.1375918E-013  0.7246157E+02  0.7816164E-02  0.1226708E+00
        -11   -1    0    0    0    0  0.00000000000E+00  0.00000000000E+00  0.45593999997E+02  0.45594000000E+02  0.51100000000E-03 0. -1.
         11   -1    0    0    0    0 -0.00000000000E+00 -0.00000000000E+00 -0.45593999997E+02  0.45594000000E+02  0.51100000000E-03 0.  1.
    9900012    2    1    2    0    0 -0.18499020678E+02  0.71174996841E+00  0.28211549180E+01  0.72461567635E+02  0.69999996536E+02 0.  0.
         12    1    1    2    0    0  0.18499020678E+02 -0.71174996841E+00 -0.28211549180E+01  0.18726432365E+02  0.00000000000E+00 0. -1.
         11    1    3    3    0    0 -0.29059424432E+02  0.18527221319E+02 -0.11025516890E+02  0.36183837567E+02  0.51100000000E-03 0. -1.
        -11    1    3    3    0    0 -0.24443419584E+01 -0.94779884605E+01 -0.57285966558E+01  0.11341247408E+02  0.51100000000E-03 0.  1.
         12    1    3    3    0    0  0.13004745713E+02 -0.83374828900E+01  0.19575268464E+02  0.24936482660E+02  0.00000000000E+00 0. -1.
</event>
<event>
 7    1  0.1375918E-013  0.7246159E+02  0.7816164E-02  0.1226708E+00
        -11   -1    0    0    0    0  0.00000000000E+00  0.00000000000E+00  0.45593999997E+02  0.45594000000E+02  0.51100000000E-03 0.  1.
         11   -1    0    0    0    0 -0.00000000000E+00 -0.00000000000E+00 -0.45593999997E+02  0.45594000000E+02  0.51100000000E-03 0. -1.
    9900012    2    1    2    0    0  0.12024947082E+02 -0.13933123469E+02 -0.34564905680E+01  0.72461585261E+02  0.70000019497E+02 0.  0.
         12    1    1    2    0    0 -0.12024947082E+02  0.13933123469E+02  0.34564905680E+01  0.18726414739E+02  0.00000000000E+00 0. -1.
         11    1    3    3    0    0  0.15812847371E+01 -0.70243595002E+01 -0.17443845636E+02  0.18871402667E+02  0.51100000000E-03 0. -1.
        -11    1    3    3    0    0 -0.59407860532E+01  0.11393992860E+02  0.23872261371E+02  0.27110899569E+02  0.51100000000E-03 0.  1.
        -12    1    3    3    0    0  0.16384448398E+02 -0.18302756829E+02 -0.98849063035E+01  0.26479283024E+02  0.00000000000E+00 0.  1.
</event>
<event>
 7    1  0.1375918E-013  0.7246193E+02  0.7816164E-02  0.1226707E+00
        -11   -1    0    0    0    0  0.00000000000E+00  0.00000000000E+00  0.45593999997E+02  0.45594000000E+02  0.51100000000E-03 0.  1.
         11   -1    0    0    0    0 -0.00000000000E+00 -0.00000000000E+00 -0.45593999997E+02  0.45594000000E+02  0.51100000000E-03 0. -1.
    9900012    2    1    2    0    0  0.75641864371E+00 -0.74758665201E+01  0.17152401220E+02  0.72461932153E+02  0.70000471387E+02 0.  0.
         12    1    1    2    0    0 -0.75641864371E+00  0.74758665201E+01 -0.17152401220E+02  0.18726067847E+02  0.00000000000E+00 0. -1.
         11    1    3    3    0    0 -0.18388100080E+02 -0.50360754031E+01  0.20966210826E+02  0.28338424033E+02  0.51100000000E-03 0.  1.
        -11    1    3    3    0    0  0.17287473183E+02  0.98563541331E+00 -0.20588665271E+02  0.26902069514E+02  0.51100000000E-03 0. -1.
         12    1    3    3    0    0  0.18570455403E+01 -0.34254265303E+01  0.16774855665E+02  0.17221438605E+02  0.00000000000E+00 0. -1.
</event>
<event>
 7    1  0.1375918E-013  0.7246152E+02  0.7816164E-02  0.1226708E+00
        -11   -1    0    0    0    0  0.00000000000E+00  0.00000000000E+00  0.45593999997E+02  0.45594000000E+02  0.51100000000E-03 0. -1.
         11   -1    0    0    0    0 -0.00000000000E+00 -0.00000000000E+00 -0.45593999997E+02  0.45594000000E+02  0.51100000000E-03 0.  1.
    9900012    2    1    2    0    0  0.11609855003E+02 -0.14617744011E+02  0.14878718271E+01  0.72461523136E+02  0.69999938568E+02 0.  0.
         12    1    1    2    0    0 -0.11609855003E+02  0.14617744011E+02 -0.14878718271E+01  0.18726476864E+02  0.00000000000E+00 0. -1.
         11    1    3    3    0    0 -0.17800959774E+02 -0.21070168558E+02  0.14592310733E+02  0.31205155098E+02  0.51100000000E-03 0. -1.
        -11    1    3    3    0    0  0.19758794065E+02  0.16365521133E+01 -0.20232332045E+02  0.28327292599E+02  0.51100000000E-03 0.  1.
         12    1    3    3    0    0  0.96520207116E+01  0.48158724334E+01  0.71278931391E+01  0.12929075439E+02  0.00000000000E+00 0. -1.
</event>
<event>
 7    1  0.1375918E-013  0.7246154E+02  0.7816164E-02  0.1226708E+00
        -11   -1    0    0    0    0  0.00000000000E+00  0.00000000000E+00  0.45593999997E+02  0.45594000000E+02  0.51100000000E-03 0.  1.
         11   -1    0    0    0    0 -0.00000000000E+00 -0.00000000000E+00 -0.45593999997E+02  0.45594000000E+02  0.51100000000E-03 0. -1.
    9900012    2    1    2    0    0  0.16386802097E+02 -0.82664321546E+01 -0.37173882254E+01  0.72461543881E+02  0.69999965592E+02 0.  0.
         12    1    1    2    0    0 -0.16386802097E+02  0.82664321546E+01  0.37173882254E+01  0.18726456119E+02  0.00000000000E+00 0. -1.
         11    1    3    3    0    0 -0.38688489248E+01 -0.12757671329E+02  0.49197636434E+01  0.14210216195E+02  0.51100000000E-03 0. -1.
        -11    1    3    3    0    0  0.28000082613E+02  0.91221675068E+01  0.14929114120E+02  0.33016617256E+02  0.51100000000E-03 0.  1.
        -12    1    3    3    0    0 -0.77444315905E+01 -0.46309283327E+01 -0.23566265989E+02  0.25234710431E+02  0.00000000000E+00 0.  1.
</event>
<event>
 7    1  0.1375918E-013  0.7246158E+02  0.7816164E-02  0.1226708E+00
        -11   -1    0    0    0    0  0.00000000000E+00  0.00000000000E+00  0.45593999997E+02  0.45594000000E+02  0.51100000000E-03 0.  1.
         11   -1    0    0    0    0 -0.00000000000E+00 -0.00000000000E+00 -0.45593999997E+02  0.45594000000E+02  0.51100000000E-03 0. -1.
    9900012    2    1    2    0    0  0.25401643759E+01 -0.17120493375E+02  0.71494913715E+01  0.72461576013E+02  0.70000007450E+02 0.  0.
         12    1    1    2    0    0 -0.25401643759E+01  0.17120493375E+02 -0.71494913715E+01  0.18726423987E+02  0.00000000000E+00 0. -1.
         11    1    3    3    0    0  0.11800361677E+02  0.62057574039E+01 -0.26260568835E+02  0.29451272239E+02  0.51100000000E-03 0. -1.
        -11    1    3    3    0    0 -0.33399688749E+01 -0.16954984442E+02  0.16008251261E+02  0.23556124431E+02  0.51100000000E-03 0.  1.
         12    1    3    3    0    0 -0.59202284258E+01 -0.63712663371E+01  0.17401808946E+02  0.19454179344E+02  0.00000000000E+00 0. -1.
</event>
<event>
 7    1  0.1375918E-013  0.7246160E+02  0.7816164E-02  0.1226708E+00
        -11   -1    0    0    0    0  0.00000000000E+00  0.00000000000E+00  0.45593999997E+02  0.45594000000E+02  0.51100000000E-03 0. -1.
         11   -1    0    0    0    0 -0.00000000000E+00 -0.00000000000E+00 -0.45593999997E+02  0.45594000000E+02  0.51100000000E-03 0.  1.
    9900012    2    1    2    0    0  0.49269850035E+01 -0.18054405916E+02  0.66428868108E+00  0.72461600622E+02  0.70000039508E+02 0.  0.
         12    1    1    2    0    0 -0.49269850035E+01  0.18054405916E+02 -0.66428868108E+00  0.18726399378E+02  0.00000000000E+00 0. -1.
         11    1    3    3    0    0  0.25081122363E+02 -0.68324518147E+01  0.21167467773E+02  0.33523227604E+02  0.51100000000E-03 0. -1.
        -11    1    3    3    0    0 -0.14788324048E+02 -0.56324311457E+01 -0.25288439237E+02  0.29831593455E+02  0.51100000000E-03 0.  1.
        -12    1    3    3    0    0 -0.53658133120E+01 -0.55895229555E+01  0.47852601448E+01  0.91067795637E+01  0.00000000000E+00 0.  1.
</event>
<event>
 7    1  0.1375918E-013  0.7246156E+02  0.7816164E-02  0.1226708E+00
        -11   -1    0    0    0    0  0.00000000000E+00  0.00000000000E+00  0.45593999997E+02  0.45594000000E+02  0.51100000000E-03 0.  1.
         11   -1    0    0    0    0 -0.00000000000E+00 -0.00000000000E+00 -0.45593999997E+02  0.45594000000E+02  0.51100000000E-03 0. -1.
    9900012    2    1    2    0    0  0.12034177581E+02  0.63262642809E+01  0.12877748317E+02  0.72461562765E+02  0.69999990192E+02 0.  0.
         12    1    1    2    0    0 -0.12034177581E+02 -0.63262642809E+01 -0.12877748317E+02  0.18726437235E+02  0.00000000000E+00 0. -1.
         11    1    3    3    0    0 -0.23955495193E+02 -0.19315166610E+01 -0.10062545177E+02  0.26054775421E+02  0.51100000000E-03 0. -1.
        -11    1    3    3    0    0  0.23493805572E+01  0.31210691876E+01  0.86627055570E+01  0.95027958888E+01  0.51100000000E-03 0.  1.
         12    1    3    3    0    0  0.33640292216E+02  0.51367117543E+01  0.14277587937E+02  0.36903991455E+02  0.00000000000E+00 0. -1.
</event>
<event>
 7    1  0.1375918E-013  0.7246157E+02  0.7816164E-02  0.1226708E+00
        -11   -1    0    0    0    0  0.00000000000E+00  0.00000000000E+00  0.45593999997E+02  0.45594000000E+02  0.51100000000E-03 0.  1.
         11   -1    0    0    0    0 -0.00000000000E+00 -0.00000000000E+00 -0.45593999997E+02  0.45594000000E+02  0.51100000000E-03 0. -1.
    9900012    2    1    2    0    0  0.67854161074E+01  0.16251375914E+02  0.63663287803E+01  0.72461568599E+02  0.69999997792E+02 0.  0.
         12    1    1    2    0    0 -0.67854161074E+01 -0.16251375914E+02 -0.63663287803E+01  0.18726431401E+02  0.00000000000E+00 0. -1.
         11    1    3    3    0    0 -0.22929846292E+02  0.56210098983E+01 -0.13378851584E+02  0.27136088024E+02  0.51100000000E-03 0. -1.
        -11    1    3    3    0    0  0.17834792378E+02  0.15376701490E+02  0.22554740593E+01  0.23656075993E+02  0.51100000000E-03 0.  1.
        -12    1    3    3    0    0  0.11880470022E+02 -0.47463354739E+01  0.17489706305E+02  0.21669404583E+02  0.00000000000E+00 0.  1.
</event>
<event>
 7    1  0.1375918E-013  0.7246150E+02  0.7816164E-02  0.1226708E+00
        -11   -1    0    0    0    0  0.00000000000E+00  0.00000000000E+00  0.45593999997E+02  0.45594000000E+02  0.51100000000E-03 0. -1.
         11   -1    0    0    0    0 -0.00000000000E+00 -0.00000000000E+00 -0.45593999997E+02  0.45594000000E+02  0.51100000000E-03 0.  1.
    9900012    2    1    2    0    0  0.40895114427E+01  0.15111236414E+02  0.10276587383E+02  0.72461499579E+02  0.69999907880E+02 0.  0.
         12    1    1    2    0    0 -0.40895114427E+01 -0.15111236414E+02 -0.10276587383E+02  0.18726500421E+02  0.00000000000E+00 0. -1.
         11    1    3    3    0    0  0.46256666489E+01 -0.97654130580E+00  0.16221136320E+02  0.16896025824E+02  0.51100000000E-03 0. -1.
        -11    1    3    3    0    0  0.16347435026E+02  0.24293447969E+02 -0.16921785022E+02  0.33819477446E+02  0.51100000000E-03 0.  1.
        -12    1    3    3    0    0 -0.16883590232E+02 -0.82056702493E+01  0.10977236084E+02  0.21745996308E+02  0.00000000000E+00 0.  1.
</event>
<event>
 7    1  0.1375918E-013  0.7246159E+02  0.7816164E-02  0.1226708E+00
        -11   -1    0    0    0    0  0.00000000000E+00  0.00000000000E+00  0.45593999997E+02  0.45594000000E+02  0.51100000000E-03 0. -1.
         11   -1    0    0    0    0 -0.00000000000E+00 -0.00000000000E+00 -0.45593999997E+02  0.45594000000E+02  0.51100000000E-03 0.  1.
    9900012    2    1    2    0    0  0.93269636286E+01 -0.10525224212E+01 -0.16204269747E+02  0.72461590520E+02  0.70000026347E+02 0.  0.
         12    1    1    2    0    0 -0.93269636286E+01  0.10525224212E+01  0.16204269747E+02  0.18726409480E+02  0.00000000000E+00 0. -1.
         11    1    3    3    0    0  0.10639744111E+02 -0.31118610846E+02  0.27019883659E+01  0.32998073234E+02  0.51100000000E-03 0. -1.
        -11    1    3    3    0    0 -0.89413037090E+01  0.17018139139E+02 -0.79854982830E+01  0.20816631689E+02  0.51100000000E-03 0.  1.
        -12    1    3    3    0    0  0.76285232268E+01  0.13047949286E+02 -0.10920759830E+02  0.18646885597E+02  0.00000000000E+00 0.  1.
</event>
<event>
 7    1  0.1375918E-013  0.7246158E+02  0.7816164E-02  0.1226708E+00
        -11   -1    0    0    0    0  0.00000000000E+00  0.00000000000E+00  0.45593999997E+02  0.45594000000E+02  0.51100000000E-03 0.  1.
         11   -1    0    0    0    0 -0.00000000000E+00 -0.00000000000E+00 -0.45593999997E+02  0.45594000000E+02  0.51100000000E-03 0. -1.
    9900012    2    1    2    0    0 -0.15770308589E+02  0.95058991155E+01 -0.34079408945E+01  0.72461579837E+02  0.70000012431E+02 0.  0.
         12    1    1    2    0    0  0.15770308589E+02 -0.95058991155E+01  0.34079408945E+01  0.18726420163E+02  0.00000000000E+00 0. -1.
         11    1    3    3    0    0  0.10740756244E+02  0.67077608903E+01  0.16196343164E+01  0.12766405776E+02  0.51100000000E-03 0. -1.
        -11    1    3    3    0    0 -0.81473787453E+01 -0.19158049057E+02 -0.18690939611E+02  0.27977881405E+02  0.51100000000E-03 0.  1.
        -12    1    3    3    0    0 -0.18363686087E+02  0.21956187283E+02  0.13663364401E+02  0.31717292656E+02  0.00000000000E+00 0.  1.
</event>
<event>
 7    1  0.1375918E-013  0.7246126E+02  0.7816164E-02  0.1226709E+00
        -11   -1    0    0    0    0  0.00000000000E+00  0.00000000000E+00  0.45593999997E+02  0.45594000000E+02  0.51100000000E-03 0.  1.
         11   -1    0    0    0    0 -0.00000000000E+00 -0.00000000000E+00 -0.45593999997E+02  0.45594000000E+02  0.51100000000E-03 0. -1.
    9900012    2    1    2    0    0  0.72389948953E+01 -0.16709102435E+02  0.43696123257E+01  0.72461263414E+02  0.69999600230E+02 0.  0.
         12    1    1    2    0    0 -0.72389948953E+01  0.16709102435E+02 -0.43696123257E+01  0.18726736586E+02  0.00000000000E+00 0. -1.
         11    1    3    3    0    0 -0.19143462977E+02 -0.19475233881E+02 -0.75460000579E+01  0.28331943573E+02  0.51100000000E-03 0. -1.
        -11    1    3    3    0    0  0.18497674890E+02  0.16981610154E+02  0.22359912328E+01  0.25209893233E+02  0.51100000000E-03 0.  1.
        -12    1    3    3    0    0  0.78847829822E+01 -0.14215478708E+02  0.96796211508E+01  0.18919426609E+02  0.00000000000E+00 0.  1.
</event>
<event>
 7    1  0.1375918E-013  0.7246158E+02  0.7816164E-02  0.1226708E+00
        -11   -1    0    0    0    0  0.00000000000E+00  0.00000000000E+00  0.45593999997E+02  0.45594000000E+02  0.51100000000E-03 0. -1.
         11   -1    0    0    0    0 -0.00000000000E+00 -0.00000000000E+00 -0.45593999997E+02  0.45594000000E+02  0.51100000000E-03 0.  1.
    9900012    2    1    2    0    0  0.95087881388E+01 -0.36991272916E+01 -0.15702806791E+02  0.72461581877E+02  0.70000015089E+02 0.  0.
         12    1    1    2    0    0 -0.95087881388E+01  0.36991272916E+01  0.15702806791E+02  0.18726418123E+02  0.00000000000E+00 0. -1.
         11    1    3    3    0    0 -0.43893572814E+01 -0.20242326174E+02 -0.15350279693E+02  0.25780793495E+02  0.51100000000E-03 0.  1.
        -11    1    3    3    0    0 -0.12482281463E+02  0.11909069174E+02  0.74369511228E+01  0.18786737912E+02  0.51100000000E-03 0. -1.
        -12    1    3    3    0    0  0.26380426883E+02  0.46341297092E+01 -0.77894782210E+01  0.27894050471E+02  0.00000000000E+00 0.  1.
</event>
<event>
 7    1  0.1375918E-013  0.7246156E+02  0.7816164E-02  0.1226708E+00
        -11   -1    0    0    0    0  0.00000000000E+00  0.00000000000E+00  0.45593999997E+02  0.45594000000E+02  0.51100000000E-03 0.  1.
         11   -1    0    0    0    0 -0.00000000000E+00 -0.00000000000E+00 -0.45593999997E+02  0.45594000000E+02  0.51100000000E-03 0. -1.
    9900012    2    1    2    0    0 -0.17820600890E+02 -0.41090978309E+01  0.40275225435E+01  0.72461563101E+02  0.69999990630E+02 0.  0.
         12    1    1    2    0    0  0.17820600890E+02  0.41090978309E+01 -0.40275225435E+01  0.18726436899E+02  0.00000000000E+00 0. -1.
         11    1    3    3    0    0 -0.98183170578E+01 -0.20315551558E+02  0.47134137787E+01  0.23050753885E+02  0.51100000000E-03 0. -1.
        -11    1    3    3    0    0 -0.14946079301E+02  0.29877219382E+02  0.32952944307E+01  0.33569219385E+02  0.51100000000E-03 0.  1.
        -12    1    3    3    0    0  0.69437954684E+01 -0.13670765654E+02 -0.39811856659E+01  0.15841589831E+02  0.00000000000E+00 0.  1.
</event>
<event>
 7    1  0.1375918E-013  0.7246180E+02  0.7816164E-02  0.1226707E+00
        -11   -1    0    0    0    0  0.00000000000E+00  0.00000000000E+00  0.45593999997E+02  0.45594000000E+02  0.51100000000E-03 0.  1.
         11   -1    0    0    0    0 -0.00000000000E+00 -0.00000000000E+00 -0.45593999997E+02  0.45594000000E+02  0.51100000000E-03 0. -1.
    9900012    2    1    2    0    0 -0.33402117939E+01 -0.15162962745E+02  0.10468908154E+02  0.72461801988E+02  0.70000301824E+02 0.  0.
         12    1    1    2    0    0  0.33402117939E+01  0.15162962745E+02 -0.10468908154E+02  0.18726198012E+02  0.00000000000E+00 0. -1.
         11    1    3    3    0    0 -0.10155288390E+02 -0.34103949035E+01 -0.16695438311E+02  0.19836792491E+02  0.51100000000E-03 0. -1.
        -11    1    3    3    0    0 -0.85381984632E+01 -0.11623974278E+02  0.33145370052E+02  0.36147381194E+02  0.51100000000E-03 0.  1.
        -12    1    3    3    0    0  0.15353275059E+02 -0.12859356355E+00 -0.59810235878E+01  0.16477628303E+02  0.00000000000E+00 0.  1.
</event>
<event>
 7    1  0.1375918E-013  0.7246228E+02  0.7816164E-02  0.1226706E+00
        -11   -1    0    0    0    0  0.00000000000E+00  0.00000000000E+00  0.45593999997E+02  0.45594000000E+02  0.51100000000E-03 0. -1.
         11   -1    0    0    0    0 -0.00000000000E+00 -0.00000000000E+00 -0.45593999997E+02  0.45594000000E+02  0.51100000000E-03 0.  1.
    9900012    2    1    2    0    0  0.13698532982E+02 -0.47817162507E+01 -0.11837996441E+02  0.72462275023E+02  0.70000918034E+02 0.  0.
         12    1    1    2    0    0 -0.13698532982E+02  0.47817162507E+01  0.11837996441E+02  0.18725724977E+02  0.00000000000E+00 0. -1.
         11    1    3    3    0    0  0.21001259887E+02  0.80675475690E+01  0.17437880634E+02  0.28464327181E+02  0.51100000000E-03 0. -1.
        -11    1    3    3    0    0 -0.53551394108E+00 -0.19079669817E+02 -0.29095624010E+02  0.34797642339E+02  0.51100000000E-03 0.  1.
         12    1    3    3    0    0 -0.67672129635E+01  0.62304059977E+01 -0.18025306416E+00  0.92003055035E+01  0.00000000000E+00 0. -1.
</event>
<event>
 7    1  0.1375918E-013  0.7246161E+02  0.7816164E-02  0.1226708E+00
        -11   -1    0    0    0    0  0.00000000000E+00  0.00000000000E+00  0.45593999997E+02  0.45594000000E+02  0.51100000000E-03 0. -1.
         11   -1    0    0    0    0 -0.00000000000E+00 -0.00000000000E+00 -0.45593999997E+02  0.45594000000E+02  0.51100000000E-03 0.  1.
    9900012    2    1    2    0    0  0.78257856953E+01 -0.49335930026E+01 -0.16281715248E+02  0.72461614522E+02  0.70000057615E+02 0.  0.
         12    1    1    2    0    0 -0.78257856953E+01  0.49335930026E+01  0.16281715248E+02  0.18726385478E+02  0.00000000000E+00 0. -1.
         11    1    3    3    0    0  0.72091067849E+01  0.51600741120E+01  0.19419772158E+02  0.21347719700E+02  0.51100000000E-03 0. -1.
        -11    1    3    3    0    0  0.80095328113E+01 -0.18003790318E+02 -0.35121090349E+02  0.40271330612E+02  0.51100000000E-03 0.  1.
        -12    1    3    3    0    0 -0.73928539010E+01  0.79101232037E+01 -0.58039705610E+00  0.10842564210E+02  0.00000000000E+00 0.  1.
</event>
<event>
 7    1  0.1375918E-013  0.7246168E+02  0.7816164E-02  0.1226708E+00
        -11   -1    0    0    0    0  0.00000000000E+00  0.00000000000E+00  0.45593999997E+02  0.45594000000E+02  0.51100000000E-03 0.  1.
         11   -1    0    0    0    0 -0.00000000000E+00 -0.00000000000E+00 -0.45593999997E+02  0.45594000000E+02  0.51100000000E-03 0. -1.
    9900012    2    1    2    0    0 -0.17352776026E+02 -0.18652246343E+01  0.67880076742E+01  0.72461683039E+02  0.70000146871E+02 0.  0.
         12    1    1    2    0    0  0.17352776026E+02  0.18652246343E+01 -0.67880076742E+01  0.18726316961E+02  0.00000000000E+00 0. -1.
         11    1    3    3    0    0 -0.38206185608E+01  0.14640895626E+02 -0.14998432024E+01  0.15205343824E+02  0.51100000000E-03 0.  1.
        -11    1    3    3    0    0  0.15199806733E+02 -0.14838284303E+02  0.16977562509E+02  0.27192764383E+02  0.51100000000E-03 0. -1.
        -12    1    3    3    0    0 -0.28731964198E+02 -0.16678359579E+01 -0.86897116319E+01  0.30063574832E+02  0.00000000000E+00 0.  1.
</event>
<event>
 7    1  0.1375918E-013  0.7246157E+02  0.7816164E-02  0.1226708E+00
        -11   -1    0    0    0    0  0.00000000000E+00  0.00000000000E+00  0.45593999997E+02  0.45594000000E+02  0.51100000000E-03 0.  1.
         11   -1    0    0    0    0 -0.00000000000E+00 -0.00000000000E+00 -0.45593999997E+02  0.45594000000E+02  0.51100000000E-03 0. -1.
    9900012    2    1    2    0    0  0.26763355485E+00 -0.18654427037E+02 -0.16186438824E+01  0.72461567243E+02  0.69999996025E+02 0.  0.
         12    1    1    2    0    0 -0.26763355485E+00  0.18654427037E+02  0.16186438824E+01  0.18726432757E+02  0.00000000000E+00 0. -1.
         11    1    3    3    0    0  0.16731005051E+02  0.18412032588E+02 -0.55196183224E+01  0.25483242743E+02  0.51100000000E-03 0. -1.
        -11    1    3    3    0    0 -0.14017048239E+02 -0.26284513984E+02  0.13151812709E+02  0.32562608841E+02  0.51100000000E-03 0.  1.
        -12    1    3    3    0    0 -0.24463232573E+01 -0.10781945641E+02 -0.92508382695E+01  0.14415715659E+02  0.00000000000E+00 0.  1.
</event>
<event>
 7    1  0.1375918E-013  0.7246181E+02  0.7816164E-02  0.1226707E+00
        -11   -1    0    0    0    0  0.00000000000E+00  0.00000000000E+00  0.45593999997E+02  0.45594000000E+02  0.51100000000E-03 0.  1.
         11   -1    0    0    0    0 -0.00000000000E+00 -0.00000000000E+00 -0.45593999997E+02  0.45594000000E+02  0.51100000000E-03 0. -1.
    9900012    2    1    2    0    0  0.62460768350E+01 -0.16285657156E+02  0.68142528246E+01  0.72461811216E+02  0.70000313844E+02 0.  0.
         12    1    1    2    0    0 -0.62460768350E+01  0.16285657156E+02 -0.68142528246E+01  0.18726188784E+02  0.00000000000E+00 0. -1.
         11    1    3    3    0    0  0.10288681267E+00 -0.26190522219E+02 -0.81355927750E+01  0.27425205740E+02  0.51100000000E-03 0. -1.
        -11    1    3    3    0    0 -0.11191156203E+02  0.15252363376E+02  0.18602963517E+02  0.26531996110E+02  0.51100000000E-03 0.  1.
         12    1    3    3    0    0  0.17334346226E+02 -0.53474983130E+01 -0.36531179171E+01  0.18504609366E+02  0.00000000000E+00 0. -1.
</event>
<event>
 7    1  0.1375918E-013  0.7246162E+02  0.7816164E-02  0.1226708E+00
        -11   -1    0    0    0    0  0.00000000000E+00  0.00000000000E+00  0.45593999997E+02  0.45594000000E+02  0.51100000000E-03 0. -1.
         11   -1    0    0    0    0 -0.00000000000E+00 -0.00000000000E+00 -0.45593999997E+02  0.45594000000E+02  0.51100000000E-03 0.  1.
    9900012    2    1    2    0    0  0.15021096117E+02 -0.97140882298E+01 -0.55389888375E+01  0.72461621919E+02  0.70000067251E+02 0.  0.
         12    1    1    2    0    0 -0.15021096117E+02  0.97140882298E+01  0.55389888375E+01  0.18726378081E+02  0.00000000000E+00 0. -1.
         11    1    3    3    0    0  0.21914358343E+02  0.23954811822E+02  0.30892972070E+01  0.32613124176E+02  0.51100000000E-03 0. -1.
        -11    1    3    3    0    0 -0.12433669572E+02 -0.21745687661E+02 -0.92079112927E+01  0.26688137843E+02  0.51100000000E-03 0.  1.
         12    1    3    3    0    0  0.55404073459E+01 -0.11923212390E+02  0.57962524828E+00  0.13160359900E+02  0.00000000000E+00 0. -1.
</event>
<event>
 7    1  0.1375918E-013  0.7246156E+02  0.7816164E-02  0.1226708E+00
        -11   -1    0    0    0    0  0.00000000000E+00  0.00000000000E+00  0.45593999997E+02  0.45594000000E+02  0.51100000000E-03 0. -1.
         11   -1    0    0    0    0 -0.00000000000E+00 -0.00000000000E+00 -0.45593999997E+02  0.45594000000E+02  0.51100000000E-03 0.  1.
    9900012    2    1    2    0    0 -0.15024751720E+02 -0.11114094274E+02 -0.11887772527E+01  0.72461562882E+02  0.69999990345E+02 0.  0.
         12    1    1    2    0    0  0.15024751720E+02  0.11114094274E+02  0.11887772527E+01  0.18726437118E+02  0.00000000000E+00 0. -1.
         11    1    3    3    0    0  0.10106026170E+02 -0.32926323292E+01  0.26137791640E+02  0.28216260289E+02  0.51100000000E-03 0. -1.
        -11    1    3    3    0    0 -0.20609107369E+01 -0.70436020164E+01 -0.17837089980E+02  0.19287857881E+02  0.51100000000E-03 0.  1.
         12    1    3    3    0    0 -0.23069867153E+02 -0.77785992805E+00 -0.94894789125E+01  0.24957444712E+02  0.00000000000E+00 0. -1.
</event>
<event>
 7    1  0.1375918E-013  0.7246158E+02  0.7816164E-02  0.1226708E+00
        -11   -1    0    0    0    0  0.00000000000E+00  0.00000000000E+00  0.45593999997E+02  0.45594000000E+02  0.51100000000E-03 0. -1.
         11   -1    0    0    0    0 -0.00000000000E+00 -0.00000000000E+00 -0.45593999997E+02  0.45594000000E+02  0.51100000000E-03 0.  1.
    9900012    2    1    2    0    0  0.18584757113E+02  0.18487870785E+00 -0.22916362641E+01  0.72461575519E+02  0.70000006806E+02 0.  0.
         12    1    1    2    0    0 -0.18584757113E+02 -0.18487870785E+00  0.22916362641E+01  0.18726424481E+02  0.00000000000E+00 0. -1.
         11    1    3    3    0    0 -0.50289525127E+01  0.17173368642E+01  0.13426776116E+02  0.14440149806E+02  0.51100000000E-03 0. -1.
        -11    1    3    3    0    0  0.28498506964E+02  0.16164700462E+02 -0.21002175110E+02  0.38917268658E+02  0.51100000000E-03 0.  1.
        -12    1    3    3    0    0 -0.48847973377E+01 -0.17697158618E+02  0.52837627298E+01  0.19104157055E+02  0.00000000000E+00 0.  1.
</event>
<event>
 7    1  0.1375918E-013  0.7246158E+02  0.7816164E-02  0.1226708E+00
        -11   -1    0    0    0    0  0.00000000000E+00  0.00000000000E+00  0.45593999997E+02  0.45594000000E+02  0.51100000000E-03 0. -1.
         11   -1    0    0    0    0 -0.00000000000E+00 -0.00000000000E+00 -0.45593999997E+02  0.45594000000E+02  0.51100000000E-03 0.  1.
    9900012    2    1    2    0    0 -0.12715125494E+02 -0.13655239776E+02  0.15934142365E+01  0.72461575926E+02  0.70000007336E+02 0.  0.
         12    1    1    2    0    0  0.12715125494E+02  0.13655239776E+02 -0.15934142365E+01  0.18726424074E+02  0.00000000000E+00 0. -1.
         11    1    3    3    0    0  0.13590390903E+02  0.84983184003E+01  0.16796308770E+02  0.23217151614E+02  0.51100000000E-03 0. -1.
        -11    1    3    3    0    0 -0.16223355457E+02 -0.78356862926E+01 -0.23707912109E+02  0.29776842324E+02  0.51100000000E-03 0.  1.
         12    1    3    3    0    0 -0.10082160940E+02 -0.14317871883E+02  0.85050175757E+01  0.19467581988E+02  0.00000000000E+00 0. -1.
</event>
<event>
 7    1  0.1375918E-013  0.7246155E+02  0.7816164E-02  0.1226708E+00
        -11   -1    0    0    0    0  0.00000000000E+00  0.00000000000E+00  0.45593999997E+02  0.45594000000E+02  0.51100000000E-03 0. -1.
         11   -1    0    0    0    0 -0.00000000000E+00 -0.00000000000E+00 -0.45593999997E+02  0.45594000000E+02  0.51100000000E-03 0.  1.
    9900012    2    1    2    0    0 -0.92023126558E+01  0.53436542655E+01 -0.15409182707E+02  0.72461545162E+02  0.69999967260E+02 0.  0.
         12    1    1    2    0    0  0.92023126558E+01 -0.53436542655E+01  0.15409182707E+02  0.18726454838E+02  0.00000000000E+00 0. -1.
         11    1    3    3    0    0 -0.24829801641E+02 -0.84600967410E+00  0.15334007504E+02  0.29195317574E+02  0.51100000000E-03 0. -1.
        -11    1    3    3    0    0  0.75340066186E+01  0.15956797298E+02 -0.16029299659E+02  0.23839443860E+02  0.51100000000E-03 0.  1.
        -12    1    3    3    0    0  0.80934823662E+01 -0.97671333579E+01 -0.14713890551E+02  0.19426783727E+02  0.00000000000E+00 0.  1.
</event>
<event>
 7    1  0.1375918E-013  0.7246160E+02  0.7816164E-02  0.1226708E+00
        -11   -1    0    0    0    0  0.00000000000E+00  0.00000000000E+00  0.45593999997E+02  0.45594000000E+02  0.51100000000E-03 0. -1.
         11   -1    0    0    0    0 -0.00000000000E+00 -0.00000000000E+00 -0.45593999997E+02  0.45594000000E+02  0.51100000000E-03 0.  1.
    9900012    2    1    2    0    0  0.16447114304E+02  0.81726761819E+01 -0.36575701121E+01  0.72461600879E+02  0.70000039842E+02 0.  0.
         12    1    1    2    0    0 -0.16447114304E+02 -0.81726761819E+01  0.36575701121E+01  0.18726399121E+02  0.00000000000E+00 0. -1.
         11    1    3    3    0    0  0.37385754680E+01 -0.97369490110E+01  0.20827289950E+02  0.23292941624E+02  0.51100000000E-03 0. -1.
        -11    1    3    3    0    0 -0.37240804578E+01  0.21210706681E+02 -0.24214837842E+02  0.32405573983E+02  0.51100000000E-03 0.  1.
        -12    1    3    3    0    0  0.16432619294E+02 -0.33010814878E+01 -0.27002221966E+00  0.16763085273E+02  0.00000000000E+00 0.  1.
</event>
<event>
 7    1  0.1375918E-013  0.7246156E+02  0.7816164E-02  0.1226708E+00
        -11   -1    0    0    0    0  0.00000000000E+00  0.00000000000E+00  0.45593999997E+02  0.45594000000E+02  0.51100000000E-03 0.  1.
         11   -1    0    0    0    0 -0.00000000000E+00 -0.00000000000E+00 -0.45593999997E+02  0.45594000000E+02  0.51100000000E-03 0. -1.
    9900012    2    1    2    0    0  0.16878812526E+02  0.25256834044E+01  0.77075367678E+01  0.72461561150E+02  0.69999988088E+02 0.  0.
         12    1    1    2    0    0 -0.16878812526E+02 -0.25256834044E+01 -0.77075367678E+01  0.18726438850E+02  0.00000000000E+00 0. -1.
         11    1    3    3    0    0 -0.19369863643E+01  0.91600507110E+01 -0.69547489286E+01  0.11663060410E+02  0.51100000000E-03 0. -1.
        -11    1    3    3    0    0 -0.22459003571E+01 -0.14978657954E+01  0.32568805116E+02  0.32680494753E+02  0.51100000000E-03 0.  1.
        -12    1    3    3    0    0  0.21061699248E+02 -0.51365015112E+01 -0.17906519420E+02  0.28118005987E+02  0.00000000000E+00 0.  1.
</event>
<event>
 7    1  0.1375918E-013  0.7246162E+02  0.7816164E-02  0.1226708E+00
        -11   -1    0    0    0    0  0.00000000000E+00  0.00000000000E+00  0.45593999997E+02  0.45594000000E+02  0.51100000000E-03 0.  1.
         11   -1    0    0    0    0 -0.00000000000E+00 -0.00000000000E+00 -0.45593999997E+02  0.45594000000E+02  0.51100000000E-03 0. -1.
    9900012    2    1    2    0    0  0.69881110500E+01  0.17469444780E+01  0.17285591655E+02  0.72461623150E+02  0.70000068854E+02 0.  0.
         12    1    1    2    0    0 -0.69881110500E+01 -0.17469444780E+01 -0.17285591655E+02  0.18726376850E+02  0.00000000000E+00 0. -1.
         11    1    3    3    0    0  0.13112685957E+02  0.19832508608E+02 -0.87119932393E+01  0.25321330083E+02  0.51100000000E-03 0. -1.
        -11    1    3    3    0    0  0.14998267965E+01 -0.24816705494E+02  0.27256419473E+02  0.36892150314E+02  0.51100000000E-03 0.  1.
         12    1    3    3    0    0 -0.76244017031E+01  0.67311413643E+01 -0.12588345788E+01  0.10248142753E+02  0.00000000000E+00 0. -1.
</event>
<event>
 7    1  0.1375918E-013  0.7246168E+02  0.7816164E-02  0.1226708E+00
        -11   -1    0    0    0    0  0.00000000000E+00  0.00000000000E+00  0.45593999997E+02  0.45594000000E+02  0.51100000000E-03 0.  1.
         11   -1    0    0    0    0 -0.00000000000E+00 -0.00000000000E+00 -0.45593999997E+02  0.45594000000E+02  0.51100000000E-03 0. -1.
    9900012    2    1    2    0    0 -0.55024969862E+01 -0.57775480652E+01  0.16941596481E+02  0.72461675586E+02  0.70000137162E+02 0.  0.
         12    1    1    2    0    0  0.55024969862E+01  0.57775480652E+01 -0.16941596481E+02  0.18726324414E+02  0.00000000000E+00 0. -1.
         11    1    3    3    0    0 -0.25262151704E+01  0.24753450680E+02 -0.14106022690E+02  0.28602359344E+02  0.51100000000E-03 0. -1.
        -11    1    3    3    0    0 -0.28902145763E+00 -0.14358801761E+02  0.17134418455E+02  0.22357258720E+02  0.51100000000E-03 0.  1.
         12    1    3    3    0    0 -0.26872603581E+01 -0.16172196984E+02  0.13913200716E+02  0.21502057522E+02  0.00000000000E+00 0. -1.
</event>
<event>
 7    1  0.1375918E-013  0.7246155E+02  0.7816164E-02  0.1226708E+00
        -11   -1    0    0    0    0  0.00000000000E+00  0.00000000000E+00  0.45593999997E+02  0.45594000000E+02  0.51100000000E-03 0.  1.
         11   -1    0    0    0    0 -0.00000000000E+00 -0.00000000000E+00 -0.45593999997E+02  0.45594000000E+02  0.51100000000E-03 0. -1.
    9900012    2    1    2    0    0  0.13663251842E+02  0.18722046456E+00  0.12804708561E+02  0.72461546418E+02  0.69999968897E+02 0.  0.
         12    1    1    2    0    0 -0.13663251842E+02 -0.18722046456E+00 -0.12804708561E+02  0.18726453582E+02  0.00000000000E+00 0. -1.
         11    1    3    3    0    0  0.26298619931E+00  0.10406142162E+02 -0.10841406928E+02  0.15029739215E+02  0.51100000000E-03 0. -1.
        -11    1    3    3    0    0 -0.14461382174E+02 -0.18302676514E+02  0.10359134754E+02  0.25523150571E+02  0.51100000000E-03 0.  1.
        -12    1    3    3    0    0  0.27861647817E+02  0.80837548163E+01  0.13286980735E+02  0.31908656632E+02  0.00000000000E+00 0.  1.
</event>
<event>
 7    1  0.1375918E-013  0.7246150E+02  0.7816164E-02  0.1226708E+00
        -11   -1    0    0    0    0  0.00000000000E+00  0.00000000000E+00  0.45593999997E+02  0.45594000000E+02  0.51100000000E-03 0. -1.
         11   -1    0    0    0    0 -0.00000000000E+00 -0.00000000000E+00 -0.45593999997E+02  0.45594000000E+02  0.51100000000E-03 0.  1.
    9900012    2    1    2    0    0  0.12311584518E+02  0.13536451473E+02 -0.39838403705E+01  0.72461504975E+02  0.69999914909E+02 0.  0.
         12    1    1    2    0    0 -0.12311584518E+02 -0.13536451473E+02  0.39838403705E+01  0.18726495025E+02  0.00000000000E+00 0. -1.
         11    1    3    3    0    0  0.40267819538E+02  0.82075671156E+01 -0.80095198469E+00  0.41103563989E+02  0.51100000000E-03 0. -1.
        -11    1    3    3    0    0 -0.73418511491E+01 -0.17942146848E+01 -0.56107301094E+01  0.94128782661E+01  0.51100000000E-03 0.  1.
         12    1    3    3    0    0 -0.20614383870E+02  0.71230990426E+01  0.24278417236E+01  0.21945062720E+02  0.00000000000E+00 0. -1.
</event>
<event>
 7    1  0.1375918E-013  0.7246148E+02  0.7816164E-02  0.1226708E+00
        -11   -1    0    0    0    0  0.00000000000E+00  0.00000000000E+00  0.45593999997E+02  0.45594000000E+02  0.51100000000E-03 0. -1.
         11   -1    0    0    0    0 -0.00000000000E+00 -0.00000000000E+00 -0.45593999997E+02  0.45594000000E+02  0.51100000000E-03 0.  1.
    9900012    2    1    2    0    0  0.33354707120E+01 -0.15583686561E+02 -0.98339120484E+01  0.72461481960E+02  0.69999884928E+02 0.  0.
         12    1    1    2    0    0 -0.33354707120E+01  0.15583686561E+02  0.98339120484E+01  0.18726518040E+02  0.00000000000E+00 0. -1.
         11    1    3    3    0    0 -0.39078364967E+01  0.76105131731E+01  0.21407969031E+02  0.23054115362E+02  0.51100000000E-03 0. -1.
        -11    1    3    3    0    0  0.53552137829E+01 -0.28001644521E+02 -0.33309498057E+02  0.43843962773E+02  0.51100000000E-03 0.  1.
        -12    1    3    3    0    0  0.18880934258E+01  0.48074447863E+01  0.20676169784E+01  0.55634038257E+01  0.00000000000E+00 0.  1.
</event>
<event>
 7    1  0.1375918E-013  0.7246156E+02  0.7816164E-02  0.1226708E+00
        -11   -1    0    0    0    0  0.00000000000E+00  0.00000000000E+00  0.45593999997E+02  0.45594000000E+02  0.51100000000E-03 0. -1.
         11   -1    0    0    0    0 -0.00000000000E+00 -0.00000000000E+00 -0.45593999997E+02  0.45594000000E+02  0.51100000000E-03 0.  1.
    9900012    2    1    2    0    0  0.17147874453E+02  0.57024121435E+01 -0.49104537635E+01  0.72461557234E+02  0.69999982986E+02 0.  0.
         12    1    1    2    0    0 -0.17147874453E+02 -0.57024121435E+01  0.49104537635E+01  0.18726442766E+02  0.00000000000E+00 0. -1.
         11    1    3    3    0    0 -0.18223306020E+02  0.10852856886E+02 -0.20345583396E+02  0.29390749375E+02  0.51100000000E-03 0. -1.
        -11    1    3    3    0    0  0.10562207344E+02 -0.85195676974E+01 -0.16631160365E+00  0.13570958608E+02  0.51100000000E-03 0.  1.
         12    1    3    3    0    0  0.24808973128E+02  0.33691229550E+01  0.15601441236E+02  0.29499849250E+02  0.00000000000E+00 0. -1.
</event>
<event>
 7    1  0.1375918E-013  0.7246177E+02  0.7816164E-02  0.1226707E+00
        -11   -1    0    0    0    0  0.00000000000E+00  0.00000000000E+00  0.45593999997E+02  0.45594000000E+02  0.51100000000E-03 0.  1.
         11   -1    0    0    0    0 -0.00000000000E+00 -0.00000000000E+00 -0.45593999997E+02  0.45594000000E+02  0.51100000000E-03 0. -1.
    9900012    2    1    2    0    0 -0.38153567088E+01 -0.14308261043E+02  0.11462479617E+02  0.72461769203E+02  0.70000259115E+02 0.  0.
         12    1    1    2    0    0  0.38153567088E+01  0.14308261043E+02 -0.11462479617E+02  0.18726230797E+02  0.00000000000E+00 0. -1.
         11    1    3    3    0    0 -0.11334534086E+02 -0.12954290648E+02 -0.35863451026E+01  0.17582581739E+02  0.51100000000E-03 0. -1.
        -11    1    3    3    0    0  0.14687867530E+00  0.16581219112E+02  0.27300507192E+02  0.31941760969E+02  0.51100000000E-03 0.  1.
        -12    1    3    3    0    0  0.73722987022E+01 -0.17935189507E+02 -0.12251682472E+02  0.22937426495E+02  0.00000000000E+00 0.  1.
</event>
<event>
 7    1  0.1375918E-013  0.7246156E+02  0.7816164E-02  0.1226708E+00
        -11   -1    0    0    0    0  0.00000000000E+00  0.00000000000E+00  0.45593999997E+02  0.45594000000E+02  0.51100000000E-03 0. -1.
         11   -1    0    0    0    0 -0.00000000000E+00 -0.00000000000E+00 -0.45593999997E+02  0.45594000000E+02  0.51100000000E-03 0.  1.
    9900012    2    1    2    0    0  0.15159677942E+02  0.10188760519E+02 -0.41294957742E+01  0.72461563831E+02  0.69999991580E+02 0.  0.
         12    1    1    2    0    0 -0.15159677942E+02 -0.10188760519E+02  0.41294957742E+01  0.18726436169E+02  0.00000000000E+00 0. -1.
         11    1    3    3    0    0 -0.16130139550E+02 -0.13134949231E+02  0.25168351278E+01  0.20953347048E+02  0.51100000000E-03 0. -1.
        -11    1    3    3    0    0  0.32481111712E+02  0.29706392221E+02 -0.83353481840E+01  0.44799223056E+02  0.51100000000E-03 0.  1.
        -12    1    3    3    0    0 -0.11912942189E+01 -0.63826824710E+01  0.16890172820E+01  0.67089937264E+01  0.00000000000E+00 0.  1.
</event>
<event>
 7    1  0.1375918E-013  0.7246157E+02  0.7816164E-02  0.1226708E+00
        -11   -1    0    0    0    0  0.00000000000E+00  0.00000000000E+00  0.45593999997E+02  0.45594000000E+02  0.51100000000E-03 0.  1.
         11   -1    0    0    0    0 -0.00000000000E+00 -0.00000000000E+00 -0.45593999997E+02  0.45594000000E+02  0.51100000000E-03 0. -1.
    9900012    2    1    2    0    0 -0.77587750469E+01 -0.14019536283E+02  0.96919175031E+01  0.72461568073E+02  0.69999997106E+02 0.  0.
         12    1    1    2    0    0  0.77587750469E+01  0.14019536283E+02 -0.96919175031E+01  0.18726431927E+02  0.00000000000E+00 0. -1.
         11    1    3    3    0    0 -0.70259866958E+01 -0.35677155817E+02 -0.57227518151E+01  0.36809969096E+02  0.51100000000E-03 0. -1.
        -11    1    3    3    0    0  0.87642234366E+01  0.14037804322E+02  0.16572737205E+02  0.23420657150E+02  0.51100000000E-03 0.  1.
         12    1    3    3    0    0 -0.94970117877E+01  0.76198152108E+01 -0.11580678865E+01  0.12230941827E+02  0.00000000000E+00 0. -1.
</event>
<event>
 7    1  0.1375918E-013  0.7246155E+02  0.7816164E-02  0.1226708E+00
        -11   -1    0    0    0    0  0.00000000000E+00  0.00000000000E+00  0.45593999997E+02  0.45594000000E+02  0.51100000000E-03 0. -1.
         11   -1    0    0    0    0 -0.00000000000E+00 -0.00000000000E+00 -0.45593999997E+02  0.45594000000E+02  0.51100000000E-03 0.  1.
    9900012    2    1    2    0    0  0.83556805435E+01 -0.13684090208E+02 -0.96751376939E+01  0.72461547812E+02  0.69999970712E+02 0.  0.
         12    1    1    2    0    0 -0.83556805435E+01  0.13684090208E+02  0.96751376939E+01  0.18726452188E+02  0.00000000000E+00 0. -1.
         11    1    3    3    0    0  0.26797880989E+01  0.81647385491E+00  0.97482186296E+01  0.10142763949E+02  0.51100000000E-03 0. -1.
        -11    1    3    3    0    0  0.43956317792E+00 -0.11919272479E+02 -0.39577720442E+02  0.41335919343E+02  0.51100000000E-03 0.  1.
        -12    1    3    3    0    0  0.52363292667E+01 -0.25812915836E+01  0.20154364119E+02  0.20982864520E+02  0.00000000000E+00 0.  1.
</event>
<event>
 7    1  0.1375918E-013  0.7246156E+02  0.7816164E-02  0.1226708E+00
        -11   -1    0    0    0    0  0.00000000000E+00  0.00000000000E+00  0.45593999997E+02  0.45594000000E+02  0.51100000000E-03 0.  1.
         11   -1    0    0    0    0 -0.00000000000E+00 -0.00000000000E+00 -0.45593999997E+02  0.45594000000E+02  0.51100000000E-03 0. -1.
    9900012    2    1    2    0    0 -0.87229800084E+01  0.11235253046E+02  0.12180245915E+02  0.72461556617E+02  0.69999982182E+02 0.  0.
         12    1    1    2    0    0  0.87229800084E+01 -0.11235253046E+02 -0.12180245915E+02  0.18726443383E+02  0.00000000000E+00 0. -1.
         11    1    3    3    0    0  0.29149865392E+01 -0.33214985598E+01  0.30958813712E+02  0.31272634138E+02  0.51100000000E-03 0. -1.
        -11    1    3    3    0    0  0.22879565355E+01  0.17714662973E+02 -0.33669400800E+00  0.17864976699E+02  0.51100000000E-03 0.  1.
         12    1    3    3    0    0 -0.13925923083E+02 -0.31579113667E+01 -0.18441873788E+02  0.23323945780E+02  0.00000000000E+00 0. -1.
</event>
<event>
 7    1  0.1375918E-013  0.7246161E+02  0.7816164E-02  0.1226708E+00
        -11   -1    0    0    0    0  0.00000000000E+00  0.00000000000E+00  0.45593999997E+02  0.45594000000E+02  0.51100000000E-03 0.  1.
         11   -1    0    0    0    0 -0.00000000000E+00 -0.00000000000E+00 -0.45593999997E+02  0.45594000000E+02  0.51100000000E-03 0. -1.
    9900012    2    1    2    0    0  0.46419234635E+01 -0.56262789065E+01 -0.17247474810E+02  0.72461605389E+02  0.70000045718E+02 0.  0.
         12    1    1    2    0    0 -0.46419234635E+01  0.56262789065E+01  0.17247474810E+02  0.18726394611E+02  0.00000000000E+00 0. -1.
         11    1    3    3    0    0  0.23864325424E+02 -0.87999884315E+01 -0.36186864754E+02  0.44231606407E+02  0.51100000000E-03 0. -1.
        -11    1    3    3    0    0  0.53329307068E+00  0.70275760647E+00  0.16056883077E+01  0.18320766783E+01  0.51100000000E-03 0.  1.
         12    1    3    3    0    0 -0.19755695031E+02  0.24709519186E+01  0.17333701636E+02  0.26397922304E+02  0.00000000000E+00 0. -1.
</event>
<event>
 7    1  0.1375918E-013  0.7246154E+02  0.7816164E-02  0.1226708E+00
        -11   -1    0    0    0    0  0.00000000000E+00  0.00000000000E+00  0.45593999997E+02  0.45594000000E+02  0.51100000000E-03 0. -1.
         11   -1    0    0    0    0 -0.00000000000E+00 -0.00000000000E+00 -0.45593999997E+02  0.45594000000E+02  0.51100000000E-03 0.  1.
    9900012    2    1    2    0    0  0.30424278726E+01 -0.18477661214E+02 -0.32627338965E-02  0.72461538990E+02  0.69999959221E+02 0.  0.
         12    1    1    2    0    0 -0.30424278726E+01  0.18477661214E+02  0.32627338965E-02  0.18726461010E+02  0.00000000000E+00 0. -1.
         11    1    3    3    0    0 -0.19590692174E+02 -0.80870713512E+01  0.21952198825E+01  0.21307626181E+02  0.51100000000E-03 0. -1.
        -11    1    3    3    0    0  0.20720170251E+02  0.14906183119E+02 -0.34339975492E+01  0.25754845949E+02  0.51100000000E-03 0.  1.
        -12    1    3    3    0    0  0.19129497958E+01 -0.25296772982E+02  0.12355149328E+01  0.25399066860E+02  0.00000000000E+00 0.  1.
</event>
<event>
 7    1  0.1375918E-013  0.7246153E+02  0.7816164E-02  0.1226708E+00
        -11   -1    0    0    0    0  0.00000000000E+00  0.00000000000E+00  0.45593999997E+02  0.45594000000E+02  0.51100000000E-03 0. -1.
         11   -1    0    0    0    0 -0.00000000000E+00 -0.00000000000E+00 -0.45593999997E+02  0.45594000000E+02  0.51100000000E-03 0.  1.
    9900012    2    1    2    0    0 -0.18537686171E+02  0.26411222465E+01 -0.24355954814E+00  0.72461530590E+02  0.69999948278E+02 0.  0.
         12    1    1    2    0    0  0.18537686171E+02 -0.26411222465E+01  0.24355954814E+00  0.18726469410E+02  0.00000000000E+00 0. -1.
         11    1    3    3    0    0 -0.39982528120E+02  0.11033029747E+02 -0.86303847957E+01  0.42365243328E+02  0.51100000000E-03 0. -1.
        -11    1    3    3    0    0  0.10572530538E+02  0.48931254696E+01  0.22478138710E+01  0.11864811263E+02  0.51100000000E-03 0.  1.
         12    1    3    3    0    0  0.10872311411E+02 -0.13285032970E+02  0.61390113766E+01  0.18231475999E+02  0.00000000000E+00 0. -1.
</event>
<event>
 7    1  0.1375918E-013  0.7246159E+02  0.7816164E-02  0.1226708E+00
        -11   -1    0    0    0    0  0.00000000000E+00  0.00000000000E+00  0.45593999997E+02  0.45594000000E+02  0.51100000000E-03 0. -1.
         11   -1    0    0    0    0 -0.00000000000E+00 -0.00000000000E+00 -0.45593999997E+02  0.45594000000E+02  0.51100000000E-03 0.  1.
    9900012    2    1    2    0    0  0.16038792550E+02 -0.95941632611E+01  0.11778930952E+01  0.72461594384E+02  0.70000031381E+02 0.  0.
         12    1    1    2    0    0 -0.16038792550E+02  0.95941632611E+01 -0.11778930952E+01  0.18726405616E+02  0.00000000000E+00 0. -1.
         11    1    3    3    0    0  0.23185519783E+02 -0.34583108317E+01 -0.20747874040E+02  0.31304991916E+02  0.51100000000E-03 0. -1.
        -11    1    3    3    0    0  0.16947189426E+01  0.83677092006E+01  0.22598313995E+02  0.24157285138E+02  0.51100000000E-03 0.  1.
         12    1    3    3    0    0 -0.88414461751E+01 -0.14503561630E+02 -0.67254685941E+00  0.16999317330E+02  0.00000000000E+00 0. -1.
</event>
<event>
 7    1  0.1375918E-013  0.7246174E+02  0.7816164E-02  0.1226708E+00
        -11   -1    0    0    0    0  0.00000000000E+00  0.00000000000E+00  0.45593999997E+02  0.45594000000E+02  0.51100000000E-03 0. -1.
         11   -1    0    0    0    0 -0.00000000000E+00 -0.00000000000E+00 -0.45593999997E+02  0.45594000000E+02  0.51100000000E-03 0.  1.
    9900012    2    1    2    0    0  0.10927652725E+02 -0.13363304639E+02  0.72581770897E+01  0.72461744645E+02  0.70000227124E+02 0.  0.
         12    1    1    2    0    0 -0.10927652725E+02  0.13363304639E+02 -0.72581770897E+01  0.18726255355E+02  0.00000000000E+00 0. -1.
         11    1    3    3    0    0 -0.14252457788E+02 -0.31802166443E+02  0.17188867410E+02  0.38858300357E+02  0.51100000000E-03 0. -1.
        -11    1    3    3    0    0  0.55292745772E+01  0.10777688053E+01 -0.20692563550E+00  0.56371341502E+01  0.51100000000E-03 0.  1.
         12    1    3    3    0    0  0.19650835936E+02  0.17361092999E+02 -0.97237646852E+01  0.27966310138E+02  0.00000000000E+00 0. -1.
</event>
<event>
 7    1  0.1375918E-013  0.7246154E+02  0.7816164E-02  0.1226708E+00
        -11   -1    0    0    0    0  0.00000000000E+00  0.00000000000E+00  0.45593999997E+02  0.45594000000E+02  0.51100000000E-03 0. -1.
         11   -1    0    0    0    0 -0.00000000000E+00 -0.00000000000E+00 -0.45593999997E+02  0.45594000000E+02  0.51100000000E-03 0.  1.
    9900012    2    1    2    0    0 -0.42074731373E+01  0.17537342198E+02  0.50417425013E+01  0.72461538267E+02  0.69999958279E+02 0.  0.
         12    1    1    2    0    0  0.42074731373E+01 -0.17537342198E+02 -0.50417425013E+01  0.18726461733E+02  0.00000000000E+00 0. -1.
         11    1    3    3    0    0  0.11862366510E+02  0.11876643257E+02  0.20041938081E+02  0.26142870473E+02  0.51100000000E-03 0. -1.
        -11    1    3    3    0    0 -0.46712729354E+01 -0.75304854267E+01 -0.24788612072E+02  0.26324974650E+02  0.51100000000E-03 0.  1.
         12    1    3    3    0    0 -0.11398566712E+02  0.13191184368E+02  0.97884164926E+01  0.19993693144E+02  0.00000000000E+00 0. -1.
</event>
<event>
 7    1  0.1375918E-013  0.7246155E+02  0.7816164E-02  0.1226708E+00
        -11   -1    0    0    0    0  0.00000000000E+00  0.00000000000E+00  0.45593999997E+02  0.45594000000E+02  0.51100000000E-03 0.  1.
         11   -1    0    0    0    0 -0.00000000000E+00 -0.00000000000E+00 -0.45593999997E+02  0.45594000000E+02  0.51100000000E-03 0. -1.
    9900012    2    1    2    0    0  0.36652761641E+00 -0.15354033403E+02  0.10714445759E+02  0.72461547262E+02  0.69999969996E+02 0.  0.
         12    1    1    2    0    0 -0.36652761641E+00  0.15354033403E+02 -0.10714445759E+02  0.18726452738E+02  0.00000000000E+00 0. -1.
         11    1    3    3    0    0  0.10898026753E+02  0.15284329022E+02 -0.48474988917E+01  0.19387520381E+02  0.51100000000E-03 0. -1.
        -11    1    3    3    0    0  0.22303435671E+00 -0.28542478768E+02 -0.57442246011E+01  0.29115613596E+02  0.51100000000E-03 0.  1.
        -12    1    3    3    0    0 -0.10754533493E+02 -0.20958836567E+01  0.21306169251E+02  0.23958413285E+02  0.00000000000E+00 0.  1.
</event>
<event>
 7    1  0.1375918E-013  0.7246157E+02  0.7816164E-02  0.1226708E+00
        -11   -1    0    0    0    0  0.00000000000E+00  0.00000000000E+00  0.45593999997E+02  0.45594000000E+02  0.51100000000E-03 0. -1.
         11   -1    0    0    0    0 -0.00000000000E+00 -0.00000000000E+00 -0.45593999997E+02  0.45594000000E+02  0.51100000000E-03 0.  1.
    9900012    2    1    2    0    0 -0.20229420287E+01 -0.20317628558E+01 -0.18505644288E+02  0.72461568806E+02  0.69999998061E+02 0.  0.
         12    1    1    2    0    0  0.20229420287E+01  0.20317628558E+01  0.18505644288E+02  0.18726431194E+02  0.00000000000E+00 0. -1.
         11    1    3    3    0    0 -0.16716843540E+02 -0.49750091975E+01 -0.11423778344E+02  0.20849611181E+02  0.51100000000E-03 0. -1.
        -11    1    3    3    0    0  0.78606621251E+01  0.20186777673E+02 -0.19616942852E+02  0.29225339159E+02  0.51100000000E-03 0.  1.
        -12    1    3    3    0    0  0.68332393861E+01 -0.17243531331E+02  0.12535076908E+02  0.22386618466E+02  0.00000000000E+00 0.  1.
</event>
<event>
 8    1  0.1375918E-013  0.7246159E+02  0.7816164E-02  0.1226708E+00
        -11   -1    0    0    0    0  0.00000000000E+00  0.00000000000E+00  0.45593999997E+02  0.45594000000E+02  0.51100000000E-03 0. -1.
         11   -1    0    0    0    0 -0.00000000000E+00 -0.00000000000E+00 -0.45593999997E+02  0.45594000000E+02  0.51100000000E-03 0.  1.
    9900012    2    1    2    0    0  0.12132407966E+02 -0.11958911805E+02  0.77760988149E+01  0.72461585303E+02  0.70000019552E+02 0.  0.
         24    2    3    3    0    0 -0.42198168138E+01 -0.10033729735E+02 -0.53027496415E+01  0.51434035316E+02  0.49988581184E+02 0.  0.
         12    1    1    2    0    0 -0.12132407966E+02  0.11958911805E+02 -0.77760988149E+01  0.18726414697E+02  0.00000000000E+00 0. -1.
         11    1    3    3    0    0  0.16352224779E+02 -0.19251820703E+01  0.13078848456E+02  0.21027549987E+02  0.51100000000E-03 0. -1.
        -11    1    4    4    0    0  0.66910995839E+01 -0.23677015042E+02 -0.17443171660E+02  0.30160173951E+02  0.51100000000E-03 0.  1.
         12    1    4    4    0    0 -0.10910916398E+02  0.13643285307E+02  0.12140422018E+02  0.21273861365E+02  0.00000000000E+00 0. -1.
</event>
<event>
 7    1  0.1375918E-013  0.7246159E+02  0.7816164E-02  0.1226708E+00
        -11   -1    0    0    0    0  0.00000000000E+00  0.00000000000E+00  0.45593999997E+02  0.45594000000E+02  0.51100000000E-03 0.  1.
         11   -1    0    0    0    0 -0.00000000000E+00 -0.00000000000E+00 -0.45593999997E+02  0.45594000000E+02  0.51100000000E-03 0. -1.
    9900012    2    1    2    0    0 -0.11429868648E+02  0.13910423905E+02 -0.51513763056E+01  0.72461589015E+02  0.70000024388E+02 0.  0.
         12    1    1    2    0    0  0.11429868648E+02 -0.13910423905E+02  0.51513763056E+01  0.18726410985E+02  0.00000000000E+00 0. -1.
         11    1    3    3    0    0  0.93156893790E+01  0.19851844401E+02  0.64544530492E+01  0.22859084827E+02  0.51100000000E-03 0. -1.
        -11    1    3    3    0    0 -0.31612599710E+02 -0.12695951833E+02 -0.30343061712E+01  0.34201617908E+02  0.51100000000E-03 0.  1.
         12    1    3    3    0    0  0.10867041682E+02  0.67545313374E+01 -0.85715231836E+01  0.15400886280E+02  0.00000000000E+00 0. -1.
</event>
<event>
 7    1  0.1375918E-013  0.7246155E+02  0.7816164E-02  0.1226708E+00
        -11   -1    0    0    0    0  0.00000000000E+00  0.00000000000E+00  0.45593999997E+02  0.45594000000E+02  0.51100000000E-03 0. -1.
         11   -1    0    0    0    0 -0.00000000000E+00 -0.00000000000E+00 -0.45593999997E+02  0.45594000000E+02  0.51100000000E-03 0.  1.
    9900012    2    1    2    0    0 -0.95448225460E+01  0.16086399491E+02 -0.89673193365E+00  0.72461547741E+02  0.69999970621E+02 0.  0.
         12    1    1    2    0    0  0.95448225460E+01 -0.16086399491E+02  0.89673193365E+00  0.18726452259E+02  0.00000000000E+00 0. -1.
         11    1    3    3    0    0 -0.49683923269E+01  0.83460242076E+00  0.23069383717E+02  0.23613088507E+02  0.51100000000E-03 0. -1.
        -11    1    3    3    0    0  0.16767978809E+02  0.12736779514E+02 -0.12536355953E+02  0.24506139772E+02  0.51100000000E-03 0.  1.
        -12    1    3    3    0    0 -0.21344409028E+02  0.25150175570E+01 -0.11429759698E+02  0.24342319462E+02  0.00000000000E+00 0.  1.
</event>
<event>
 7    1  0.1375918E-013  0.7246158E+02  0.7816164E-02  0.1226708E+00
        -11   -1    0    0    0    0  0.00000000000E+00  0.00000000000E+00  0.45593999997E+02  0.45594000000E+02  0.51100000000E-03 0. -1.
         11   -1    0    0    0    0 -0.00000000000E+00 -0.00000000000E+00 -0.45593999997E+02  0.45594000000E+02  0.51100000000E-03 0.  1.
    9900012    2    1    2    0    0 -0.97285032125E+01  0.12559489399E+02 -0.99143488355E+01  0.72461578517E+02  0.70000010712E+02 0.  0.
         12    1    1    2    0    0  0.97285032125E+01 -0.12559489399E+02  0.99143488355E+01  0.18726421483E+02  0.00000000000E+00 0. -1.
         11    1    3    3    0    0  0.98578575492E+01  0.10989894670E+02  0.13333539985E+02  0.19893175441E+02  0.51100000000E-03 0. -1.
        -11    1    3    3    0    0 -0.25866404286E+02 -0.57973449246E+01 -0.30546658260E+02  0.40444757509E+02  0.51100000000E-03 0.  1.
        -12    1    3    3    0    0  0.62800435238E+01  0.73669396536E+01  0.72987694394E+01  0.12123645568E+02  0.00000000000E+00 0.  1.
</event>
<event>
 7    1  0.1375918E-013  0.7246158E+02  0.7816164E-02  0.1226708E+00
        -11   -1    0    0    0    0  0.00000000000E+00  0.00000000000E+00  0.45593999997E+02  0.45594000000E+02  0.51100000000E-03 0.  1.
         11   -1    0    0    0    0 -0.00000000000E+00 -0.00000000000E+00 -0.45593999997E+02  0.45594000000E+02  0.51100000000E-03 0. -1.
    9900012    2    1    2    0    0 -0.41811623765E+01 -0.61815712783E+01  0.17175127966E+02  0.72461575810E+02  0.70000007185E+02 0.  0.
         12    1    1    2    0    0  0.41811623765E+01  0.61815712783E+01 -0.17175127966E+02  0.18726424190E+02  0.00000000000E+00 0. -1.
         11    1    3    3    0    0  0.21423625821E+02 -0.16459725871E+02  0.53459622915E+01  0.27540400000E+02  0.51100000000E-03 0. -1.
        -11    1    3    3    0    0 -0.40241575493E+01  0.19377328368E+02  0.71156354739E+01  0.21031095243E+02  0.51100000000E-03 0.  1.
        -12    1    3    3    0    0 -0.21580630648E+02 -0.90991737751E+01  0.47135302011E+01  0.23890080567E+02  0.00000000000E+00 0.  1.
</event>
<event>
 7    1  0.1375918E-013  0.7246160E+02  0.7816164E-02  0.1226708E+00
        -11   -1    0    0    0    0  0.00000000000E+00  0.00000000000E+00  0.45593999997E+02  0.45594000000E+02  0.51100000000E-03 0. -1.
         11   -1    0    0    0    0 -0.00000000000E+00 -0.00000000000E+00 -0.45593999997E+02  0.45594000000E+02  0.51100000000E-03 0.  1.
    9900012    2    1    2    0    0 -0.72364973690E+01  0.58720992567E+01 -0.16242834511E+02  0.72461598403E+02  0.70000036616E+02 0.  0.
         12    1    1    2    0    0  0.72364973690E+01 -0.58720992567E+01  0.16242834511E+02  0.18726401597E+02  0.00000000000E+00 0. -1.
         11    1    3    3    0    0 -0.30234321830E+02  0.14165882914E+00 -0.27767367356E+02  0.41050712222E+02  0.51100000000E-03 0. -1.
        -11    1    3    3    0    0  0.58318201748E+00  0.43472255713E+01  0.73642509254E+01  0.85715029829E+01  0.51100000000E-03 0.  1.
         12    1    3    3    0    0  0.22414642444E+02  0.13832148562E+01  0.41602819201E+01  0.22839383198E+02  0.00000000000E+00 0. -1.
</event>
<event>
 7    1  0.1375918E-013  0.7246155E+02  0.7816164E-02  0.1226708E+00
        -11   -1    0    0    0    0  0.00000000000E+00  0.00000000000E+00  0.45593999997E+02  0.45594000000E+02  0.51100000000E-03 0.  1.
         11   -1    0    0    0    0 -0.00000000000E+00 -0.00000000000E+00 -0.45593999997E+02  0.45594000000E+02  0.51100000000E-03 0. -1.
    9900012    2    1    2    0    0 -0.16038412252E+01  0.95057617321E+01  0.16054535909E+02  0.72461549828E+02  0.69999973339E+02 0.  0.
         12    1    1    2    0    0  0.16038412252E+01 -0.95057617321E+01 -0.16054535909E+02  0.18726450172E+02  0.00000000000E+00 0. -1.
         11    1    3    3    0    0 -0.18059990457E+02  0.12379019381E+02 -0.14078676450E+02  0.26030991279E+02  0.51100000000E-03 0. -1.
        -11    1    3    3    0    0  0.15461778240E+02 -0.14990421596E+02  0.25603571933E+02  0.33456273282E+02  0.51100000000E-03 0.  1.
        -12    1    3    3    0    0  0.99437099211E+00  0.12117163947E+02  0.45296404263E+01  0.12974285267E+02  0.00000000000E+00 0.  1.
</event>
<event>
 7    1  0.1375918E-013  0.7246161E+02  0.7816164E-02  0.1226708E+00
        -11   -1    0    0    0    0  0.00000000000E+00  0.00000000000E+00  0.45593999997E+02  0.45594000000E+02  0.51100000000E-03 0.  1.
         11   -1    0    0    0    0 -0.00000000000E+00 -0.00000000000E+00 -0.45593999997E+02  0.45594000000E+02  0.51100000000E-03 0. -1.
    9900012    2    1    2    0    0  0.34065003679E+01  0.14936992718E+02  0.10768459277E+02  0.72461609226E+02  0.70000050715E+02 0.  0.
         12    1    1    2    0    0 -0.34065003679E+01 -0.14936992718E+02 -0.10768459277E+02  0.18726390774E+02  0.00000000000E+00 0. -1.
         11    1    3    3    0    0 -0.17794321946E+02 -0.15175495487E+02  0.77065887976E+01  0.24623668856E+02  0.51100000000E-03 0. -1.
        -11    1    3    3    0    0  0.12752038563E+02  0.33753487025E+02 -0.39120644022E+01  0.36293479056E+02  0.51100000000E-03 0.  1.
        -12    1    3    3    0    0  0.84487837509E+01 -0.36409988197E+01  0.69739348818E+01  0.11544461313E+02  0.00000000000E+00 0.  1.
</event>
<event>
 7    1  0.1375918E-013  0.7246165E+02  0.7816164E-02  0.1226708E+00
        -11   -1    0    0    0    0  0.00000000000E+00  0.00000000000E+00  0.45593999997E+02  0.45594000000E+02  0.51100000000E-03 0. -1.
         11   -1    0    0    0    0 -0.00000000000E+00 -0.00000000000E+00 -0.45593999997E+02  0.45594000000E+02  0.51100000000E-03 0.  1.
    9900012    2    1    2    0    0 -0.56727450879E+01 -0.17237203302E+02 -0.46233032727E+01  0.72461650979E+02  0.70000105106E+02 0.  0.
         12    1    1    2    0    0  0.56727450879E+01  0.17237203302E+02  0.46233032727E+01  0.18726349021E+02  0.00000000000E+00 0. -1.
         11    1    3    3    0    0 -0.12403535237E+01  0.23395591867E+02 -0.40213469537E+01  0.23771062813E+02  0.51100000000E-03 0. -1.
        -11    1    3    3    0    0 -0.79894245550E+01 -0.29906362107E+02  0.10657125468E+02  0.32738291383E+02  0.51100000000E-03 0.  1.
        -12    1    3    3    0    0  0.35570329908E+01 -0.10726433063E+02 -0.11259081787E+02  0.15952296782E+02  0.00000000000E+00 0.  1.
</event>
<event>
 7    1  0.1375918E-013  0.7246163E+02  0.7816164E-02  0.1226708E+00
        -11   -1    0    0    0    0  0.00000000000E+00  0.00000000000E+00  0.45593999997E+02  0.45594000000E+02  0.51100000000E-03 0. -1.
         11   -1    0    0    0    0 -0.00000000000E+00 -0.00000000000E+00 -0.45593999997E+02  0.45594000000E+02  0.51100000000E-03 0.  1.
    9900012    2    1    2    0    0 -0.76401333194E+01 -0.15103311500E+02 -0.80121939847E+01  0.72461630682E+02  0.70000078666E+02 0.  0.
         12    1    1    2    0    0  0.76401333194E+01  0.15103311500E+02  0.80121939847E+01  0.18726369318E+02  0.00000000000E+00 0. -1.
         11    1    3    3    0    0  0.16107959597E+02  0.43530222521E+01  0.10086600022E+02  0.19497555369E+02  0.51100000000E-03 0. -1.
        -11    1    3    3    0    0 -0.22023778556E+02 -0.22054284344E+02 -0.28421447307E+02  0.42180765132E+02  0.51100000000E-03 0.  1.
         12    1    3    3    0    0 -0.17243143601E+01  0.25979505921E+01  0.10322653301E+02  0.10783310181E+02  0.00000000000E+00 0. -1.
</event>
<event>
 7    1  0.1375918E-013  0.7246154E+02  0.7816164E-02  0.1226708E+00
        -11   -1    0    0    0    0  0.00000000000E+00  0.00000000000E+00  0.45593999997E+02  0.45594000000E+02  0.51100000000E-03 0.  1.
         11   -1    0    0    0    0 -0.00000000000E+00 -0.00000000000E+00 -0.45593999997E+02  0.45594000000E+02  0.51100000000E-03 0. -1.
    9900012    2    1    2    0    0 -0.36042300380E+01  0.16396398551E+02  0.82974611649E+01  0.72461542209E+02  0.69999963414E+02 0.  0.
         12    1    1    2    0    0  0.36042300380E+01 -0.16396398551E+02 -0.82974611649E+01  0.18726457791E+02  0.00000000000E+00 0. -1.
         11    1    3    3    0    0 -0.65009751152E+01 -0.66380107183E+01  0.26063074114E+02  0.27669652984E+02  0.51100000000E-03 0.  1.
        -11    1    3    3    0    0  0.88895337723E+01  0.30308560354E+02 -0.12291465495E+02  0.33892665367E+02  0.51100000000E-03 0. -1.
        -12    1    3    3    0    0 -0.59927886951E+01 -0.72741510849E+01 -0.54741474540E+01  0.10899223858E+02  0.00000000000E+00 0.  1.
</event>
<event>
 7    1  0.1375918E-013  0.7246155E+02  0.7816164E-02  0.1226708E+00
        -11   -1    0    0    0    0  0.00000000000E+00  0.00000000000E+00  0.45593999997E+02  0.45594000000E+02  0.51100000000E-03 0. -1.
         11   -1    0    0    0    0 -0.00000000000E+00 -0.00000000000E+00 -0.45593999997E+02  0.45594000000E+02  0.51100000000E-03 0.  1.
    9900012    2    1    2    0    0  0.91830592137E+00 -0.18701936664E+02 -0.27243635691E+00  0.72461549660E+02  0.69999973120E+02 0.  0.
         12    1    1    2    0    0 -0.91830592137E+00  0.18701936664E+02  0.27243635691E+00  0.18726450340E+02  0.00000000000E+00 0. -1.
         11    1    3    3    0    0  0.15068243947E+01 -0.11339405373E+02  0.16296004404E+02  0.19910107829E+02  0.51100000000E-03 0. -1.
        -11    1    3    3    0    0  0.68899874292E-01 -0.26644162208E+02 -0.19526272929E+02  0.33033187278E+02  0.51100000000E-03 0.  1.
        -12    1    3    3    0    0 -0.65741834758E+00  0.19281630917E+02  0.29578321680E+01  0.19518254554E+02  0.00000000000E+00 0.  1.
</event>
<event>
 7    1  0.1375918E-013  0.7246156E+02  0.7816164E-02  0.1226708E+00
        -11   -1    0    0    0    0  0.00000000000E+00  0.00000000000E+00  0.45593999997E+02  0.45594000000E+02  0.51100000000E-03 0.  1.
         11   -1    0    0    0    0 -0.00000000000E+00 -0.00000000000E+00 -0.45593999997E+02  0.45594000000E+02  0.51100000000E-03 0. -1.
    9900012    2    1    2    0    0 -0.73751943548E+01  0.16780482062E+02 -0.38342294391E+01  0.72461564531E+02  0.69999992492E+02 0.  0.
         12    1    1    2    0    0  0.73751943548E+01 -0.16780482062E+02  0.38342294391E+01  0.18726435469E+02  0.00000000000E+00 0. -1.
         11    1    3    3    0    0 -0.18460647150E+02 -0.58803574323E+01 -0.90791946782E+01  0.21396398599E+02  0.51100000000E-03 0. -1.
        -11    1    3    3    0    0  0.23188810542E+02  0.25561339544E+02  0.12443729858E+02  0.36687183412E+02  0.51100000000E-03 0.  1.
        -12    1    3    3    0    0 -0.12103357747E+02 -0.29005000502E+01 -0.71987646192E+01  0.14377982520E+02  0.00000000000E+00 0.  1.
</event>
<event>
 7    1  0.1375918E-013  0.7246160E+02  0.7816164E-02  0.1226708E+00
        -11   -1    0    0    0    0  0.00000000000E+00  0.00000000000E+00  0.45593999997E+02  0.45594000000E+02  0.51100000000E-03 0. -1.
         11   -1    0    0    0    0 -0.00000000000E+00 -0.00000000000E+00 -0.45593999997E+02  0.45594000000E+02  0.51100000000E-03 0.  1.
    9900012    2    1    2    0    0 -0.19474509069E+00  0.53864042403E+01 -0.17933951654E+02  0.72461604239E+02  0.70000044219E+02 0.  0.
         12    1    1    2    0    0  0.19474509069E+00 -0.53864042403E+01  0.17933951654E+02  0.18726395761E+02  0.00000000000E+00 0. -1.
         11    1    3    3    0    0  0.10149603781E+01 -0.12644131011E+02  0.11372052705E+02  0.17036072803E+02  0.51100000000E-03 0. -1.
        -11    1    3    3    0    0 -0.20390308225E+02  0.13823433309E+02 -0.25439047181E+02  0.35411821468E+02  0.51100000000E-03 0.  1.
        -12    1    3    3    0    0  0.19180602756E+02  0.42071019423E+01 -0.38669571776E+01  0.20013709968E+02  0.00000000000E+00 0.  1.
</event>
<event>
 7    1  0.1375918E-013  0.7246154E+02  0.7816164E-02  0.1226708E+00
        -11   -1    0    0    0    0  0.00000000000E+00  0.00000000000E+00  0.45593999997E+02  0.45594000000E+02  0.51100000000E-03 0.  1.
         11   -1    0    0    0    0 -0.00000000000E+00 -0.00000000000E+00 -0.45593999997E+02  0.45594000000E+02  0.51100000000E-03 0. -1.
    9900012    2    1    2    0    0  0.12755178011E+02 -0.13130053772E+02  0.39481019023E+01  0.72461537793E+02  0.69999957661E+02 0.  0.
         12    1    1    2    0    0 -0.12755178011E+02  0.13130053772E+02 -0.39481019023E+01  0.18726462207E+02  0.00000000000E+00 0. -1.
         11    1    3    3    0    0  0.29644077703E+02 -0.32285068133E+02  0.94897735685E+01  0.44845877958E+02  0.51100000000E-03 0. -1.
        -11    1    3    3    0    0 -0.14528902176E+02  0.10301648561E+02 -0.46651384002E+01  0.18411313860E+02  0.51100000000E-03 0.  1.
         12    1    3    3    0    0 -0.23599975158E+01  0.88533657997E+01 -0.87653326594E+00  0.92043459748E+01  0.00000000000E+00 0. -1.
</event>
<event>
 7    1  0.1375918E-013  0.7246165E+02  0.7816164E-02  0.1226708E+00
        -11   -1    0    0    0    0  0.00000000000E+00  0.00000000000E+00  0.45593999997E+02  0.45594000000E+02  0.51100000000E-03 0. -1.
         11   -1    0    0    0    0 -0.00000000000E+00 -0.00000000000E+00 -0.45593999997E+02  0.45594000000E+02  0.51100000000E-03 0.  1.
    9900012    2    1    2    0    0 -0.70875776170E+01 -0.73767096806E+01 -0.15685240153E+02  0.72461645287E+02  0.70000097692E+02 0.  0.
         12    1    1    2    0    0  0.70875776170E+01  0.73767096806E+01  0.15685240153E+02  0.18726354713E+02  0.00000000000E+00 0. -1.
         11    1    3    3    0    0  0.13732594734E+02 -0.10928474525E+02 -0.33964188458E+01  0.17875999966E+02  0.51100000000E-03 0. -1.
        -11    1    3    3    0    0 -0.17703967187E+02  0.11032094682E+02 -0.29169442114E+02  0.35860757392E+02  0.51100000000E-03 0.  1.
        -12    1    3    3    0    0 -0.31162051634E+01 -0.74803298376E+01  0.16880620807E+02  0.18724887928E+02  0.00000000000E+00 0.  1.
</event>
<event>
 7    1  0.1375918E-013  0.7246157E+02  0.7816164E-02  0.1226708E+00
        -11   -1    0    0    0    0  0.00000000000E+00  0.00000000000E+00  0.45593999997E+02  0.45594000000E+02  0.51100000000E-03 0.  1.
         11   -1    0    0    0    0 -0.00000000000E+00 -0.00000000000E+00 -0.45593999997E+02  0.45594000000E+02  0.51100000000E-03 0. -1.
    9900012    2    1    2    0    0 -0.46302866845E+01  0.14313874771E+02  0.11151357973E+02  0.72461565465E+02  0.69999993710E+02 0.  0.
         12    1    1    2    0    0  0.46302866845E+01 -0.14313874771E+02 -0.11151357973E+02  0.18726434535E+02  0.00000000000E+00 0. -1.
         11    1    3    3    0    0  0.66724809704E+01 -0.27182991906E+02  0.13374665120E+01  0.28021881953E+02  0.51100000000E-03 0. -1.
        -11    1    3    3    0    0 -0.46875013032E+01  0.21350922735E+02  0.24646504339E+01  0.21997933360E+02  0.51100000000E-03 0.  1.
         12    1    3    3    0    0 -0.66152663518E+01  0.20145943942E+02  0.73492410272E+01  0.22441750152E+02  0.00000000000E+00 0. -1.
</event>
<event>
 7    1  0.1375918E-013  0.7246150E+02  0.7816164E-02  0.1226708E+00
        -11   -1    0    0    0    0  0.00000000000E+00  0.00000000000E+00  0.45593999997E+02  0.45594000000E+02  0.51100000000E-03 0.  1.
         11   -1    0    0    0    0 -0.00000000000E+00 -0.00000000000E+00 -0.45593999997E+02  0.45594000000E+02  0.51100000000E-03 0. -1.
    9900012    2    1    2    0    0 -0.10206974127E+02  0.12666533669E+02 -0.92767592512E+01  0.72461503846E+02  0.69999913438E+02 0.  0.
         12    1    1    2    0    0  0.10206974127E+02 -0.12666533669E+02  0.92767592512E+01  0.18726496154E+02  0.00000000000E+00 0. -1.
         11    1    3    3    0    0 -0.35295685425E+00  0.13572106350E+02 -0.13717397196E+01  0.13645816920E+02  0.51100000000E-03 0. -1.
        -11    1    3    3    0    0  0.23138790771E+02  0.70453389379E+01 -0.11657516172E+01  0.24215685333E+02  0.51100000000E-03 0.  1.
        -12    1    3    3    0    0 -0.32992808043E+02 -0.79509116183E+01 -0.67392679145E+01  0.34600001592E+02  0.00000000000E+00 0.  1.
</event>
<event>
 7    1  0.1375918E-013  0.7246159E+02  0.7816164E-02  0.1226708E+00
        -11   -1    0    0    0    0  0.00000000000E+00  0.00000000000E+00  0.45593999997E+02  0.45594000000E+02  0.51100000000E-03 0. -1.
         11   -1    0    0    0    0 -0.00000000000E+00 -0.00000000000E+00 -0.45593999997E+02  0.45594000000E+02  0.51100000000E-03 0.  1.
    9900012    2    1    2    0    0  0.14081292177E+02  0.19564472316E+01 -0.12188844140E+02  0.72461590931E+02  0.70000026883E+02 0.  0.
         12    1    1    2    0    0 -0.14081292177E+02 -0.19564472316E+01  0.12188844140E+02  0.18726409069E+02  0.00000000000E+00 0. -1.
         11    1    3    3    0    0 -0.19712907081E+02  0.10408346528E+01  0.85869097789E+01  0.21527123871E+02  0.51100000000E-03 0.  1.
        -11    1    3    3    0    0  0.96144823102E+01 -0.11636880981E+01 -0.24533935816E+02  0.26376247780E+02  0.51100000000E-03 0. -1.
         12    1    3    3    0    0  0.24179716948E+02  0.20793006768E+01  0.37581818969E+01  0.24558219279E+02  0.00000000000E+00 0. -1.
</event>
<event>
 7    1  0.1375918E-013  0.7246153E+02  0.7816164E-02  0.1226708E+00
        -11   -1    0    0    0    0  0.00000000000E+00  0.00000000000E+00  0.45593999997E+02  0.45594000000E+02  0.51100000000E-03 0. -1.
         11   -1    0    0    0    0 -0.00000000000E+00 -0.00000000000E+00 -0.45593999997E+02  0.45594000000E+02  0.51100000000E-03 0.  1.
    9900012    2    1    2    0    0  0.44463611281E+01 -0.11670359529E+02 -0.13953967318E+02  0.72461531493E+02  0.69999949455E+02 0.  0.
         12    1    1    2    0    0 -0.44463611281E+01  0.11670359529E+02  0.13953967318E+02  0.18726468507E+02  0.00000000000E+00 0. -1.
         11    1    3    3    0    0 -0.49263395428E+01 -0.15303681070E+02  0.18924971955E+02  0.24831956012E+02  0.51100000000E-03 0. -1.
        -11    1    3    3    0    0  0.66263878489E+01 -0.82369974355E+01 -0.33796400531E+02  0.35411210538E+02  0.51100000000E-03 0.  1.
        -12    1    3    3    0    0  0.27463128220E+01  0.11870318977E+02  0.91746125730E+00  0.12218364943E+02  0.00000000000E+00 0.  1.
</event>
<event>
 7    1  0.1375918E-013  0.7246119E+02  0.7816164E-02  0.1226709E+00
        -11   -1    0    0    0    0  0.00000000000E+00  0.00000000000E+00  0.45593999997E+02  0.45594000000E+02  0.51100000000E-03 0.  1.
         11   -1    0    0    0    0 -0.00000000000E+00 -0.00000000000E+00 -0.45593999997E+02  0.45594000000E+02  0.51100000000E-03 0. -1.
    9900012    2    1    2    0    0  0.13203523167E+01 -0.27628842158E+01  0.18474750617E+02  0.72461193818E+02  0.69999509568E+02 0.  0.
         12    1    1    2    0    0 -0.13203523167E+01  0.27628842158E+01 -0.18474750617E+02  0.18726806182E+02  0.00000000000E+00 0. -1.
         11    1    3    3    0    0 -0.28301760930E+02  0.67782979228E+01 -0.39619490249E+01  0.29370598135E+02  0.51100000000E-03 0.  1.
        -11    1    3    3    0    0  0.12421118054E+02 -0.10889236478E+02  0.24702648580E+01  0.16702151165E+02  0.51100000000E-03 0. -1.
         12    1    3    3    0    0  0.17200995192E+02  0.13480543395E+01  0.19966434784E+02  0.26388444518E+02  0.00000000000E+00 0. -1.
</event>
<event>
 7    1  0.1375918E-013  0.7246160E+02  0.7816164E-02  0.1226708E+00
        -11   -1    0    0    0    0  0.00000000000E+00  0.00000000000E+00  0.45593999997E+02  0.45594000000E+02  0.51100000000E-03 0.  1.
         11   -1    0    0    0    0 -0.00000000000E+00 -0.00000000000E+00 -0.45593999997E+02  0.45594000000E+02  0.51100000000E-03 0. -1.
    9900012    2    1    2    0    0  0.15284993820E+02  0.98377464468E+01  0.45017594983E+01  0.72461598054E+02  0.70000036163E+02 0.  0.
         12    1    1    2    0    0 -0.15284993820E+02 -0.98377464468E+01 -0.45017594983E+01  0.18726401946E+02  0.00000000000E+00 0. -1.
         11    1    3    3    0    0  0.58991397704E+01  0.78276370031E-01 -0.81939285285E+01  0.10096853085E+02  0.51100000000E-03 0. -1.
        -11    1    3    3    0    0 -0.17819324799E+02  0.24176145838E+02  0.35292300167E+01  0.30240202193E+02  0.51100000000E-03 0.  1.
        -12    1    3    3    0    0  0.27205178849E+02 -0.14416675762E+02  0.91664580102E+01  0.32124542777E+02  0.00000000000E+00 0.  1.
</event>
<event>
 7    1  0.1375918E-013  0.7246161E+02  0.7816164E-02  0.1226708E+00
        -11   -1    0    0    0    0  0.00000000000E+00  0.00000000000E+00  0.45593999997E+02  0.45594000000E+02  0.51100000000E-03 0.  1.
         11   -1    0    0    0    0 -0.00000000000E+00 -0.00000000000E+00 -0.45593999997E+02  0.45594000000E+02  0.51100000000E-03 0. -1.
    9900012    2    1    2    0    0  0.16545310528E+02  0.84495317725E+01  0.23528553584E+01  0.72461606434E+02  0.70000047079E+02 0.  0.
         12    1    1    2    0    0 -0.16545310528E+02 -0.84495317725E+01 -0.23528553584E+01  0.18726393566E+02  0.00000000000E+00 0. -1.
         11    1    3    3    0    0  0.31181668587E+01  0.32747736880E+02 -0.14622465983E+02  0.35999357591E+02  0.51100000000E-03 0. -1.
        -11    1    3    3    0    0 -0.89815783090E-01 -0.67975045150E+01  0.12007188032E+02  0.13798068676E+02  0.51100000000E-03 0.  1.
         12    1    3    3    0    0  0.13516959452E+02 -0.17500700592E+02  0.49681333091E+01  0.22664180167E+02  0.00000000000E+00 0. -1.
</event>
<event>
 7    1  0.1375918E-013  0.7246161E+02  0.7816164E-02  0.1226708E+00
        -11   -1    0    0    0    0  0.00000000000E+00  0.00000000000E+00  0.45593999997E+02  0.45594000000E+02  0.51100000000E-03 0. -1.
         11   -1    0    0    0    0 -0.00000000000E+00 -0.00000000000E+00 -0.45593999997E+02  0.45594000000E+02  0.51100000000E-03 0.  1.
    9900012    2    1    2    0    0  0.15880916231E+01  0.18283843280E+02 -0.37224508557E+01  0.72461612189E+02  0.70000054576E+02 0.  0.
         12    1    1    2    0    0 -0.15880916231E+01 -0.18283843280E+02  0.37224508557E+01  0.18726387811E+02  0.00000000000E+00 0. -1.
         11    1    3    3    0    0 -0.11806544457E+02  0.90063719057E+01 -0.25165541188E+02  0.29220090528E+02  0.51100000000E-03 0. -1.
        -11    1    3    3    0    0  0.14430604900E+02 -0.10263914956E+02  0.75952165636E+01  0.19268565668E+02  0.51100000000E-03 0.  1.
         12    1    3    3    0    0 -0.10359688195E+01  0.19541386330E+02  0.13847873769E+02  0.23972955993E+02  0.00000000000E+00 0. -1.
</event>
<event>
 7    1  0.1375918E-013  0.7246162E+02  0.7816164E-02  0.1226708E+00
        -11   -1    0    0    0    0  0.00000000000E+00  0.00000000000E+00  0.45593999997E+02  0.45594000000E+02  0.51100000000E-03 0.  1.
         11   -1    0    0    0    0 -0.00000000000E+00 -0.00000000000E+00 -0.45593999997E+02  0.45594000000E+02  0.51100000000E-03 0. -1.
    9900012    2    1    2    0    0  0.22823764171E+01  0.15919132688E+02  0.95942393213E+01  0.72461616051E+02  0.70000059606E+02 0.  0.
         12    1    1    2    0    0 -0.22823764171E+01 -0.15919132688E+02 -0.95942393213E+01  0.18726383949E+02  0.00000000000E+00 0. -1.
         11    1    3    3    0    0  0.24929912702E+02  0.12212560351E+02 -0.20808870397E+01  0.27838413546E+02  0.51100000000E-03 0. -1.
        -11    1    3    3    0    0 -0.22410862351E+02 -0.12930310899E+02  0.10565680184E+02  0.27947688443E+02  0.51100000000E-03 0.  1.
        -12    1    3    3    0    0 -0.23667393321E+00  0.16636883237E+02  0.11094461769E+01  0.16675514061E+02  0.00000000000E+00 0.  1.
</event>
<event>
 7    1  0.1375918E-013  0.7246155E+02  0.7816164E-02  0.1226708E+00
        -11   -1    0    0    0    0  0.00000000000E+00  0.00000000000E+00  0.45593999997E+02  0.45594000000E+02  0.51100000000E-03 0.  1.
         11   -1    0    0    0    0 -0.00000000000E+00 -0.00000000000E+00 -0.45593999997E+02  0.45594000000E+02  0.51100000000E-03 0. -1.
    9900012    2    1    2    0    0  0.17012498386E+02 -0.59249706998E+01  0.51136496117E+01  0.72461553688E+02  0.69999978368E+02 0.  0.
         12    1    1    2    0    0 -0.17012498386E+02  0.59249706998E+01 -0.51136496117E+01  0.18726446312E+02  0.00000000000E+00 0. -1.
         11    1    3    3    0    0  0.16686615680E+01  0.17386334235E+02  0.13723787986E+02  0.22212865788E+02  0.51100000000E-03 0.  1.
        -11    1    3    3    0    0  0.86306003088E+01 -0.32893741336E+02  0.25198885308E+01  0.34100371248E+02  0.51100000000E-03 0. -1.
        -12    1    3    3    0    0  0.67132365087E+01  0.95824364013E+01 -0.11130026905E+02  0.16148316653E+02  0.00000000000E+00 0.  1.
</event>
<event>
 7    1  0.1375918E-013  0.7246160E+02  0.7816164E-02  0.1226708E+00
        -11   -1    0    0    0    0  0.00000000000E+00  0.00000000000E+00  0.45593999997E+02  0.45594000000E+02  0.51100000000E-03 0.  1.
         11   -1    0    0    0    0 -0.00000000000E+00 -0.00000000000E+00 -0.45593999997E+02  0.45594000000E+02  0.51100000000E-03 0. -1.
    9900012    2    1    2    0    0  0.11171607536E+02 -0.14291268019E+02  0.46511362564E+01  0.72461595513E+02  0.70000032852E+02 0.  0.
         12    1    1    2    0    0 -0.11171607536E+02  0.14291268019E+02 -0.46511362564E+01  0.18726404487E+02  0.00000000000E+00 0. -1.
         11    1    3    3    0    0  0.94120208158E+01 -0.13333295285E+01 -0.84612610469E+01  0.12726226551E+02  0.51100000000E-03 0. -1.
        -11    1    3    3    0    0  0.19040592472E+02 -0.24137598779E+02  0.21494074274E+02  0.37512172234E+02  0.51100000000E-03 0.  1.
        -12    1    3    3    0    0 -0.17281005752E+02  0.11179660289E+02 -0.83816769712E+01  0.22223196728E+02  0.00000000000E+00 0.  1.
</event>
<event>
 7    1  0.1375918E-013  0.7246156E+02  0.7816164E-02  0.1226708E+00
        -11   -1    0    0    0    0  0.00000000000E+00  0.00000000000E+00  0.45593999997E+02  0.45594000000E+02  0.51100000000E-03 0. -1.
         11   -1    0    0    0    0 -0.00000000000E+00 -0.00000000000E+00 -0.45593999997E+02  0.45594000000E+02  0.51100000000E-03 0.  1.
    9900012    2    1    2    0    0 -0.14128831861E+02  0.77655553131E+01 -0.95263799677E+01  0.72461557349E+02  0.69999983136E+02 0.  0.
         12    1    1    2    0    0  0.14128831861E+02 -0.77655553131E+01  0.95263799677E+01  0.18726442651E+02  0.00000000000E+00 0. -1.
         11    1    3    3    0    0 -0.18975176065E+02 -0.77259368733E+01 -0.19004331698E+02  0.27944803288E+02  0.51100000000E-03 0. -1.
        -11    1    3    3    0    0 -0.61693023087E+01 -0.97671009732E+00  0.20785921175E+02  0.21704118801E+02  0.51100000000E-03 0.  1.
        -12    1    3    3    0    0  0.11015646512E+02  0.16468202284E+02 -0.11307969445E+02  0.22812635260E+02  0.00000000000E+00 0.  1.
</event>
<event>
 7    1  0.1375918E-013  0.7246155E+02  0.7816164E-02  0.1226708E+00
        -11   -1    0    0    0    0  0.00000000000E+00  0.00000000000E+00  0.45593999997E+02  0.45594000000E+02  0.51100000000E-03 0.  1.
         11   -1    0    0    0    0 -0.00000000000E+00 -0.00000000000E+00 -0.45593999997E+02  0.45594000000E+02  0.51100000000E-03 0. -1.
    9900012    2    1    2    0    0 -0.16438749219E+02  0.71249709180E-01  0.89689680408E+01  0.72461549719E+02  0.69999973197E+02 0.  0.
         12    1    1    2    0    0  0.16438749219E+02 -0.71249709180E-01 -0.89689680408E+01  0.18726450281E+02  0.00000000000E+00 0. -1.
         11    1    3    3    0    0  0.11414562813E+02 -0.73335301921E+00  0.19968004601E+02  0.23011980768E+02  0.51100000000E-03 0. -1.
        -11    1    3    3    0    0 -0.14716267849E+02  0.12905203419E+02 -0.21221933976E+02  0.28870110783E+02  0.51100000000E-03 0.  1.
        -12    1    3    3    0    0 -0.13137044183E+02 -0.12100600690E+02  0.10222897416E+02  0.20579458169E+02  0.00000000000E+00 0.  1.
</event>
<event>
 7    1  0.1375918E-013  0.7246156E+02  0.7816164E-02  0.1226708E+00
        -11   -1    0    0    0    0  0.00000000000E+00  0.00000000000E+00  0.45593999997E+02  0.45594000000E+02  0.51100000000E-03 0.  1.
         11   -1    0    0    0    0 -0.00000000000E+00 -0.00000000000E+00 -0.45593999997E+02  0.45594000000E+02  0.51100000000E-03 0. -1.
    9900012    2    1    2    0    0 -0.16626775631E+02 -0.86028044748E+01  0.47076216916E+00  0.72461560676E+02  0.69999987471E+02 0.  0.
         12    1    1    2    0    0  0.16626775631E+02  0.86028044748E+01 -0.47076216916E+00  0.18726439324E+02  0.00000000000E+00 0. -1.
         11    1    3    3    0    0  0.66245998203E+01 -0.24230249360E+02 -0.16865549152E+02  0.30256190363E+02  0.51100000000E-03 0. -1.
        -11    1    3    3    0    0 -0.13073411300E+02 -0.19399372387E+01  0.17465024451E+02  0.21902157858E+02  0.51100000000E-03 0.  1.
        -12    1    3    3    0    0 -0.10177964151E+02  0.17567382123E+02 -0.12871313003E+00  0.20303212455E+02  0.00000000000E+00 0.  1.
</event>
<event>
 7    1  0.1375918E-013  0.7246163E+02  0.7816164E-02  0.1226708E+00
        -11   -1    0    0    0    0  0.00000000000E+00  0.00000000000E+00  0.45593999997E+02  0.45594000000E+02  0.51100000000E-03 0.  1.
         11   -1    0    0    0    0 -0.00000000000E+00 -0.00000000000E+00 -0.45593999997E+02  0.45594000000E+02  0.51100000000E-03 0. -1.
    9900012    2    1    2    0    0 -0.37591254006E+01 -0.18344599399E+02 -0.14684482691E+00  0.72461630509E+02  0.70000078441E+02 0.  0.
         12    1    1    2    0    0  0.37591254006E+01  0.18344599399E+02  0.14684482691E+00  0.18726369491E+02  0.00000000000E+00 0. -1.
         11    1    3    3    0    0 -0.16804997880E+02  0.28235403162E+01 -0.27675248930E+02  0.32500765180E+02  0.51100000000E-03 0. -1.
        -11    1    3    3    0    0  0.62462978308E+01 -0.48305894355E+01  0.18457081684E+02  0.20075225913E+02  0.51100000000E-03 0.  1.
         12    1    3    3    0    0  0.67995746491E+01 -0.16337550280E+02  0.90713224189E+01  0.19885639416E+02  0.00000000000E+00 0. -1.
</event>
<event>
 7    1  0.1375918E-013  0.7246159E+02  0.7816164E-02  0.1226708E+00
        -11   -1    0    0    0    0  0.00000000000E+00  0.00000000000E+00  0.45593999997E+02  0.45594000000E+02  0.51100000000E-03 0.  1.
         11   -1    0    0    0    0 -0.00000000000E+00 -0.00000000000E+00 -0.45593999997E+02  0.45594000000E+02  0.51100000000E-03 0. -1.
    9900012    2    1    2    0    0  0.17061319372E+02  0.62333178720E+01  0.45536321603E+01  0.72461589872E+02  0.70000025504E+02 0.  0.
         12    1    1    2    0    0 -0.17061319372E+02 -0.62333178720E+01 -0.45536321603E+01  0.18726410128E+02  0.00000000000E+00 0. -1.
         11    1    3    3    0    0 -0.12676682137E+02  0.94025135944E+01  0.19556630236E+01  0.15903777854E+02  0.51100000000E-03 0. -1.
        -11    1    3    3    0    0  0.38608766716E+02  0.32655861811E+01 -0.98441599700E+01  0.39977598805E+02  0.51100000000E-03 0.  1.
        -12    1    3    3    0    0 -0.88707652067E+01 -0.64347819035E+01  0.12442129107E+02  0.16580213213E+02  0.00000000000E+00 0.  1.
</event>
<event>
 7    1  0.1375918E-013  0.7246159E+02  0.7816164E-02  0.1226708E+00
        -11   -1    0    0    0    0  0.00000000000E+00  0.00000000000E+00  0.45593999997E+02  0.45594000000E+02  0.51100000000E-03 0.  1.
         11   -1    0    0    0    0 -0.00000000000E+00 -0.00000000000E+00 -0.45593999997E+02  0.45594000000E+02  0.51100000000E-03 0. -1.
    9900012    2    1    2    0    0  0.11745468461E+02  0.10714514849E+02  0.98955241415E+01  0.72461594689E+02  0.70000031779E+02 0.  0.
         12    1    1    2    0    0 -0.11745468461E+02 -0.10714514849E+02 -0.98955241415E+01  0.18726405311E+02  0.00000000000E+00 0. -1.
         11    1    3    3    0    0 -0.29303916530E+01  0.40701873718E+01 -0.26723899672E+02  0.27190447484E+02  0.51100000000E-03 0. -1.
        -11    1    3    3    0    0 -0.49119898874E+01 -0.11696855551E+00  0.29351102912E+01  0.57233031529E+01  0.51100000000E-03 0.  1.
         12    1    3    3    0    0  0.19587850002E+02  0.67612960326E+01  0.33684313522E+02  0.39547844052E+02  0.00000000000E+00 0. -1.
</event>
<event>
 7    1  0.1375918E-013  0.7246153E+02  0.7816164E-02  0.1226708E+00
        -11   -1    0    0    0    0  0.00000000000E+00  0.00000000000E+00  0.45593999997E+02  0.45594000000E+02  0.51100000000E-03 0.  1.
         11   -1    0    0    0    0 -0.00000000000E+00 -0.00000000000E+00 -0.45593999997E+02  0.45594000000E+02  0.51100000000E-03 0. -1.
    9900012    2    1    2    0    0 -0.10336044503E+02 -0.11460707657E+02  0.10606553664E+02  0.72461531657E+02  0.69999949668E+02 0.  0.
         12    1    1    2    0    0  0.10336044503E+02  0.11460707657E+02 -0.10606553664E+02  0.18726468343E+02  0.00000000000E+00 0. -1.
         11    1    3    3    0    0  0.38229519179E+01  0.77803692226E+01 -0.14538112141E+02  0.16926482549E+02  0.51100000000E-03 0. -1.
        -11    1    3    3    0    0 -0.29326838659E+02 -0.14331281944E+02  0.11682626054E+02  0.34668903352E+02  0.51100000000E-03 0.  1.
         12    1    3    3    0    0  0.15167842238E+02 -0.49097949362E+01  0.13462039751E+02  0.20866145756E+02  0.00000000000E+00 0. -1.
</event>
<event>
 7    1  0.1375918E-013  0.7246146E+02  0.7816164E-02  0.1226708E+00
        -11   -1    0    0    0    0  0.00000000000E+00  0.00000000000E+00  0.45593999997E+02  0.45594000000E+02  0.51100000000E-03 0.  1.
         11   -1    0    0    0    0 -0.00000000000E+00 -0.00000000000E+00 -0.45593999997E+02  0.45594000000E+02  0.51100000000E-03 0. -1.
    9900012    2    1    2    0    0 -0.13960648999E+01  0.37616201356E+01  0.18291649047E+02  0.72461462463E+02  0.69999859530E+02 0.  0.
         12    1    1    2    0    0  0.13960648999E+01 -0.37616201356E+01 -0.18291649047E+02  0.18726537537E+02  0.00000000000E+00 0. -1.
         11    1    3    3    0    0 -0.30190883135E+02  0.18607327187E+01  0.29075460646E+01  0.30387589163E+02  0.51100000000E-03 0. -1.
        -11    1    3    3    0    0  0.21309375783E+02  0.67156006161E+00 -0.36078067854E+01  0.21623060820E+02  0.51100000000E-03 0.  1.
        -12    1    3    3    0    0  0.74854424527E+01  0.12293273554E+01  0.18991909768E+02  0.20450812480E+02  0.00000000000E+00 0.  1.
</event>
<event>
 7    1  0.1375918E-013  0.7246160E+02  0.7816164E-02  0.1226708E+00
        -11   -1    0    0    0    0  0.00000000000E+00  0.00000000000E+00  0.45593999997E+02  0.45594000000E+02  0.51100000000E-03 0.  1.
         11   -1    0    0    0    0 -0.00000000000E+00 -0.00000000000E+00 -0.45593999997E+02  0.45594000000E+02  0.51100000000E-03 0. -1.
    9900012    2    1    2    0    0  0.18689208323E+02 -0.91790538771E+00 -0.74097922807E+00  0.72461598631E+02  0.70000036913E+02 0.  0.
         12    1    1    2    0    0 -0.18689208323E+02  0.91790538771E+00  0.74097922807E+00  0.18726401369E+02  0.00000000000E+00 0. -1.
         11    1    3    3    0    0 -0.87555228951E+01  0.21494621278E+02 -0.13731298579E+02  0.26967137148E+02  0.51100000000E-03 0. -1.
        -11    1    3    3    0    0  0.24707845935E+02 -0.54204482235E+01  0.12644950832E+02  0.28279916752E+02  0.51100000000E-03 0.  1.
         12    1    3    3    0    0  0.27368852826E+01 -0.16992078442E+02  0.34536851806E+00  0.17214544730E+02  0.00000000000E+00 0. -1.
</event>
<event>
 7    1  0.1375918E-013  0.7246167E+02  0.7816164E-02  0.1226708E+00
        -11   -1    0    0    0    0  0.00000000000E+00  0.00000000000E+00  0.45593999997E+02  0.45594000000E+02  0.51100000000E-03 0. -1.
         11   -1    0    0    0    0 -0.00000000000E+00 -0.00000000000E+00 -0.45593999997E+02  0.45594000000E+02  0.51100000000E-03 0.  1.
    9900012    2    1    2    0    0 -0.12033961414E+02 -0.14298608846E+02  0.11869409094E+01  0.72461674387E+02  0.70000135600E+02 0.  0.
         12    1    1    2    0    0  0.12033961414E+02  0.14298608846E+02 -0.11869409094E+01  0.18726325613E+02  0.00000000000E+00 0. -1.
         11    1    3    3    0    0 -0.11283123889E+01  0.17128127877E+01  0.10457962006E+02  0.10657194099E+02  0.51100000000E-03 0. -1.
        -11    1    3    3    0    0  0.83805169098E+01  0.76190559686E+01 -0.25029220293E+02  0.27472621758E+02  0.51100000000E-03 0.  1.
        -12    1    3    3    0    0 -0.19286165935E+02 -0.23630477602E+02  0.15758199197E+02  0.34331858530E+02  0.00000000000E+00 0.  1.
</event>
<event>
 7    1  0.1375918E-013  0.7246158E+02  0.7816164E-02  0.1226708E+00
        -11   -1    0    0    0    0  0.00000000000E+00  0.00000000000E+00  0.45593999997E+02  0.45594000000E+02  0.51100000000E-03 0. -1.
         11   -1    0    0    0    0 -0.00000000000E+00 -0.00000000000E+00 -0.45593999997E+02  0.45594000000E+02  0.51100000000E-03 0.  1.
    9900012    2    1    2    0    0  0.17249602679E+01  0.37491702463E+01 -0.18266003585E+02  0.72461584101E+02  0.70000017986E+02 0.  0.
         12    1    1    2    0    0 -0.17249602679E+01 -0.37491702463E+01  0.18266003585E+02  0.18726415899E+02  0.00000000000E+00 0. -1.
         11    1    3    3    0    0  0.12430971486E+02  0.12351771635E+02 -0.38433733007E+01  0.17940647513E+02  0.51100000000E-03 0. -1.
        -11    1    3    3    0    0 -0.27920647263E+02 -0.26139787560E+01 -0.21116392586E+02  0.35104094699E+02  0.51100000000E-03 0.  1.
        -12    1    3    3    0    0  0.17214636045E+02 -0.59886226324E+01  0.66937623020E+01  0.19416841889E+02  0.00000000000E+00 0.  1.
</event>
<event>
 7    1  0.1375918E-013  0.7246164E+02  0.7816164E-02  0.1226708E+00
        -11   -1    0    0    0    0  0.00000000000E+00  0.00000000000E+00  0.45593999997E+02  0.45594000000E+02  0.51100000000E-03 0. -1.
         11   -1    0    0    0    0 -0.00000000000E+00 -0.00000000000E+00 -0.45593999997E+02  0.45594000000E+02  0.51100000000E-03 0.  1.
    9900012    2    1    2    0    0 -0.11191027336E+02  0.28555950916E+00 -0.15011853785E+02  0.72461644478E+02  0.70000096639E+02 0.  0.
         12    1    1    2    0    0  0.11191027336E+02 -0.28555950916E+00  0.15011853785E+02  0.18726355522E+02  0.00000000000E+00 0. -1.
         11    1    3    3    0    0 -0.48251819803E+01 -0.83687705504E+01  0.24020780144E+02  0.25890472778E+02  0.51100000000E-03 0. -1.
        -11    1    3    3    0    0 -0.34037992605E+01  0.11303989685E+01 -0.38282851602E+02  0.38450492562E+02  0.51100000000E-03 0.  1.
         12    1    3    3    0    0 -0.29620460951E+01  0.75239310910E+01 -0.74978232630E+00  0.81206791384E+01  0.00000000000E+00 0. -1.
</event>
<event>
 7    1  0.1375918E-013  0.7246156E+02  0.7816164E-02  0.1226708E+00
        -11   -1    0    0    0    0  0.00000000000E+00  0.00000000000E+00  0.45593999997E+02  0.45594000000E+02  0.51100000000E-03 0.  1.
         11   -1    0    0    0    0 -0.00000000000E+00 -0.00000000000E+00 -0.45593999997E+02  0.45594000000E+02  0.51100000000E-03 0. -1.
    9900012    2    1    2    0    0  0.13717295154E+01  0.17034807995E+02  0.76559301754E+01  0.72461559010E+02  0.69999985300E+02 0.  0.
         12    1    1    2    0    0 -0.13717295154E+01 -0.17034807995E+02 -0.76559301754E+01  0.18726440990E+02  0.00000000000E+00 0. -1.
         11    1    3    3    0    0  0.28252851935E+02  0.21407473050E+02 -0.10682771809E+02  0.37021955089E+02  0.51100000000E-03 0. -1.
        -11    1    3    3    0    0 -0.16436437318E+02  0.38398828733E+01  0.12055392113E+02  0.20742074425E+02  0.51100000000E-03 0.  1.
         12    1    3    3    0    0 -0.10444685101E+02 -0.82125479282E+01  0.62833098708E+01  0.14697529496E+02  0.00000000000E+00 0. -1.
</event>
<event>
 7    1  0.1375918E-013  0.7246144E+02  0.7816164E-02  0.1226708E+00
        -11   -1    0    0    0    0  0.00000000000E+00  0.00000000000E+00  0.45593999997E+02  0.45594000000E+02  0.51100000000E-03 0. -1.
         11   -1    0    0    0    0 -0.00000000000E+00 -0.00000000000E+00 -0.45593999997E+02  0.45594000000E+02  0.51100000000E-03 0.  1.
    9900012    2    1    2    0    0 -0.10241352359E+02 -0.50811261350E+01 -0.14831750148E+02  0.72461442565E+02  0.69999833608E+02 0.  0.
         12    1    1    2    0    0  0.10241352359E+02  0.50811261350E+01  0.14831750148E+02  0.18726557435E+02  0.00000000000E+00 0. -1.
         11    1    3    3    0    0  0.18954314744E+02 -0.80424665699E+01  0.73987144420E+01  0.21878946309E+02  0.51100000000E-03 0. -1.
        -11    1    3    3    0    0 -0.29365439252E+02  0.22033433986E+01 -0.11319956128E+01  0.29469732930E+02  0.51100000000E-03 0.  1.
        -12    1    3    3    0    0  0.16977214952E+00  0.75799703626E+00 -0.21098468977E+02  0.21112763326E+02  0.00000000000E+00 0.  1.
</event>
<event>
 7    1  0.1375918E-013  0.7246161E+02  0.7816164E-02  0.1226708E+00
        -11   -1    0    0    0    0  0.00000000000E+00  0.00000000000E+00  0.45593999997E+02  0.45594000000E+02  0.51100000000E-03 0.  1.
         11   -1    0    0    0    0 -0.00000000000E+00 -0.00000000000E+00 -0.45593999997E+02  0.45594000000E+02  0.51100000000E-03 0. -1.
    9900012    2    1    2    0    0 -0.12410279914E+02  0.12349966926E+02  0.66438629305E+01  0.72461610992E+02  0.70000053017E+02 0.  0.
         12    1    1    2    0    0  0.12410279914E+02 -0.12349966926E+02 -0.66438629305E+01  0.18726389008E+02  0.00000000000E+00 0. -1.
         11    1    3    3    0    0  0.98784656662E+01  0.32897574298E+02 -0.10472213912E+02  0.35909633012E+02  0.51100000000E-03 0. -1.
        -11    1    3    3    0    0 -0.33071616169E+01 -0.91614682167E+01  0.80360603008E+01  0.12627275370E+02  0.51100000000E-03 0.  1.
         12    1    3    3    0    0 -0.18981583963E+02 -0.11386139155E+02  0.90800165414E+01  0.23924702611E+02  0.00000000000E+00 0. -1.
</event>
<event>
 7    1  0.1375918E-013  0.7246158E+02  0.7816164E-02  0.1226708E+00
        -11   -1    0    0    0    0  0.00000000000E+00  0.00000000000E+00  0.45593999997E+02  0.45594000000E+02  0.51100000000E-03 0.  1.
         11   -1    0    0    0    0 -0.00000000000E+00 -0.00000000000E+00 -0.45593999997E+02  0.45594000000E+02  0.51100000000E-03 0. -1.
    9900012    2    1    2    0    0  0.15825076591E+02  0.81963307173E+01  0.57503121464E+01  0.72461575458E+02  0.70000006727E+02 0.  0.
         12    1    1    2    0    0 -0.15825076591E+02 -0.81963307173E+01 -0.57503121464E+01  0.18726424542E+02  0.00000000000E+00 0. -1.
         11    1    3    3    0    0  0.14638423641E+02  0.10580932548E+02 -0.29080835031E+02  0.34233529567E+02  0.51100000000E-03 0. -1.
        -11    1    3    3    0    0  0.12738990771E+01  0.63976577128E+01  0.19465959931E+02  0.20529891363E+02  0.51100000000E-03 0.  1.
        -12    1    3    3    0    0 -0.87246127072E-01 -0.87822595436E+01  0.15365187247E+02  0.17698154528E+02  0.00000000000E+00 0.  1.
</event>
<event>
 7    1  0.1375918E-013  0.7246167E+02  0.7816164E-02  0.1226708E+00
        -11   -1    0    0    0    0  0.00000000000E+00  0.00000000000E+00  0.45593999997E+02  0.45594000000E+02  0.51100000000E-03 0. -1.
         11   -1    0    0    0    0 -0.00000000000E+00 -0.00000000000E+00 -0.45593999997E+02  0.45594000000E+02  0.51100000000E-03 0.  1.
    9900012    2    1    2    0    0  0.10387136585E+02 -0.15466300978E+02  0.18911768370E+01  0.72461665009E+02  0.70000123383E+02 0.  0.
         12    1    1    2    0    0 -0.10387136585E+02  0.15466300978E+02 -0.18911768370E+01  0.18726334991E+02  0.00000000000E+00 0. -1.
         11    1    3    3    0    0  0.10887268835E+01  0.19225583717E+02  0.23579110661E+02  0.30443108503E+02  0.51100000000E-03 0. -1.
        -11    1    3    3    0    0  0.41155125571E+01 -0.19028036741E+02 -0.12465373640E+02  0.23116858914E+02  0.51100000000E-03 0.  1.
         12    1    3    3    0    0  0.51828971442E+01 -0.15663847953E+02 -0.92225601845E+01  0.18901697592E+02  0.00000000000E+00 0. -1.
</event>
<event>
 7    1  0.1375918E-013  0.7246151E+02  0.7816164E-02  0.1226708E+00
        -11   -1    0    0    0    0  0.00000000000E+00  0.00000000000E+00  0.45593999997E+02  0.45594000000E+02  0.51100000000E-03 0.  1.
         11   -1    0    0    0    0 -0.00000000000E+00 -0.00000000000E+00 -0.45593999997E+02  0.45594000000E+02  0.51100000000E-03 0. -1.
    9900012    2    1    2    0    0 -0.11997892730E+02  0.11640965105E+02 -0.84391807010E+01  0.72461514226E+02  0.69999926961E+02 0.  0.
         12    1    1    2    0    0  0.11997892730E+02 -0.11640965105E+02  0.84391807010E+01  0.18726485774E+02  0.00000000000E+00 0. -1.
         11    1    3    3    0    0  0.77337160499E+01  0.44401533266E+01 -0.43907114418E+01  0.99400036584E+01  0.51100000000E-03 0. -1.
        -11    1    3    3    0    0 -0.26118724181E+02  0.94480411676E+01 -0.26913248243E+02  0.38675265558E+02  0.51100000000E-03 0.  1.
        -12    1    3    3    0    0  0.63871154006E+01 -0.22472293893E+01  0.22864778984E+02  0.23846245009E+02  0.00000000000E+00 0.  1.
</event>
<event>
 7    1  0.1375918E-013  0.7246155E+02  0.7816164E-02  0.1226708E+00
        -11   -1    0    0    0    0  0.00000000000E+00  0.00000000000E+00  0.45593999997E+02  0.45594000000E+02  0.51100000000E-03 0.  1.
         11   -1    0    0    0    0 -0.00000000000E+00 -0.00000000000E+00 -0.45593999997E+02  0.45594000000E+02  0.51100000000E-03 0. -1.
    9900012    2    1    2    0    0 -0.18159015820E+02  0.17288612028E+00  0.45716755540E+01  0.72461549121E+02  0.69999972418E+02 0.  0.
         12    1    1    2    0    0  0.18159015820E+02 -0.17288612028E+00 -0.45716755540E+01  0.18726450879E+02  0.00000000000E+00 0. -1.
         11    1    3    3    0    0  0.14127706215E+01  0.34356027569E+01  0.98539354729E+01  0.10530875163E+02  0.51100000000E-03 0. -1.
        -11    1    3    3    0    0 -0.13398850381E+02  0.25952778234E+02 -0.11569513330E+02  0.31415434559E+02  0.51100000000E-03 0.  1.
        -12    1    3    3    0    0 -0.61729360603E+01 -0.29215494871E+02  0.62872534107E+01  0.30515239399E+02  0.00000000000E+00 0.  1.
</event>
<event>
 7    1  0.1375918E-013  0.7246146E+02  0.7816164E-02  0.1226708E+00
        -11   -1    0    0    0    0  0.00000000000E+00  0.00000000000E+00  0.45593999997E+02  0.45594000000E+02  0.51100000000E-03 0.  1.
         11   -1    0    0    0    0 -0.00000000000E+00 -0.00000000000E+00 -0.45593999997E+02  0.45594000000E+02  0.51100000000E-03 0. -1.
    9900012    2    1    2    0    0  0.89200866086E+01  0.71046756936E+01  0.14853918863E+02  0.72461460880E+02  0.69999857467E+02 0.  0.
         12    1    1    2    0    0 -0.89200866086E+01 -0.71046756936E+01 -0.14853918863E+02  0.18726539120E+02  0.00000000000E+00 0. -1.
         11    1    3    3    0    0 -0.16954117278E+02  0.21636106635E+02  0.15599596254E+01  0.27531739453E+02  0.51100000000E-03 0. -1.
        -11    1    3    3    0    0  0.15845282708E+02 -0.10917012059E+02 -0.82162975502E+01  0.20922755127E+02  0.51100000000E-03 0.  1.
        -12    1    3    3    0    0  0.10028921178E+02 -0.36144188827E+01  0.21510256788E+02  0.24006966300E+02  0.00000000000E+00 0.  1.
</event>
<event>
 7    1  0.1375918E-013  0.7246169E+02  0.7816164E-02  0.1226708E+00
        -11   -1    0    0    0    0  0.00000000000E+00  0.00000000000E+00  0.45593999997E+02  0.45594000000E+02  0.51100000000E-03 0.  1.
         11   -1    0    0    0    0 -0.00000000000E+00 -0.00000000000E+00 -0.45593999997E+02  0.45594000000E+02  0.51100000000E-03 0. -1.
    9900012    2    1    2    0    0  0.17395160889E+01 -0.12437580780E+02  0.13890841451E+02  0.72461686746E+02  0.70000151699E+02 0.  0.
         12    1    1    2    0    0 -0.17395160889E+01  0.12437580780E+02 -0.13890841451E+02  0.18726313254E+02  0.00000000000E+00 0. -1.
         11    1    3    3    0    0 -0.12444424645E+01 -0.37143926555E+02 -0.85116763251E+01  0.38127005535E+02  0.51100000000E-03 0. -1.
        -11    1    3    3    0    0 -0.83075851512E+00  0.19618326100E+02  0.16277300567E+02  0.25505281663E+02  0.51100000000E-03 0.  1.
         12    1    3    3    0    0  0.38147170686E+01  0.50880196746E+01  0.61252172084E+01  0.88293995477E+01  0.00000000000E+00 0. -1.
</event>
<event>
 7    1  0.1375918E-013  0.7246157E+02  0.7816164E-02  0.1226708E+00
        -11   -1    0    0    0    0  0.00000000000E+00  0.00000000000E+00  0.45593999997E+02  0.45594000000E+02  0.51100000000E-03 0. -1.
         11   -1    0    0    0    0 -0.00000000000E+00 -0.00000000000E+00 -0.45593999997E+02  0.45594000000E+02  0.51100000000E-03 0.  1.
    9900012    2    1    2    0    0  0.13272392969E+02 -0.53186649665E+01 -0.12092750706E+02  0.72461568632E+02  0.69999997835E+02 0.  0.
         12    1    1    2    0    0 -0.13272392969E+02  0.53186649665E+01  0.12092750706E+02  0.18726431368E+02  0.00000000000E+00 0. -1.
         11    1    3    3    0    0 -0.12819435699E+02 -0.13585538957E+02 -0.25327967549E+02  0.31470791868E+02  0.51100000000E-03 0. -1.
        -11    1    3    3    0    0  0.19313929844E+02 -0.57787889120E+01 -0.56251123050E+00  0.20167764042E+02  0.51100000000E-03 0.  1.
         12    1    3    3    0    0  0.67778988237E+01  0.14045662902E+02  0.13797728074E+02  0.20823012722E+02  0.00000000000E+00 0. -1.
</event>
<event>
 7    1  0.1375918E-013  0.7246166E+02  0.7816164E-02  0.1226708E+00
        -11   -1    0    0    0    0  0.00000000000E+00  0.00000000000E+00  0.45593999997E+02  0.45594000000E+02  0.51100000000E-03 0.  1.
         11   -1    0    0    0    0 -0.00000000000E+00 -0.00000000000E+00 -0.45593999997E+02  0.45594000000E+02  0.51100000000E-03 0. -1.
    9900012    2    1    2    0    0  0.27535692296E+01 -0.94235550427E+01  0.15946484394E+02  0.72461657653E+02  0.70000113801E+02 0.  0.
         12    1    1    2    0    0 -0.27535692296E+01  0.94235550427E+01 -0.15946484394E+02  0.18726342347E+02  0.00000000000E+00 0. -1.
         11    1    3    3    0    0  0.16332671460E+02 -0.14904687877E+02  0.17710019843E+02  0.28329325457E+02  0.51100000000E-03 0.  1.
        -11    1    3    3    0    0 -0.29726003833E+01  0.14900298465E+02 -0.17346539752E+02  0.23059871834E+02  0.51100000000E-03 0. -1.
         12    1    3    3    0    0 -0.10606501847E+02 -0.94191656308E+01  0.15583004303E+02  0.21072460363E+02  0.00000000000E+00 0. -1.
</event>
<event>
 7    1  0.1375918E-013  0.7246148E+02  0.7816164E-02  0.1226708E+00
        -11   -1    0    0    0    0  0.00000000000E+00  0.00000000000E+00  0.45593999997E+02  0.45594000000E+02  0.51100000000E-03 0.  1.
         11   -1    0    0    0    0 -0.00000000000E+00 -0.00000000000E+00 -0.45593999997E+02  0.45594000000E+02  0.51100000000E-03 0. -1.
    9900012    2    1    2    0    0 -0.10869101941E+02 -0.11689501306E+02  0.97928954545E+01  0.72461478188E+02  0.69999880015E+02 0.  0.
         12    1    1    2    0    0  0.10869101941E+02  0.11689501306E+02 -0.97928954545E+01  0.18726521812E+02  0.00000000000E+00 0. -1.
         11    1    3    3    0    0 -0.14920292530E+01  0.87904983000E+01 -0.22589300773E+02  0.24285294343E+02  0.51100000000E-03 0. -1.
        -11    1    3    3    0    0 -0.14881098057E+02 -0.24166768246E+02  0.22216233552E+02  0.36042208594E+02  0.51100000000E-03 0.  1.
         12    1    3    3    0    0  0.55040253691E+01  0.36867686405E+01  0.10165962676E+02  0.12133975251E+02  0.00000000000E+00 0. -1.
</event>
<event>
 7    1  0.1375918E-013  0.7246160E+02  0.7816164E-02  0.1226708E+00
        -11   -1    0    0    0    0  0.00000000000E+00  0.00000000000E+00  0.45593999997E+02  0.45594000000E+02  0.51100000000E-03 0.  1.
         11   -1    0    0    0    0 -0.00000000000E+00 -0.00000000000E+00 -0.45593999997E+02  0.45594000000E+02  0.51100000000E-03 0. -1.
    9900012    2    1    2    0    0 -0.88868933591E+01 -0.16437817708E+02  0.12245442690E+01  0.72461595293E+02  0.70000032565E+02 0.  0.
         12    1    1    2    0    0  0.88868933591E+01  0.16437817708E+02 -0.12245442690E+01  0.18726404707E+02  0.00000000000E+00 0. -1.
         11    1    3    3    0    0  0.89004920955E+01  0.40171816816E+01  0.68920668469E+01  0.11952284045E+02  0.51100000000E-03 0. -1.
        -11    1    3    3    0    0 -0.36201560726E+02 -0.58503941224E+01 -0.20360461658E+01  0.36727722426E+02  0.51100000000E-03 0.  1.
        -12    1    3    3    0    0  0.18414175271E+02 -0.14604605268E+02 -0.36314764120E+01  0.23781588822E+02  0.00000000000E+00 0.  1.
</event>
<event>
 7    1  0.1375918E-013  0.7246174E+02  0.7816164E-02  0.1226708E+00
        -11   -1    0    0    0    0  0.00000000000E+00  0.00000000000E+00  0.45593999997E+02  0.45594000000E+02  0.51100000000E-03 0. -1.
         11   -1    0    0    0    0 -0.00000000000E+00 -0.00000000000E+00 -0.45593999997E+02  0.45594000000E+02  0.51100000000E-03 0.  1.
    9900012    2    1    2    0    0 -0.39065275318E+00 -0.13120819929E+02 -0.13355310941E+02  0.72461738881E+02  0.70000219615E+02 0.  0.
         12    1    1    2    0    0  0.39065275318E+00  0.13120819929E+02  0.13355310941E+02  0.18726261119E+02  0.00000000000E+00 0. -1.
         11    1    3    3    0    0  0.33774850835E+01  0.13550881820E+02  0.15468855678E+02  0.20840328688E+02  0.51100000000E-03 0. -1.
        -11    1    3    3    0    0  0.12886258732E+02 -0.19851736473E+01 -0.92129602074E+01  0.15964811761E+02  0.51100000000E-03 0.  1.
         12    1    3    3    0    0 -0.16654396569E+02 -0.24686528102E+02 -0.19611206411E+02  0.35656598431E+02  0.00000000000E+00 0. -1.
</event>
<event>
 7    1  0.1375918E-013  0.7246153E+02  0.7816164E-02  0.1226708E+00
        -11   -1    0    0    0    0  0.00000000000E+00  0.00000000000E+00  0.45593999997E+02  0.45594000000E+02  0.51100000000E-03 0.  1.
         11   -1    0    0    0    0 -0.00000000000E+00 -0.00000000000E+00 -0.45593999997E+02  0.45594000000E+02  0.51100000000E-03 0. -1.
    9900012    2    1    2    0    0  0.44150242072E+01  0.55384079707E+01  0.17335352930E+02  0.72461525084E+02  0.69999941105E+02 0.  0.
         12    1    1    2    0    0 -0.44150242072E+01 -0.55384079707E+01 -0.17335352930E+02  0.18726474916E+02  0.00000000000E+00 0. -1.
         11    1    3    3    0    0  0.22638383941E+02  0.68531761433E+01 -0.13037355403E+02  0.27008055962E+02  0.51100000000E-03 0. -1.
        -11    1    3    3    0    0 -0.13403739212E+02  0.12551853790E+02  0.12001787978E+02  0.21937460504E+02  0.51100000000E-03 0.  1.
         12    1    3    3    0    0 -0.48196205210E+01 -0.13866621963E+02  0.18370920354E+02  0.23516008617E+02  0.00000000000E+00 0. -1.
</event>
<event>
 7    1  0.1375918E-013  0.7246153E+02  0.7816164E-02  0.1226708E+00
        -11   -1    0    0    0    0  0.00000000000E+00  0.00000000000E+00  0.45593999997E+02  0.45594000000E+02  0.51100000000E-03 0. -1.
         11   -1    0    0    0    0 -0.00000000000E+00 -0.00000000000E+00 -0.45593999997E+02  0.45594000000E+02  0.51100000000E-03 0.  1.
    9900012    2    1    2    0    0 -0.25215108690E+01 -0.18555846620E+02  0.57374453770E-01  0.72461528023E+02  0.69999944934E+02 0.  0.
         12    1    1    2    0    0  0.25215108690E+01  0.18555846620E+02 -0.57374453770E-01  0.18726471977E+02  0.00000000000E+00 0. -1.
         11    1    3    3    0    0  0.12296748226E+01 -0.13471140336E+02  0.23829441545E+02  0.27401204476E+02  0.51100000000E-03 0. -1.
        -11    1    3    3    0    0  0.98896519331E+01  0.69358262628E+01 -0.24009966569E+02  0.26877302621E+02  0.51100000000E-03 0.  1.
         12    1    3    3    0    0 -0.13640837625E+02 -0.12020532548E+02  0.23789947739E+00  0.18183020926E+02  0.00000000000E+00 0. -1.
</event>
<event>
 7    1  0.1375918E-013  0.7246163E+02  0.7816164E-02  0.1226708E+00
        -11   -1    0    0    0    0  0.00000000000E+00  0.00000000000E+00  0.45593999997E+02  0.45594000000E+02  0.51100000000E-03 0. -1.
         11   -1    0    0    0    0 -0.00000000000E+00 -0.00000000000E+00 -0.45593999997E+02  0.45594000000E+02  0.51100000000E-03 0.  1.
    9900012    2    1    2    0    0  0.72545772648E+01  0.36199305942E+01 -0.16880286397E+02  0.72461632022E+02  0.70000080412E+02 0.  0.
         12    1    1    2    0    0 -0.72545772648E+01 -0.36199305942E+01  0.16880286397E+02  0.18726367978E+02  0.00000000000E+00 0. -1.
         11    1    3    3    0    0 -0.27127252065E+01 -0.39986859161E+01  0.10028446322E+02  0.11131850834E+02  0.51100000000E-03 0. -1.
        -11    1    3    3    0    0  0.29572404330E+02 -0.13194844571E+01 -0.26575168612E+02  0.39780745646E+02  0.51100000000E-03 0.  1.
        -12    1    3    3    0    0 -0.19605101859E+02  0.89381009674E+01 -0.33356410649E+00  0.21549035542E+02  0.00000000000E+00 0.  1.
</event>
<event>
 7    1  0.1375918E-013  0.7246157E+02  0.7816164E-02  0.1226708E+00
        -11   -1    0    0    0    0  0.00000000000E+00  0.00000000000E+00  0.45593999997E+02  0.45594000000E+02  0.51100000000E-03 0.  1.
         11   -1    0    0    0    0 -0.00000000000E+00 -0.00000000000E+00 -0.45593999997E+02  0.45594000000E+02  0.51100000000E-03 0. -1.
    9900012    2    1    2    0    0  0.51894375211E+01  0.87351408052E+01  0.15730419439E+02  0.72461573688E+02  0.70000004421E+02 0.  0.
         12    1    1    2    0    0 -0.51894375211E+01 -0.87351408052E+01 -0.15730419439E+02  0.18726426312E+02  0.00000000000E+00 0. -1.
         11    1    3    3    0    0  0.31630037600E+02  0.42129831326E+01 -0.75695055135E+01  0.32794906913E+02  0.51100000000E-03 0. -1.
        -11    1    3    3    0    0 -0.18238070508E+02  0.93013290068E+01  0.86845452334E+01  0.22238778368E+02  0.51100000000E-03 0.  1.
        -12    1    3    3    0    0 -0.82025295712E+01 -0.47791713341E+01  0.14615379719E+02  0.17427888407E+02  0.00000000000E+00 0.  1.
</event>
<event>
 7    1  0.1375918E-013  0.7246168E+02  0.7816164E-02  0.1226708E+00
        -11   -1    0    0    0    0  0.00000000000E+00  0.00000000000E+00  0.45593999997E+02  0.45594000000E+02  0.51100000000E-03 0.  1.
         11   -1    0    0    0    0 -0.00000000000E+00 -0.00000000000E+00 -0.45593999997E+02  0.45594000000E+02  0.51100000000E-03 0. -1.
    9900012    2    1    2    0    0 -0.35554190045E+00 -0.21200432765E+01  0.18602524457E+02  0.72461684033E+02  0.70000148165E+02 0.  0.
         12    1    1    2    0    0  0.35554190045E+00  0.21200432765E+01 -0.18602524457E+02  0.18726315967E+02  0.00000000000E+00 0. -1.
         11    1    3    3    0    0  0.34079953797E+01  0.25509105751E+02 -0.10469902648E+02  0.27783948072E+02  0.51100000000E-03 0. -1.
        -11    1    3    3    0    0 -0.96994765320E+01 -0.18362705438E+02  0.10953347229E+02  0.23478599016E+02  0.51100000000E-03 0.  1.
        -12    1    3    3    0    0  0.59359392519E+01 -0.92664435900E+01  0.18119079877E+02  0.21199136944E+02  0.00000000000E+00 0.  1.
</event>
<event>
 7    1  0.1375918E-013  0.7246104E+02  0.7816164E-02  0.1226709E+00
        -11   -1    0    0    0    0  0.00000000000E+00  0.00000000000E+00  0.45593999997E+02  0.45594000000E+02  0.51100000000E-03 0.  1.
         11   -1    0    0    0    0 -0.00000000000E+00 -0.00000000000E+00 -0.45593999997E+02  0.45594000000E+02  0.51100000000E-03 0. -1.
    9900012    2    1    2    0    0 -0.92543156155E+01  0.92451406910E+01  0.13400901053E+02  0.72461037274E+02  0.69999305638E+02 0.  0.
         12    1    1    2    0    0  0.92543156155E+01 -0.92451406910E+01 -0.13400901053E+02  0.18726962726E+02  0.00000000000E+00 0. -1.
         11    1    3    3    0    0 -0.22571647684E+02 -0.40853798632E+01 -0.33924480495E+01  0.23187891492E+02  0.51100000000E-03 0. -1.
        -11    1    3    3    0    0 -0.76858763694E+01  0.17712002324E+02  0.19744465356E+02  0.27615785963E+02  0.51100000000E-03 0.  1.
         12    1    3    3    0    0  0.21003208438E+02 -0.43814817699E+01 -0.29511162534E+01  0.21657359819E+02  0.00000000000E+00 0. -1.
</event>
<event>
 7    1  0.1375918E-013  0.7246170E+02  0.7816164E-02  0.1226708E+00
        -11   -1    0    0    0    0  0.00000000000E+00  0.00000000000E+00  0.45593999997E+02  0.45594000000E+02  0.51100000000E-03 0.  1.
         11   -1    0    0    0    0 -0.00000000000E+00 -0.00000000000E+00 -0.45593999997E+02  0.45594000000E+02  0.51100000000E-03 0. -1.
    9900012    2    1    2    0    0  0.15484504857E+02 -0.10215443974E+02 -0.25591289756E+01  0.72461699582E+02  0.70000168421E+02 0.  0.
         12    1    1    2    0    0 -0.15484504857E+02  0.10215443974E+02  0.25591289756E+01  0.18726300418E+02  0.00000000000E+00 0. -1.
         11    1    3    3    0    0  0.33292563527E+02  0.72908415036E+01 -0.13098585873E+01  0.34106698547E+02  0.51100000000E-03 0. -1.
        -11    1    3    3    0    0 -0.50924970436E+01 -0.21027422489E+01  0.12799737230E+02  0.13935147093E+02  0.51100000000E-03 0.  1.
         12    1    3    3    0    0 -0.12715561626E+02 -0.15403543228E+02 -0.14049007618E+02  0.24419853941E+02  0.00000000000E+00 0. -1.
</event>
<event>
 7    1  0.1375918E-013  0.7246159E+02  0.7816164E-02  0.1226708E+00
        -11   -1    0    0    0    0  0.00000000000E+00  0.00000000000E+00  0.45593999997E+02  0.45594000000E+02  0.51100000000E-03 0.  1.
         11   -1    0    0    0    0 -0.00000000000E+00 -0.00000000000E+00 -0.45593999997E+02  0.45594000000E+02  0.51100000000E-03 0. -1.
    9900012    2    1    2    0    0 -0.80625912949E+01 -0.86629514590E+01  0.14512965704E+02  0.72461594047E+02  0.70000030943E+02 0.  0.
         12    1    1    2    0    0  0.80625912949E+01  0.86629514590E+01 -0.14512965704E+02  0.18726405953E+02  0.00000000000E+00 0. -1.
         11    1    3    3    0    0 -0.22354862637E+02 -0.24994237046E+02 -0.10914939206E+02  0.35264538380E+02  0.51100000000E-03 0. -1.
        -11    1    3    3    0    0  0.19432138410E+01 -0.14234064246E+01  0.10853378801E+02  0.11117463629E+02  0.51100000000E-03 0.  1.
         12    1    3    3    0    0  0.12349057501E+02  0.17754692012E+02  0.14574526109E+02  0.26079592038E+02  0.00000000000E+00 0. -1.
</event>
<event>
 7    1  0.1375918E-013  0.7246155E+02  0.7816164E-02  0.1226708E+00
        -11   -1    0    0    0    0  0.00000000000E+00  0.00000000000E+00  0.45593999997E+02  0.45594000000E+02  0.51100000000E-03 0. -1.
         11   -1    0    0    0    0 -0.00000000000E+00 -0.00000000000E+00 -0.45593999997E+02  0.45594000000E+02  0.51100000000E-03 0.  1.
    9900012    2    1    2    0    0  0.46802899198E+01  0.75884869782E+01 -0.16467841455E+02  0.72461546771E+02  0.69999969356E+02 0.  0.
         12    1    1    2    0    0 -0.46802899198E+01 -0.75884869782E+01  0.16467841455E+02  0.18726453229E+02  0.00000000000E+00 0. -1.
         11    1    3    3    0    0 -0.62001753804E+01 -0.25007831532E+02 -0.10590637703E+02  0.27856694346E+02  0.51100000000E-03 0. -1.
        -11    1    3    3    0    0  0.16777096048E+02  0.31114673110E+02 -0.10601633035E+02  0.36905127798E+02  0.51100000000E-03 0.  1.
        -12    1    3    3    0    0 -0.58966307480E+01  0.14816454006E+01  0.47244292827E+01  0.76997246261E+01  0.00000000000E+00 0.  1.
</event>
<event>
 7    1  0.1375918E-013  0.7246159E+02  0.7816164E-02  0.1226708E+00
        -11   -1    0    0    0    0  0.00000000000E+00  0.00000000000E+00  0.45593999997E+02  0.45594000000E+02  0.51100000000E-03 0. -1.
         11   -1    0    0    0    0 -0.00000000000E+00 -0.00000000000E+00 -0.45593999997E+02  0.45594000000E+02  0.51100000000E-03 0.  1.
    9900012    2    1    2    0    0  0.16163635465E+02  0.90967357964E+01  0.25816431422E+01  0.72461585636E+02  0.70000019986E+02 0.  0.
         12    1    1    2    0    0 -0.16163635465E+02 -0.90967357964E+01 -0.25816431422E+01  0.18726414364E+02  0.00000000000E+00 0. -1.
         11    1    3    3    0    0  0.17179362102E+01 -0.85205856669E+01  0.59918073590E+01  0.10557151160E+02  0.51100000000E-03 0. -1.
        -11    1    3    3    0    0  0.26244379265E+02  0.32934878275E+02  0.78392325606E+00  0.42119926234E+02  0.51100000000E-03 0.  1.
        -12    1    3    3    0    0 -0.11798680010E+02 -0.15317556812E+02 -0.41940874728E+01  0.19784508242E+02  0.00000000000E+00 0.  1.
</event>
<event>
 7    1  0.1375918E-013  0.7246156E+02  0.7816164E-02  0.1226708E+00
        -11   -1    0    0    0    0  0.00000000000E+00  0.00000000000E+00  0.45593999997E+02  0.45594000000E+02  0.51100000000E-03 0.  1.
         11   -1    0    0    0    0 -0.00000000000E+00 -0.00000000000E+00 -0.45593999997E+02  0.45594000000E+02  0.51100000000E-03 0. -1.
    9900012    2    1    2    0    0  0.16468001710E+02 -0.46155649904E+01 -0.76276430752E+01  0.72461562555E+02  0.69999989918E+02 0.  0.
         12    1    1    2    0    0 -0.16468001710E+02  0.46155649904E+01  0.76276430752E+01  0.18726437445E+02  0.00000000000E+00 0. -1.
         11    1    3    3    0    0 -0.59175350302E+01  0.44518148263E+01 -0.45941966550E+01  0.87145005162E+01  0.51100000000E-03 0. -1.
        -11    1    3    3    0    0  0.32481289103E+02 -0.25714013298E+02 -0.10758305710E+02  0.42801702813E+02  0.51100000000E-03 0.  1.
        -12    1    3    3    0    0 -0.10095752363E+02  0.16646633481E+02  0.77248592900E+01  0.20945359225E+02  0.00000000000E+00 0.  1.
</event>
<event>
 7    1  0.1375918E-013  0.7246175E+02  0.7816164E-02  0.1226708E+00
        -11   -1    0    0    0    0  0.00000000000E+00  0.00000000000E+00  0.45593999997E+02  0.45594000000E+02  0.51100000000E-03 0.  1.
         11   -1    0    0    0    0 -0.00000000000E+00 -0.00000000000E+00 -0.45593999997E+02  0.45594000000E+02  0.51100000000E-03 0. -1.
    9900012    2    1    2    0    0 -0.66457481455E+01  0.16093099263E+02 -0.68933630524E+01  0.72461754608E+02  0.70000240102E+02 0.  0.
         12    1    1    2    0    0  0.66457481455E+01 -0.16093099263E+02  0.68933630524E+01  0.18726245392E+02  0.00000000000E+00 0. -1.
         11    1    3    3    0    0  0.13422895602E+02 -0.17101227071E+02  0.34341239151E+01  0.22009527505E+02  0.51100000000E-03 0. -1.
        -11    1    3    3    0    0 -0.12996763130E+01  0.10621732820E+02  0.10078831308E+02  0.14700109095E+02  0.51100000000E-03 0.  1.
         12    1    3    3    0    0 -0.18768967434E+02  0.22572593514E+02 -0.20406318276E+02  0.35752118008E+02  0.00000000000E+00 0. -1.
</event>
<event>
 7    1  0.1375918E-013  0.7246155E+02  0.7816164E-02  0.1226708E+00
        -11   -1    0    0    0    0  0.00000000000E+00  0.00000000000E+00  0.45593999997E+02  0.45594000000E+02  0.51100000000E-03 0.  1.
         11   -1    0    0    0    0 -0.00000000000E+00 -0.00000000000E+00 -0.45593999997E+02  0.45594000000E+02  0.51100000000E-03 0. -1.
    9900012    2    1    2    0    0  0.15547276058E+02  0.20269524744E+01 -0.10239804935E+02  0.72461549876E+02  0.69999973401E+02 0.  0.
         12    1    1    2    0    0 -0.15547276058E+02 -0.20269524744E+01  0.10239804935E+02  0.18726450124E+02  0.00000000000E+00 0. -1.
         11    1    3    3    0    0 -0.11466788507E+02 -0.12893250943E+02 -0.14915567889E+02  0.22807834712E+02  0.51100000000E-03 0. -1.
        -11    1    3    3    0    0  0.90282804653E+01  0.51258244822E+01  0.21024934518E+02  0.23448492415E+02  0.51100000000E-03 0.  1.
         12    1    3    3    0    0  0.17985784100E+02  0.97943789357E+01 -0.16349171564E+02  0.26205222748E+02  0.00000000000E+00 0. -1.
</event>
<event>
 7    1  0.1375918E-013  0.7246169E+02  0.7816164E-02  0.1226708E+00
        -11   -1    0    0    0    0  0.00000000000E+00  0.00000000000E+00  0.45593999997E+02  0.45594000000E+02  0.51100000000E-03 0.  1.
         11   -1    0    0    0    0 -0.00000000000E+00 -0.00000000000E+00 -0.45593999997E+02  0.45594000000E+02  0.51100000000E-03 0. -1.
    9900012    2    1    2    0    0 -0.76726063884E+01 -0.28761275182E+01  0.16838453206E+02  0.72461694848E+02  0.70000162254E+02 0.  0.
         12    1    1    2    0    0  0.76726063884E+01  0.28761275182E+01 -0.16838453206E+02  0.18726305152E+02  0.00000000000E+00 0. -1.
         11    1    3    3    0    0  0.29325724185E+01  0.38415182951E+01  0.54222417338E+01  0.72634667675E+01  0.51100000000E-03 0. -1.
        -11    1    3    3    0    0 -0.80550808652E+01 -0.14474097975E+02 -0.23828368783E+02  0.29020251533E+02  0.51100000000E-03 0.  1.
        -12    1    3    3    0    0 -0.25500979417E+01  0.77564521617E+01  0.35244580255E+02  0.36177976547E+02  0.00000000000E+00 0.  1.
</event>
<event>
 7    1  0.1375918E-013  0.7246159E+02  0.7816164E-02  0.1226708E+00
        -11   -1    0    0    0    0  0.00000000000E+00  0.00000000000E+00  0.45593999997E+02  0.45594000000E+02  0.51100000000E-03 0.  1.
         11   -1    0    0    0    0 -0.00000000000E+00 -0.00000000000E+00 -0.45593999997E+02  0.45594000000E+02  0.51100000000E-03 0. -1.
    9900012    2    1    2    0    0  0.14081362617E+02  0.28228387111E+01  0.12017712664E+02  0.72461585255E+02  0.70000019489E+02 0.  0.
         12    1    1    2    0    0 -0.14081362617E+02 -0.28228387111E+01 -0.12017712664E+02  0.18726414745E+02  0.00000000000E+00 0. -1.
         11    1    3    3    0    0  0.52642749205E+01 -0.75267997432E+01 -0.18812364537E+02  0.20934907798E+02  0.51100000000E-03 0. -1.
        -11    1    3    3    0    0  0.83224334975E+01 -0.77384412880E+01  0.31430486521E+02  0.33421876908E+02  0.51100000000E-03 0.  1.
         12    1    3    3    0    0  0.49465419882E+00  0.18088079742E+02 -0.60040932016E+00  0.18104800548E+02  0.00000000000E+00 0. -1.
</event>
<event>
 7    1  0.1375918E-013  0.7246155E+02  0.7816164E-02  0.1226708E+00
        -11   -1    0    0    0    0  0.00000000000E+00  0.00000000000E+00  0.45593999997E+02  0.45594000000E+02  0.51100000000E-03 0.  1.
         11   -1    0    0    0    0 -0.00000000000E+00 -0.00000000000E+00 -0.45593999997E+02  0.45594000000E+02  0.51100000000E-03 0. -1.
    9900012    2    1    2    0    0 -0.78192637122E+01 -0.16289429916E+02  0.49186856748E+01  0.72461551305E+02  0.69999975262E+02 0.  0.
         12    1    1    2    0    0  0.78192637122E+01  0.16289429916E+02 -0.49186856748E+01  0.18726448695E+02  0.00000000000E+00 0. -1.
         11    1    3    3    0    0 -0.52627363276E+01 -0.21719634444E+01 -0.14068729611E+02  0.15177054128E+02  0.51100000000E-03 0. -1.
        -11    1    3    3    0    0 -0.18658627248E+02 -0.10958193913E+02  0.30387125892E+02  0.37304206262E+02  0.51100000000E-03 0.  1.
        -12    1    3    3    0    0  0.16102099864E+02 -0.31592725585E+01 -0.11399710606E+02  0.19980290914E+02  0.00000000000E+00 0.  1.
</event>
<event>
 7    1  0.1375918E-013  0.7246164E+02  0.7816164E-02  0.1226708E+00
        -11   -1    0    0    0    0  0.00000000000E+00  0.00000000000E+00  0.45593999997E+02  0.45594000000E+02  0.51100000000E-03 0. -1.
         11   -1    0    0    0    0 -0.00000000000E+00 -0.00000000000E+00 -0.45593999997E+02  0.45594000000E+02  0.51100000000E-03 0.  1.
    9900012    2    1    2    0    0  0.73079287666E+01 -0.59050205533E+01 -0.16198809505E+02  0.72461641038E+02  0.70000092157E+02 0.  0.
         12    1    1    2    0    0 -0.73079287666E+01  0.59050205533E+01  0.16198809505E+02  0.18726358962E+02  0.00000000000E+00 0. -1.
         11    1    3    3    0    0  0.25753748648E+01 -0.92226816790E+01  0.11717830756E+02  0.15132678908E+02  0.51100000000E-03 0. -1.
        -11    1    3    3    0    0 -0.15758012651E+02 -0.11395009355E+02 -0.25383928429E+02  0.31976632463E+02  0.51100000000E-03 0.  1.
        -12    1    3    3    0    0  0.20490566553E+02  0.14712670481E+02 -0.25327118313E+01  0.25352329667E+02  0.00000000000E+00 0.  1.
</event>
<event>
 7    1  0.1375918E-013  0.7246193E+02  0.7816164E-02  0.1226707E+00
        -11   -1    0    0    0    0  0.00000000000E+00  0.00000000000E+00  0.45593999997E+02  0.45594000000E+02  0.51100000000E-03 0.  1.
         11   -1    0    0    0    0 -0.00000000000E+00 -0.00000000000E+00 -0.45593999997E+02  0.45594000000E+02  0.51100000000E-03 0. -1.
    9900012    2    1    2    0    0  0.10280707218E+02  0.12025764109E+02  0.10017668337E+02  0.72461932014E+02  0.70000471205E+02 0.  0.
         12    1    1    2    0    0 -0.10280707218E+02 -0.12025764109E+02 -0.10017668337E+02  0.18726067986E+02  0.00000000000E+00 0. -1.
         11    1    3    3    0    0 -0.69296865990E+01  0.27120327182E+02 -0.67667067403E+01  0.28797934356E+02  0.51100000000E-03 0. -1.
        -11    1    3    3    0    0  0.18077418226E+02  0.42798199822E+01  0.15558132576E+02  0.24231495999E+02  0.51100000000E-03 0.  1.
        -12    1    3    3    0    0 -0.86702440899E+00 -0.19374383055E+02  0.12262425005E+01  0.19432501659E+02  0.00000000000E+00 0.  1.
</event>
<event>
 7    1  0.1375918E-013  0.7246157E+02  0.7816164E-02  0.1226708E+00
        -11   -1    0    0    0    0  0.00000000000E+00  0.00000000000E+00  0.45593999997E+02  0.45594000000E+02  0.51100000000E-03 0. -1.
         11   -1    0    0    0    0 -0.00000000000E+00 -0.00000000000E+00 -0.45593999997E+02  0.45594000000E+02  0.51100000000E-03 0.  1.
    9900012    2    1    2    0    0  0.78598887628E+01 -0.10979340179E+02 -0.12975186344E+02  0.72461568872E+02  0.69999998147E+02 0.  0.
         12    1    1    2    0    0 -0.78598887628E+01  0.10979340179E+02  0.12975186344E+02  0.18726431128E+02  0.00000000000E+00 0. -1.
         11    1    3    3    0    0 -0.32861655281E+01 -0.25073697656E+02  0.13010495902E+02  0.28438744731E+02  0.51100000000E-03 0. -1.
        -11    1    3    3    0    0 -0.58896167132E+01  0.17146485004E+02 -0.11655375473E+02  0.21553127631E+02  0.51100000000E-03 0.  1.
         12    1    3    3    0    0  0.17035671004E+02 -0.30521275271E+01 -0.14330306773E+02  0.22469696509E+02  0.00000000000E+00 0. -1.
</event>
<event>
 7    1  0.1375918E-013  0.7246157E+02  0.7816164E-02  0.1226708E+00
        -11   -1    0    0    0    0  0.00000000000E+00  0.00000000000E+00  0.45593999997E+02  0.45594000000E+02  0.51100000000E-03 0.  1.
         11   -1    0    0    0    0 -0.00000000000E+00 -0.00000000000E+00 -0.45593999997E+02  0.45594000000E+02  0.51100000000E-03 0. -1.
    9900012    2    1    2    0    0  0.15768441608E+02 -0.86610190336E+01 -0.51982694966E+01  0.72461574628E+02  0.70000005646E+02 0.  0.
         12    1    1    2    0    0 -0.15768441608E+02  0.86610190336E+01  0.51982694966E+01  0.18726425372E+02  0.00000000000E+00 0. -1.
         11    1    3    3    0    0 -0.10452717095E+01 -0.11456239920E+01 -0.10545986049E+01  0.18754268197E+01  0.51100000000E-03 0. -1.
        -11    1    3    3    0    0  0.41972141501E+02 -0.13482701422E+02  0.15440060011E+01  0.44111538792E+02  0.51100000000E-03 0.  1.
        -12    1    3    3    0    0 -0.25158428184E+02  0.59673063808E+01 -0.56876768929E+01  0.26474609016E+02  0.00000000000E+00 0.  1.
</event>
<event>
 7    1  0.1375918E-013  0.7246158E+02  0.7816164E-02  0.1226708E+00
        -11   -1    0    0    0    0  0.00000000000E+00  0.00000000000E+00  0.45593999997E+02  0.45594000000E+02  0.51100000000E-03 0.  1.
         11   -1    0    0    0    0 -0.00000000000E+00 -0.00000000000E+00 -0.45593999997E+02  0.45594000000E+02  0.51100000000E-03 0. -1.
    9900012    2    1    2    0    0 -0.11174711275E+02  0.12461553785E+02  0.83972760183E+01  0.72461581780E+02  0.70000014963E+02 0.  0.
         12    1    1    2    0    0  0.11174711275E+02 -0.12461553785E+02 -0.83972760183E+01  0.18726418220E+02  0.00000000000E+00 0. -1.
         11    1    3    3    0    0 -0.18694945792E+02 -0.27663748959E+01  0.12025594471E+01  0.18936736195E+02  0.51100000000E-03 0. -1.
        -11    1    3    3    0    0  0.22763729785E+02 -0.40179419762E+01  0.15241849542E+02  0.27688359091E+02  0.51100000000E-03 0.  1.
        -12    1    3    3    0    0 -0.15243495268E+02  0.19245870657E+02 -0.80471329708E+01  0.25836486494E+02  0.00000000000E+00 0.  1.
</event>
<event>
 7    1  0.1375918E-013  0.7246146E+02  0.7816164E-02  0.1226708E+00
        -11   -1    0    0    0    0  0.00000000000E+00  0.00000000000E+00  0.45593999997E+02  0.45594000000E+02  0.51100000000E-03 0.  1.
         11   -1    0    0    0    0 -0.00000000000E+00 -0.00000000000E+00 -0.45593999997E+02  0.45594000000E+02  0.51100000000E-03 0. -1.
    9900012    2    1    2    0    0  0.13489088218E+02  0.99649943559E+01  0.83322701935E+01  0.72461458941E+02  0.69999854941E+02 0.  0.
         12    1    1    2    0    0 -0.13489088218E+02 -0.99649943559E+01 -0.83322701935E+01  0.18726541059E+02  0.00000000000E+00 0. -1.
         11    1    3    3    0    0  0.21005469829E+02 -0.12829851582E+02  0.11963119583E+02  0.27366970690E+02  0.51100000000E-03 0. -1.
        -11    1    3    3    0    0 -0.74501615870E+00  0.30230236660E+02 -0.11471854203E+02  0.32342320522E+02  0.51100000000E-03 0.  1.
         12    1    3    3    0    0 -0.67713654523E+01 -0.74353907228E+01  0.78410048143E+01  0.12752167729E+02  0.00000000000E+00 0. -1.
</event>
<event>
 7    1  0.1375918E-013  0.7246159E+02  0.7816164E-02  0.1226708E+00
        -11   -1    0    0    0    0  0.00000000000E+00  0.00000000000E+00  0.45593999997E+02  0.45594000000E+02  0.51100000000E-03 0.  1.
         11   -1    0    0    0    0 -0.00000000000E+00 -0.00000000000E+00 -0.45593999997E+02  0.45594000000E+02  0.51100000000E-03 0. -1.
    9900012    2    1    2    0    0 -0.83478719136E+00  0.18693064007E+02  0.74220477850E+00  0.72461591387E+02  0.70000027477E+02 0.  0.
         12    1    1    2    0    0  0.83478719136E+00 -0.18693064007E+02 -0.74220477850E+00  0.18726408613E+02  0.00000000000E+00 0. -1.
         11    1    3    3    0    0 -0.17293478003E+01  0.14197136898E+02  0.58722406578E+01  0.15460677557E+02  0.51100000000E-03 0. -1.
        -11    1    3    3    0    0  0.56210468219E+01 -0.23161468351E+02  0.91350932735E+01  0.25524492412E+02  0.51100000000E-03 0.  1.
        -12    1    3    3    0    0 -0.47264862129E+01  0.27657395459E+02 -0.14265129153E+02  0.31476421418E+02  0.00000000000E+00 0.  1.
</event>
<event>
 7    1  0.1375918E-013  0.7246163E+02  0.7816164E-02  0.1226708E+00
        -11   -1    0    0    0    0  0.00000000000E+00  0.00000000000E+00  0.45593999997E+02  0.45594000000E+02  0.51100000000E-03 0. -1.
         11   -1    0    0    0    0 -0.00000000000E+00 -0.00000000000E+00 -0.45593999997E+02  0.45594000000E+02  0.51100000000E-03 0.  1.
    9900012    2    1    2    0    0  0.47258142480E+01  0.18102373157E+02 -0.80477022868E+00  0.72461631176E+02  0.70000079310E+02 0.  0.
         12    1    1    2    0    0 -0.47258142480E+01 -0.18102373157E+02  0.80477022868E+00  0.18726368824E+02  0.00000000000E+00 0. -1.
         11    1    3    3    0    0  0.16094979890E+01  0.36178352863E+02 -0.11848265184E+02  0.38103085017E+02  0.51100000000E-03 0.  1.
        -11    1    3    3    0    0  0.69088090742E+01 -0.10704885695E+02  0.18994838008E+02  0.22872037333E+02  0.51100000000E-03 0. -1.
        -12    1    3    3    0    0 -0.37924928152E+01 -0.73710940117E+01 -0.79513430521E+01  0.11486508826E+02  0.00000000000E+00 0.  1.
</event>
<event>
 7    1  0.1375918E-013  0.7246153E+02  0.7816164E-02  0.1226708E+00
        -11   -1    0    0    0    0  0.00000000000E+00  0.00000000000E+00  0.45593999997E+02  0.45594000000E+02  0.51100000000E-03 0.  1.
         11   -1    0    0    0    0 -0.00000000000E+00 -0.00000000000E+00 -0.45593999997E+02  0.45594000000E+02  0.51100000000E-03 0. -1.
    9900012    2    1    2    0    0 -0.62772430379E+01  0.14073498268E+02  0.10640193898E+02  0.72461525163E+02  0.69999941208E+02 0.  0.
         12    1    1    2    0    0  0.62772430379E+01 -0.14073498268E+02 -0.10640193898E+02  0.18726474837E+02  0.00000000000E+00 0. -1.
         11    1    3    3    0    0  0.60632256134E+01  0.50826981315E+01  0.47317295876E+01  0.92187737951E+01  0.51100000000E-03 0. -1.
        -11    1    3    3    0    0 -0.29118497172E+02  0.25943092523E+02  0.18032346572E+01  0.39040781020E+02  0.51100000000E-03 0.  1.
        -12    1    3    3    0    0  0.16778028520E+02 -0.16952292387E+02  0.41052296532E+01  0.24201970347E+02  0.00000000000E+00 0.  1.
</event>
<event>
 7    1  0.1375918E-013  0.7246154E+02  0.7816164E-02  0.1226708E+00
        -11   -1    0    0    0    0  0.00000000000E+00  0.00000000000E+00  0.45593999997E+02  0.45594000000E+02  0.51100000000E-03 0. -1.
         11   -1    0    0    0    0 -0.00000000000E+00 -0.00000000000E+00 -0.45593999997E+02  0.45594000000E+02  0.51100000000E-03 0.  1.
    9900012    2    1    2    0    0  0.33867617365E+01  0.23014618686E+01 -0.18273296706E+02  0.72461541330E+02  0.69999962269E+02 0.  0.
         12    1    1    2    0    0 -0.33867617365E+01 -0.23014618686E+01  0.18273296706E+02  0.18726458670E+02  0.00000000000E+00 0. -1.
         11    1    3    3    0    0 -0.92491307007E+01  0.19176172328E+02  0.11715036232E+02  0.24300495428E+02  0.51100000000E-03 0. -1.
        -11    1    3    3    0    0  0.10152182243E+01 -0.23634194674E+02 -0.23065249076E+02  0.33039545111E+02  0.51100000000E-03 0.  1.
         12    1    3    3    0    0  0.11620674213E+02  0.67594842147E+01 -0.69230838629E+01  0.15121500791E+02  0.00000000000E+00 0. -1.
</event>
<event>
 7    1  0.1375918E-013  0.7246156E+02  0.7816164E-02  0.1226708E+00
        -11   -1    0    0    0    0  0.00000000000E+00  0.00000000000E+00  0.45593999997E+02  0.45594000000E+02  0.51100000000E-03 0. -1.
         11   -1    0    0    0    0 -0.00000000000E+00 -0.00000000000E+00 -0.45593999997E+02  0.45594000000E+02  0.51100000000E-03 0.  1.
    9900012    2    1    2    0    0  0.97430892754E+01  0.11192467038E+02 -0.11422797329E+02  0.72461563984E+02  0.69999991780E+02 0.  0.
         12    1    1    2    0    0 -0.97430892754E+01 -0.11192467038E+02  0.11422797329E+02  0.18726436016E+02  0.00000000000E+00 0. -1.
         11    1    3    3    0    0 -0.84039190749E+01 -0.22277511988E+02 -0.50249504051E+01  0.24334410267E+02  0.51100000000E-03 0. -1.
        -11    1    3    3    0    0  0.20941047857E+02  0.11051392734E+02 -0.91154316003E+01  0.25372265571E+02  0.51100000000E-03 0.  1.
         12    1    3    3    0    0 -0.27940395066E+01  0.22418586292E+02  0.27175846760E+01  0.22754888146E+02  0.00000000000E+00 0. -1.
</event>
<event>
 7    1  0.1375918E-013  0.7246156E+02  0.7816164E-02  0.1226708E+00
        -11   -1    0    0    0    0  0.00000000000E+00  0.00000000000E+00  0.45593999997E+02  0.45594000000E+02  0.51100000000E-03 0. -1.
         11   -1    0    0    0    0 -0.00000000000E+00 -0.00000000000E+00 -0.45593999997E+02  0.45594000000E+02  0.51100000000E-03 0.  1.
    9900012    2    1    2    0    0  0.23298138015E+01 -0.13814694114E+02 -0.12426014948E+02  0.72461557377E+02  0.69999983173E+02 0.  0.
         12    1    1    2    0    0 -0.23298138015E+01  0.13814694114E+02  0.12426014948E+02  0.18726442623E+02  0.00000000000E+00 0. -1.
         11    1    3    3    0    0  0.16716174475E+02 -0.34775900144E+01  0.44492028206E+01  0.17644249131E+02  0.51100000000E-03 0. -1.
        -11    1    3    3    0    0 -0.96956971866E+01  0.78165976669E+01 -0.29629586259E+02  0.32140599328E+02  0.51100000000E-03 0.  1.
        -12    1    3    3    0    0 -0.46906634872E+01 -0.18153701767E+02  0.12754368490E+02  0.22676708918E+02  0.00000000000E+00 0.  1.
</event>
<event>
 7    1  0.1375918E-013  0.7246156E+02  0.7816164E-02  0.1226708E+00
        -11   -1    0    0    0    0  0.00000000000E+00  0.00000000000E+00  0.45593999997E+02  0.45594000000E+02  0.51100000000E-03 0. -1.
         11   -1    0    0    0    0 -0.00000000000E+00 -0.00000000000E+00 -0.45593999997E+02  0.45594000000E+02  0.51100000000E-03 0.  1.
    9900012    2    1    2    0    0  0.54357238877E+01  0.17383722814E+02 -0.43518347119E+01  0.72461564717E+02  0.69999992735E+02 0.  0.
         12    1    1    2    0    0 -0.54357238877E+01 -0.17383722814E+02  0.43518347119E+01  0.18726435283E+02  0.00000000000E+00 0. -1.
         11    1    3    3    0    0 -0.11980104959E+02  0.23819520344E+02  0.16767791242E+02  0.31496845678E+02  0.51100000000E-03 0. -1.
        -11    1    3    3    0    0 -0.78668565072E+01 -0.52896532180E+01 -0.82735882497E+01  0.12582532546E+02  0.51100000000E-03 0.  1.
         12    1    3    3    0    0  0.25282685354E+02 -0.11461443124E+01 -0.12846037704E+02  0.28382186494E+02  0.00000000000E+00 0. -1.
</event>
<event>
 7    1  0.1375918E-013  0.7246158E+02  0.7816164E-02  0.1226708E+00
        -11   -1    0    0    0    0  0.00000000000E+00  0.00000000000E+00  0.45593999997E+02  0.45594000000E+02  0.51100000000E-03 0.  1.
         11   -1    0    0    0    0 -0.00000000000E+00 -0.00000000000E+00 -0.45593999997E+02  0.45594000000E+02  0.51100000000E-03 0. -1.
    9900012    2    1    2    0    0  0.77293840197E+01 -0.16990532154E+02  0.15023984175E+01  0.72461581196E+02  0.70000014202E+02 0.  0.
         12    1    1    2    0    0 -0.77293840197E+01  0.16990532154E+02 -0.15023984175E+01  0.18726418804E+02  0.00000000000E+00 0. -1.
         11    1    3    3    0    0  0.11791005671E+01  0.16739703953E+02 -0.13253735970E+02  0.21383860362E+02  0.51100000000E-03 0. -1.
        -11    1    3    3    0    0  0.19862667252E+02 -0.13060791164E+02  0.34643422006E+01  0.24023144743E+02  0.51100000000E-03 0.  1.
         12    1    3    3    0    0 -0.13312383800E+02 -0.20669444943E+02  0.11291792187E+02  0.27054576091E+02  0.00000000000E+00 0. -1.
</event>
<event>
 7    1  0.1375918E-013  0.7246171E+02  0.7816164E-02  0.1226708E+00
        -11   -1    0    0    0    0  0.00000000000E+00  0.00000000000E+00  0.45593999997E+02  0.45594000000E+02  0.51100000000E-03 0. -1.
         11   -1    0    0    0    0 -0.00000000000E+00 -0.00000000000E+00 -0.45593999997E+02  0.45594000000E+02  0.51100000000E-03 0.  1.
    9900012    2    1    2    0    0  0.57576484147E+01 -0.17213748938E+02 -0.46054716794E+01  0.72461707330E+02  0.70000178514E+02 0.  0.
         12    1    1    2    0    0 -0.57576484147E+01  0.17213748938E+02  0.46054716794E+01  0.18726292670E+02  0.00000000000E+00 0. -1.
         11    1    3    3    0    0  0.15009538875E+02 -0.11010699484E+02  0.69544803429E+01  0.19871752753E+02  0.51100000000E-03 0. -1.
        -11    1    3    3    0    0 -0.23278443757E+02 -0.11627875039E+02 -0.22170060175E+02  0.34184864927E+02  0.51100000000E-03 0.  1.
        -12    1    3    3    0    0  0.14026553296E+02  0.54248255849E+01  0.10610108153E+02  0.18405089649E+02  0.00000000000E+00 0.  1.
</event>
<event>
 7    1  0.1375918E-013  0.7246148E+02  0.7816164E-02  0.1226708E+00
        -11   -1    0    0    0    0  0.00000000000E+00  0.00000000000E+00  0.45593999997E+02  0.45594000000E+02  0.51100000000E-03 0.  1.
         11   -1    0    0    0    0 -0.00000000000E+00 -0.00000000000E+00 -0.45593999997E+02  0.45594000000E+02  0.51100000000E-03 0. -1.
    9900012    2    1    2    0    0 -0.11516326777E+02 -0.10820418352E+02 -0.10048644982E+02  0.72461481324E+02  0.69999884100E+02 0.  0.
         12    1    1    2    0    0  0.11516326777E+02  0.10820418352E+02  0.10048644982E+02  0.18726518676E+02  0.00000000000E+00 0. -1.
         11    1    3    3    0    0  0.27995147372E+01  0.24171224679E+02  0.60836053700E+01  0.25081779040E+02  0.51100000000E-03 0. -1.
        -11    1    3    3    0    0 -0.47055298280E+00 -0.10520366496E+02  0.55222304722E+01  0.11890944494E+02  0.51100000000E-03 0.  1.
         12    1    3    3    0    0 -0.13845288531E+02 -0.24471276535E+02 -0.21654480824E+02  0.35488757791E+02  0.00000000000E+00 0. -1.
</event>
<event>
 7    1  0.1375918E-013  0.7246158E+02  0.7816164E-02  0.1226708E+00
        -11   -1    0    0    0    0  0.00000000000E+00  0.00000000000E+00  0.45593999997E+02  0.45594000000E+02  0.51100000000E-03 0.  1.
         11   -1    0    0    0    0 -0.00000000000E+00 -0.00000000000E+00 -0.45593999997E+02  0.45594000000E+02  0.51100000000E-03 0. -1.
    9900012    2    1    2    0    0 -0.95406373589E+01 -0.54890466468E+01  0.15150092845E+02  0.72461582630E+02  0.70000016069E+02 0.  0.
         12    1    1    2    0    0  0.95406373589E+01  0.54890466468E+01 -0.15150092845E+02  0.18726417370E+02  0.00000000000E+00 0. -1.
         11    1    3    3    0    0  0.12525858102E+02 -0.12911823972E+02 -0.18408577457E+02  0.25738843092E+02  0.51100000000E-03 0.  1.
        -11    1    3    3    0    0 -0.24237171935E+02  0.14337411790E+01  0.18995785214E+02  0.30827519740E+02  0.51100000000E-03 0. -1.
        -12    1    3    3    0    0  0.21706764747E+01  0.59890361460E+01  0.14562885088E+02  0.15895219797E+02  0.00000000000E+00 0.  1.
</event>
<event>
 7    1  0.1375918E-013  0.7246149E+02  0.7816164E-02  0.1226708E+00
        -11   -1    0    0    0    0  0.00000000000E+00  0.00000000000E+00  0.45593999997E+02  0.45594000000E+02  0.51100000000E-03 0.  1.
         11   -1    0    0    0    0 -0.00000000000E+00 -0.00000000000E+00 -0.45593999997E+02  0.45594000000E+02  0.51100000000E-03 0. -1.
    9900012    2    1    2    0    0  0.31484272173E+01  0.17773583853E+02  0.49869135262E+01  0.72461489822E+02  0.69999895170E+02 0.  0.
         12    1    1    2    0    0 -0.31484272173E+01 -0.17773583853E+02 -0.49869135262E+01  0.18726510178E+02  0.00000000000E+00 0. -1.
         11    1    3    3    0    0  0.27932891160E+02 -0.18399167795E+01 -0.11256297354E+02  0.30171773774E+02  0.51100000000E-03 0. -1.
        -11    1    3    3    0    0 -0.11227141259E+02 -0.37323546412E+01  0.70394949513E+01  0.13767122483E+02  0.51100000000E-03 0.  1.
         12    1    3    3    0    0 -0.13557322683E+02  0.23345855273E+02  0.92037159287E+01  0.28522593565E+02  0.00000000000E+00 0. -1.
</event>
<event>
 7    1  0.1375918E-013  0.7246158E+02  0.7816164E-02  0.1226708E+00
        -11   -1    0    0    0    0  0.00000000000E+00  0.00000000000E+00  0.45593999997E+02  0.45594000000E+02  0.51100000000E-03 0.  1.
         11   -1    0    0    0    0 -0.00000000000E+00 -0.00000000000E+00 -0.45593999997E+02  0.45594000000E+02  0.51100000000E-03 0. -1.
    9900012    2    1    2    0    0  0.92953614917E+01 -0.89208416318E+01 -0.13590203404E+02  0.72461580448E+02  0.70000013227E+02 0.  0.
         12    1    1    2    0    0 -0.92953614917E+01  0.89208416318E+01  0.13590203404E+02  0.18726419552E+02  0.00000000000E+00 0. -1.
         11    1    3    3    0    0 -0.66952743536E+01 -0.26020942579E+02 -0.12951616153E+02  0.29827177416E+02  0.51100000000E-03 0. -1.
        -11    1    3    3    0    0  0.17009802769E+02  0.17427258030E+02 -0.14757472489E+02  0.28475001444E+02  0.51100000000E-03 0.  1.
         12    1    3    3    0    0 -0.10191669237E+01 -0.32715708293E+00  0.14118885238E+02  0.14159401588E+02  0.00000000000E+00 0. -1.
</event>
<event>
 7    1  0.1375918E-013  0.7246126E+02  0.7816164E-02  0.1226709E+00
        -11   -1    0    0    0    0  0.00000000000E+00  0.00000000000E+00  0.45593999997E+02  0.45594000000E+02  0.51100000000E-03 0.  1.
         11   -1    0    0    0    0 -0.00000000000E+00 -0.00000000000E+00 -0.45593999997E+02  0.45594000000E+02  0.51100000000E-03 0. -1.
    9900012    2    1    2    0    0 -0.12664674741E+02 -0.90226293814E+01  0.10434991355E+02  0.72461257843E+02  0.69999592972E+02 0.  0.
         12    1    1    2    0    0  0.12664674741E+02  0.90226293814E+01 -0.10434991355E+02  0.18726742157E+02  0.00000000000E+00 0. -1.
         11    1    3    3    0    0  0.19375927958E+02 -0.13899122916E+02  0.57836039233E+01  0.24536957364E+02  0.51100000000E-03 0.  1.
        -11    1    3    3    0    0 -0.10736270200E+02  0.12002553800E+02 -0.11897787144E+02  0.20022141112E+02  0.51100000000E-03 0. -1.
         12    1    3    3    0    0 -0.21304332500E+02 -0.71260602657E+01  0.16549174576E+02  0.27902159366E+02  0.00000000000E+00 0. -1.
</event>
<event>
 7    1  0.1375918E-013  0.7246156E+02  0.7816164E-02  0.1226708E+00
        -11   -1    0    0    0    0  0.00000000000E+00  0.00000000000E+00  0.45593999997E+02  0.45594000000E+02  0.51100000000E-03 0.  1.
         11   -1    0    0    0    0 -0.00000000000E+00 -0.00000000000E+00 -0.45593999997E+02  0.45594000000E+02  0.51100000000E-03 0. -1.
    9900012    2    1    2    0    0  0.24609872709E+00 -0.66902911954E+01  0.17488820797E+02  0.72461563774E+02  0.69999991506E+02 0.  0.
         12    1    1    2    0    0 -0.24609872709E+00  0.66902911954E+01 -0.17488820797E+02  0.18726436226E+02  0.00000000000E+00 0. -1.
         11    1    3    3    0    0  0.15080978896E+02 -0.19139642213E+01 -0.12324826512E+02  0.19570399391E+02  0.51100000000E-03 0. -1.
        -11    1    3    3    0    0 -0.25979235663E+02  0.48502427080E+01  0.27218171669E+02  0.37937770219E+02  0.51100000000E-03 0.  1.
         12    1    3    3    0    0  0.11144355494E+02 -0.96265696821E+01  0.25954756400E+01  0.14953394164E+02  0.00000000000E+00 0. -1.
</event>
<event>
 7    1  0.1375918E-013  0.7246154E+02  0.7816164E-02  0.1226708E+00
        -11   -1    0    0    0    0  0.00000000000E+00  0.00000000000E+00  0.45593999997E+02  0.45594000000E+02  0.51100000000E-03 0. -1.
         11   -1    0    0    0    0 -0.00000000000E+00 -0.00000000000E+00 -0.45593999997E+02  0.45594000000E+02  0.51100000000E-03 0.  1.
    9900012    2    1    2    0    0  0.35667238928E+01  0.42511199751E+01 -0.17885376269E+02  0.72461542122E+02  0.69999963300E+02 0.  0.
         12    1    1    2    0    0 -0.35667238928E+01 -0.42511199751E+01  0.17885376269E+02  0.18726457878E+02  0.00000000000E+00 0. -1.
         11    1    3    3    0    0 -0.22242249209E+02  0.10949803922E+02  0.70507658496E+01  0.25774583511E+02  0.51100000000E-03 0. -1.
        -11    1    3    3    0    0  0.13172290680E+02  0.38765996863E+01 -0.26791220998E+02  0.30104929659E+02  0.51100000000E-03 0.  1.
         12    1    3    3    0    0  0.12636682422E+02 -0.10575283633E+02  0.18550788797E+01  0.16582028953E+02  0.00000000000E+00 0. -1.
</event>
<event>
 7    1  0.1375918E-013  0.7246149E+02  0.7816164E-02  0.1226708E+00
        -11   -1    0    0    0    0  0.00000000000E+00  0.00000000000E+00  0.45593999997E+02  0.45594000000E+02  0.51100000000E-03 0. -1.
         11   -1    0    0    0    0 -0.00000000000E+00 -0.00000000000E+00 -0.45593999997E+02  0.45594000000E+02  0.51100000000E-03 0.  1.
    9900012    2    1    2    0    0  0.18509852375E+02  0.27683942760E+01 -0.63519610420E+00  0.72461491626E+02  0.69999897519E+02 0.  0.
         12    1    1    2    0    0 -0.18509852375E+02 -0.27683942760E+01  0.63519610420E+00  0.18726508374E+02  0.00000000000E+00 0. -1.
         11    1    3    3    0    0 -0.24401882818E+02  0.81907034267E+01  0.76899333726E+01  0.26864001623E+02  0.51100000000E-03 0. -1.
        -11    1    3    3    0    0  0.24373800922E+02 -0.61822682691E+01 -0.97946468856E+01  0.26985880015E+02  0.51100000000E-03 0.  1.
         12    1    3    3    0    0  0.18537934271E+02  0.75995911846E+00  0.14695174087E+01  0.18611609987E+02  0.00000000000E+00 0. -1.
</event>
<event>
 7    1  0.1375918E-013  0.7246163E+02  0.7816164E-02  0.1226708E+00
        -11   -1    0    0    0    0  0.00000000000E+00  0.00000000000E+00  0.45593999997E+02  0.45594000000E+02  0.51100000000E-03 0.  1.
         11   -1    0    0    0    0 -0.00000000000E+00 -0.00000000000E+00 -0.45593999997E+02  0.45594000000E+02  0.51100000000E-03 0. -1.
    9900012    2    1    2    0    0 -0.66140793970E+01  0.98258082579E+01  0.14504636516E+02  0.72461627296E+02  0.70000074256E+02 0.  0.
         12    1    1    2    0    0  0.66140793970E+01 -0.98258082579E+01 -0.14504636516E+02  0.18726372704E+02  0.00000000000E+00 0. -1.
         11    1    3    3    0    0 -0.13461441875E+02  0.26241371923E+02  0.12061182896E+02  0.31863649365E+02  0.51100000000E-03 0.  1.
        -11    1    3    3    0    0  0.92709643620E+01 -0.17615984852E+02  0.16763496084E+02  0.26024767121E+02  0.51100000000E-03 0. -1.
        -12    1    3    3    0    0 -0.24236018840E+01  0.12004211865E+01 -0.14320042464E+02  0.14573210810E+02  0.00000000000E+00 0.  1.
</event>
<event>
 7    1  0.1375918E-013  0.7246157E+02  0.7816164E-02  0.1226708E+00
        -11   -1    0    0    0    0  0.00000000000E+00  0.00000000000E+00  0.45593999997E+02  0.45594000000E+02  0.51100000000E-03 0. -1.
         11   -1    0    0    0    0 -0.00000000000E+00 -0.00000000000E+00 -0.45593999997E+02  0.45594000000E+02  0.51100000000E-03 0.  1.
    9900012    2    1    2    0    0  0.16309944684E+01 -0.95581951838E+01 -0.16020610542E+02  0.72461569473E+02  0.69999998930E+02 0.  0.
         12    1    1    2    0    0 -0.16309944684E+01  0.95581951838E+01  0.16020610542E+02  0.18726430527E+02  0.00000000000E+00 0. -1.
         11    1    3    3    0    0  0.66432341255E+01  0.11789471683E+02 -0.49187312587E+01  0.14398545748E+02  0.51100000000E-03 0. -1.
        -11    1    3    3    0    0  0.67483149606E+01 -0.21339046012E+02  0.16667993386E+02  0.27905494859E+02  0.51100000000E-03 0.  1.
        -12    1    3    3    0    0 -0.11760554618E+02 -0.86208547742E-02 -0.27769872670E+02  0.30157528866E+02  0.00000000000E+00 0.  1.
</event>
<event>
 7    1  0.1375918E-013  0.7246169E+02  0.7816164E-02  0.1226708E+00
        -11   -1    0    0    0    0  0.00000000000E+00  0.00000000000E+00  0.45593999997E+02  0.45594000000E+02  0.51100000000E-03 0.  1.
         11   -1    0    0    0    0 -0.00000000000E+00 -0.00000000000E+00 -0.45593999997E+02  0.45594000000E+02  0.51100000000E-03 0. -1.
    9900012    2    1    2    0    0 -0.16689890290E+01 -0.77325215867E+01  0.16973426429E+02  0.72461691789E+02  0.70000158269E+02 0.  0.
         12    1    1    2    0    0  0.16689890290E+01  0.77325215867E+01 -0.16973426429E+02  0.18726308211E+02  0.00000000000E+00 0. -1.
         11    1    3    3    0    0 -0.10753304068E+02  0.12764947597E+02  0.27813103976E+02  0.32436802995E+02  0.51100000000E-03 0. -1.
        -11    1    3    3    0    0 -0.91628499250E+01 -0.13535095406E+02  0.22711686373E+01  0.16501964539E+02  0.51100000000E-03 0.  1.
         12    1    3    3    0    0  0.18247164964E+02 -0.69623737773E+01 -0.13110846184E+02  0.23522924254E+02  0.00000000000E+00 0. -1.
</event>
<event>
 7    1  0.1375918E-013  0.7246152E+02  0.7816164E-02  0.1226708E+00
        -11   -1    0    0    0    0  0.00000000000E+00  0.00000000000E+00  0.45593999997E+02  0.45594000000E+02  0.51100000000E-03 0. -1.
         11   -1    0    0    0    0 -0.00000000000E+00 -0.00000000000E+00 -0.45593999997E+02  0.45594000000E+02  0.51100000000E-03 0.  1.
    9900012    2    1    2    0    0 -0.17416041271E+02  0.53605965422E+01 -0.43158352494E+01  0.72461523483E+02  0.69999939020E+02 0.  0.
         12    1    1    2    0    0  0.17416041271E+02 -0.53605965422E+01  0.43158352494E+01  0.18726476517E+02  0.00000000000E+00 0. -1.
         11    1    3    3    0    0 -0.21140631832E+02 -0.14182940802E+02 -0.14864850187E+02  0.29479584383E+02  0.51100000000E-03 0.  1.
        -11    1    3    3    0    0 -0.12450047178E+02  0.19717515082E+02  0.12879175692E+02  0.26639392683E+02  0.51100000000E-03 0. -1.
        -12    1    3    3    0    0  0.16174637739E+02 -0.17397773735E+00 -0.23301607542E+01  0.16342546417E+02  0.00000000000E+00 0.  1.
</event>
<event>
 7    1  0.1375918E-013  0.7246149E+02  0.7816164E-02  0.1226708E+00
        -11   -1    0    0    0    0  0.00000000000E+00  0.00000000000E+00  0.45593999997E+02  0.45594000000E+02  0.51100000000E-03 0.  1.
         11   -1    0    0    0    0 -0.00000000000E+00 -0.00000000000E+00 -0.45593999997E+02  0.45594000000E+02  0.51100000000E-03 0. -1.
    9900012    2    1    2    0    0  0.17806349572E+02  0.20648912957E+01  0.54177711001E+01  0.72461491921E+02  0.69999897904E+02 0.  0.
         12    1    1    2    0    0 -0.17806349572E+02 -0.20648912957E+01 -0.54177711001E+01  0.18726508079E+02  0.00000000000E+00 0. -1.
         11    1    3    3    0    0 -0.15257431001E+02 -0.53329167257E+00  0.66548412795E+01  0.16654144033E+02  0.51100000000E-03 0. -1.
        -11    1    3    3    0    0  0.36227799026E+02  0.14958558307E+02  0.80673142981E+01  0.40016164848E+02  0.51100000000E-03 0.  1.
         12    1    3    3    0    0 -0.31640184531E+01 -0.12360375339E+02 -0.93043844775E+01  0.15791183040E+02  0.00000000000E+00 0. -1.
</event>
<event>
 7    1  0.1375918E-013  0.7246160E+02  0.7816164E-02  0.1226708E+00
        -11   -1    0    0    0    0  0.00000000000E+00  0.00000000000E+00  0.45593999997E+02  0.45594000000E+02  0.51100000000E-03 0.  1.
         11   -1    0    0    0    0 -0.00000000000E+00 -0.00000000000E+00 -0.45593999997E+02  0.45594000000E+02  0.51100000000E-03 0. -1.
    9900012    2    1    2    0    0  0.18157639209E+02 -0.26377819525E+00  0.45726112629E+01  0.72461595798E+02  0.70000033223E+02 0.  0.
         12    1    1    2    0    0 -0.18157639209E+02  0.26377819525E+00 -0.45726112629E+01  0.18726404202E+02  0.00000000000E+00 0. -1.
         11    1    3    3    0    0  0.10943436504E+02 -0.86039637982E+01 -0.24710194445E+02  0.28361606184E+02  0.51100000000E-03 0. -1.
        -11    1    3    3    0    0  0.98953370733E+01 -0.10144665741E+02  0.10749036159E+02  0.17786897352E+02  0.51100000000E-03 0.  1.
         12    1    3    3    0    0 -0.26811343685E+01  0.18484851344E+02  0.18533769549E+02  0.26313092262E+02  0.00000000000E+00 0. -1.
</event>
<event>
 7    1  0.1375918E-013  0.7246156E+02  0.7816164E-02  0.1226708E+00
        -11   -1    0    0    0    0  0.00000000000E+00  0.00000000000E+00  0.45593999997E+02  0.45594000000E+02  0.51100000000E-03 0. -1.
         11   -1    0    0    0    0 -0.00000000000E+00 -0.00000000000E+00 -0.45593999997E+02  0.45594000000E+02  0.51100000000E-03 0.  1.
    9900012    2    1    2    0    0  0.55363068901E+01 -0.15576861735E+01 -0.17821405510E+02  0.72461559480E+02  0.69999985912E+02 0.  0.
         12    1    1    2    0    0 -0.55363068901E+01  0.15576861735E+01  0.17821405510E+02  0.18726440520E+02  0.00000000000E+00 0. -1.
         11    1    3    3    0    0  0.19493657558E+02  0.98740918134E+00  0.12207933791E+02  0.23021974494E+02  0.51100000000E-03 0. -1.
        -11    1    3    3    0    0  0.20803241541E+01  0.14530390885E+02 -0.17609051252E+02  0.22924630730E+02  0.51100000000E-03 0.  1.
         12    1    3    3    0    0 -0.16037674822E+02 -0.17075486240E+02 -0.12420288048E+02  0.26514954256E+02  0.00000000000E+00 0. -1.
</event>
<event>
 7    1  0.1375918E-013  0.7246157E+02  0.7816164E-02  0.1226708E+00
        -11   -1    0    0    0    0  0.00000000000E+00  0.00000000000E+00  0.45593999997E+02  0.45594000000E+02  0.51100000000E-03 0.  1.
         11   -1    0    0    0    0 -0.00000000000E+00 -0.00000000000E+00 -0.45593999997E+02  0.45594000000E+02  0.51100000000E-03 0. -1.
    9900012    2    1    2    0    0  0.10493285521E+02 -0.11552281940E+02  0.10349632859E+02  0.72461570566E+02  0.70000000354E+02 0.  0.
         12    1    1    2    0    0 -0.10493285521E+02  0.11552281940E+02 -0.10349632859E+02  0.18726429434E+02  0.00000000000E+00 0. -1.
         11    1    3    3    0    0  0.22408949779E+02 -0.34830375667E+02  0.82467556292E+01  0.42229433787E+02  0.51100000000E-03 0. -1.
        -11    1    3    3    0    0 -0.11849525796E+02  0.91106124549E+01 -0.28642205830E+01  0.15219010503E+02  0.51100000000E-03 0.  1.
         12    1    3    3    0    0 -0.66138463028E-01  0.14167481272E+02  0.49670978127E+01  0.15013126275E+02  0.00000000000E+00 0. -1.
</event>
<event>
 7    1  0.1375918E-013  0.7246156E+02  0.7816164E-02  0.1226708E+00
        -11   -1    0    0    0    0  0.00000000000E+00  0.00000000000E+00  0.45593999997E+02  0.45594000000E+02  0.51100000000E-03 0.  1.
         11   -1    0    0    0    0 -0.00000000000E+00 -0.00000000000E+00 -0.45593999997E+02  0.45594000000E+02  0.51100000000E-03 0. -1.
    9900012    2    1    2    0    0  0.21979357213E+01 -0.17137235262E+02  0.72224468027E+01  0.72461561693E+02  0.69999988795E+02 0.  0.
         12    1    1    2    0    0 -0.21979357213E+01  0.17137235262E+02 -0.72224468027E+01  0.18726438307E+02  0.00000000000E+00 0. -1.
         11    1    3    3    0    0 -0.15986778751E+02  0.12568644581E+02 -0.57589100879E+01  0.21135585327E+02  0.51100000000E-03 0. -1.
        -11    1    3    3    0    0  0.29179048274E+01 -0.17964083107E+02  0.23229008026E+02  0.29509477538E+02  0.51100000000E-03 0.  1.
        -12    1    3    3    0    0  0.15266809645E+02 -0.11741796735E+02 -0.10247651135E+02  0.21816498828E+02  0.00000000000E+00 0.  1.
</event>
<event>
 7    1  0.1375918E-013  0.7246148E+02  0.7816164E-02  0.1226708E+00
        -11   -1    0    0    0    0  0.00000000000E+00  0.00000000000E+00  0.45593999997E+02  0.45594000000E+02  0.51100000000E-03 0. -1.
         11   -1    0    0    0    0 -0.00000000000E+00 -0.00000000000E+00 -0.45593999997E+02  0.45594000000E+02  0.51100000000E-03 0.  1.
    9900012    2    1    2    0    0  0.21403499990E+01 -0.18108427270E+02  0.42645429710E+01  0.72461479686E+02  0.69999881966E+02 0.  0.
         12    1    1    2    0    0 -0.21403499990E+01  0.18108427270E+02 -0.42645429710E+01  0.18726520314E+02  0.00000000000E+00 0. -1.
         11    1    3    3    0    0  0.17741289048E+02 -0.15697741556E+02  0.23259317253E+01  0.23802991108E+02  0.51100000000E-03 0. -1.
        -11    1    3    3    0    0 -0.25107019516E+02 -0.70843135566E+01  0.16339002725E+02  0.30781698099E+02  0.51100000000E-03 0.  1.
         12    1    3    3    0    0  0.95060804674E+01  0.46736278423E+01 -0.14400391480E+02  0.17876790479E+02  0.00000000000E+00 0. -1.
</event>
<event>
 7    1  0.1375918E-013  0.7246150E+02  0.7816164E-02  0.1226708E+00
        -11   -1    0    0    0    0  0.00000000000E+00  0.00000000000E+00  0.45593999997E+02  0.45594000000E+02  0.51100000000E-03 0. -1.
         11   -1    0    0    0    0 -0.00000000000E+00 -0.00000000000E+00 -0.45593999997E+02  0.45594000000E+02  0.51100000000E-03 0.  1.
    9900012    2    1    2    0    0  0.12099748076E+02  0.13287218088E+02  0.52657157716E+01  0.72461499243E+02  0.69999907442E+02 0.  0.
         12    1    1    2    0    0 -0.12099748076E+02 -0.13287218088E+02 -0.52657157716E+01  0.18726500757E+02  0.00000000000E+00 0. -1.
         11    1    3    3    0    0  0.10622914894E+02 -0.24572119505E+02  0.57657491103E+01  0.27383923036E+02  0.51100000000E-03 0. -1.
        -11    1    3    3    0    0 -0.56141920456E+01  0.37168205644E+00  0.36398945335E+01  0.67012037988E+01  0.51100000000E-03 0.  1.
         12    1    3    3    0    0  0.70910252278E+01  0.37487655536E+02 -0.41399278722E+01  0.38376372408E+02  0.00000000000E+00 0. -1.
</event>
<event>
 7    1  0.1375918E-013  0.7246150E+02  0.7816164E-02  0.1226708E+00
        -11   -1    0    0    0    0  0.00000000000E+00  0.00000000000E+00  0.45593999997E+02  0.45594000000E+02  0.51100000000E-03 0.  1.
         11   -1    0    0    0    0 -0.00000000000E+00 -0.00000000000E+00 -0.45593999997E+02  0.45594000000E+02  0.51100000000E-03 0. -1.
    9900012    2    1    2    0    0 -0.18042457746E+02  0.43781326765E+01 -0.24460780890E+01  0.72461504725E+02  0.69999914584E+02 0.  0.
         12    1    1    2    0    0  0.18042457746E+02 -0.43781326765E+01  0.24460780890E+01  0.18726495275E+02  0.00000000000E+00 0. -1.
         11    1    3    3    0    0 -0.27241824350E+02  0.78925562274E+01 -0.29235024009E+02  0.40732002980E+02  0.51100000000E-03 0. -1.
        -11    1    3    3    0    0  0.39383881475E+01 -0.76273820029E+01  0.77928310374E+01  0.11593794601E+02  0.51100000000E-03 0.  1.
         12    1    3    3    0    0  0.52609784560E+01  0.41129584520E+01  0.18996114883E+02  0.20135707144E+02  0.00000000000E+00 0. -1.
</event>
<event>
 7    1  0.1375918E-013  0.7246160E+02  0.7816164E-02  0.1226708E+00
        -11   -1    0    0    0    0  0.00000000000E+00  0.00000000000E+00  0.45593999997E+02  0.45594000000E+02  0.51100000000E-03 0. -1.
         11   -1    0    0    0    0 -0.00000000000E+00 -0.00000000000E+00 -0.45593999997E+02  0.45594000000E+02  0.51100000000E-03 0.  1.
    9900012    2    1    2    0    0  0.99664032228E+01  0.15840181518E+02  0.66141760514E+00  0.72461601068E+02  0.70000040089E+02 0.  0.
         12    1    1    2    0    0 -0.99664032228E+01 -0.15840181518E+02 -0.66141760514E+00  0.18726398932E+02  0.00000000000E+00 0. -1.
         11    1    3    3    0    0 -0.30023829323E+01 -0.10458197492E+02  0.13956288301E+01  0.10969775665E+02  0.51100000000E-03 0. -1.
        -11    1    3    3    0    0 -0.17469861061E+01  0.28431774532E+02 -0.21685230339E+02  0.35800376794E+02  0.51100000000E-03 0.  1.
        -12    1    3    3    0    0  0.14715772261E+02 -0.21333955227E+01  0.20951019114E+02  0.25691448609E+02  0.00000000000E+00 0.  1.
</event>
<event>
 7    1  0.1375918E-013  0.7246150E+02  0.7816164E-02  0.1226708E+00
        -11   -1    0    0    0    0  0.00000000000E+00  0.00000000000E+00  0.45593999997E+02  0.45594000000E+02  0.51100000000E-03 0. -1.
         11   -1    0    0    0    0 -0.00000000000E+00 -0.00000000000E+00 -0.45593999997E+02  0.45594000000E+02  0.51100000000E-03 0.  1.
    9900012    2    1    2    0    0  0.12959210772E+02  0.15694002092E+01  0.13426757061E+02  0.72461495627E+02  0.69999902732E+02 0.  0.
         12    1    1    2    0    0 -0.12959210772E+02 -0.15694002092E+01 -0.13426757061E+02  0.18726504373E+02  0.00000000000E+00 0. -1.
         11    1    3    3    0    0  0.23759518120E+02  0.41591421670E+01  0.14480114350E+02  0.28133376561E+02  0.51100000000E-03 0. -1.
        -11    1    3    3    0    0  0.61301452010E-01 -0.15087267220E+02 -0.16021731169E+02  0.22007391030E+02  0.51100000000E-03 0.  1.
         12    1    3    3    0    0 -0.10861608800E+02  0.12497525262E+02  0.14968373881E+02  0.22320728036E+02  0.00000000000E+00 0. -1.
</event>
<event>
 7    1  0.1375918E-013  0.7246162E+02  0.7816164E-02  0.1226708E+00
        -11   -1    0    0    0    0  0.00000000000E+00  0.00000000000E+00  0.45593999997E+02  0.45594000000E+02  0.51100000000E-03 0. -1.
         11   -1    0    0    0    0 -0.00000000000E+00 -0.00000000000E+00 -0.45593999997E+02  0.45594000000E+02  0.51100000000E-03 0.  1.
    9900012    2    1    2    0    0  0.18607978989E+00  0.40120188666E+01 -0.18290610928E+02  0.72461618364E+02  0.70000062619E+02 0.  0.
         12    1    1    2    0    0 -0.18607978989E+00 -0.40120188666E+01  0.18290610928E+02  0.18726381636E+02  0.00000000000E+00 0. -1.
         11    1    3    3    0    0 -0.23965449397E+00  0.14438868614E+01 -0.36602310292E+02  0.36631562382E+02  0.51100000000E-03 0.  1.
        -11    1    3    3    0    0  0.12132027170E+02  0.62188388662E+01  0.19186199848E+02  0.23536573773E+02  0.51100000000E-03 0. -1.
         12    1    3    3    0    0 -0.11706292886E+02 -0.36507068610E+01 -0.87450048432E+00  0.12293482209E+02  0.00000000000E+00 0. -1.
</event>
<event>
 7    1  0.1375918E-013  0.7246160E+02  0.7816164E-02  0.1226708E+00
        -11   -1    0    0    0    0  0.00000000000E+00  0.00000000000E+00  0.45593999997E+02  0.45594000000E+02  0.51100000000E-03 0. -1.
         11   -1    0    0    0    0 -0.00000000000E+00 -0.00000000000E+00 -0.45593999997E+02  0.45594000000E+02  0.51100000000E-03 0.  1.
    9900012    2    1    2    0    0 -0.76204894937E+01 -0.43144691100E+01 -0.16552690888E+02  0.72461599400E+02  0.70000037915E+02 0.  0.
         12    1    1    2    0    0  0.76204894937E+01  0.43144691100E+01  0.16552690888E+02  0.18726400600E+02  0.00000000000E+00 0. -1.
         11    1    3    3    0    0 -0.13051195805E+02 -0.10865756965E+02  0.69191933072E+01  0.18337764931E+02  0.51100000000E-03 0. -1.
        -11    1    3    3    0    0 -0.73633934487E+01  0.25100236070E+02 -0.11080232958E+02  0.28407973820E+02  0.51100000000E-03 0.  1.
        -12    1    3    3    0    0  0.12794099760E+02 -0.18548948215E+02 -0.12391651236E+02  0.25715860649E+02  0.00000000000E+00 0.  1.
</event>
<event>
 7    1  0.1375918E-013  0.7246152E+02  0.7816164E-02  0.1226708E+00
        -11   -1    0    0    0    0  0.00000000000E+00  0.00000000000E+00  0.45593999997E+02  0.45594000000E+02  0.51100000000E-03 0. -1.
         11   -1    0    0    0    0 -0.00000000000E+00 -0.00000000000E+00 -0.45593999997E+02  0.45594000000E+02  0.51100000000E-03 0.  1.
    9900012    2    1    2    0    0  0.50182582235E+01  0.62730017682E+01 -0.16915898452E+02  0.72461519091E+02  0.69999933298E+02 0.  0.
         12    1    1    2    0    0 -0.50182582235E+01 -0.62730017682E+01  0.16915898452E+02  0.18726480909E+02  0.00000000000E+00 0. -1.
         11    1    3    3    0    0  0.53327642071E+01  0.40349961937E+01  0.15964243608E+02  0.17308282486E+02  0.51100000000E-03 0. -1.
        -11    1    3    3    0    0  0.12666196618E+02 -0.16558928935E+02 -0.20188832590E+02  0.29021020413E+02  0.51100000000E-03 0.  1.
        -12    1    3    3    0    0 -0.12980702601E+02  0.18796934510E+02 -0.12691309471E+02  0.26132216191E+02  0.00000000000E+00 0.  1.
</event>
<event>
 7    1  0.1375918E-013  0.7246155E+02  0.7816164E-02  0.1226708E+00
        -11   -1    0    0    0    0  0.00000000000E+00  0.00000000000E+00  0.45593999997E+02  0.45594000000E+02  0.51100000000E-03 0.  1.
         11   -1    0    0    0    0 -0.00000000000E+00 -0.00000000000E+00 -0.45593999997E+02  0.45594000000E+02  0.51100000000E-03 0. -1.
    9900012    2    1    2    0    0  0.12785837152E+02  0.12356967485E+02  0.58743229448E+01  0.72461549532E+02  0.69999972953E+02 0.  0.
         12    1    1    2    0    0 -0.12785837152E+02 -0.12356967485E+02 -0.58743229448E+01  0.18726450468E+02  0.00000000000E+00 0. -1.
         11    1    3    3    0    0  0.13756375633E+02  0.11703408365E+01  0.18545467934E+02  0.23120163265E+02  0.51100000000E-03 0.  1.
        -11    1    3    3    0    0 -0.20775095063E+02 -0.39703009983E+01 -0.12159493270E+02  0.24397154378E+02  0.51100000000E-03 0. -1.
        -12    1    3    3    0    0  0.19804556581E+02  0.15156927647E+02 -0.51165171862E+00  0.24944231889E+02  0.00000000000E+00 0.  1.
</event>
<event>
 7    1  0.1375918E-013  0.7246157E+02  0.7816164E-02  0.1226708E+00
        -11   -1    0    0    0    0  0.00000000000E+00  0.00000000000E+00  0.45593999997E+02  0.45594000000E+02  0.51100000000E-03 0.  1.
         11   -1    0    0    0    0 -0.00000000000E+00 -0.00000000000E+00 -0.45593999997E+02  0.45594000000E+02  0.51100000000E-03 0. -1.
    9900012    2    1    2    0    0 -0.14506617426E+02  0.10858538733E+02  0.47254107987E+01  0.72461566282E+02  0.69999994774E+02 0.  0.
         12    1    1    2    0    0  0.14506617426E+02 -0.10858538733E+02 -0.47254107987E+01  0.18726433718E+02  0.00000000000E+00 0. -1.
         11    1    3    3    0    0 -0.55243321063E+01  0.99509201776E+01 -0.27201269621E+02  0.29486405797E+02  0.51100000000E-03 0. -1.
        -11    1    3    3    0    0  0.25659853731E+01  0.11985825399E+02  0.17903767298E+02  0.21697676722E+02  0.51100000000E-03 0.  1.
        -12    1    3    3    0    0 -0.11548270693E+02 -0.11078206844E+02  0.14022913122E+02  0.21277483763E+02  0.00000000000E+00 0.  1.
</event>
<event>
 7    1  0.1375918E-013  0.7246159E+02  0.7816164E-02  0.1226708E+00
        -11   -1    0    0    0    0  0.00000000000E+00  0.00000000000E+00  0.45593999997E+02  0.45594000000E+02  0.51100000000E-03 0.  1.
         11   -1    0    0    0    0 -0.00000000000E+00 -0.00000000000E+00 -0.45593999997E+02  0.45594000000E+02  0.51100000000E-03 0. -1.
    9900012    2    1    2    0    0  0.15435547426E+02 -0.62171036310E+01 -0.85889370095E+01  0.72461592420E+02  0.70000028823E+02 0.  0.
         12    1    1    2    0    0 -0.15435547426E+02  0.62171036310E+01  0.85889370095E+01  0.18726407580E+02  0.00000000000E+00 0. -1.
         11    1    3    3    0    0  0.11871774803E+02  0.44164319142E+01  0.58242712029E+00  0.12680028763E+02  0.51100000000E-03 0. -1.
        -11    1    3    3    0    0 -0.11137491292E+02 -0.22814132848E+02  0.14604979720E+02  0.29288799954E+02  0.51100000000E-03 0.  1.
        -12    1    3    3    0    0  0.14701263915E+02  0.12180597303E+02 -0.23776343850E+02  0.30492763702E+02  0.00000000000E+00 0.  1.
</event>
<event>
 7    1  0.1375918E-013  0.7246158E+02  0.7816164E-02  0.1226708E+00
        -11   -1    0    0    0    0  0.00000000000E+00  0.00000000000E+00  0.45593999997E+02  0.45594000000E+02  0.51100000000E-03 0.  1.
         11   -1    0    0    0    0 -0.00000000000E+00 -0.00000000000E+00 -0.45593999997E+02  0.45594000000E+02  0.51100000000E-03 0. -1.
    9900012    2    1    2    0    0  0.17104748461E+02  0.18935021045E+01  0.73838340884E+01  0.72461580802E+02  0.70000013688E+02 0.  0.
         12    1    1    2    0    0 -0.17104748461E+02 -0.18935021045E+01 -0.73838340884E+01  0.18726419198E+02  0.00000000000E+00 0. -1.
         11    1    3    3    0    0  0.52100217357E+01 -0.13396650618E+02 -0.92298170328E+01  0.17082274351E+02  0.51100000000E-03 0. -1.
        -11    1    3    3    0    0  0.26335531131E+02  0.23977886153E+02  0.14253081104E+02  0.38362084738E+02  0.51100000000E-03 0.  1.
        -12    1    3    3    0    0 -0.14440804405E+02 -0.86877334298E+01  0.23605700173E+01  0.17017221712E+02  0.00000000000E+00 0.  1.
</event>
<event>
 7    1  0.1375918E-013  0.7246124E+02  0.7816164E-02  0.1226709E+00
        -11   -1    0    0    0    0  0.00000000000E+00  0.00000000000E+00  0.45593999997E+02  0.45594000000E+02  0.51100000000E-03 0.  1.
         11   -1    0    0    0    0 -0.00000000000E+00 -0.00000000000E+00 -0.45593999997E+02  0.45594000000E+02  0.51100000000E-03 0. -1.
    9900012    2    1    2    0    0  0.61301412887E+01  0.17474981355E+02  0.27817097850E+01  0.72461240673E+02  0.69999570605E+02 0.  0.
         12    1    1    2    0    0 -0.61301412887E+01 -0.17474981355E+02 -0.27817097850E+01  0.18726759327E+02  0.00000000000E+00 0. -1.
         11    1    3    3    0    0  0.80700705617E+01  0.35128337357E+02 -0.19005048692E+02  0.40746999894E+02  0.51100000000E-03 0. -1.
        -11    1    3    3    0    0 -0.18384489503E+01  0.22094667706E+01  0.47192216587E+01  0.55256394452E+01  0.51100000000E-03 0.  1.
         12    1    3    3    0    0 -0.10148032270E+00 -0.19862822772E+02  0.17067536819E+02  0.26188601333E+02  0.00000000000E+00 0. -1.
</event>
<event>
 7    1  0.1375918E-013  0.7246151E+02  0.7816164E-02  0.1226708E+00
        -11   -1    0    0    0    0  0.00000000000E+00  0.00000000000E+00  0.45593999997E+02  0.45594000000E+02  0.51100000000E-03 0.  1.
         11   -1    0    0    0    0 -0.00000000000E+00 -0.00000000000E+00 -0.45593999997E+02  0.45594000000E+02  0.51100000000E-03 0. -1.
    9900012    2    1    2    0    0 -0.82278436920E+01  0.14738539980E+02  0.81092303198E+01  0.72461505695E+02  0.69999915848E+02 0.  0.
         12    1    1    2    0    0  0.82278436920E+01 -0.14738539980E+02 -0.81092303198E+01  0.18726494305E+02  0.00000000000E+00 0. -1.
         11    1    3    3    0    0 -0.32613018419E+02  0.20296339428E+02  0.13210195554E+02  0.40620926029E+02  0.51100000000E-03 0. -1.
        -11    1    3    3    0    0  0.21527073893E+02 -0.14502193526E+00  0.29481013308E+01  0.21728489213E+02  0.51100000000E-03 0.  1.
        -12    1    3    3    0    0  0.28581008342E+01 -0.54127775132E+01 -0.80490665647E+01  0.10112090454E+02  0.00000000000E+00 0.  1.
</event>
<event>
 7    1  0.1375918E-013  0.7246156E+02  0.7816164E-02  0.1226708E+00
        -11   -1    0    0    0    0  0.00000000000E+00  0.00000000000E+00  0.45593999997E+02  0.45594000000E+02  0.51100000000E-03 0. -1.
         11   -1    0    0    0    0 -0.00000000000E+00 -0.00000000000E+00 -0.45593999997E+02  0.45594000000E+02  0.51100000000E-03 0.  1.
    9900012    2    1    2    0    0  0.16326829013E+02 -0.86086701041E+01  0.31630633894E+01  0.72461561028E+02  0.69999987928E+02 0.  0.
         12    1    1    2    0    0 -0.16326829013E+02  0.86086701041E+01 -0.31630633894E+01  0.18726438972E+02  0.00000000000E+00 0. -1.
         11    1    3    3    0    0  0.13244313956E+02 -0.16677818781E+02  0.16918914328E+02  0.27199469733E+02  0.51100000000E-03 0. -1.
        -11    1    3    3    0    0  0.71671993181E+01  0.21813610734E+01 -0.28178450839E+02  0.29157369122E+02  0.51100000000E-03 0.  1.
        -12    1    3    3    0    0 -0.40846842608E+01  0.58877876035E+01  0.14422599900E+02  0.16104722173E+02  0.00000000000E+00 0.  1.
</event>
<event>
 7    1  0.1375918E-013  0.7246157E+02  0.7816164E-02  0.1226708E+00
        -11   -1    0    0    0    0  0.00000000000E+00  0.00000000000E+00  0.45593999997E+02  0.45594000000E+02  0.51100000000E-03 0.  1.
         11   -1    0    0    0    0 -0.00000000000E+00 -0.00000000000E+00 -0.45593999997E+02  0.45594000000E+02  0.51100000000E-03 0. -1.
    9900012    2    1    2    0    0  0.16103424752E+02 -0.74079748702E+01  0.60399433405E+01  0.72461566918E+02  0.69999995601E+02 0.  0.
         12    1    1    2    0    0 -0.16103424752E+02  0.74079748702E+01 -0.60399433405E+01  0.18726433082E+02  0.00000000000E+00 0. -1.
         11    1    3    3    0    0 -0.11555491555E+02 -0.10479910762E+02 -0.19295315132E+02  0.24812639944E+02  0.51100000000E-03 0. -1.
        -11    1    3    3    0    0  0.10198811689E+02  0.11937727232E+02  0.23112317582E+02  0.27941086514E+02  0.51100000000E-03 0.  1.
        -12    1    3    3    0    0  0.17460104619E+02 -0.88657913400E+01  0.22229408903E+01  0.19707840460E+02  0.00000000000E+00 0.  1.
</event>
<event>
 7    1  0.1375918E-013  0.7246141E+02  0.7816164E-02  0.1226708E+00
        -11   -1    0    0    0    0  0.00000000000E+00  0.00000000000E+00  0.45593999997E+02  0.45594000000E+02  0.51100000000E-03 0. -1.
         11   -1    0    0    0    0 -0.00000000000E+00 -0.00000000000E+00 -0.45593999997E+02  0.45594000000E+02  0.51100000000E-03 0.  1.
    9900012    2    1    2    0    0 -0.22612940896E+01  0.17352963779E+02 -0.66668094224E+01  0.72461410595E+02  0.69999791962E+02 0.  0.
         12    1    1    2    0    0  0.22612940896E+01 -0.17352963779E+02  0.66668094224E+01  0.18726589405E+02  0.00000000000E+00 0. -1.
         11    1    3    3    0    0 -0.14935375647E+02 -0.14511234601E+02 -0.80963492660E+01  0.22342610569E+02  0.51100000000E-03 0.  1.
        -11    1    3    3    0    0  0.89364670547E+01  0.18788552663E+02  0.18811564994E+02  0.28048977385E+02  0.51100000000E-03 0. -1.
        -12    1    3    3    0    0  0.37376145024E+01  0.13075645716E+02 -0.17382025150E+02  0.22069822641E+02  0.00000000000E+00 0.  1.
</event>
<event>
 7    1  0.1375918E-013  0.7246160E+02  0.7816164E-02  0.1226708E+00
        -11   -1    0    0    0    0  0.00000000000E+00  0.00000000000E+00  0.45593999997E+02  0.45594000000E+02  0.51100000000E-03 0.  1.
         11   -1    0    0    0    0 -0.00000000000E+00 -0.00000000000E+00 -0.45593999997E+02  0.45594000000E+02  0.51100000000E-03 0. -1.
    9900012    2    1    2    0    0  0.16764015852E+02 -0.78296589537E+01  0.28883134525E+01  0.72461597745E+02  0.70000035760E+02 0.  0.
         12    1    1    2    0    0 -0.16764015852E+02  0.78296589537E+01 -0.28883134525E+01  0.18726402255E+02  0.00000000000E+00 0. -1.
         11    1    3    3    0    0  0.14634434667E+02 -0.16734069877E+02 -0.19686567705E+02  0.29694388712E+02  0.51100000000E-03 0. -1.
        -11    1    3    3    0    0  0.31174869708E+01 -0.14999542347E+01  0.29839403904E+02  0.30039284501E+02  0.51100000000E-03 0.  1.
        -12    1    3    3    0    0 -0.98790578645E+00  0.10404365158E+02 -0.72645227462E+01  0.12727924533E+02  0.00000000000E+00 0.  1.
</event>
<event>
 7    1  0.1375918E-013  0.7246153E+02  0.7816164E-02  0.1226708E+00
        -11   -1    0    0    0    0  0.00000000000E+00  0.00000000000E+00  0.45593999997E+02  0.45594000000E+02  0.51100000000E-03 0. -1.
         11   -1    0    0    0    0 -0.00000000000E+00 -0.00000000000E+00 -0.45593999997E+02  0.45594000000E+02  0.51100000000E-03 0.  1.
    9900012    2    1    2    0    0  0.16437289846E+02 -0.83904859866E+01  0.31774290777E+01  0.72461526544E+02  0.69999943007E+02 0.  0.
         12    1    1    2    0    0 -0.16437289846E+02  0.83904859866E+01 -0.31774290777E+01  0.18726473456E+02  0.00000000000E+00 0. -1.
         11    1    3    3    0    0  0.87714883657E+01 -0.10539286401E+01  0.12915079646E+02  0.15647653378E+02  0.51100000000E-03 0. -1.
        -11    1    3    3    0    0  0.23663676744E+02  0.92264672401E+01 -0.19279989328E+02  0.31887541196E+02  0.51100000000E-03 0.  1.
        -12    1    3    3    0    0 -0.15997875264E+02 -0.16563024587E+02  0.95423387603E+01  0.24926331969E+02  0.00000000000E+00 0.  1.
</event>
<event>
 7    1  0.1375918E-013  0.7246158E+02  0.7816164E-02  0.1226708E+00
        -11   -1    0    0    0    0  0.00000000000E+00  0.00000000000E+00  0.45593999997E+02  0.45594000000E+02  0.51100000000E-03 0. -1.
         11   -1    0    0    0    0 -0.00000000000E+00 -0.00000000000E+00 -0.45593999997E+02  0.45594000000E+02  0.51100000000E-03 0.  1.
    9900012    2    1    2    0    0  0.83628827584E+01  0.13800002167E+02 -0.95026803881E+01  0.72461580097E+02  0.70000012769E+02 0.  0.
         12    1    1    2    0    0 -0.83628827584E+01 -0.13800002167E+02  0.95026803881E+01  0.18726419903E+02  0.00000000000E+00 0. -1.
         11    1    3    3    0    0  0.23041307209E+02  0.12826661908E+02 -0.27745742918E+02  0.38278601646E+02  0.51100000000E-03 0.  1.
        -11    1    3    3    0    0 -0.90110265830E+01 -0.80943816629E+01  0.19965031161E+02  0.23352089502E+02  0.51100000000E-03 0. -1.
        -12    1    3    3    0    0 -0.56673978678E+01  0.90677219220E+01 -0.17219686311E+01  0.10830888948E+02  0.00000000000E+00 0.  1.
</event>
<event>
 7    1  0.1375918E-013  0.7246140E+02  0.7816164E-02  0.1226708E+00
        -11   -1    0    0    0    0  0.00000000000E+00  0.00000000000E+00  0.45593999997E+02  0.45594000000E+02  0.51100000000E-03 0. -1.
         11   -1    0    0    0    0 -0.00000000000E+00 -0.00000000000E+00 -0.45593999997E+02  0.45594000000E+02  0.51100000000E-03 0.  1.
    9900012    2    1    2    0    0  0.10572282713E+01  0.15263082678E+02 -0.10798426101E+02  0.72461403120E+02  0.69999782224E+02 0.  0.
         12    1    1    2    0    0 -0.10572282713E+01 -0.15263082678E+02  0.10798426101E+02  0.18726596880E+02  0.00000000000E+00 0. -1.
         11    1    3    3    0    0  0.18204511595E+02 -0.68972823721E+01 -0.22976573606E+02  0.30114775136E+02  0.51100000000E-03 0. -1.
        -11    1    3    3    0    0 -0.91927134625E+01  0.28531582118E+02  0.11588659800E+02  0.32138049026E+02  0.51100000000E-03 0.  1.
         12    1    3    3    0    0 -0.79545698609E+01 -0.63712170684E+01  0.58948770488E+00  0.10208578959E+02  0.00000000000E+00 0. -1.
</event>
<event>
 7    1  0.1375918E-013  0.7246152E+02  0.7816164E-02  0.1226708E+00
        -11   -1    0    0    0    0  0.00000000000E+00  0.00000000000E+00  0.45593999997E+02  0.45594000000E+02  0.51100000000E-03 0.  1.
         11   -1    0    0    0    0 -0.00000000000E+00 -0.00000000000E+00 -0.45593999997E+02  0.45594000000E+02  0.51100000000E-03 0. -1.
    9900012    2    1    2    0    0 -0.33765046592E+01 -0.17212231827E+02  0.65589071128E+01  0.72461522203E+02  0.69999937351E+02 0.  0.
         12    1    1    2    0    0  0.33765046592E+01  0.17212231827E+02 -0.65589071128E+01  0.18726477797E+02  0.00000000000E+00 0. -1.
         11    1    3    3    0    0  0.15703100916E+02  0.12459704141E+02  0.14189681651E+02  0.24559696075E+02  0.51100000000E-03 0. -1.
        -11    1    3    3    0    0 -0.39429962204E+01 -0.19035687720E+02  0.10418566909E+02  0.22055637893E+02  0.51100000000E-03 0.  1.
         12    1    3    3    0    0 -0.15136609354E+02 -0.10636248248E+02 -0.18049341448E+02  0.25846188234E+02  0.00000000000E+00 0. -1.
</event>
<event>
 7    1  0.1375918E-013  0.7246156E+02  0.7816164E-02  0.1226708E+00
        -11   -1    0    0    0    0  0.00000000000E+00  0.00000000000E+00  0.45593999997E+02  0.45594000000E+02  0.51100000000E-03 0. -1.
         11   -1    0    0    0    0 -0.00000000000E+00 -0.00000000000E+00 -0.45593999997E+02  0.45594000000E+02  0.51100000000E-03 0.  1.
    9900012    2    1    2    0    0  0.17901757402E+02 -0.27404122780E+00 -0.54892232767E+01  0.72461559098E+02  0.69999985415E+02 0.  0.
         12    1    1    2    0    0 -0.17901757402E+02  0.27404122780E+00  0.54892232767E+01  0.18726440902E+02  0.00000000000E+00 0. -1.
         11    1    3    3    0    0  0.12013526236E+02 -0.78795490865E+01  0.44965344752E+01  0.15054266139E+02  0.51100000000E-03 0. -1.
        -11    1    3    3    0    0 -0.86618636016E+01  0.23791606819E+02  0.10600804744E+02  0.27448961685E+02  0.51100000000E-03 0.  1.
        -12    1    3    3    0    0  0.14550094767E+02 -0.16186098961E+02 -0.20586562496E+02  0.29958331274E+02  0.00000000000E+00 0.  1.
</event>
<event>
 7    1  0.1375918E-013  0.7246158E+02  0.7816164E-02  0.1226708E+00
        -11   -1    0    0    0    0  0.00000000000E+00  0.00000000000E+00  0.45593999997E+02  0.45594000000E+02  0.51100000000E-03 0.  1.
         11   -1    0    0    0    0 -0.00000000000E+00 -0.00000000000E+00 -0.45593999997E+02  0.45594000000E+02  0.51100000000E-03 0. -1.
    9900012    2    1    2    0    0 -0.40715348316E+01  0.17862922222E+01  0.18190948791E+02  0.72461578727E+02  0.70000010985E+02 0.  0.
         12    1    1    2    0    0  0.40715348316E+01 -0.17862922222E+01 -0.18190948791E+02  0.18726421273E+02  0.00000000000E+00 0. -1.
         11    1    3    3    0    0 -0.17761739115E+02  0.23995249825E+02  0.73617502182E-01  0.29853924538E+02  0.51100000000E-03 0. -1.
        -11    1    3    3    0    0  0.13757157871E+02 -0.14922326889E+02 -0.27712773957E+01  0.20484511494E+02  0.51100000000E-03 0.  1.
        -12    1    3    3    0    0 -0.66953587530E-01 -0.72866307132E+01  0.20888608684E+02  0.22123142695E+02  0.00000000000E+00 0.  1.
</event>
<event>
 7    1  0.1375918E-013  0.7246121E+02  0.7816164E-02  0.1226709E+00
        -11   -1    0    0    0    0  0.00000000000E+00  0.00000000000E+00  0.45593999997E+02  0.45594000000E+02  0.51100000000E-03 0. -1.
         11   -1    0    0    0    0 -0.00000000000E+00 -0.00000000000E+00 -0.45593999997E+02  0.45594000000E+02  0.51100000000E-03 0.  1.
    9900012    2    1    2    0    0  0.77158210035E+01  0.23939059760E+01 -0.16894610671E+02  0.72461213055E+02  0.69999534628E+02 0.  0.
         12    1    1    2    0    0 -0.77158210035E+01 -0.23939059760E+01  0.16894610671E+02  0.18726786945E+02  0.00000000000E+00 0. -1.
         11    1    3    3    0    0  0.79487522225E+01  0.15166034998E+02  0.19917382172E+02  0.26265821752E+02  0.51100000000E-03 0. -1.
        -11    1    3    3    0    0 -0.61227916131E+00 -0.11035294750E+02 -0.18713785856E+01  0.11209579566E+02  0.51100000000E-03 0.  1.
         12    1    3    3    0    0  0.37934794233E+00 -0.17368342724E+01 -0.34940614257E+02  0.34985811736E+02  0.00000000000E+00 0. -1.
</event>
<event>
 7    1  0.1375918E-013  0.7246161E+02  0.7816164E-02  0.1226708E+00
        -11   -1    0    0    0    0  0.00000000000E+00  0.00000000000E+00  0.45593999997E+02  0.45594000000E+02  0.51100000000E-03 0. -1.
         11   -1    0    0    0    0 -0.00000000000E+00 -0.00000000000E+00 -0.45593999997E+02  0.45594000000E+02  0.51100000000E-03 0.  1.
    9900012    2    1    2    0    0 -0.37275820965E+01 -0.16338178118E+02 -0.83574410696E+01  0.72461608096E+02  0.70000049244E+02 0.  0.
         12    1    1    2    0    0  0.37275820965E+01  0.16338178118E+02  0.83574410696E+01  0.18726391904E+02  0.00000000000E+00 0. -1.
         11    1    3    3    0    0  0.13833896916E+02 -0.41316746274E+01  0.47383943677E+01  0.15195388134E+02  0.51100000000E-03 0. -1.
        -11    1    3    3    0    0 -0.26913627928E+02 -0.27075812914E+02 -0.93713175672E+01  0.39309853808E+02  0.51100000000E-03 0.  1.
        -12    1    3    3    0    0  0.93521489157E+01  0.14869309423E+02 -0.37245178702E+01  0.17956366153E+02  0.00000000000E+00 0.  1.
</event>
<event>
 7    1  0.1375918E-013  0.7246158E+02  0.7816164E-02  0.1226708E+00
        -11   -1    0    0    0    0  0.00000000000E+00  0.00000000000E+00  0.45593999997E+02  0.45594000000E+02  0.51100000000E-03 0.  1.
         11   -1    0    0    0    0 -0.00000000000E+00 -0.00000000000E+00 -0.45593999997E+02  0.45594000000E+02  0.51100000000E-03 0. -1.
    9900012    2    1    2    0    0  0.11962655630E+02 -0.97915716548E+01 -0.10568773415E+02  0.72461575443E+02  0.70000006707E+02 0.  0.
         12    1    1    2    0    0 -0.11962655630E+02  0.97915716548E+01  0.10568773415E+02  0.18726424557E+02  0.00000000000E+00 0. -1.
         11    1    3    3    0    0 -0.13949395653E+02  0.15089789135E+02  0.32743689312E+01  0.20808865115E+02  0.51100000000E-03 0. -1.
        -11    1    3    3    0    0  0.12378061401E+02 -0.16651330948E+02  0.99963419158E+01  0.23030633477E+02  0.51100000000E-03 0.  1.
         12    1    3    3    0    0  0.13533989883E+02 -0.82300298421E+01 -0.23839484262E+02  0.28622076850E+02  0.00000000000E+00 0. -1.
</event>
<event>
 7    1  0.1375918E-013  0.7246156E+02  0.7816164E-02  0.1226708E+00
        -11   -1    0    0    0    0  0.00000000000E+00  0.00000000000E+00  0.45593999997E+02  0.45594000000E+02  0.51100000000E-03 0. -1.
         11   -1    0    0    0    0 -0.00000000000E+00 -0.00000000000E+00 -0.45593999997E+02  0.45594000000E+02  0.51100000000E-03 0.  1.
    9900012    2    1    2    0    0  0.13348738565E+01  0.17421032874E+02  0.67383460704E+01  0.72461559271E+02  0.69999985640E+02 0.  0.
         12    1    1    2    0    0 -0.13348738565E+01 -0.17421032874E+02 -0.67383460704E+01  0.18726440729E+02  0.00000000000E+00 0. -1.
         11    1    3    3    0    0 -0.16180693498E+02  0.15663132130E+02  0.12064537921E+02  0.25548025867E+02  0.51100000000E-03 0. -1.
        -11    1    3    3    0    0  0.59885898997E+00 -0.33755233343E+01 -0.22206934173E+02  0.22469995894E+02  0.51100000000E-03 0.  1.
         12    1    3    3    0    0  0.16916708365E+02  0.51334240783E+01  0.16880742321E+02  0.24443537510E+02  0.00000000000E+00 0. -1.
</event>
<event>
 7    1  0.1375918E-013  0.7246154E+02  0.7816164E-02  0.1226708E+00
        -11   -1    0    0    0    0  0.00000000000E+00  0.00000000000E+00  0.45593999997E+02  0.45594000000E+02  0.51100000000E-03 0.  1.
         11   -1    0    0    0    0 -0.00000000000E+00 -0.00000000000E+00 -0.45593999997E+02  0.45594000000E+02  0.51100000000E-03 0. -1.
    9900012    2    1    2    0    0 -0.13772397133E+02 -0.11599922637E+02  0.51422993949E+01  0.72461538214E+02  0.69999958209E+02 0.  0.
         12    1    1    2    0    0  0.13772397133E+02  0.11599922637E+02 -0.51422993949E+01  0.18726461786E+02  0.00000000000E+00 0. -1.
         11    1    3    3    0    0 -0.44766166280E+01  0.23502196333E+02 -0.78639217076E+01  0.25184014648E+02  0.51100000000E-03 0. -1.
        -11    1    3    3    0    0  0.65942549502E+01 -0.96587159988E+01  0.12718920177E+02  0.17278481526E+02  0.51100000000E-03 0.  1.
         12    1    3    3    0    0 -0.15890035455E+02 -0.25443402971E+02  0.28730092511E+00  0.29999042040E+02  0.00000000000E+00 0. -1.
</event>
<event>
 7    1  0.1375918E-013  0.7246161E+02  0.7816164E-02  0.1226708E+00
        -11   -1    0    0    0    0  0.00000000000E+00  0.00000000000E+00  0.45593999997E+02  0.45594000000E+02  0.51100000000E-03 0. -1.
         11   -1    0    0    0    0 -0.00000000000E+00 -0.00000000000E+00 -0.45593999997E+02  0.45594000000E+02  0.51100000000E-03 0.  1.
    9900012    2    1    2    0    0 -0.17108238323E+02  0.76144960107E+01 -0.72497720125E-01  0.72461611562E+02  0.70000053759E+02 0.  0.
         12    1    1    2    0    0  0.17108238323E+02 -0.76144960107E+01  0.72497720125E-01  0.18726388438E+02  0.00000000000E+00 0. -1.
         11    1    3    3    0    0 -0.25082963735E+02  0.22797302550E+02  0.31293226468E+01  0.34039164704E+02  0.51100000000E-03 0. -1.
        -11    1    3    3    0    0  0.13712569515E+02  0.23301689626E+01  0.87729093119E+01  0.16444700914E+02  0.51100000000E-03 0.  1.
         12    1    3    3    0    0 -0.57378441031E+01 -0.17512975502E+02 -0.11974729679E+02  0.21977745944E+02  0.00000000000E+00 0. -1.
</event>
<event>
 7    1  0.1375918E-013  0.7246159E+02  0.7816164E-02  0.1226708E+00
        -11   -1    0    0    0    0  0.00000000000E+00  0.00000000000E+00  0.45593999997E+02  0.45594000000E+02  0.51100000000E-03 0. -1.
         11   -1    0    0    0    0 -0.00000000000E+00 -0.00000000000E+00 -0.45593999997E+02  0.45594000000E+02  0.51100000000E-03 0.  1.
    9900012    2    1    2    0    0 -0.39717784660E+01 -0.15333495354E+02 -0.99893645070E+01  0.72461587978E+02  0.70000023037E+02 0.  0.
         12    1    1    2    0    0  0.39717784660E+01  0.15333495354E+02  0.99893645070E+01  0.18726412022E+02  0.00000000000E+00 0. -1.
         11    1    3    3    0    0 -0.16239762615E+02  0.19419943488E+02  0.12952493399E+01  0.25348407563E+02  0.51100000000E-03 0. -1.
        -11    1    3    3    0    0  0.77301268544E+01 -0.13872844080E+02 -0.18664553899E+02  0.24506656985E+02  0.51100000000E-03 0.  1.
         12    1    3    3    0    0  0.45378572950E+01 -0.20880594761E+02  0.73799400525E+01  0.22606523430E+02  0.00000000000E+00 0. -1.
</event>
<event>
 7    1  0.1375918E-013  0.7246155E+02  0.7816164E-02  0.1226708E+00
        -11   -1    0    0    0    0  0.00000000000E+00  0.00000000000E+00  0.45593999997E+02  0.45594000000E+02  0.51100000000E-03 0.  1.
         11   -1    0    0    0    0 -0.00000000000E+00 -0.00000000000E+00 -0.45593999997E+02  0.45594000000E+02  0.51100000000E-03 0. -1.
    9900012    2    1    2    0    0  0.13572900316E+02  0.95534868339E+01  0.86710571144E+01  0.72461549051E+02  0.69999972326E+02 0.  0.
         12    1    1    2    0    0 -0.13572900316E+02 -0.95534868339E+01 -0.86710571144E+01  0.18726450949E+02  0.00000000000E+00 0. -1.
         11    1    3    3    0    0 -0.79692465062E+01 -0.31390242621E+01 -0.21622253206E+02  0.23256917189E+02  0.51100000000E-03 0. -1.
        -11    1    3    3    0    0 -0.29772175385E+01  0.30521922398E+01  0.20749219715E+02  0.21182771792E+02  0.51100000000E-03 0.  1.
         12    1    3    3    0    0  0.24519364360E+02  0.96403188562E+01  0.95440906054E+01  0.28021860070E+02  0.00000000000E+00 0. -1.
</event>
<event>
 7    1  0.1375918E-013  0.7246143E+02  0.7816164E-02  0.1226708E+00
        -11   -1    0    0    0    0  0.00000000000E+00  0.00000000000E+00  0.45593999997E+02  0.45594000000E+02  0.51100000000E-03 0.  1.
         11   -1    0    0    0    0 -0.00000000000E+00 -0.00000000000E+00 -0.45593999997E+02  0.45594000000E+02  0.51100000000E-03 0. -1.
    9900012    2    1    2    0    0  0.74785523581E+01 -0.15253625301E+02  0.78792469350E+01  0.72461431643E+02  0.69999819380E+02 0.  0.
         12    1    1    2    0    0 -0.74785523581E+01  0.15253625301E+02 -0.78792469350E+01  0.18726568357E+02  0.00000000000E+00 0. -1.
         11    1    3    3    0    0  0.13015694374E+02 -0.61073675525E+01 -0.69192443027E+01  0.15955694295E+02  0.51100000000E-03 0. -1.
        -11    1    3    3    0    0 -0.15794298642E+02  0.14615124600E+02  0.20810841616E+02  0.29935812428E+02  0.51100000000E-03 0.  1.
        -12    1    3    3    0    0  0.10257156626E+02 -0.23761382348E+02 -0.60123503780E+01  0.26569924920E+02  0.00000000000E+00 0.  1.
</event>
<event>
 7    1  0.1375918E-013  0.7246158E+02  0.7816164E-02  0.1226708E+00
        -11   -1    0    0    0    0  0.00000000000E+00  0.00000000000E+00  0.45593999997E+02  0.45594000000E+02  0.51100000000E-03 0. -1.
         11   -1    0    0    0    0 -0.00000000000E+00 -0.00000000000E+00 -0.45593999997E+02  0.45594000000E+02  0.51100000000E-03 0.  1.
    9900012    2    1    2    0    0 -0.18477300806E+02 -0.10716131523E+01 -0.28495588060E+01  0.72461575216E+02  0.70000006411E+02 0.  0.
         12    1    1    2    0    0  0.18477300806E+02  0.10716131523E+01  0.28495588060E+01  0.18726424784E+02  0.00000000000E+00 0. -1.
         11    1    3    3    0    0  0.52916227115E+01 -0.22381293158E+02  0.19352114993E+02  0.30057077525E+02  0.51100000000E-03 0. -1.
        -11    1    3    3    0    0 -0.29422399613E+01  0.12083991956E+02 -0.12540013019E+02  0.17661584424E+02  0.51100000000E-03 0.  1.
         12    1    3    3    0    0 -0.20826683556E+02  0.92256880504E+01 -0.96616607798E+01  0.24742913267E+02  0.00000000000E+00 0. -1.
</event>
<event>
 7    1  0.1375918E-013  0.7246146E+02  0.7816164E-02  0.1226708E+00
        -11   -1    0    0    0    0  0.00000000000E+00  0.00000000000E+00  0.45593999997E+02  0.45594000000E+02  0.51100000000E-03 0. -1.
         11   -1    0    0    0    0 -0.00000000000E+00 -0.00000000000E+00 -0.45593999997E+02  0.45594000000E+02  0.51100000000E-03 0.  1.
    9900012    2    1    2    0    0 -0.32011371381E+01 -0.14467398510E+02 -0.11451211349E+02  0.72461464282E+02  0.69999861899E+02 0.  0.
         12    1    1    2    0    0  0.32011371381E+01  0.14467398510E+02  0.11451211349E+02  0.18726535718E+02  0.00000000000E+00 0. -1.
         11    1    3    3    0    0 -0.24331642348E+02 -0.10929954808E+02 -0.83259410187E+00  0.26686812186E+02  0.51100000000E-03 0. -1.
        -11    1    3    3    0    0  0.10372658741E+02 -0.70608724206E+01 -0.24701658167E+02  0.27705953966E+02  0.51100000000E-03 0.  1.
        -12    1    3    3    0    0  0.10757846469E+02  0.35234287180E+01  0.14083040920E+02  0.18068698130E+02  0.00000000000E+00 0.  1.
</event>
<event>
 7    1  0.1375918E-013  0.7246156E+02  0.7816164E-02  0.1226708E+00
        -11   -1    0    0    0    0  0.00000000000E+00  0.00000000000E+00  0.45593999997E+02  0.45594000000E+02  0.51100000000E-03 0. -1.
         11   -1    0    0    0    0 -0.00000000000E+00 -0.00000000000E+00 -0.45593999997E+02  0.45594000000E+02  0.51100000000E-03 0.  1.
    9900012    2    1    2    0    0 -0.11815230222E+02  0.88003980660E+01 -0.11559961972E+02  0.72461564351E+02  0.69999992258E+02 0.  0.
         12    1    1    2    0    0  0.11815230222E+02 -0.88003980660E+01  0.11559961972E+02  0.18726435649E+02  0.00000000000E+00 0. -1.
         11    1    3    3    0    0  0.10732208228E+02  0.56238396784E+01  0.87401559859E+01  0.14939819045E+02  0.51100000000E-03 0. -1.
        -11    1    3    3    0    0 -0.29226631875E+02 -0.11322340094E+02  0.44417731751E+00  0.31346270746E+02  0.51100000000E-03 0.  1.
        -12    1    3    3    0    0  0.66791934242E+01  0.14498898482E+02 -0.20744295275E+02  0.26175474560E+02  0.00000000000E+00 0.  1.
</event>
<event>
 7    1  0.1375918E-013  0.7246169E+02  0.7816164E-02  0.1226708E+00
        -11   -1    0    0    0    0  0.00000000000E+00  0.00000000000E+00  0.45593999997E+02  0.45594000000E+02  0.51100000000E-03 0.  1.
         11   -1    0    0    0    0 -0.00000000000E+00 -0.00000000000E+00 -0.45593999997E+02  0.45594000000E+02  0.51100000000E-03 0. -1.
    9900012    2    1    2    0    0  0.12593692886E+02  0.97375757589E+01  0.98617060064E+01  0.72461688897E+02  0.70000154502E+02 0.  0.
         12    1    1    2    0    0 -0.12593692886E+02 -0.97375757589E+01 -0.98617060064E+01  0.18726311103E+02  0.00000000000E+00 0. -1.
         11    1    3    3    0    0  0.71675504447E+01  0.32162169894E+02 -0.15740549720E+02  0.36517719773E+02  0.51100000000E-03 0. -1.
        -11    1    3    3    0    0  0.83198560082E+01 -0.15513551780E+02  0.16217938890E+02  0.23935576762E+02  0.51100000000E-03 0.  1.
         12    1    3    3    0    0 -0.28937135668E+01 -0.69110423551E+01  0.93843168362E+01  0.12008392362E+02  0.00000000000E+00 0. -1.
</event>
<event>
 7    1  0.1375918E-013  0.7246157E+02  0.7816164E-02  0.1226708E+00
        -11   -1    0    0    0    0  0.00000000000E+00  0.00000000000E+00  0.45593999997E+02  0.45594000000E+02  0.51100000000E-03 0.  1.
         11   -1    0    0    0    0 -0.00000000000E+00 -0.00000000000E+00 -0.45593999997E+02  0.45594000000E+02  0.51100000000E-03 0. -1.
    9900012    2    1    2    0    0  0.11983842831E+02 -0.85437986428E+01  0.11578872812E+02  0.72461567348E+02  0.69999996162E+02 0.  0.
         12    1    1    2    0    0 -0.11983842831E+02  0.85437986428E+01 -0.11578872812E+02  0.18726432652E+02  0.00000000000E+00 0. -1.
         11    1    3    3    0    0 -0.31592956647E+01  0.21002137488E+02  0.87827664161E+01  0.22982774296E+02  0.51100000000E-03 0.  1.
        -11    1    3    3    0    0 -0.74690403389E+01 -0.21416413115E+02 -0.66860823645E+01  0.23646416471E+02  0.51100000000E-03 0. -1.
        -12    1    3    3    0    0  0.22612178835E+02 -0.81295230160E+01  0.94821887603E+01  0.25832376581E+02  0.00000000000E+00 0.  1.
</event>
<event>
 7    1  0.1375918E-013  0.7246159E+02  0.7816164E-02  0.1226708E+00
        -11   -1    0    0    0    0  0.00000000000E+00  0.00000000000E+00  0.45593999997E+02  0.45594000000E+02  0.51100000000E-03 0. -1.
         11   -1    0    0    0    0 -0.00000000000E+00 -0.00000000000E+00 -0.45593999997E+02  0.45594000000E+02  0.51100000000E-03 0.  1.
    9900012    2    1    2    0    0 -0.53917783693E+01  0.16421478462E+02 -0.72070926925E+01  0.72461590468E+02  0.70000026280E+02 0.  0.
         12    1    1    2    0    0  0.53917783693E+01 -0.16421478462E+02  0.72070926925E+01  0.18726409532E+02  0.00000000000E+00 0. -1.
         11    1    3    3    0    0 -0.14343617605E+02 -0.23001000886E+01  0.92080135181E+01  0.17199341256E+02  0.51100000000E-03 0. -1.
        -11    1    3    3    0    0  0.12365259124E+02 -0.12973183101E+02 -0.14969541590E+02  0.23351451532E+02  0.51100000000E-03 0.  1.
        -12    1    3    3    0    0 -0.34134198884E+01  0.31694761652E+02 -0.14455646211E+01  0.31910797680E+02  0.00000000000E+00 0.  1.
</event>
<event>
 7    1  0.1375918E-013  0.7246159E+02  0.7816164E-02  0.1226708E+00
        -11   -1    0    0    0    0  0.00000000000E+00  0.00000000000E+00  0.45593999997E+02  0.45594000000E+02  0.51100000000E-03 0. -1.
         11   -1    0    0    0    0 -0.00000000000E+00 -0.00000000000E+00 -0.45593999997E+02  0.45594000000E+02  0.51100000000E-03 0.  1.
    9900012    2    1    2    0    0  0.28883299125E+01  0.18502081627E+02 -0.94765167013E-01  0.72461589381E+02  0.70000024864E+02 0.  0.
         12    1    1    2    0    0 -0.28883299125E+01 -0.18502081627E+02  0.94765167013E-01  0.18726410619E+02  0.00000000000E+00 0. -1.
         11    1    3    3    0    0  0.29477405478E+02  0.16356813717E+02  0.78892606393E+01  0.34622293719E+02  0.51100000000E-03 0. -1.
        -11    1    3    3    0    0 -0.25545670657E+01 -0.54895968095E+01 -0.10884242770E+02  0.12455048252E+02  0.51100000000E-03 0.  1.
         12    1    3    3    0    0 -0.24034508500E+02  0.76348647201E+01  0.29002169638E+01  0.25384247410E+02  0.00000000000E+00 0. -1.
</event>
<event>
 7    1  0.1375918E-013  0.7246155E+02  0.7816164E-02  0.1226708E+00
        -11   -1    0    0    0    0  0.00000000000E+00  0.00000000000E+00  0.45593999997E+02  0.45594000000E+02  0.51100000000E-03 0.  1.
         11   -1    0    0    0    0 -0.00000000000E+00 -0.00000000000E+00 -0.45593999997E+02  0.45594000000E+02  0.51100000000E-03 0. -1.
    9900012    2    1    2    0    0 -0.48430772857E+00 -0.92901112597E+01  0.16252355436E+02  0.72461554036E+02  0.69999978821E+02 0.  0.
         12    1    1    2    0    0  0.48430772857E+00  0.92901112597E+01 -0.16252355436E+02  0.18726445964E+02  0.00000000000E+00 0. -1.
         11    1    3    3    0    0  0.18841699316E+02  0.34160442793E+01  0.21596732184E+02  0.28863434184E+02  0.51100000000E-03 0.  1.
        -11    1    3    3    0    0 -0.29292184459E+02 -0.72031141900E+01 -0.92678399053E+01  0.31556453875E+02  0.51100000000E-03 0. -1.
         12    1    3    3    0    0  0.99661774143E+01 -0.55030413490E+01  0.39234631580E+01  0.12041665977E+02  0.00000000000E+00 0. -1.
</event>
<event>
 7    1  0.1375918E-013  0.7246157E+02  0.7816164E-02  0.1226708E+00
        -11   -1    0    0    0    0  0.00000000000E+00  0.00000000000E+00  0.45593999997E+02  0.45594000000E+02  0.51100000000E-03 0.  1.
         11   -1    0    0    0    0 -0.00000000000E+00 -0.00000000000E+00 -0.45593999997E+02  0.45594000000E+02  0.51100000000E-03 0. -1.
    9900012    2    1    2    0    0 -0.66916195545E+01 -0.88277377892E+01  0.15098759942E+02  0.72461567384E+02  0.69999996209E+02 0.  0.
         12    1    1    2    0    0  0.66916195545E+01  0.88277377892E+01 -0.15098759942E+02  0.18726432616E+02  0.00000000000E+00 0. -1.
         11    1    3    3    0    0  0.20182415576E+02 -0.16790265289E+02 -0.27887314888E+01  0.26401135024E+02  0.51100000000E-03 0. -1.
        -11    1    3    3    0    0 -0.32586093477E+02  0.61952974694E+01  0.21061014921E+02  0.39291240099E+02  0.51100000000E-03 0.  1.
        -12    1    3    3    0    0  0.57120583458E+01  0.17672300301E+01 -0.31735234902E+01  0.67691922611E+01  0.00000000000E+00 0.  1.
</event>
<event>
 7    1  0.1375918E-013  0.7246158E+02  0.7816164E-02  0.1226708E+00
        -11   -1    0    0    0    0  0.00000000000E+00  0.00000000000E+00  0.45593999997E+02  0.45594000000E+02  0.51100000000E-03 0.  1.
         11   -1    0    0    0    0 -0.00000000000E+00 -0.00000000000E+00 -0.45593999997E+02  0.45594000000E+02  0.51100000000E-03 0. -1.
    9900012    2    1    2    0    0  0.39861076895E+01 -0.12009127413E+01  0.18257807640E+02  0.72461580541E+02  0.70000013349E+02 0.  0.
         12    1    1    2    0    0 -0.39861076895E+01  0.12009127413E+01 -0.18257807640E+02  0.18726419459E+02  0.00000000000E+00 0. -1.
         11    1    3    3    0    0  0.14428497846E+02 -0.19238463472E+02 -0.96096110813E+01  0.25896807762E+02  0.51100000000E-03 0. -1.
        -11    1    3    3    0    0 -0.43990454467E+01  0.15294652908E+02  0.33992524280E+02  0.37533581172E+02  0.51100000000E-03 0.  1.
        -12    1    3    3    0    0 -0.60433447095E+01  0.27428978223E+01 -0.61251055588E+01  0.90311916073E+01  0.00000000000E+00 0.  1.
</event>
<event>
 7    1  0.1375918E-013  0.7246159E+02  0.7816164E-02  0.1226708E+00
        -11   -1    0    0    0    0  0.00000000000E+00  0.00000000000E+00  0.45593999997E+02  0.45594000000E+02  0.51100000000E-03 0.  1.
         11   -1    0    0    0    0 -0.00000000000E+00 -0.00000000000E+00 -0.45593999997E+02  0.45594000000E+02  0.51100000000E-03 0. -1.
    9900012    2    1    2    0    0  0.12406334678E+02  0.14023851129E+02  0.30476932650E+00  0.72461590174E+02  0.70000025897E+02 0.  0.
         12    1    1    2    0    0 -0.12406334678E+02 -0.14023851129E+02 -0.30476932650E+00  0.18726409826E+02  0.00000000000E+00 0. -1.
         11    1    3    3    0    0  0.71473449655E+01 -0.21956600028E+02 -0.86642738224E+01  0.24662653263E+02  0.51100000000E-03 0. -1.
        -11    1    3    3    0    0 -0.12168251580E+02  0.18858953654E+02  0.56483192424E+01  0.23143681427E+02  0.51100000000E-03 0.  1.
         12    1    3    3    0    0  0.17427241292E+02  0.17121497502E+02  0.33207239065E+01  0.24655255485E+02  0.00000000000E+00 0. -1.
</event>
<event>
 7    1  0.1375918E-013  0.7246158E+02  0.7816164E-02  0.1226708E+00
        -11   -1    0    0    0    0  0.00000000000E+00  0.00000000000E+00  0.45593999997E+02  0.45594000000E+02  0.51100000000E-03 0.  1.
         11   -1    0    0    0    0 -0.00000000000E+00 -0.00000000000E+00 -0.45593999997E+02  0.45594000000E+02  0.51100000000E-03 0. -1.
    9900012    2    1    2    0    0  0.41585660860E+01 -0.10594062092E+02  0.14871147565E+02  0.72461578735E+02  0.70000010995E+02 0.  0.
         12    1    1    2    0    0 -0.41585660860E+01  0.10594062092E+02 -0.14871147565E+02  0.18726421265E+02  0.00000000000E+00 0. -1.
         11    1    3    3    0    0  0.94350158914E+01  0.18358883862E+02  0.26404651964E+02  0.33515276922E+02  0.51100000000E-03 0. -1.
        -11    1    3    3    0    0  0.78437563043E+01 -0.19044826318E+02 -0.82088411289E+01  0.22172392640E+02  0.51100000000E-03 0.  1.
         12    1    3    3    0    0 -0.13120206110E+02 -0.99081196354E+01 -0.33246632701E+01  0.16773909172E+02  0.00000000000E+00 0. -1.
</event>
<event>
 7    1  0.1375918E-013  0.7246160E+02  0.7816164E-02  0.1226708E+00
        -11   -1    0    0    0    0  0.00000000000E+00  0.00000000000E+00  0.45593999997E+02  0.45594000000E+02  0.51100000000E-03 0.  1.
         11   -1    0    0    0    0 -0.00000000000E+00 -0.00000000000E+00 -0.45593999997E+02  0.45594000000E+02  0.51100000000E-03 0. -1.
    9900012    2    1    2    0    0  0.13476416071E+02 -0.11546267598E+02  0.59789582846E+01  0.72461600780E+02  0.70000039714E+02 0.  0.
         12    1    1    2    0    0 -0.13476416071E+02  0.11546267598E+02 -0.59789582846E+01  0.18726399220E+02  0.00000000000E+00 0. -1.
         11    1    3    3    0    0  0.40088869742E+01 -0.16599635791E+02 -0.10722999264E+02  0.20164369483E+02  0.51100000000E-03 0. -1.
        -11    1    3    3    0    0 -0.53713732281E+01 -0.15309216714E+02  0.21207548844E+02  0.26701758275E+02  0.51100000000E-03 0.  1.
         12    1    3    3    0    0  0.14838902325E+02  0.20362584908E+02 -0.45055912956E+01  0.25595473023E+02  0.00000000000E+00 0. -1.
</event>
<event>
 7    1  0.1375918E-013  0.7246158E+02  0.7816164E-02  0.1226708E+00
        -11   -1    0    0    0    0  0.00000000000E+00  0.00000000000E+00  0.45593999997E+02  0.45594000000E+02  0.51100000000E-03 0.  1.
         11   -1    0    0    0    0 -0.00000000000E+00 -0.00000000000E+00 -0.45593999997E+02  0.45594000000E+02  0.51100000000E-03 0. -1.
    9900012    2    1    2    0    0  0.27561084435E+01  0.78230162372E+01  0.16789369180E+02  0.72461584586E+02  0.70000018617E+02 0.  0.
         12    1    1    2    0    0 -0.27561084435E+01 -0.78230162372E+01 -0.16789369180E+02  0.18726415414E+02  0.00000000000E+00 0. -1.
         11    1    3    3    0    0  0.35286406521E+01  0.12801811607E+02 -0.11880757971E+02  0.17818251752E+02  0.51100000000E-03 0. -1.
        -11    1    3    3    0    0  0.85248178475E+01 -0.22179378516E+02  0.25466404872E+02  0.34830089407E+02  0.51100000000E-03 0.  1.
        -12    1    3    3    0    0 -0.92973500561E+01  0.17200583147E+02  0.32037222790E+01  0.19813243427E+02  0.00000000000E+00 0.  1.
</event>
<event>
 7    1  0.1375918E-013  0.7246160E+02  0.7816164E-02  0.1226708E+00
        -11   -1    0    0    0    0  0.00000000000E+00  0.00000000000E+00  0.45593999997E+02  0.45594000000E+02  0.51100000000E-03 0.  1.
         11   -1    0    0    0    0 -0.00000000000E+00 -0.00000000000E+00 -0.45593999997E+02  0.45594000000E+02  0.51100000000E-03 0. -1.
    9900012    2    1    2    0    0  0.37037730547E+01  0.14673196905E+02  0.11029846510E+02  0.72461597348E+02  0.70000035242E+02 0.  0.
         12    1    1    2    0    0 -0.37037730547E+01 -0.14673196905E+02 -0.11029846510E+02  0.18726402652E+02  0.00000000000E+00 0. -1.
         11    1    3    3    0    0 -0.11981121118E+01  0.32043667085E+02  0.21815279834E+02  0.38783224561E+02  0.51100000000E-03 0.  1.
        -11    1    3    3    0    0  0.14543055909E+02 -0.13347210517E+02 -0.12093975113E+02  0.23149789158E+02  0.51100000000E-03 0. -1.
         12    1    3    3    0    0 -0.96411707426E+01 -0.40232596625E+01  0.13085417894E+01  0.10528583628E+02  0.00000000000E+00 0. -1.
</event>
<event>
 7    1  0.1375918E-013  0.7246140E+02  0.7816164E-02  0.1226708E+00
        -11   -1    0    0    0    0  0.00000000000E+00  0.00000000000E+00  0.45593999997E+02  0.45594000000E+02  0.51100000000E-03 0.  1.
         11   -1    0    0    0    0 -0.00000000000E+00 -0.00000000000E+00 -0.45593999997E+02  0.45594000000E+02  0.51100000000E-03 0. -1.
    9900012    2    1    2    0    0  0.94760569894E+01  0.13434466541E+02 -0.89668759591E+01  0.72461403626E+02  0.69999782883E+02 0.  0.
         12    1    1    2    0    0 -0.94760569894E+01 -0.13434466541E+02  0.89668759591E+01  0.18726596374E+02  0.00000000000E+00 0. -1.
         11    1    3    3    0    0 -0.93128992104E+01  0.22141594222E+02 -0.10295316195E+02  0.26133767853E+02  0.51100000000E-03 0. -1.
        -11    1    3    3    0    0  0.29367192959E+02  0.38455282433E+01 -0.15644462617E+01  0.29659190854E+02  0.51100000000E-03 0.  1.
        -12    1    3    3    0    0 -0.10578236759E+02 -0.12552655925E+02  0.28928864972E+01  0.16668444918E+02  0.00000000000E+00 0.  1.
</event>
<event>
 7    1  0.1375918E-013  0.7246152E+02  0.7816164E-02  0.1226708E+00
        -11   -1    0    0    0    0  0.00000000000E+00  0.00000000000E+00  0.45593999997E+02  0.45594000000E+02  0.51100000000E-03 0. -1.
         11   -1    0    0    0    0 -0.00000000000E+00 -0.00000000000E+00 -0.45593999997E+02  0.45594000000E+02  0.51100000000E-03 0.  1.
    9900012    2    1    2    0    0  0.16838649779E+02  0.42605499643E+01 -0.69991816358E+01  0.72461522596E+02  0.69999937864E+02 0.  0.
         12    1    1    2    0    0 -0.16838649779E+02 -0.42605499643E+01  0.69991816358E+01  0.18726477404E+02  0.00000000000E+00 0. -1.
         11    1    3    3    0    0 -0.47597983245E+00 -0.36043848567E+01  0.76010741802E+01  0.84258219747E+01  0.51100000000E-03 0. -1.
        -11    1    3    3    0    0  0.26849115990E+02 -0.67260405139E+01 -0.29970779143E+02  0.40796596097E+02  0.51100000000E-03 0.  1.
        -12    1    3    3    0    0 -0.95344863778E+01  0.14590975335E+02  0.15370523327E+02  0.23239104524E+02  0.00000000000E+00 0.  1.
</event>
<event>
 7    1  0.1375918E-013  0.7246157E+02  0.7816164E-02  0.1226708E+00
        -11   -1    0    0    0    0  0.00000000000E+00  0.00000000000E+00  0.45593999997E+02  0.45594000000E+02  0.51100000000E-03 0.  1.
         11   -1    0    0    0    0 -0.00000000000E+00 -0.00000000000E+00 -0.45593999997E+02  0.45594000000E+02  0.51100000000E-03 0. -1.
    9900012    2    1    2    0    0  0.68436493635E+01  0.38312917481E+01  0.17004842324E+02  0.72461574940E+02  0.70000006052E+02 0.  0.
         12    1    1    2    0    0 -0.68436493635E+01 -0.38312917481E+01 -0.17004842324E+02  0.18726425060E+02  0.00000000000E+00 0. -1.
         11    1    3    3    0    0 -0.25170718664E+02  0.75400323219E+01 -0.98267339887E+01  0.28053197084E+02  0.51100000000E-03 0. -1.
        -11    1    3    3    0    0  0.19253738726E+02  0.41423311152E+01  0.19550448251E+02  0.27750412412E+02  0.51100000000E-03 0.  1.
         12    1    3    3    0    0  0.12760629302E+02 -0.78510716890E+01  0.72811280622E+01  0.16657965443E+02  0.00000000000E+00 0. -1.
</event>
<event>
 7    1  0.1375918E-013  0.7246157E+02  0.7816164E-02  0.1226708E+00
        -11   -1    0    0    0    0  0.00000000000E+00  0.00000000000E+00  0.45593999997E+02  0.45594000000E+02  0.51100000000E-03 0.  1.
         11   -1    0    0    0    0 -0.00000000000E+00 -0.00000000000E+00 -0.45593999997E+02  0.45594000000E+02  0.51100000000E-03 0. -1.
    9900012    2    1    2    0    0  0.18416158556E+02 -0.29340300079E+01  0.17075405832E+01  0.72461571539E+02  0.70000001622E+02 0.  0.
         12    1    1    2    0    0 -0.18416158556E+02  0.29340300079E+01 -0.17075405832E+01  0.18726428461E+02  0.00000000000E+00 0. -1.
         11    1    3    3    0    0  0.23249432611E+02  0.19586814010E+02  0.72555694107E+01  0.31254162723E+02  0.51100000000E-03 0.  1.
        -11    1    3    3    0    0  0.52126979652E+01 -0.81187751160E+01 -0.17488002660E+02  0.19972905817E+02  0.51100000000E-03 0. -1.
         12    1    3    3    0    0 -0.10045972020E+02 -0.14402068902E+02  0.11939973833E+02  0.21234502999E+02  0.00000000000E+00 0. -1.
</event>
<event>
 7    1  0.1375918E-013  0.7246156E+02  0.7816164E-02  0.1226708E+00
        -11   -1    0    0    0    0  0.00000000000E+00  0.00000000000E+00  0.45593999997E+02  0.45594000000E+02  0.51100000000E-03 0.  1.
         11   -1    0    0    0    0 -0.00000000000E+00 -0.00000000000E+00 -0.45593999997E+02  0.45594000000E+02  0.51100000000E-03 0. -1.
    9900012    2    1    2    0    0  0.11823612056E+02 -0.74937018246E+00  0.14502414878E+02  0.72461564274E+02  0.69999992157E+02 0.  0.
         12    1    1    2    0    0 -0.11823612056E+02  0.74937018246E+00 -0.14502414878E+02  0.18726435726E+02  0.00000000000E+00 0. -1.
         11    1    3    3    0    0  0.58007594387E+01  0.10081103926E+02 -0.21199493527E+02  0.24180487847E+02  0.51100000000E-03 0. -1.
        -11    1    3    3    0    0 -0.21781646394E+01  0.85463617330E+01  0.20519234451E+02  0.22334361033E+02  0.51100000000E-03 0.  1.
         12    1    3    3    0    0  0.82010172563E+01 -0.19376835842E+02  0.15182673955E+02  0.25946715393E+02  0.00000000000E+00 0. -1.
</event>
<event>
 7    1  0.1375918E-013  0.7246153E+02  0.7816164E-02  0.1226708E+00
        -11   -1    0    0    0    0  0.00000000000E+00  0.00000000000E+00  0.45593999997E+02  0.45594000000E+02  0.51100000000E-03 0.  1.
         11   -1    0    0    0    0 -0.00000000000E+00 -0.00000000000E+00 -0.45593999997E+02  0.45594000000E+02  0.51100000000E-03 0. -1.
    9900012    2    1    2    0    0  0.16129828743E+02  0.59563021732E+01  0.74183472933E+01  0.72461527096E+02  0.69999943726E+02 0.  0.
         12    1    1    2    0    0 -0.16129828743E+02 -0.59563021732E+01 -0.74183472933E+01  0.18726472904E+02  0.00000000000E+00 0. -1.
         11    1    3    3    0    0 -0.42849802934E+01  0.58189227815E+01 -0.49885935351E+01  0.87810582603E+01  0.51100000000E-03 0. -1.
        -11    1    3    3    0    0  0.19686428937E+02 -0.81855855482E+01  0.34222133901E+02  0.40320140675E+02  0.51100000000E-03 0.  1.
        -12    1    3    3    0    0  0.72838009922E+00  0.83229649399E+01 -0.21815193073E+02  0.23360328160E+02  0.00000000000E+00 0.  1.
</event>
<event>
 7    1  0.1375918E-013  0.7246163E+02  0.7816164E-02  0.1226708E+00
        -11   -1    0    0    0    0  0.00000000000E+00  0.00000000000E+00  0.45593999997E+02  0.45594000000E+02  0.51100000000E-03 0. -1.
         11   -1    0    0    0    0 -0.00000000000E+00 -0.00000000000E+00 -0.45593999997E+02  0.45594000000E+02  0.51100000000E-03 0.  1.
    9900012    2    1    2    0    0  0.14835583602E+02  0.93830944825E+01  0.65222498744E+01  0.72461634995E+02  0.70000084284E+02 0.  0.
         12    1    1    2    0    0 -0.14835583602E+02 -0.93830944825E+01 -0.65222498744E+01  0.18726365005E+02  0.00000000000E+00 0. -1.
         11    1    3    3    0    0 -0.14989582813E+02 -0.23861343277E+01 -0.73125054529E+01  0.16847966233E+02  0.51100000000E-03 0. -1.
        -11    1    3    3    0    0  0.28379739243E+02 -0.11282888457E+02  0.10398421175E+02  0.32262057198E+02  0.51100000000E-03 0.  1.
        -12    1    3    3    0    0  0.14454271721E+01  0.23052117267E+02  0.34363341518E+01  0.23351611564E+02  0.00000000000E+00 0.  1.
</event>
<event>
 7    1  0.1375918E-013  0.7246155E+02  0.7816164E-02  0.1226708E+00
        -11   -1    0    0    0    0  0.00000000000E+00  0.00000000000E+00  0.45593999997E+02  0.45594000000E+02  0.51100000000E-03 0.  1.
         11   -1    0    0    0    0 -0.00000000000E+00 -0.00000000000E+00 -0.45593999997E+02  0.45594000000E+02  0.51100000000E-03 0. -1.
    9900012    2    1    2    0    0 -0.40252442609E+01  0.17703689153E+02  0.45887744664E+01  0.72461546729E+02  0.69999969302E+02 0.  0.
         12    1    1    2    0    0  0.40252442609E+01 -0.17703689153E+02 -0.45887744664E+01  0.18726453271E+02  0.00000000000E+00 0. -1.
         11    1    3    3    0    0 -0.15067009105E+02 -0.15573652212E+01 -0.12708770654E+02  0.19772531492E+02  0.51100000000E-03 0. -1.
        -11    1    3    3    0    0  0.27448357280E+02  0.18487715435E+02  0.90460251225E+01  0.34307994843E+02  0.51100000000E-03 0.  1.
        -12    1    3    3    0    0 -0.16406592436E+02  0.77333893954E+00  0.82515199977E+01  0.18381020395E+02  0.00000000000E+00 0.  1.
</event>
<event>
 7    1  0.1375918E-013  0.7246161E+02  0.7816164E-02  0.1226708E+00
        -11   -1    0    0    0    0  0.00000000000E+00  0.00000000000E+00  0.45593999997E+02  0.45594000000E+02  0.51100000000E-03 0. -1.
         11   -1    0    0    0    0 -0.00000000000E+00 -0.00000000000E+00 -0.45593999997E+02  0.45594000000E+02  0.51100000000E-03 0.  1.
    9900012    2    1    2    0    0  0.23041557820E+01 -0.15286555768E+02 -0.10568338279E+02  0.72461609662E+02  0.70000051283E+02 0.  0.
         12    1    1    2    0    0 -0.23041557820E+01  0.15286555768E+02  0.10568338279E+02  0.18726390338E+02  0.00000000000E+00 0. -1.
         11    1    3    3    0    0  0.12658031012E+02 -0.35096487158E+02 -0.15837085242E+02  0.40531499222E+02  0.51100000000E-03 0.  1.
        -11    1    3    3    0    0  0.28901420749E+01  0.16994325558E+02  0.62938395110E+01  0.18351360670E+02  0.51100000000E-03 0. -1.
         12    1    3    3    0    0 -0.13244017305E+02  0.28156058313E+01 -0.10250925484E+01  0.13578749770E+02  0.00000000000E+00 0. -1.
</event>
<event>
 7    1  0.1375918E-013  0.7246162E+02  0.7816164E-02  0.1226708E+00
        -11   -1    0    0    0    0  0.00000000000E+00  0.00000000000E+00  0.45593999997E+02  0.45594000000E+02  0.51100000000E-03 0. -1.
         11   -1    0    0    0    0 -0.00000000000E+00 -0.00000000000E+00 -0.45593999997E+02  0.45594000000E+02  0.51100000000E-03 0.  1.
    9900012    2    1    2    0    0  0.18235525132E+02  0.30467427231E+01 -0.29766193070E+01  0.72461620730E+02  0.70000065702E+02 0.  0.
         12    1    1    2    0    0 -0.18235525132E+02 -0.30467427231E+01  0.29766193070E+01  0.18726379270E+02  0.00000000000E+00 0. -1.
         11    1    3    3    0    0  0.29375931716E+02 -0.16513681462E+02 -0.45820613470E+01  0.34009444660E+02  0.51100000000E-03 0.  1.
        -11    1    3    3    0    0 -0.17030620357E+02  0.59317001568E+01  0.10769166480E+02  0.21004810007E+02  0.51100000000E-03 0. -1.
        -12    1    3    3    0    0  0.58902137735E+01  0.13628724028E+02 -0.91637244401E+01  0.17447366063E+02  0.00000000000E+00 0.  1.
</event>
<event>
 7    1  0.1375918E-013  0.7246190E+02  0.7816164E-02  0.1226707E+00
        -11   -1    0    0    0    0  0.00000000000E+00  0.00000000000E+00  0.45593999997E+02  0.45594000000E+02  0.51100000000E-03 0. -1.
         11   -1    0    0    0    0 -0.00000000000E+00 -0.00000000000E+00 -0.45593999997E+02  0.45594000000E+02  0.51100000000E-03 0.  1.
    9900012    2    1    2    0    0  0.16472469927E+02 -0.80091431994E+01 -0.38959200384E+01  0.72461899679E+02  0.70000429084E+02 0.  0.
         12    1    1    2    0    0 -0.16472469927E+02  0.80091431994E+01  0.38959200384E+01  0.18726100321E+02  0.00000000000E+00 0. -1.
         11    1    3    3    0    0  0.19031191426E+02 -0.22088686088E+02  0.20014848428E+02  0.35365102262E+02  0.51100000000E-03 0. -1.
        -11    1    3    3    0    0  0.31418986082E+01  0.43305160140E+01 -0.25170986812E+02  0.25733314461E+02  0.51100000000E-03 0.  1.
        -12    1    3    3    0    0 -0.57006201072E+01  0.97490268748E+01  0.12602183456E+01  0.11363482956E+02  0.00000000000E+00 0.  1.
</event>
<event>
 7    1  0.1375918E-013  0.7246157E+02  0.7816164E-02  0.1226708E+00
        -11   -1    0    0    0    0  0.00000000000E+00  0.00000000000E+00  0.45593999997E+02  0.45594000000E+02  0.51100000000E-03 0. -1.
         11   -1    0    0    0    0 -0.00000000000E+00 -0.00000000000E+00 -0.45593999997E+02  0.45594000000E+02  0.51100000000E-03 0.  1.
    9900012    2    1    2    0    0  0.11647551688E+02  0.10229693128E+02  0.10505578655E+02  0.72461567753E+02  0.69999996690E+02 0.  0.
         12    1    1    2    0    0 -0.11647551688E+02 -0.10229693128E+02 -0.10505578655E+02  0.18726432247E+02  0.00000000000E+00 0. -1.
         11    1    3    3    0    0 -0.21696055423E+02 -0.70137309519E+01  0.16981996108E+02  0.28430607360E+02  0.51100000000E-03 0. -1.
        -11    1    3    3    0    0  0.12484617649E+02  0.18853131680E+02 -0.27147574900E+01  0.22774462902E+02  0.51100000000E-03 0.  1.
        -12    1    3    3    0    0  0.20858989462E+02 -0.16097075998E+01 -0.37616599628E+01  0.21256497491E+02  0.00000000000E+00 0.  1.
</event>
<event>
 7    1  0.1375918E-013  0.7246149E+02  0.7816164E-02  0.1226708E+00
        -11   -1    0    0    0    0  0.00000000000E+00  0.00000000000E+00  0.45593999997E+02  0.45594000000E+02  0.51100000000E-03 0. -1.
         11   -1    0    0    0    0 -0.00000000000E+00 -0.00000000000E+00 -0.45593999997E+02  0.45594000000E+02  0.51100000000E-03 0.  1.
    9900012    2    1    2    0    0  0.17911531125E+02 -0.40667322265E+01 -0.36497867440E+01  0.72461489340E+02  0.69999894541E+02 0.  0.
         12    1    1    2    0    0 -0.17911531125E+02  0.40667322265E+01  0.36497867440E+01  0.18726510660E+02  0.00000000000E+00 0. -1.
         11    1    3    3    0    0  0.69072887880E+01  0.10843426575E+02  0.18689719584E+02  0.22684711959E+02  0.51100000000E-03 0. -1.
        -11    1    3    3    0    0 -0.11308108936E+02 -0.35992229574E+01 -0.21723598572E+02  0.24753635465E+02  0.51100000000E-03 0.  1.
         12    1    3    3    0    0  0.22312351272E+02 -0.11310935844E+02 -0.61590775594E+00  0.25023141915E+02  0.00000000000E+00 0. -1.
</event>
<event>
 7    1  0.1375918E-013  0.7246159E+02  0.7816164E-02  0.1226708E+00
        -11   -1    0    0    0    0  0.00000000000E+00  0.00000000000E+00  0.45593999997E+02  0.45594000000E+02  0.51100000000E-03 0. -1.
         11   -1    0    0    0    0 -0.00000000000E+00 -0.00000000000E+00 -0.45593999997E+02  0.45594000000E+02  0.51100000000E-03 0.  1.
    9900012    2    1    2    0    0  0.87257083654E+01  0.15295212703E+02 -0.63715651380E+01  0.72461591898E+02  0.70000028142E+02 0.  0.
         12    1    1    2    0    0 -0.87257083654E+01 -0.15295212703E+02  0.63715651380E+01  0.18726408102E+02  0.00000000000E+00 0. -1.
         11    1    3    3    0    0 -0.25296791598E+02  0.13172671402E+02 -0.55811338574E+01  0.29061933735E+02  0.51100000000E-03 0. -1.
        -11    1    3    3    0    0  0.16056712263E+02 -0.70137876523E+01 -0.11118941331E+02  0.20751917562E+02  0.51100000000E-03 0.  1.
         12    1    3    3    0    0  0.17965787701E+02  0.91363289533E+01  0.10328510050E+02  0.22647740601E+02  0.00000000000E+00 0. -1.
</event>
<event>
 7    1  0.1375918E-013  0.7246158E+02  0.7816164E-02  0.1226708E+00
        -11   -1    0    0    0    0  0.00000000000E+00  0.00000000000E+00  0.45593999997E+02  0.45594000000E+02  0.51100000000E-03 0.  1.
         11   -1    0    0    0    0 -0.00000000000E+00 -0.00000000000E+00 -0.45593999997E+02  0.45594000000E+02  0.51100000000E-03 0. -1.
    9900012    2    1    2    0    0 -0.20324191156E+01 -0.18350131732E+02 -0.31338168835E+01  0.72461578284E+02  0.70000010408E+02 0.  0.
         12    1    1    2    0    0  0.20324191156E+01  0.18350131732E+02  0.31338168835E+01  0.18726421716E+02  0.00000000000E+00 0. -1.
         11    1    3    3    0    0 -0.14906751085E+02 -0.65138224967E+00 -0.30173156745E+02  0.33660881078E+02  0.51100000000E-03 0. -1.
        -11    1    3    3    0    0  0.49531841541E+01 -0.18476246640E+02  0.22871421652E+02  0.29816231348E+02  0.51100000000E-03 0.  1.
         12    1    3    3    0    0  0.79211478152E+01  0.77749715746E+00  0.41679182099E+01  0.89844658575E+01  0.00000000000E+00 0. -1.
</event>
<event>
 7    1  0.1375918E-013  0.7246153E+02  0.7816164E-02  0.1226708E+00
        -11   -1    0    0    0    0  0.00000000000E+00  0.00000000000E+00  0.45593999997E+02  0.45594000000E+02  0.51100000000E-03 0.  1.
         11   -1    0    0    0    0 -0.00000000000E+00 -0.00000000000E+00 -0.45593999997E+02  0.45594000000E+02  0.51100000000E-03 0. -1.
    9900012    2    1    2    0    0 -0.12142265035E+02 -0.14175929432E+02 -0.15129657164E+01  0.72461531014E+02  0.69999948830E+02 0.  0.
         12    1    1    2    0    0  0.12142265035E+02  0.14175929432E+02  0.15129657164E+01  0.18726468986E+02  0.00000000000E+00 0. -1.
         11    1    3    3    0    0 -0.22809510946E+02 -0.16953276963E+02 -0.30182660278E+02  0.41456970115E+02  0.51100000000E-03 0. -1.
        -11    1    3    3    0    0  0.17877049790E+01  0.73137876698E+00  0.10520026298E+02  0.10695875727E+02  0.51100000000E-03 0.  1.
         12    1    3    3    0    0  0.88795409318E+01  0.20459687636E+01  0.18149668264E+02  0.20308685172E+02  0.00000000000E+00 0. -1.
</event>
<event>
 7    1  0.1375918E-013  0.7246157E+02  0.7816164E-02  0.1226708E+00
        -11   -1    0    0    0    0  0.00000000000E+00  0.00000000000E+00  0.45593999997E+02  0.45594000000E+02  0.51100000000E-03 0.  1.
         11   -1    0    0    0    0 -0.00000000000E+00 -0.00000000000E+00 -0.45593999997E+02  0.45594000000E+02  0.51100000000E-03 0. -1.
    9900012    2    1    2    0    0 -0.17112949851E+02  0.19990356938E+01  0.73369004118E+01  0.72461566705E+02  0.69999995324E+02 0.  0.
         12    1    1    2    0    0  0.17112949851E+02 -0.19990356938E+01 -0.73369004118E+01  0.18726433295E+02  0.00000000000E+00 0. -1.
         11    1    3    3    0    0 -0.30161043559E+02 -0.18687179972E+02  0.18176925033E+02  0.39866023727E+02  0.51100000000E-03 0. -1.
        -11    1    3    3    0    0 -0.10091300304E+01  0.15823441877E+02 -0.60109184959E+01  0.16956733108E+02  0.51100000000E-03 0.  1.
         12    1    3    3    0    0  0.14057223739E+02  0.48627737886E+01 -0.48291061257E+01  0.15638809869E+02  0.00000000000E+00 0. -1.
</event>
<event>
 7    1  0.1375918E-013  0.7246166E+02  0.7816164E-02  0.1226708E+00
        -11   -1    0    0    0    0  0.00000000000E+00  0.00000000000E+00  0.45593999997E+02  0.45594000000E+02  0.51100000000E-03 0.  1.
         11   -1    0    0    0    0 -0.00000000000E+00 -0.00000000000E+00 -0.45593999997E+02  0.45594000000E+02  0.51100000000E-03 0. -1.
    9900012    2    1    2    0    0 -0.11385684432E+02 -0.14675046432E+02 -0.23843309429E+01  0.72461659412E+02  0.70000116093E+02 0.  0.
         12    1    1    2    0    0  0.11385684432E+02  0.14675046432E+02  0.23843309429E+01  0.18726340588E+02  0.00000000000E+00 0. -1.
         11    1    3    3    0    0  0.48475828116E+00  0.12426564497E+02 -0.63173280039E+01  0.13948588787E+02  0.51100000000E-03 0. -1.
        -11    1    3    3    0    0  0.39661692399E+01 -0.36989865645E+02  0.10609260999E+02  0.38685101500E+02  0.51100000000E-03 0.  1.
        -12    1    3    3    0    0 -0.15836611953E+02  0.98882547154E+01 -0.66762639377E+01  0.19827969125E+02  0.00000000000E+00 0.  1.
</event>
<event>
 7    1  0.1375918E-013  0.7246175E+02  0.7816164E-02  0.1226708E+00
        -11   -1    0    0    0    0  0.00000000000E+00  0.00000000000E+00  0.45593999997E+02  0.45594000000E+02  0.51100000000E-03 0.  1.
         11   -1    0    0    0    0 -0.00000000000E+00 -0.00000000000E+00 -0.45593999997E+02  0.45594000000E+02  0.51100000000E-03 0. -1.
    9900012    2    1    2    0    0 -0.16601838672E+01  0.14302137561E+02  0.11973520844E+02  0.72461747019E+02  0.70000230216E+02 0.  0.
         12    1    1    2    0    0  0.16601838672E+01 -0.14302137561E+02 -0.11973520844E+02  0.18726252981E+02  0.00000000000E+00 0. -1.
         11    1    3    3    0    0  0.59357240332E+01 -0.87336756951E+01 -0.11803035470E+02  0.15837346922E+02  0.51100000000E-03 0. -1.
        -11    1    3    3    0    0 -0.23004093148E+02  0.26960345588E+02  0.17556053894E+02  0.39550771982E+02  0.51100000000E-03 0.  1.
        -12    1    3    3    0    0  0.15408185248E+02 -0.39245323315E+01  0.62205024199E+01  0.17073628115E+02  0.00000000000E+00 0.  1.
</event>
<event>
 7    1  0.1375918E-013  0.7246149E+02  0.7816164E-02  0.1226708E+00
        -11   -1    0    0    0    0  0.00000000000E+00  0.00000000000E+00  0.45593999997E+02  0.45594000000E+02  0.51100000000E-03 0.  1.
         11   -1    0    0    0    0 -0.00000000000E+00 -0.00000000000E+00 -0.45593999997E+02  0.45594000000E+02  0.51100000000E-03 0. -1.
    9900012    2    1    2    0    0 -0.29643712425E-01 -0.69110132616E+01  0.17404570915E+02  0.72461492803E+02  0.69999899053E+02 0.  0.
         12    1    1    2    0    0  0.29643712425E-01  0.69110132616E+01 -0.17404570915E+02  0.18726507197E+02  0.00000000000E+00 0. -1.
         11    1    3    3    0    0 -0.76301640154E+01 -0.13611527323E+02 -0.69667328903E+01  0.17088839820E+02  0.51100000000E-03 0. -1.
        -11    1    3    3    0    0  0.12635683432E+02  0.24021867172E+02  0.25576157659E+02  0.37294107297E+02  0.51100000000E-03 0.  1.
        -12    1    3    3    0    0 -0.50351631286E+01 -0.17321353111E+02 -0.12048538531E+01  0.18078545686E+02  0.00000000000E+00 0.  1.
</event>
<event>
 7    1  0.1375918E-013  0.7246156E+02  0.7816164E-02  0.1226708E+00
        -11   -1    0    0    0    0  0.00000000000E+00  0.00000000000E+00  0.45593999997E+02  0.45594000000E+02  0.51100000000E-03 0.  1.
         11   -1    0    0    0    0 -0.00000000000E+00 -0.00000000000E+00 -0.45593999997E+02  0.45594000000E+02  0.51100000000E-03 0. -1.
    9900012    2    1    2    0    0 -0.14550937142E+02  0.44884683721E+01  0.10899693124E+02  0.72461563333E+02  0.69999990932E+02 0.  0.
         12    1    1    2    0    0  0.14550937142E+02 -0.44884683721E+01 -0.10899693124E+02  0.18726436667E+02  0.00000000000E+00 0. -1.
         11    1    3    3    0    0 -0.30511350731E+02  0.73352054205E+00 -0.19351857711E+02  0.36138275733E+02  0.51100000000E-03 0. -1.
        -11    1    3    3    0    0  0.16241982233E+01  0.54325795176E+01  0.87057528877E+01  0.10389469365E+02  0.51100000000E-03 0.  1.
         12    1    3    3    0    0  0.14336215365E+02 -0.16776316876E+01  0.21545797947E+02  0.25933818235E+02  0.00000000000E+00 0. -1.
</event>
<event>
 7    1  0.1375918E-013  0.7246157E+02  0.7816164E-02  0.1226708E+00
        -11   -1    0    0    0    0  0.00000000000E+00  0.00000000000E+00  0.45593999997E+02  0.45594000000E+02  0.51100000000E-03 0.  1.
         11   -1    0    0    0    0 -0.00000000000E+00 -0.00000000000E+00 -0.45593999997E+02  0.45594000000E+02  0.51100000000E-03 0. -1.
    9900012    2    1    2    0    0 -0.15769263543E+02 -0.17148152764E+01  0.99533428712E+01  0.72461566852E+02  0.69999995516E+02 0.  0.
         12    1    1    2    0    0  0.15769263543E+02  0.17148152764E+01 -0.99533428712E+01  0.18726433148E+02  0.00000000000E+00 0. -1.
         11    1    3    3    0    0  0.34312223499E+01  0.20736500357E+02 -0.91208100135E+01  0.22912112723E+02  0.51100000000E-03 0. -1.
        -11    1    3    3    0    0 -0.27516034896E+02 -0.98975954376E+01  0.18248385741E+02  0.34468799722E+02  0.51100000000E-03 0.  1.
         12    1    3    3    0    0  0.83155490029E+01 -0.12553720196E+02  0.82576714358E+00  0.15080654407E+02  0.00000000000E+00 0. -1.
</event>
<event>
 7    1  0.1375918E-013  0.7246151E+02  0.7816164E-02  0.1226708E+00
        -11   -1    0    0    0    0  0.00000000000E+00  0.00000000000E+00  0.45593999997E+02  0.45594000000E+02  0.51100000000E-03 0.  1.
         11   -1    0    0    0    0 -0.00000000000E+00 -0.00000000000E+00 -0.45593999997E+02  0.45594000000E+02  0.51100000000E-03 0. -1.
    9900012    2    1    2    0    0  0.91171439672E+01 -0.21321785850E+01  0.16217676399E+02  0.72461507338E+02  0.69999917987E+02 0.  0.
         12    1    1    2    0    0 -0.91171439672E+01  0.21321785850E+01 -0.16217676399E+02  0.18726492662E+02  0.00000000000E+00 0. -1.
         11    1    3    3    0    0  0.18937768841E+02  0.12032144709E+02 -0.94920234562E+01  0.24362062813E+02  0.51100000000E-03 0.  1.
        -11    1    3    3    0    0 -0.21543535823E+02 -0.94319271378E+01  0.53254209535E+01  0.24113176768E+02  0.51100000000E-03 0. -1.
         12    1    3    3    0    0  0.11722910949E+02 -0.47323961562E+01  0.20384278902E+02  0.23986267756E+02  0.00000000000E+00 0. -1.
</event>
<event>
 7    1  0.1375918E-013  0.7246187E+02  0.7816164E-02  0.1226707E+00
        -11   -1    0    0    0    0  0.00000000000E+00  0.00000000000E+00  0.45593999997E+02  0.45594000000E+02  0.51100000000E-03 0.  1.
         11   -1    0    0    0    0 -0.00000000000E+00 -0.00000000000E+00 -0.45593999997E+02  0.45594000000E+02  0.51100000000E-03 0. -1.
    9900012    2    1    2    0    0  0.88398207919E+00  0.17210561158E+01  0.18625905409E+02  0.72461873578E+02  0.70000395083E+02 0.  0.
         12    1    1    2    0    0 -0.88398207919E+00 -0.17210561158E+01 -0.18625905409E+02  0.18726126422E+02  0.00000000000E+00 0. -1.
         11    1    3    3    0    0  0.18755372053E+02 -0.16016636674E+02  0.30824324819E+02  0.39477026636E+02  0.51100000000E-03 0. -1.
        -11    1    3    3    0    0 -0.12308234199E+02  0.36747665194E+01  0.10382451046E+01  0.12886989222E+02  0.51100000000E-03 0.  1.
         12    1    3    3    0    0 -0.55631557749E+01  0.14062926270E+02 -0.13236664515E+02  0.20097857720E+02  0.00000000000E+00 0. -1.
</event>
<event>
 7    1  0.1375918E-013  0.7246160E+02  0.7816164E-02  0.1226708E+00
        -11   -1    0    0    0    0  0.00000000000E+00  0.00000000000E+00  0.45593999997E+02  0.45594000000E+02  0.51100000000E-03 0.  1.
         11   -1    0    0    0    0 -0.00000000000E+00 -0.00000000000E+00 -0.45593999997E+02  0.45594000000E+02  0.51100000000E-03 0. -1.
    9900012    2    1    2    0    0  0.37489412482E+01  0.11763550963E+02  0.14079861932E+02  0.72461596081E+02  0.70000033591E+02 0.  0.
         12    1    1    2    0    0 -0.37489412482E+01 -0.11763550963E+02 -0.14079861932E+02  0.18726403919E+02  0.00000000000E+00 0. -1.
         11    1    3    3    0    0  0.25326601795E+02  0.18512134993E+01 -0.41765793937E+00  0.25397602019E+02  0.51100000000E-03 0. -1.
        -11    1    3    3    0    0 -0.22849933349E+02  0.32902665693E+01  0.25350397541E+02  0.34286848264E+02  0.51100000000E-03 0.  1.
        -12    1    3    3    0    0  0.12722728029E+01  0.66220708943E+01 -0.10852877670E+02  0.12777145797E+02  0.00000000000E+00 0.  1.
</event>
<event>
 7    1  0.1375918E-013  0.7246163E+02  0.7816164E-02  0.1226708E+00
        -11   -1    0    0    0    0  0.00000000000E+00  0.00000000000E+00  0.45593999997E+02  0.45594000000E+02  0.51100000000E-03 0. -1.
         11   -1    0    0    0    0 -0.00000000000E+00 -0.00000000000E+00 -0.45593999997E+02  0.45594000000E+02  0.51100000000E-03 0.  1.
    9900012    2    1    2    0    0  0.14344853407E+02  0.91868218089E+01 -0.77784671446E+01  0.72461626477E+02  0.70000073188E+02 0.  0.
         12    1    1    2    0    0 -0.14344853407E+02 -0.91868218089E+01  0.77784671446E+01  0.18726373523E+02  0.00000000000E+00 0. -1.
         11    1    3    3    0    0  0.11810466550E+02  0.59496127049E+01  0.24200037728E+02  0.27577651056E+02  0.51100000000E-03 0. -1.
        -11    1    3    3    0    0  0.14254322230E+02  0.73218670316E+01 -0.27229778280E+02  0.31595193694E+02  0.51100000000E-03 0.  1.
        -12    1    3    3    0    0 -0.11719935373E+02 -0.40846579276E+01 -0.47487265924E+01  0.13288781727E+02  0.00000000000E+00 0.  1.
</event>
<event>
 7    1  0.1375918E-013  0.7246162E+02  0.7816164E-02  0.1226708E+00
        -11   -1    0    0    0    0  0.00000000000E+00  0.00000000000E+00  0.45593999997E+02  0.45594000000E+02  0.51100000000E-03 0.  1.
         11   -1    0    0    0    0 -0.00000000000E+00 -0.00000000000E+00 -0.45593999997E+02  0.45594000000E+02  0.51100000000E-03 0. -1.
    9900012    2    1    2    0    0 -0.22567319245E+01  0.15925374243E+02  0.95899353220E+01  0.72461621726E+02  0.70000067000E+02 0.  0.
         12    1    1    2    0    0  0.22567319245E+01 -0.15925374243E+02 -0.95899353220E+01  0.18726378274E+02  0.00000000000E+00 0. -1.
         11    1    3    3    0    0 -0.51758507155E+00  0.83837690907E+01 -0.24594552447E+02  0.25989372613E+02  0.51100000000E-03 0. -1.
        -11    1    3    3    0    0 -0.91255238303E+01 -0.31001825255E+01  0.31892644840E+02  0.33317069379E+02  0.51100000000E-03 0.  1.
         12    1    3    3    0    0  0.73863769774E+01  0.10641787678E+02  0.22918429294E+01  0.13155179735E+02  0.00000000000E+00 0. -1.
</event>
<event>
 7    1  0.1375918E-013  0.7246159E+02  0.7816164E-02  0.1226708E+00
        -11   -1    0    0    0    0  0.00000000000E+00  0.00000000000E+00  0.45593999997E+02  0.45594000000E+02  0.51100000000E-03 0.  1.
         11   -1    0    0    0    0 -0.00000000000E+00 -0.00000000000E+00 -0.45593999997E+02  0.45594000000E+02  0.51100000000E-03 0. -1.
    9900012    2    1    2    0    0 -0.38690870699E+01  0.46832471076E+01  0.17713717056E+02  0.72461590569E+02  0.70000026412E+02 0.  0.
         12    1    1    2    0    0  0.38690870699E+01 -0.46832471076E+01 -0.17713717056E+02  0.18726409431E+02  0.00000000000E+00 0. -1.
         11    1    3    3    0    0  0.97004852016E+00  0.11075912086E+02 -0.11980836538E+02  0.16344946225E+02  0.51100000000E-03 0. -1.
        -11    1    3    3    0    0 -0.13649990605E+02 -0.38634348417E+01  0.39930779707E+02  0.42375883950E+02  0.51100000000E-03 0.  1.
        -12    1    3    3    0    0  0.88108550148E+01 -0.25292301366E+01 -0.10236226113E+02  0.13740760394E+02  0.00000000000E+00 0.  1.
</event>
<event>
 7    1  0.1375918E-013  0.7246162E+02  0.7816164E-02  0.1226708E+00
        -11   -1    0    0    0    0  0.00000000000E+00  0.00000000000E+00  0.45593999997E+02  0.45594000000E+02  0.51100000000E-03 0.  1.
         11   -1    0    0    0    0 -0.00000000000E+00 -0.00000000000E+00 -0.45593999997E+02  0.45594000000E+02  0.51100000000E-03 0. -1.
    9900012    2    1    2    0    0 -0.18648386438E+02  0.16565595870E+01  0.41341087581E+00  0.72461617141E+02  0.70000061027E+02 0.  0.
         12    1    1    2    0    0  0.18648386438E+02 -0.16565595870E+01 -0.41341087581E+00  0.18726382859E+02  0.00000000000E+00 0. -1.
         11    1    3    3    0    0 -0.56213395845E+01  0.17687965238E+02 -0.94729484748E+01  0.20837474081E+02  0.51100000000E-03 0.  1.
        -11    1    3    3    0    0 -0.23467036763E+02 -0.25911823948E+02  0.12278159407E+02  0.37052363398E+02  0.51100000000E-03 0. -1.
        -12    1    3    3    0    0  0.10439989909E+02  0.98804182965E+01 -0.23918000567E+01  0.14571779662E+02  0.00000000000E+00 0.  1.
</event>
<event>
 7    1  0.1375918E-013  0.7246151E+02  0.7816164E-02  0.1226708E+00
        -11   -1    0    0    0    0  0.00000000000E+00  0.00000000000E+00  0.45593999997E+02  0.45594000000E+02  0.51100000000E-03 0.  1.
         11   -1    0    0    0    0 -0.00000000000E+00 -0.00000000000E+00 -0.45593999997E+02  0.45594000000E+02  0.51100000000E-03 0. -1.
    9900012    2    1    2    0    0  0.73339349594E+01  0.67855801042E+01  0.15838267981E+02  0.72461509886E+02  0.69999921307E+02 0.  0.
         12    1    1    2    0    0 -0.73339349594E+01 -0.67855801042E+01 -0.15838267981E+02  0.18726490114E+02  0.00000000000E+00 0. -1.
         11    1    3    3    0    0 -0.94655691600E+01 -0.17354438349E+02  0.34524803969E+01  0.20067215828E+02  0.51100000000E-03 0. -1.
        -11    1    3    3    0    0  0.12353800700E+02  0.74223926532E+00  0.23156036006E+02  0.26255843438E+02  0.51100000000E-03 0.  1.
         12    1    3    3    0    0  0.44457034194E+01  0.23397779188E+02 -0.10770248422E+02  0.26138450621E+02  0.00000000000E+00 0. -1.
</event>
<event>
 7    1  0.1375918E-013  0.7246156E+02  0.7816164E-02  0.1226708E+00
        -11   -1    0    0    0    0  0.00000000000E+00  0.00000000000E+00  0.45593999997E+02  0.45594000000E+02  0.51100000000E-03 0. -1.
         11   -1    0    0    0    0 -0.00000000000E+00 -0.00000000000E+00 -0.45593999997E+02  0.45594000000E+02  0.51100000000E-03 0.  1.
    9900012    2    1    2    0    0 -0.16721073677E+01  0.95887767168E+01 -0.15998092693E+02  0.72461560088E+02  0.69999986704E+02 0.  0.
         12    1    1    2    0    0  0.16721073677E+01 -0.95887767168E+01  0.15998092693E+02  0.18726439912E+02  0.00000000000E+00 0. -1.
         11    1    3    3    0    0  0.21121056896E+02  0.10737760641E+02  0.18912695377E+02  0.30316473981E+02  0.51100000000E-03 0. -1.
        -11    1    3    3    0    0 -0.32490723011E+01  0.18875225375E+01 -0.44222513164E+01  0.58030611848E+01  0.51100000000E-03 0.  1.
         12    1    3    3    0    0 -0.19544091962E+02 -0.30365064617E+01 -0.30488536753E+02  0.36342024922E+02  0.00000000000E+00 0. -1.
</event>
<event>
 7    1  0.1375918E-013  0.7246156E+02  0.7816164E-02  0.1226708E+00
        -11   -1    0    0    0    0  0.00000000000E+00  0.00000000000E+00  0.45593999997E+02  0.45594000000E+02  0.51100000000E-03 0. -1.
         11   -1    0    0    0    0 -0.00000000000E+00 -0.00000000000E+00 -0.45593999997E+02  0.45594000000E+02  0.51100000000E-03 0.  1.
    9900012    2    1    2    0    0  0.85756004342E+01 -0.60033473571E+01 -0.15527340428E+02  0.72461564059E+02  0.69999991877E+02 0.  0.
         12    1    1    2    0    0 -0.85756004342E+01  0.60033473571E+01  0.15527340428E+02  0.18726435941E+02  0.00000000000E+00 0. -1.
         11    1    3    3    0    0  0.50995341890E+01 -0.10951089270E+01 -0.35916858911E+02  0.36293598152E+02  0.51100000000E-03 0. -1.
        -11    1    3    3    0    0  0.10075505333E+02  0.79572208781E+01  0.17023292287E+02  0.21321952358E+02  0.51100000000E-03 0.  1.
         12    1    3    3    0    0 -0.65994390875E+01 -0.12865459308E+02  0.33662261966E+01  0.14846013549E+02  0.00000000000E+00 0. -1.
</event>
<event>
 7    1  0.1375918E-013  0.7246163E+02  0.7816164E-02  0.1226708E+00
        -11   -1    0    0    0    0  0.00000000000E+00  0.00000000000E+00  0.45593999997E+02  0.45594000000E+02  0.51100000000E-03 0.  1.
         11   -1    0    0    0    0 -0.00000000000E+00 -0.00000000000E+00 -0.45593999997E+02  0.45594000000E+02  0.51100000000E-03 0. -1.
    9900012    2    1    2    0    0  0.10243138463E+02  0.13427578996E+02  0.80904388265E+01  0.72461629191E+02  0.70000076724E+02 0.  0.
         12    1    1    2    0    0 -0.10243138463E+02 -0.13427578996E+02 -0.80904388265E+01  0.18726370809E+02  0.00000000000E+00 0. -1.
         11    1    3    3    0    0 -0.72861751427E+01 -0.27605087806E+01 -0.45313806252E+01  0.90134437131E+01  0.51100000000E-03 0. -1.
        -11    1    3    3    0    0  0.10692265787E+02  0.13324555794E+02  0.35501195933E+02  0.39398010708E+02  0.51100000000E-03 0.  1.
        -12    1    3    3    0    0  0.68370478192E+01  0.28635319825E+01 -0.22879376482E+02  0.24050174770E+02  0.00000000000E+00 0.  1.
</event>
<event>
 7    1  0.1375918E-013  0.7246156E+02  0.7816164E-02  0.1226708E+00
        -11   -1    0    0    0    0  0.00000000000E+00  0.00000000000E+00  0.45593999997E+02  0.45594000000E+02  0.51100000000E-03 0.  1.
         11   -1    0    0    0    0 -0.00000000000E+00 -0.00000000000E+00 -0.45593999997E+02  0.45594000000E+02  0.51100000000E-03 0. -1.
    9900012    2    1    2    0    0 -0.11952936535E+02  0.84082851622E+01 -0.11709302891E+02  0.72461555453E+02  0.69999980667E+02 0.  0.
         12    1    1    2    0    0  0.11952936535E+02 -0.84082851622E+01  0.11709302891E+02  0.18726444547E+02  0.00000000000E+00 0. -1.
         11    1    3    3    0    0  0.88980812550E+01  0.17205776217E+02 -0.13655581162E+02  0.23699989080E+02  0.51100000000E-03 0. -1.
        -11    1    3    3    0    0 -0.25684535693E+02 -0.21927087519E+02  0.57627617413E+01  0.34259333969E+02  0.51100000000E-03 0.  1.
        -12    1    3    3    0    0  0.48335179029E+01  0.13129596465E+02 -0.38164834703E+01  0.14502232405E+02  0.00000000000E+00 0.  1.
</event>
<event>
 7    1  0.1375918E-013  0.7246155E+02  0.7816164E-02  0.1226708E+00
        -11   -1    0    0    0    0  0.00000000000E+00  0.00000000000E+00  0.45593999997E+02  0.45594000000E+02  0.51100000000E-03 0. -1.
         11   -1    0    0    0    0 -0.00000000000E+00 -0.00000000000E+00 -0.45593999997E+02  0.45594000000E+02  0.51100000000E-03 0.  1.
    9900012    2    1    2    0    0 -0.17852711430E+02 -0.15470062538E+01 -0.54375840732E+01  0.72461552010E+02  0.69999976182E+02 0.  0.
         12    1    1    2    0    0  0.17852711430E+02  0.15470062538E+01  0.54375840732E+01  0.18726447990E+02  0.00000000000E+00 0. -1.
         11    1    3    3    0    0 -0.19104003708E+02  0.59302543425E+01  0.12029504652E+02  0.23341804915E+02  0.51100000000E-03 0. -1.
        -11    1    3    3    0    0  0.21900487463E+02 -0.11684107272E+02 -0.88546579473E+01  0.26354405353E+02  0.51100000000E-03 0.  1.
        -12    1    3    3    0    0 -0.20649195186E+02  0.42068466761E+01 -0.86124307782E+01  0.22765341743E+02  0.00000000000E+00 0.  1.
</event>
<event>
 7    1  0.1375918E-013  0.7246157E+02  0.7816164E-02  0.1226708E+00
        -11   -1    0    0    0    0  0.00000000000E+00  0.00000000000E+00  0.45593999997E+02  0.45594000000E+02  0.51100000000E-03 0. -1.
         11   -1    0    0    0    0 -0.00000000000E+00 -0.00000000000E+00 -0.45593999997E+02  0.45594000000E+02  0.51100000000E-03 0.  1.
    9900012    2    1    2    0    0  0.14381554922E+02 -0.53259257251E-01  0.11993629976E+02  0.72461571656E+02  0.70000001773E+02 0.  0.
         12    1    1    2    0    0 -0.14381554922E+02  0.53259257251E-01 -0.11993629976E+02  0.18726428344E+02  0.00000000000E+00 0. -1.
         11    1    3    3    0    0 -0.30429027402E+01  0.12525270954E+02  0.34699611847E+02  0.37016276584E+02  0.51100000000E-03 0. -1.
        -11    1    3    3    0    0  0.49377168378E+01 -0.46255260075E+01 -0.19022036039E+02  0.20189462443E+02  0.51100000000E-03 0.  1.
         12    1    3    3    0    0  0.12486740825E+02 -0.79530042035E+01 -0.36839458329E+01  0.15255832628E+02  0.00000000000E+00 0. -1.
</event>
<event>
 7    1  0.1375918E-013  0.7246160E+02  0.7816164E-02  0.1226708E+00
        -11   -1    0    0    0    0  0.00000000000E+00  0.00000000000E+00  0.45593999997E+02  0.45594000000E+02  0.51100000000E-03 0. -1.
         11   -1    0    0    0    0 -0.00000000000E+00 -0.00000000000E+00 -0.45593999997E+02  0.45594000000E+02  0.51100000000E-03 0.  1.
    9900012    2    1    2    0    0 -0.49633457348E+01  0.17534869989E+02  0.43094661336E+01  0.72461602461E+02  0.70000041903E+02 0.  0.
         12    1    1    2    0    0  0.49633457348E+01 -0.17534869989E+02 -0.43094661336E+01  0.18726397539E+02  0.00000000000E+00 0. -1.
         11    1    3    3    0    0  0.10594669476E+02 -0.15658351162E+01  0.25088271099E+02  0.27278566823E+02  0.51100000000E-03 0. -1.
        -11    1    3    3    0    0 -0.73891693109E+01  0.26615825066E+02 -0.91291111001E+01  0.29091968596E+02  0.51100000000E-03 0.  1.
        -12    1    3    3    0    0 -0.81688459001E+01 -0.75151199606E+01 -0.11649693866E+02  0.16091067041E+02  0.00000000000E+00 0.  1.
</event>
<event>
 7    1  0.1375918E-013  0.7246154E+02  0.7816164E-02  0.1226708E+00
        -11   -1    0    0    0    0  0.00000000000E+00  0.00000000000E+00  0.45593999997E+02  0.45594000000E+02  0.51100000000E-03 0. -1.
         11   -1    0    0    0    0 -0.00000000000E+00 -0.00000000000E+00 -0.45593999997E+02  0.45594000000E+02  0.51100000000E-03 0.  1.
    9900012    2    1    2    0    0 -0.18102734318E+02 -0.92644721978E+00 -0.47024274840E+01  0.72461544957E+02  0.69999966993E+02 0.  0.
         12    1    1    2    0    0  0.18102734318E+02  0.92644721978E+00  0.47024274840E+01  0.18726455043E+02  0.00000000000E+00 0. -1.
         11    1    3    3    0    0 -0.20626227300E+02  0.44995467941E+01 -0.25635301325E+02  0.33209273528E+02  0.51100000000E-03 0. -1.
        -11    1    3    3    0    0  0.72688604885E+01 -0.12809136441E+02 -0.18440741735E+01  0.14842874350E+02  0.51100000000E-03 0.  1.
         12    1    3    3    0    0 -0.47453675072E+01  0.73831424267E+01  0.22776948015E+02  0.24409397078E+02  0.00000000000E+00 0. -1.
</event>
<event>
 7    1  0.1375918E-013  0.7246156E+02  0.7816164E-02  0.1226708E+00
        -11   -1    0    0    0    0  0.00000000000E+00  0.00000000000E+00  0.45593999997E+02  0.45594000000E+02  0.51100000000E-03 0. -1.
         11   -1    0    0    0    0 -0.00000000000E+00 -0.00000000000E+00 -0.45593999997E+02  0.45594000000E+02  0.51100000000E-03 0.  1.
    9900012    2    1    2    0    0  0.46334408258E+01  0.15846084218E+02 -0.88381130672E+01  0.72461564100E+02  0.69999991930E+02 0.  0.
         12    1    1    2    0    0 -0.46334408258E+01 -0.15846084218E+02  0.88381130672E+01  0.18726435900E+02  0.00000000000E+00 0. -1.
         11    1    3    3    0    0  0.51086213284E+01  0.25831126120E+02  0.20358289924E+02  0.33283705584E+02  0.51100000000E-03 0. -1.
        -11    1    3    3    0    0  0.65193252341E+01  0.49160407139E+01 -0.16428003266E+02  0.18345254137E+02  0.51100000000E-03 0.  1.
         12    1    3    3    0    0 -0.69945057367E+01 -0.14901082616E+02 -0.12768399726E+02  0.20832604378E+02  0.00000000000E+00 0. -1.
</event>
<event>
 7    1  0.1375918E-013  0.7246186E+02  0.7816164E-02  0.1226707E+00
        -11   -1    0    0    0    0  0.00000000000E+00  0.00000000000E+00  0.45593999997E+02  0.45594000000E+02  0.51100000000E-03 0. -1.
         11   -1    0    0    0    0 -0.00000000000E+00 -0.00000000000E+00 -0.45593999997E+02  0.45594000000E+02  0.51100000000E-03 0.  1.
    9900012    2    1    2    0    0 -0.22560614651E+01  0.18589491778E+02  0.96818916450E-01  0.72461858064E+02  0.70000374872E+02 0.  0.
         12    1    1    2    0    0  0.22560614651E+01 -0.18589491778E+02 -0.96818916450E-01  0.18726141936E+02  0.00000000000E+00 0. -1.
         11    1    3    3    0    0  0.89343155225E+01 -0.22012785236E+01  0.17039994861E+02  0.19365666684E+02  0.51100000000E-03 0. -1.
        -11    1    3    3    0    0 -0.23820076699E+02 -0.14222331906E+01 -0.13202760706E+02  0.27271444621E+02  0.51100000000E-03 0.  1.
        -12    1    3    3    0    0  0.12629699711E+02  0.22213003493E+02 -0.37404152388E+01  0.25824746758E+02  0.00000000000E+00 0.  1.
</event>
<event>
 7    1  0.1375918E-013  0.7246160E+02  0.7816164E-02  0.1226708E+00
        -11   -1    0    0    0    0  0.00000000000E+00  0.00000000000E+00  0.45593999997E+02  0.45594000000E+02  0.51100000000E-03 0.  1.
         11   -1    0    0    0    0 -0.00000000000E+00 -0.00000000000E+00 -0.45593999997E+02  0.45594000000E+02  0.51100000000E-03 0. -1.
    9900012    2    1    2    0    0  0.23767557867E+00 -0.11269598741E+01  0.18690945066E+02  0.72461602703E+02  0.70000042219E+02 0.  0.
         12    1    1    2    0    0 -0.23767557867E+00  0.11269598741E+01 -0.18690945066E+02  0.18726397297E+02  0.00000000000E+00 0. -1.
         11    1    3    3    0    0 -0.27467874733E-01 -0.32156711290E+02  0.14728272834E+02  0.35369151197E+02  0.51100000000E-03 0.  1.
        -11    1    3    3    0    0  0.29544669948E+01  0.26475578699E+02 -0.45940200090E+01  0.27033130836E+02  0.51100000000E-03 0. -1.
        -12    1    3    3    0    0 -0.26893235414E+01  0.45541727161E+01  0.85566922410E+01  0.10059320670E+02  0.00000000000E+00 0.  1.
</event>
<event>
 7    1  0.1375918E-013  0.7246144E+02  0.7816164E-02  0.1226708E+00
        -11   -1    0    0    0    0  0.00000000000E+00  0.00000000000E+00  0.45593999997E+02  0.45594000000E+02  0.51100000000E-03 0. -1.
         11   -1    0    0    0    0 -0.00000000000E+00 -0.00000000000E+00 -0.45593999997E+02  0.45594000000E+02  0.51100000000E-03 0.  1.
    9900012    2    1    2    0    0  0.15095322178E+02 -0.68714125569E+01 -0.86947689730E+01  0.72461439460E+02  0.69999829564E+02 0.  0.
         12    1    1    2    0    0 -0.15095322178E+02  0.68714125569E+01  0.86947689730E+01  0.18726560540E+02  0.00000000000E+00 0. -1.
         11    1    3    3    0    0  0.35572814255E+02 -0.11912224123E+02  0.60114008875E+01  0.37992935376E+02  0.51100000000E-03 0. -1.
        -11    1    3    3    0    0 -0.51495684400E+01  0.10384180184E+02 -0.14061767994E+02  0.18223132898E+02  0.51100000000E-03 0.  1.
        -12    1    3    3    0    0 -0.15327923637E+02 -0.53433686180E+01 -0.64440186622E+00  0.16245371187E+02  0.00000000000E+00 0.  1.
</event>
<event>
 7    1  0.1375918E-013  0.7246154E+02  0.7816164E-02  0.1226708E+00
        -11   -1    0    0    0    0  0.00000000000E+00  0.00000000000E+00  0.45593999997E+02  0.45594000000E+02  0.51100000000E-03 0. -1.
         11   -1    0    0    0    0 -0.00000000000E+00 -0.00000000000E+00 -0.45593999997E+02  0.45594000000E+02  0.51100000000E-03 0.  1.
    9900012    2    1    2    0    0 -0.10071449168E+02  0.60309809585E+01 -0.14590178475E+02  0.72461544714E+02  0.69999966677E+02 0.  0.
         12    1    1    2    0    0  0.10071449168E+02 -0.60309809585E+01  0.14590178475E+02  0.18726455286E+02  0.00000000000E+00 0. -1.
         11    1    3    3    0    0  0.24452101353E+02  0.11298587497E+02  0.11607659209E+01  0.26961281827E+02  0.51100000000E-03 0.  1.
        -11    1    3    3    0    0 -0.20858198138E+02  0.80247226792E+01 -0.13964959367E+02  0.26353001613E+02  0.51100000000E-03 0. -1.
         12    1    3    3    0    0 -0.13665352383E+02 -0.13292329217E+02 -0.17859850291E+01  0.19147261274E+02  0.00000000000E+00 0. -1.
</event>
<event>
 7    1  0.1375918E-013  0.7246158E+02  0.7816164E-02  0.1226708E+00
        -11   -1    0    0    0    0  0.00000000000E+00  0.00000000000E+00  0.45593999997E+02  0.45594000000E+02  0.51100000000E-03 0.  1.
         11   -1    0    0    0    0 -0.00000000000E+00 -0.00000000000E+00 -0.45593999997E+02  0.45594000000E+02  0.51100000000E-03 0. -1.
    9900012    2    1    2    0    0  0.61498384490E+00  0.88406346469E+01  0.16496776209E+02  0.72461584129E+02  0.70000018022E+02 0.  0.
         12    1    1    2    0    0 -0.61498384490E+00 -0.88406346469E+01 -0.16496776209E+02  0.18726415871E+02  0.00000000000E+00 0. -1.
         11    1    3    3    0    0  0.71758094490E+01  0.26516600418E+02  0.12689161250E+02  0.30259496897E+02  0.51100000000E-03 0. -1.
        -11    1    3    3    0    0  0.62089047615E+01 -0.13183955654E+02  0.17617858718E+02  0.22863860809E+02  0.51100000000E-03 0.  1.
         12    1    3    3    0    0 -0.12769730366E+02 -0.44920101169E+01 -0.13810243759E+02  0.19338226423E+02  0.00000000000E+00 0. -1.
</event>
<event>
 7    1  0.1375918E-013  0.7246155E+02  0.7816164E-02  0.1226708E+00
        -11   -1    0    0    0    0  0.00000000000E+00  0.00000000000E+00  0.45593999997E+02  0.45594000000E+02  0.51100000000E-03 0.  1.
         11   -1    0    0    0    0 -0.00000000000E+00 -0.00000000000E+00 -0.45593999997E+02  0.45594000000E+02  0.51100000000E-03 0. -1.
    9900012    2    1    2    0    0 -0.66283608803E+01 -0.25042573171E+01  0.17334173740E+02  0.72461546734E+02  0.69999969309E+02 0.  0.
         12    1    1    2    0    0  0.66283608803E+01  0.25042573171E+01 -0.17334173740E+02  0.18726453266E+02  0.00000000000E+00 0. -1.
         11    1    3    3    0    0  0.19983563979E+01  0.33165710989E+02  0.12193437601E+02  0.35392622600E+02  0.51100000000E-03 0. -1.
        -11    1    3    3    0    0 -0.28890806319E+01 -0.13745796424E+02  0.21591945088E+01  0.14211116332E+02  0.51100000000E-03 0.  1.
         12    1    3    3    0    0 -0.57376366463E+01 -0.21924171883E+02  0.29815416306E+01  0.22857807802E+02  0.00000000000E+00 0. -1.
</event>
<event>
 7    1  0.1375918E-013  0.7246158E+02  0.7816164E-02  0.1226708E+00
        -11   -1    0    0    0    0  0.00000000000E+00  0.00000000000E+00  0.45593999997E+02  0.45594000000E+02  0.51100000000E-03 0. -1.
         11   -1    0    0    0    0 -0.00000000000E+00 -0.00000000000E+00 -0.45593999997E+02  0.45594000000E+02  0.51100000000E-03 0.  1.
    9900012    2    1    2    0    0 -0.21232663738E+00  0.65243149237E+01 -0.17551834010E+02  0.72461584301E+02  0.70000018246E+02 0.  0.
         12    1    1    2    0    0  0.21232663738E+00 -0.65243149237E+01  0.17551834010E+02  0.18726415699E+02  0.00000000000E+00 0. -1.
         11    1    3    3    0    0 -0.15929318216E+02 -0.16804348818E+02 -0.22222975474E+02  0.32093456610E+02  0.51100000000E-03 0. -1.
        -11    1    3    3    0    0  0.99215892722E+01  0.22091115521E+02 -0.87083271625E+01  0.25735001086E+02  0.51100000000E-03 0.  1.
         12    1    3    3    0    0  0.57954023060E+01  0.12375482208E+01  0.13379468627E+02  0.14633126604E+02  0.00000000000E+00 0. -1.
</event>
<event>
 7    1  0.1375918E-013  0.7246163E+02  0.7816164E-02  0.1226708E+00
        -11   -1    0    0    0    0  0.00000000000E+00  0.00000000000E+00  0.45593999997E+02  0.45594000000E+02  0.51100000000E-03 0. -1.
         11   -1    0    0    0    0 -0.00000000000E+00 -0.00000000000E+00 -0.45593999997E+02  0.45594000000E+02  0.51100000000E-03 0.  1.
    9900012    2    1    2    0    0 -0.50302676185E+01  0.14507250068E+02 -0.10719754213E+02  0.72461627494E+02  0.70000074513E+02 0.  0.
         12    1    1    2    0    0  0.50302676185E+01 -0.14507250068E+02  0.10719754213E+02  0.18726372506E+02  0.00000000000E+00 0. -1.
         11    1    3    3    0    0  0.74915051394E+00 -0.65886891761E+01  0.11463197831E+02  0.13242996501E+02  0.51100000000E-03 0. -1.
        -11    1    3    3    0    0  0.45868141681E+01  0.33062879367E+02 -0.18257176778E+01  0.33429419701E+02  0.51100000000E-03 0.  1.
        -12    1    3    3    0    0 -0.10366232301E+02 -0.11966940123E+02 -0.20357234366E+02  0.25789211292E+02  0.00000000000E+00 0.  1.
</event>
<event>
 7    1  0.1375918E-013  0.7246153E+02  0.7816164E-02  0.1226708E+00
        -11   -1    0    0    0    0  0.00000000000E+00  0.00000000000E+00  0.45593999997E+02  0.45594000000E+02  0.51100000000E-03 0. -1.
         11   -1    0    0    0    0 -0.00000000000E+00 -0.00000000000E+00 -0.45593999997E+02  0.45594000000E+02  0.51100000000E-03 0.  1.
    9900012    2    1    2    0    0  0.54948136868E+01 -0.47965278046E+01 -0.17247634973E+02  0.72461532939E+02  0.69999951337E+02 0.  0.
         12    1    1    2    0    0 -0.54948136868E+01  0.47965278046E+01  0.17247634973E+02  0.18726467061E+02  0.00000000000E+00 0. -1.
         11    1    3    3    0    0 -0.22667895358E+02  0.29409821215E+01 -0.27379104267E+02  0.35666485761E+02  0.51100000000E-03 0. -1.
        -11    1    3    3    0    0  0.17385695837E+02  0.63040471793E+00 -0.32341192705E+01  0.17695178936E+02  0.51100000000E-03 0.  1.
         12    1    3    3    0    0  0.10777013208E+02 -0.83679146440E+01  0.13365588565E+02  0.19099868242E+02  0.00000000000E+00 0. -1.
</event>
<event>
 7    1  0.1375918E-013  0.7246186E+02  0.7816164E-02  0.1226707E+00
        -11   -1    0    0    0    0  0.00000000000E+00  0.00000000000E+00  0.45593999997E+02  0.45594000000E+02  0.51100000000E-03 0. -1.
         11   -1    0    0    0    0 -0.00000000000E+00 -0.00000000000E+00 -0.45593999997E+02  0.45594000000E+02  0.51100000000E-03 0.  1.
    9900012    2    1    2    0    0  0.13304755861E+02 -0.12163505475E+02  0.50695969745E+01  0.72461862987E+02  0.70000381285E+02 0.  0.
         12    1    1    2    0    0 -0.13304755861E+02  0.12163505475E+02 -0.50695969745E+01  0.18726137013E+02  0.00000000000E+00 0. -1.
         11    1    3    3    0    0 -0.13339751246E+02 -0.54559718635E+01  0.25179778907E+02  0.29012718907E+02  0.51100000000E-03 0. -1.
        -11    1    3    3    0    0  0.40576977562E+01  0.18241940689E+01 -0.18745459741E+02  0.19266158315E+02  0.51100000000E-03 0.  1.
         12    1    3    3    0    0  0.22586809350E+02 -0.85317276806E+01 -0.13647221923E+01  0.24182985765E+02  0.00000000000E+00 0. -1.
</event>
<event>
 7    1  0.1375918E-013  0.7246142E+02  0.7816164E-02  0.1226708E+00
        -11   -1    0    0    0    0  0.00000000000E+00  0.00000000000E+00  0.45593999997E+02  0.45594000000E+02  0.51100000000E-03 0. -1.
         11   -1    0    0    0    0 -0.00000000000E+00 -0.00000000000E+00 -0.45593999997E+02  0.45594000000E+02  0.51100000000E-03 0.  1.
    9900012    2    1    2    0    0  0.74671972051E+01 -0.90126834108E+01 -0.14618389369E+02  0.72461419850E+02  0.69999804018E+02 0.  0.
         12    1    1    2    0    0 -0.74671972051E+01  0.90126834108E+01  0.14618389369E+02  0.18726580150E+02  0.00000000000E+00 0. -1.
         11    1    3    3    0    0  0.26426744601E+01 -0.21936173747E+01  0.23385823583E+02  0.23636675536E+02  0.51100000000E-03 0. -1.
        -11    1    3    3    0    0 -0.89379337234E+01 -0.82893452288E+01 -0.31004100105E+02  0.33314473238E+02  0.51100000000E-03 0.  1.
         12    1    3    3    0    0  0.13762456468E+02  0.14702791927E+01 -0.70001128480E+01  0.15510271075E+02  0.00000000000E+00 0. -1.
</event>
<event>
 7    1  0.1375918E-013  0.7246151E+02  0.7816164E-02  0.1226708E+00
        -11   -1    0    0    0    0  0.00000000000E+00  0.00000000000E+00  0.45593999997E+02  0.45594000000E+02  0.51100000000E-03 0. -1.
         11   -1    0    0    0    0 -0.00000000000E+00 -0.00000000000E+00 -0.45593999997E+02  0.45594000000E+02  0.51100000000E-03 0.  1.
    9900012    2    1    2    0    0 -0.14338567517E+02 -0.87512720215E+01 -0.82765931962E+01  0.72461514068E+02  0.69999926755E+02 0.  0.
         12    1    1    2    0    0  0.14338567517E+02  0.87512720215E+01  0.82765931962E+01  0.18726485932E+02  0.00000000000E+00 0. -1.
         11    1    3    3    0    0  0.31189323556E+01 -0.26378463751E+02 -0.73451113457E+01  0.27559059307E+02  0.51100000000E-03 0. -1.
        -11    1    3    3    0    0 -0.72191773431E+01  0.11066314986E+02  0.18044366741E+02  0.22364682431E+02  0.51100000000E-03 0.  1.
        -12    1    3    3    0    0 -0.10238322529E+02  0.65608767441E+01 -0.18975848592E+02  0.22537772331E+02  0.00000000000E+00 0.  1.
</event>
<event>
 7    1  0.1375918E-013  0.7246163E+02  0.7816164E-02  0.1226708E+00
        -11   -1    0    0    0    0  0.00000000000E+00  0.00000000000E+00  0.45593999997E+02  0.45594000000E+02  0.51100000000E-03 0.  1.
         11   -1    0    0    0    0 -0.00000000000E+00 -0.00000000000E+00 -0.45593999997E+02  0.45594000000E+02  0.51100000000E-03 0. -1.
    9900012    2    1    2    0    0  0.15767263702E+02  0.27391431134E+01  0.97245793531E+01  0.72461629470E+02  0.70000077087E+02 0.  0.
         12    1    1    2    0    0 -0.15767263702E+02 -0.27391431134E+01 -0.97245793531E+01  0.18726370530E+02  0.00000000000E+00 0. -1.
         11    1    3    3    0    0 -0.16627994238E+02 -0.83149032131E+01  0.15664466262E+02  0.24310559668E+02  0.51100000000E-03 0. -1.
        -11    1    3    3    0    0  0.29220963782E+02 -0.52040181636E+01 -0.95843672437E+01  0.31189848110E+02  0.51100000000E-03 0.  1.
        -12    1    3    3    0    0  0.31742941582E+01  0.16258064490E+02  0.36444803349E+01  0.16961221692E+02  0.00000000000E+00 0.  1.
</event>
<event>
 7    1  0.1431433E-013  0.7246141E+02  0.7816164E-02  0.1226708E+00
        -11   -1    0    0    0    0  0.00000000000E+00  0.00000000000E+00  0.45593999997E+02  0.45594000000E+02  0.51100000000E-03 0. -1.
         11   -1    0    0    0    0 -0.00000000000E+00 -0.00000000000E+00 -0.45593999997E+02  0.45594000000E+02  0.51100000000E-03 0.  1.
    9900012    2    1    2    0    0  0.13871355162E+02 -0.30099194291E+00 -0.12576964823E+02  0.72461411033E+02  0.69999792533E+02 0.  0.
         12    1    1    2    0    0 -0.13871355162E+02  0.30099194291E+00  0.12576964823E+02  0.18726588967E+02  0.00000000000E+00 0. -1.
         11    1    3    3    0    0 -0.45960273895E+01 -0.39862339001E+01  0.21266426151E+02  0.22119548141E+02  0.51100000000E-03 0. -1.
        -11    1    3    3    0    0 -0.60757829573E+00  0.10819005633E+02 -0.26607312887E+02  0.28729238305E+02  0.51100000000E-03 0.  1.
         12    1    3    3    0    0  0.19074960847E+02 -0.71337636756E+01 -0.72360780867E+01  0.21612624588E+02  0.00000000000E+00 0. -1.
</event>
<event>
 8    1  0.1375918E-013  0.7246156E+02  0.7816164E-02  0.1226708E+00
        -11   -1    0    0    0    0  0.00000000000E+00  0.00000000000E+00  0.45593999997E+02  0.45594000000E+02  0.51100000000E-03 0.  1.
         11   -1    0    0    0    0 -0.00000000000E+00 -0.00000000000E+00 -0.45593999997E+02  0.45594000000E+02  0.51100000000E-03 0. -1.
    9900012    2    1    2    0    0 -0.46643176985E+01  0.10863820447E+02  0.14522432422E+02  0.72461561531E+02  0.69999988584E+02 0.  0.
        -24    2    3    3    0    0  0.53170611566E+01  0.11353601684E+02 -0.14380315484E+01  0.53630623691E+02  0.52124854458E+02 0.  0.
         12    1    1    2    0    0  0.46643176985E+01 -0.10863820447E+02 -0.14522432422E+02  0.18726438469E+02  0.00000000000E+00 0. -1.
         11    1    4    4    0    0  0.25628004183E+02 -0.13504332077E+00 -0.11658486165E+02  0.28155516955E+02  0.51100000000E-03 0. -1.
        -11    1    3    3    0    0 -0.99813788551E+01 -0.48978123650E+00  0.15960463970E+02  0.18830937839E+02  0.51100000000E-03 0.  1.
        -12    1    4    4    0    0 -0.20310943026E+02  0.11488645005E+02  0.10220454616E+02  0.25475106736E+02  0.00000000000E+00 0.  1.
</event>
<event>
 7    1  0.1375918E-013  0.7246159E+02  0.7816164E-02  0.1226708E+00
        -11   -1    0    0    0    0  0.00000000000E+00  0.00000000000E+00  0.45593999997E+02  0.45594000000E+02  0.51100000000E-03 0. -1.
         11   -1    0    0    0    0 -0.00000000000E+00 -0.00000000000E+00 -0.45593999997E+02  0.45594000000E+02  0.51100000000E-03 0.  1.
    9900012    2    1    2    0    0 -0.19213442670E+01  0.43355025269E+01 -0.18116025830E+02  0.72461587160E+02  0.70000021971E+02 0.  0.
         12    1    1    2    0    0  0.19213442670E+01 -0.43355025269E+01  0.18116025830E+02  0.18726412840E+02  0.00000000000E+00 0. -1.
         11    1    3    3    0    0  0.23863069586E+02 -0.70484969710E+01 -0.21029834245E+02  0.32578847865E+02  0.51100000000E-03 0.  1.
        -11    1    3    3    0    0 -0.23695792614E+02  0.19380748259E+02 -0.12305422345E+01  0.30636876883E+02  0.51100000000E-03 0. -1.
         12    1    3    3    0    0 -0.20886212386E+01 -0.79967487615E+01  0.41443506493E+01  0.92458624117E+01  0.00000000000E+00 0. -1.
</event>
<event>
 7    1  0.1375918E-013  0.7246157E+02  0.7816164E-02  0.1226708E+00
        -11   -1    0    0    0    0  0.00000000000E+00  0.00000000000E+00  0.45593999997E+02  0.45594000000E+02  0.51100000000E-03 0.  1.
         11   -1    0    0    0    0 -0.00000000000E+00 -0.00000000000E+00 -0.45593999997E+02  0.45594000000E+02  0.51100000000E-03 0. -1.
    9900012    2    1    2    0    0  0.12409301087E+02 -0.78374954634E+01  0.11630215446E+02  0.72461574822E+02  0.70000005899E+02 0.  0.
         12    1    1    2    0    0 -0.12409301087E+02  0.78374954634E+01 -0.11630215446E+02  0.18726425178E+02  0.00000000000E+00 0. -1.
         11    1    3    3    0    0 -0.20247276289E+02 -0.12923860943E+02  0.65969630239E+00  0.24029431502E+02  0.51100000000E-03 0. -1.
        -11    1    3    3    0    0  0.20879785063E+02 -0.17186122236E+01 -0.10174474322E+02  0.23290319453E+02  0.51100000000E-03 0.  1.
        -12    1    3    3    0    0  0.11776792314E+02  0.68049777036E+01  0.21144993465E+02  0.25141823868E+02  0.00000000000E+00 0.  1.
</event>
<event>
 7    1  0.1375918E-013  0.7246152E+02  0.7816164E-02  0.1226708E+00
        -11   -1    0    0    0    0  0.00000000000E+00  0.00000000000E+00  0.45593999997E+02  0.45594000000E+02  0.51100000000E-03 0. -1.
         11   -1    0    0    0    0 -0.00000000000E+00 -0.00000000000E+00 -0.45593999997E+02  0.45594000000E+02  0.51100000000E-03 0.  1.
    9900012    2    1    2    0    0 -0.26953459624E+01  0.43118031158E+01 -0.18022891102E+02  0.72461517692E+02  0.69999931475E+02 0.  0.
         12    1    1    2    0    0  0.26953459624E+01 -0.43118031158E+01  0.18022891102E+02  0.18726482308E+02  0.00000000000E+00 0. -1.
         11    1    3    3    0    0  0.73179058569E+01  0.14099486328E+02  0.15935923873E+02  0.22501131767E+02  0.51100000000E-03 0. -1.
        -11    1    3    3    0    0 -0.14072857081E+01 -0.20780619909E+02 -0.27709613554E+02  0.34664640492E+02  0.51100000000E-03 0.  1.
        -12    1    3    3    0    0 -0.86059661112E+01  0.10992936697E+02 -0.62492014213E+01  0.15295745432E+02  0.00000000000E+00 0.  1.
</event>
<event>
 7    1  0.1375918E-013  0.7246154E+02  0.7816164E-02  0.1226708E+00
        -11   -1    0    0    0    0  0.00000000000E+00  0.00000000000E+00  0.45593999997E+02  0.45594000000E+02  0.51100000000E-03 0.  1.
         11   -1    0    0    0    0 -0.00000000000E+00 -0.00000000000E+00 -0.45593999997E+02  0.45594000000E+02  0.51100000000E-03 0. -1.
    9900012    2    1    2    0    0  0.13068895493E+02 -0.12172287902E+02  0.56320369503E+01  0.72461535774E+02  0.69999955031E+02 0.  0.
         12    1    1    2    0    0 -0.13068895493E+02  0.12172287902E+02 -0.56320369503E+01  0.18726464226E+02  0.00000000000E+00 0. -1.
         11    1    3    3    0    0 -0.92541022504E+00  0.24358106666E+02 -0.24439727197E+01  0.24497892713E+02  0.51100000000E-03 0. -1.
        -11    1    3    3    0    0 -0.21298804332E+01 -0.26855012849E+02  0.10681470199E+02  0.28979681014E+02  0.51100000000E-03 0.  1.
         12    1    3    3    0    0  0.16124186152E+02 -0.96753817190E+01 -0.26054605291E+01  0.18983962048E+02  0.00000000000E+00 0. -1.
</event>
<event>
 7    1  0.1375918E-013  0.7246153E+02  0.7816164E-02  0.1226708E+00
        -11   -1    0    0    0    0  0.00000000000E+00  0.00000000000E+00  0.45593999997E+02  0.45594000000E+02  0.51100000000E-03 0.  1.
         11   -1    0    0    0    0 -0.00000000000E+00 -0.00000000000E+00 -0.45593999997E+02  0.45594000000E+02  0.51100000000E-03 0. -1.
    9900012    2    1    2    0    0 -0.99096363361E+01  0.14347786965E+02  0.68279440390E+01  0.72461529353E+02  0.69999946666E+02 0.  0.
         12    1    1    2    0    0  0.99096363361E+01 -0.14347786965E+02 -0.68279440390E+01  0.18726470647E+02  0.00000000000E+00 0. -1.
         11    1    3    3    0    0 -0.15154155070E+02 -0.68378303639E+01 -0.23152901232E+02  0.28503704596E+02  0.51100000000E-03 0. -1.
        -11    1    3    3    0    0 -0.61097262801E+01  0.96600573535E+01  0.24223995491E+02  0.26785208998E+02  0.51100000000E-03 0.  1.
        -12    1    3    3    0    0  0.11354245014E+02  0.11525559975E+02  0.57568497804E+01  0.17172615758E+02  0.00000000000E+00 0.  1.
</event>
<event>
 7    1  0.1375918E-013  0.7246150E+02  0.7816164E-02  0.1226708E+00
        -11   -1    0    0    0    0  0.00000000000E+00  0.00000000000E+00  0.45593999997E+02  0.45594000000E+02  0.51100000000E-03 0. -1.
         11   -1    0    0    0    0 -0.00000000000E+00 -0.00000000000E+00 -0.45593999997E+02  0.45594000000E+02  0.51100000000E-03 0.  1.
    9900012    2    1    2    0    0 -0.17170760921E+02 -0.29989239638E+00  0.74670475466E+01  0.72461500991E+02  0.69999909719E+02 0.  0.
         12    1    1    2    0    0  0.17170760921E+02  0.29989239638E+00 -0.74670475466E+01  0.18726499009E+02  0.00000000000E+00 0. -1.
         11    1    3    3    0    0  0.21801759699E+02  0.21241925031E+01  0.64834858501E+01  0.22844353981E+02  0.51100000000E-03 0. -1.
        -11    1    3    3    0    0 -0.21656418553E+02 -0.75694953968E+01  0.14426048120E+02  0.27099973980E+02  0.51100000000E-03 0.  1.
         12    1    3    3    0    0 -0.17316102068E+02  0.51454104973E+01 -0.13442486424E+02  0.22517173030E+02  0.00000000000E+00 0. -1.
</event>
<event>
 7    1  0.1375918E-013  0.7246156E+02  0.7816164E-02  0.1226708E+00
        -11   -1    0    0    0    0  0.00000000000E+00  0.00000000000E+00  0.45593999997E+02  0.45594000000E+02  0.51100000000E-03 0.  1.
         11   -1    0    0    0    0 -0.00000000000E+00 -0.00000000000E+00 -0.45593999997E+02  0.45594000000E+02  0.51100000000E-03 0. -1.
    9900012    2    1    2    0    0 -0.62723610375E+01 -0.64900627156E+01  0.16407810468E+02  0.72461556895E+02  0.69999982544E+02 0.  0.
         12    1    1    2    0    0  0.62723610375E+01  0.64900627156E+01 -0.16407810468E+02  0.18726443105E+02  0.00000000000E+00 0. -1.
         11    1    3    3    0    0 -0.85250922950E+01 -0.78742277587E+00 -0.16465122031E+02  0.18557949160E+02  0.51100000000E-03 0. -1.
        -11    1    3    3    0    0  0.12797042784E+02 -0.17280489622E+02  0.31559590465E+02  0.38188838372E+02  0.51100000000E-03 0.  1.
         12    1    3    3    0    0 -0.10544311527E+02  0.11577849682E+02  0.13133420330E+01  0.15714769363E+02  0.00000000000E+00 0. -1.
</event>
<event>
 7    1  0.1375918E-013  0.7246158E+02  0.7816164E-02  0.1226708E+00
        -11   -1    0    0    0    0  0.00000000000E+00  0.00000000000E+00  0.45593999997E+02  0.45594000000E+02  0.51100000000E-03 0.  1.
         11   -1    0    0    0    0 -0.00000000000E+00 -0.00000000000E+00 -0.45593999997E+02  0.45594000000E+02  0.51100000000E-03 0. -1.
    9900012    2    1    2    0    0 -0.10847592488E+02  0.44425081036E+00  0.15258148032E+02  0.72461582752E+02  0.70000016229E+02 0.  0.
         12    1    1    2    0    0  0.10847592488E+02 -0.44425081036E+00 -0.15258148032E+02  0.18726417248E+02  0.00000000000E+00 0. -1.
         11    1    3    3    0    0 -0.76675864105E+00 -0.22330323612E+01 -0.60570399664E+01  0.65009296070E+01  0.51100000000E-03 0. -1.
        -11    1    3    3    0    0  0.92636752946E+01 -0.21500140752E+02  0.25612865329E+02  0.34700008687E+02  0.51100000000E-03 0.  1.
        -12    1    3    3    0    0 -0.19344509141E+02  0.24177423923E+02 -0.42976773299E+01  0.31260644458E+02  0.00000000000E+00 0.  1.
</event>
<event>
 7    1  0.1375918E-013  0.7246158E+02  0.7816164E-02  0.1226708E+00
        -11   -1    0    0    0    0  0.00000000000E+00  0.00000000000E+00  0.45593999997E+02  0.45594000000E+02  0.51100000000E-03 0. -1.
         11   -1    0    0    0    0 -0.00000000000E+00 -0.00000000000E+00 -0.45593999997E+02  0.45594000000E+02  0.51100000000E-03 0.  1.
    9900012    2    1    2    0    0  0.16086194404E+02 -0.91308600469E+01  0.29224324259E+01  0.72461578375E+02  0.70000010526E+02 0.  0.
         12    1    1    2    0    0 -0.16086194404E+02  0.91308600469E+01 -0.29224324259E+01  0.18726421625E+02  0.00000000000E+00 0. -1.
         11    1    3    3    0    0 -0.92311629386E+01  0.20358948671E+02  0.81110412483E+01  0.23780036808E+02  0.51100000000E-03 0. -1.
        -11    1    3    3    0    0  0.97040910129E+01 -0.10720785594E+02 -0.16358441494E+02  0.21833534632E+02  0.51100000000E-03 0.  1.
        -12    1    3    3    0    0  0.15613266330E+02 -0.18769023124E+02  0.11169832672E+02  0.26848006936E+02  0.00000000000E+00 0.  1.
</event>
<event>
 7    1  0.1375918E-013  0.7246158E+02  0.7816164E-02  0.1226708E+00
        -11   -1    0    0    0    0  0.00000000000E+00  0.00000000000E+00  0.45593999997E+02  0.45594000000E+02  0.51100000000E-03 0.  1.
         11   -1    0    0    0    0 -0.00000000000E+00 -0.00000000000E+00 -0.45593999997E+02  0.45594000000E+02  0.51100000000E-03 0. -1.
    9900012    2    1    2    0    0 -0.36924559966E+01  0.17098463853E+02  0.66848455168E+01  0.72461578639E+02  0.70000010870E+02 0.  0.
         12    1    1    2    0    0  0.36924559966E+01 -0.17098463853E+02 -0.66848455168E+01  0.18726421361E+02  0.00000000000E+00 0. -1.
         11    1    3    3    0    0  0.66195468073E+01 -0.15991636225E+02 -0.34385983658E+01  0.17645815030E+02  0.51100000000E-03 0. -1.
        -11    1    3    3    0    0 -0.24870463516E+02  0.25682084840E+02  0.29468324737E+00  0.35751870940E+02  0.51100000000E-03 0.  1.
         12    1    3    3    0    0  0.14558460712E+02  0.74080152369E+01  0.98287606353E+01  0.19063892669E+02  0.00000000000E+00 0. -1.
</event>
<event>
 7    1  0.1375918E-013  0.7246143E+02  0.7816164E-02  0.1226708E+00
        -11   -1    0    0    0    0  0.00000000000E+00  0.00000000000E+00  0.45593999997E+02  0.45594000000E+02  0.51100000000E-03 0. -1.
         11   -1    0    0    0    0 -0.00000000000E+00 -0.00000000000E+00 -0.45593999997E+02  0.45594000000E+02  0.51100000000E-03 0.  1.
    9900012    2    1    2    0    0 -0.72478184153E+01 -0.12820359565E+02 -0.11566840093E+02  0.72461433820E+02  0.69999822216E+02 0.  0.
         12    1    1    2    0    0  0.72478184153E+01  0.12820359565E+02  0.11566840093E+02  0.18726566180E+02  0.00000000000E+00 0. -1.
         11    1    3    3    0    0 -0.23557653657E+02  0.11352234066E+01  0.14091395230E+02  0.27473973098E+02  0.51100000000E-03 0. -1.
        -11    1    3    3    0    0  0.65731843186E+01 -0.62267689595E+01 -0.30371705528E+02  0.31692584317E+02  0.51100000000E-03 0.  1.
         12    1    3    3    0    0  0.97366509233E+01 -0.77288140124E+01  0.47134702043E+01  0.13294876404E+02  0.00000000000E+00 0. -1.
</event>
<event>
 7    1  0.1375918E-013  0.7246157E+02  0.7816164E-02  0.1226708E+00
        -11   -1    0    0    0    0  0.00000000000E+00  0.00000000000E+00  0.45593999997E+02  0.45594000000E+02  0.51100000000E-03 0.  1.
         11   -1    0    0    0    0 -0.00000000000E+00 -0.00000000000E+00 -0.45593999997E+02  0.45594000000E+02  0.51100000000E-03 0. -1.
    9900012    2    1    2    0    0  0.12696851295E+02  0.84992525719E+01  0.10827369133E+02  0.72461568160E+02  0.69999997220E+02 0.  0.
         12    1    1    2    0    0 -0.12696851295E+02 -0.84992525719E+01 -0.10827369133E+02  0.18726431840E+02  0.00000000000E+00 0. -1.
         11    1    3    3    0    0  0.30842893611E+02 -0.14802917728E+01  0.17987890610E+02  0.35735690268E+02  0.51100000000E-03 0. -1.
        -11    1    3    3    0    0 -0.18079848910E+02  0.30176181985E+01  0.80331789548E+01  0.20012968809E+02  0.51100000000E-03 0.  1.
        -12    1    3    3    0    0 -0.66193406548E-01  0.69619261462E+01 -0.15193700431E+02  0.16712909083E+02  0.00000000000E+00 0.  1.
</event>
<event>
 7    1  0.1375918E-013  0.7246159E+02  0.7816164E-02  0.1226708E+00
        -11   -1    0    0    0    0  0.00000000000E+00  0.00000000000E+00  0.45593999997E+02  0.45594000000E+02  0.51100000000E-03 0. -1.
         11   -1    0    0    0    0 -0.00000000000E+00 -0.00000000000E+00 -0.45593999997E+02  0.45594000000E+02  0.51100000000E-03 0.  1.
    9900012    2    1    2    0    0 -0.12987986070E+02 -0.30315286582E-01 -0.13490350753E+02  0.72461594455E+02  0.70000031474E+02 0.  0.
         12    1    1    2    0    0  0.12987986070E+02  0.30315286582E-01  0.13490350753E+02  0.18726405545E+02  0.00000000000E+00 0. -1.
         11    1    3    3    0    0 -0.10383209967E+02 -0.25210047725E+02  0.24840668045E+01  0.27377511642E+02  0.51100000000E-03 0. -1.
        -11    1    3    3    0    0 -0.17738465377E+02  0.17261958372E+02 -0.66697377980E+01  0.25634230304E+02  0.51100000000E-03 0.  1.
         12    1    3    3    0    0  0.15133689274E+02  0.79177740671E+01 -0.93046797594E+01  0.19449852509E+02  0.00000000000E+00 0. -1.
</event>
<event>
 7    1  0.1375918E-013  0.7246150E+02  0.7816164E-02  0.1226708E+00
        -11   -1    0    0    0    0  0.00000000000E+00  0.00000000000E+00  0.45593999997E+02  0.45594000000E+02  0.51100000000E-03 0. -1.
         11   -1    0    0    0    0 -0.00000000000E+00 -0.00000000000E+00 -0.45593999997E+02  0.45594000000E+02  0.51100000000E-03 0.  1.
    9900012    2    1    2    0    0 -0.81983180443E+01  0.15690557805E+02 -0.61054014078E+01  0.72461496073E+02  0.69999903313E+02 0.  0.
         12    1    1    2    0    0  0.81983180443E+01 -0.15690557805E+02  0.61054014078E+01  0.18726503927E+02  0.00000000000E+00 0. -1.
         11    1    3    3    0    0  0.31283854180E+01  0.18897306980E+02 -0.19173302784E+02  0.27101855035E+02  0.51100000000E-03 0. -1.
        -11    1    3    3    0    0 -0.19396193306E+02  0.14341032536E+02  0.72932509587E+01  0.25200576159E+02  0.51100000000E-03 0.  1.
        -12    1    3    3    0    0  0.80694898436E+01 -0.17547781711E+02  0.57746504176E+01  0.20159064878E+02  0.00000000000E+00 0.  1.
</event>
<event>
 7    1  0.1375918E-013  0.7246151E+02  0.7816164E-02  0.1226708E+00
        -11   -1    0    0    0    0  0.00000000000E+00  0.00000000000E+00  0.45593999997E+02  0.45594000000E+02  0.51100000000E-03 0.  1.
         11   -1    0    0    0    0 -0.00000000000E+00 -0.00000000000E+00 -0.45593999997E+02  0.45594000000E+02  0.51100000000E-03 0. -1.
    9900012    2    1    2    0    0 -0.12632632219E+01 -0.18497698335E+02 -0.26307101359E+01  0.72461513050E+02  0.69999925429E+02 0.  0.
         12    1    1    2    0    0  0.12632632219E+01  0.18497698335E+02  0.26307101359E+01  0.18726486950E+02  0.00000000000E+00 0. -1.
         11    1    3    3    0    0 -0.19824192394E+02 -0.16068688261E+02  0.24076309654E+02  0.35083757400E+02  0.51100000000E-03 0.  1.
        -11    1    3    3    0    0  0.19139694075E+02  0.41170747235E+01 -0.20140886038E+02  0.28087959773E+02  0.51100000000E-03 0. -1.
        -12    1    3    3    0    0 -0.57876490283E+00 -0.65460847976E+01 -0.65661337516E+01  0.92897958769E+01  0.00000000000E+00 0.  1.
</event>
<event>
 7    1  0.1375918E-013  0.7246101E+02  0.7816164E-02  0.1226709E+00
        -11   -1    0    0    0    0  0.00000000000E+00  0.00000000000E+00  0.45593999997E+02  0.45594000000E+02  0.51100000000E-03 0. -1.
         11   -1    0    0    0    0 -0.00000000000E+00 -0.00000000000E+00 -0.45593999997E+02  0.45594000000E+02  0.51100000000E-03 0.  1.
    9900012    2    1    2    0    0 -0.17673269532E+01 -0.12143698957E+02 -0.14145925084E+02  0.72461012378E+02  0.69999273207E+02 0.  0.
         12    1    1    2    0    0  0.17673269532E+01  0.12143698957E+02  0.14145925084E+02  0.18726987622E+02  0.00000000000E+00 0. -1.
         11    1    3    3    0    0  0.24837261161E+02  0.33005037361E+01 -0.46306767389E+01  0.25479914329E+02  0.51100000000E-03 0. -1.
        -11    1    3    3    0    0 -0.13724208264E+02  0.81844722594E+01  0.45517853881E+01  0.16615000124E+02  0.51100000000E-03 0.  1.
        -12    1    3    3    0    0 -0.12880379850E+02 -0.23628674953E+02 -0.14067033733E+02  0.30366097924E+02  0.00000000000E+00 0.  1.
</event>
<event>
 7    1  0.1375918E-013  0.7246159E+02  0.7816164E-02  0.1226708E+00
        -11   -1    0    0    0    0  0.00000000000E+00  0.00000000000E+00  0.45593999997E+02  0.45594000000E+02  0.51100000000E-03 0. -1.
         11   -1    0    0    0    0 -0.00000000000E+00 -0.00000000000E+00 -0.45593999997E+02  0.45594000000E+02  0.51100000000E-03 0.  1.
    9900012    2    1    2    0    0 -0.18135453073E+02  0.43468802634E+01 -0.16995610937E+01  0.72461587261E+02  0.70000022102E+02 0.  0.
         12    1    1    2    0    0  0.18135453073E+02 -0.43468802634E+01  0.16995610937E+01  0.18726412739E+02  0.00000000000E+00 0. -1.
         11    1    3    3    0    0  0.10792302753E+02  0.40307186057E+01  0.15816304223E+02  0.19567216735E+02  0.51100000000E-03 0. -1.
        -11    1    3    3    0    0 -0.38923164143E+02 -0.77891372950E+00 -0.95998765448E+01  0.40097095200E+02  0.51100000000E-03 0.  1.
        -12    1    3    3    0    0  0.99954083176E+01  0.10950753872E+01 -0.79159887722E+01  0.12797275326E+02  0.00000000000E+00 0.  1.
</event>
<event>
 7    1  0.1375918E-013  0.7246156E+02  0.7816164E-02  0.1226708E+00
        -11   -1    0    0    0    0  0.00000000000E+00  0.00000000000E+00  0.45593999997E+02  0.45594000000E+02  0.51100000000E-03 0. -1.
         11   -1    0    0    0    0 -0.00000000000E+00 -0.00000000000E+00 -0.45593999997E+02  0.45594000000E+02  0.51100000000E-03 0.  1.
    9900012    2    1    2    0    0  0.75416037780E+01  0.10352326893E+01 -0.17109413573E+02  0.72461560747E+02  0.69999987563E+02 0.  0.
         12    1    1    2    0    0 -0.75416037780E+01 -0.10352326893E+01  0.17109413573E+02  0.18726439253E+02  0.00000000000E+00 0. -1.
         11    1    3    3    0    0  0.27028994276E+02  0.26405463125E+01 -0.79533615366E+01  0.28298321088E+02  0.51100000000E-03 0. -1.
        -11    1    3    3    0    0 -0.13992145863E+02  0.15178599372E+02  0.53307751685E+01  0.21321050370E+02  0.51100000000E-03 0.  1.
         12    1    3    3    0    0 -0.54952446349E+01 -0.16783912995E+02 -0.14486827205E+02  0.22842189288E+02  0.00000000000E+00 0. -1.
</event>
<event>
 7    1  0.1375918E-013  0.7246155E+02  0.7816164E-02  0.1226708E+00
        -11   -1    0    0    0    0  0.00000000000E+00  0.00000000000E+00  0.45593999997E+02  0.45594000000E+02  0.51100000000E-03 0. -1.
         11   -1    0    0    0    0 -0.00000000000E+00 -0.00000000000E+00 -0.45593999997E+02  0.45594000000E+02  0.51100000000E-03 0.  1.
    9900012    2    1    2    0    0 -0.10910440380E+02 -0.13054504930E+02 -0.78244503779E+01  0.72461552607E+02  0.69999976959E+02 0.  0.
         12    1    1    2    0    0  0.10910440380E+02  0.13054504930E+02  0.78244503779E+01  0.18726447393E+02  0.00000000000E+00 0. -1.
         11    1    3    3    0    0 -0.15887387566E+02 -0.32661967745E+02 -0.15898417915E+02  0.39648113614E+02  0.51100000000E-03 0.  1.
        -11    1    3    3    0    0  0.12720792876E+01  0.22138295981E+02 -0.15151791070E+01  0.22226518005E+02  0.51100000000E-03 0. -1.
         12    1    3    3    0    0  0.37048678990E+01 -0.25308331651E+01  0.95891466438E+01  0.10586920988E+02  0.00000000000E+00 0. -1.
</event>
<event>
 7    1  0.1375918E-013  0.7246159E+02  0.7816164E-02  0.1226708E+00
        -11   -1    0    0    0    0  0.00000000000E+00  0.00000000000E+00  0.45593999997E+02  0.45594000000E+02  0.51100000000E-03 0. -1.
         11   -1    0    0    0    0 -0.00000000000E+00 -0.00000000000E+00 -0.45593999997E+02  0.45594000000E+02  0.51100000000E-03 0.  1.
    9900012    2    1    2    0    0 -0.45177908847E+01 -0.11712899994E+02  0.13895174001E+02  0.72461592943E+02  0.70000029504E+02 0.  0.
         12    1    1    2    0    0  0.45177908847E+01  0.11712899994E+02 -0.13895174001E+02  0.18726407057E+02  0.00000000000E+00 0. -1.
         11    1    3    3    0    0  0.14198139392E+01  0.22035819346E+02  0.10470274115E+02  0.24438081884E+02  0.51100000000E-03 0. -1.
        -11    1    3    3    0    0  0.46602208004E+00 -0.85476430693E+01 -0.14221465137E+02  0.16599079779E+02  0.51100000000E-03 0.  1.
         12    1    3    3    0    0 -0.64036269040E+01 -0.25201076271E+02  0.17646365023E+02  0.31424431280E+02  0.00000000000E+00 0. -1.
</event>
<event>
 7    1  0.1375918E-013  0.7246156E+02  0.7816164E-02  0.1226708E+00
        -11   -1    0    0    0    0  0.00000000000E+00  0.00000000000E+00  0.45593999997E+02  0.45594000000E+02  0.51100000000E-03 0.  1.
         11   -1    0    0    0    0 -0.00000000000E+00 -0.00000000000E+00 -0.45593999997E+02  0.45594000000E+02  0.51100000000E-03 0. -1.
    9900012    2    1    2    0    0 -0.24619968164E+01 -0.18433042476E+02  0.22002225824E+01  0.72461562467E+02  0.69999989804E+02 0.  0.
         12    1    1    2    0    0  0.24619968164E+01  0.18433042476E+02 -0.22002225824E+01  0.18726437533E+02  0.00000000000E+00 0. -1.
         11    1    3    3    0    0 -0.67492669734E+01  0.19643025215E+02 -0.63299748050E+01  0.21713351320E+02  0.51100000000E-03 0. -1.
        -11    1    3    3    0    0 -0.11532457965E+02 -0.21474694811E+02 -0.38663846267E+01  0.24680134406E+02  0.51100000000E-03 0.  1.
        -12    1    3    3    0    0  0.15819728122E+02 -0.16601372880E+02  0.12396582014E+02  0.26068076741E+02  0.00000000000E+00 0.  1.
</event>
<event>
 7    1  0.1375918E-013  0.7246161E+02  0.7816164E-02  0.1226708E+00
        -11   -1    0    0    0    0  0.00000000000E+00  0.00000000000E+00  0.45593999997E+02  0.45594000000E+02  0.51100000000E-03 0. -1.
         11   -1    0    0    0    0 -0.00000000000E+00 -0.00000000000E+00 -0.45593999997E+02  0.45594000000E+02  0.51100000000E-03 0.  1.
    9900012    2    1    2    0    0  0.52586205532E+01  0.85240104864E+00 -0.17952657643E+02  0.72461612358E+02  0.70000054796E+02 0.  0.
         12    1    1    2    0    0 -0.52586205532E+01 -0.85240104864E+00  0.17952657643E+02  0.18726387642E+02  0.00000000000E+00 0. -1.
         11    1    3    3    0    0 -0.11148470413E+02  0.18977899802E+02 -0.12467757653E+02  0.25296127264E+02  0.51100000000E-03 0. -1.
        -11    1    3    3    0    0  0.22561353753E+02 -0.14089410956E+02 -0.18370320871E+02  0.32326380456E+02  0.51100000000E-03 0.  1.
         12    1    3    3    0    0 -0.61542627870E+01 -0.40360877973E+01  0.12885420881E+02  0.14839104638E+02  0.00000000000E+00 0. -1.
</event>
<event>
 7    1  0.1375918E-013  0.7246159E+02  0.7816164E-02  0.1226708E+00
        -11   -1    0    0    0    0  0.00000000000E+00  0.00000000000E+00  0.45593999997E+02  0.45594000000E+02  0.51100000000E-03 0.  1.
         11   -1    0    0    0    0 -0.00000000000E+00 -0.00000000000E+00 -0.45593999997E+02  0.45594000000E+02  0.51100000000E-03 0. -1.
    9900012    2    1    2    0    0  0.11970641864E+02 -0.12543176997E+02  0.70746538402E+01  0.72461593970E+02  0.70000030842E+02 0.  0.
         12    1    1    2    0    0 -0.11970641864E+02  0.12543176997E+02 -0.70746538402E+01  0.18726406030E+02  0.00000000000E+00 0. -1.
         11    1    3    3    0    0  0.69087667447E+00  0.15073493959E+02 -0.19306072168E+02  0.24503304952E+02  0.51100000000E-03 0. -1.
        -11    1    3    3    0    0  0.12259485972E+02 -0.30732197432E+02  0.15387612378E+02  0.36490294193E+02  0.51100000000E-03 0.  1.
        -12    1    3    3    0    0 -0.97972078204E+00  0.31155264760E+01  0.10993113630E+02  0.11467994826E+02  0.00000000000E+00 0.  1.
</event>
<event>
 7    1  0.1375918E-013  0.7246160E+02  0.7816164E-02  0.1226708E+00
        -11   -1    0    0    0    0  0.00000000000E+00  0.00000000000E+00  0.45593999997E+02  0.45594000000E+02  0.51100000000E-03 0.  1.
         11   -1    0    0    0    0 -0.00000000000E+00 -0.00000000000E+00 -0.45593999997E+02  0.45594000000E+02  0.51100000000E-03 0. -1.
    9900012    2    1    2    0    0 -0.79555864642E+01  0.14064319909E+02  0.94647482308E+01  0.72461603936E+02  0.70000043824E+02 0.  0.
         12    1    1    2    0    0  0.79555864642E+01 -0.14064319909E+02 -0.94647482308E+01  0.18726396064E+02  0.00000000000E+00 0. -1.
         11    1    3    3    0    0 -0.37266379645E+02  0.13837339068E+02  0.10177095334E+02  0.41034476651E+02  0.51100000000E-03 0. -1.
        -11    1    3    3    0    0  0.14259496362E+02  0.18315878658E+01  0.50398131538E+01  0.15234423766E+02  0.51100000000E-03 0.  1.
         12    1    3    3    0    0  0.15051296819E+02 -0.16046070249E+01 -0.57521602574E+01  0.16192703519E+02  0.00000000000E+00 0. -1.
</event>
<event>
 7    1  0.1375918E-013  0.7246163E+02  0.7816164E-02  0.1226708E+00
        -11   -1    0    0    0    0  0.00000000000E+00  0.00000000000E+00  0.45593999997E+02  0.45594000000E+02  0.51100000000E-03 0.  1.
         11   -1    0    0    0    0 -0.00000000000E+00 -0.00000000000E+00 -0.45593999997E+02  0.45594000000E+02  0.51100000000E-03 0. -1.
    9900012    2    1    2    0    0  0.11874309003E+02  0.11144645359E+02  0.92452463320E+01  0.72461630512E+02  0.70000078444E+02 0.  0.
         12    1    1    2    0    0 -0.11874309003E+02 -0.11144645359E+02 -0.92452463320E+01  0.18726369488E+02  0.00000000000E+00 0. -1.
         11    1    3    3    0    0  0.26192709134E+02 -0.82299676167E+01  0.74166622256E+01  0.28439361062E+02  0.51100000000E-03 0. -1.
        -11    1    3    3    0    0 -0.31502251792E+01  0.23438951102E+02  0.13611117542E+02  0.27286825914E+02  0.51100000000E-03 0.  1.
        -12    1    3    3    0    0 -0.11168174953E+02 -0.40643381265E+01 -0.11782533436E+02  0.16735443536E+02  0.00000000000E+00 0.  1.
</event>
<event>
 7    1  0.1375918E-013  0.7246159E+02  0.7816164E-02  0.1226708E+00
        -11   -1    0    0    0    0  0.00000000000E+00  0.00000000000E+00  0.45593999997E+02  0.45594000000E+02  0.51100000000E-03 0. -1.
         11   -1    0    0    0    0 -0.00000000000E+00 -0.00000000000E+00 -0.45593999997E+02  0.45594000000E+02  0.51100000000E-03 0.  1.
    9900012    2    1    2    0    0 -0.18718782456E+01  0.14378114263E+02 -0.11850926482E+02  0.72461586665E+02  0.70000021326E+02 0.  0.
         12    1    1    2    0    0  0.18718782456E+01 -0.14378114263E+02  0.11850926482E+02  0.18726413335E+02  0.00000000000E+00 0. -1.
         11    1    3    3    0    0 -0.55641025832E+01  0.15366039292E+02 -0.34656519717E+00  0.16346085427E+02  0.51100000000E-03 0. -1.
        -11    1    3    3    0    0  0.22983744431E+02 -0.88504059755E+01  0.96255738829E+01  0.26443030591E+02  0.51100000000E-03 0.  1.
        -12    1    3    3    0    0 -0.19291520093E+02  0.78624809460E+01 -0.21129935167E+02  0.29672470647E+02  0.00000000000E+00 0.  1.
</event>
<event>
 7    1  0.1375918E-013  0.7246159E+02  0.7816164E-02  0.1226708E+00
        -11   -1    0    0    0    0  0.00000000000E+00  0.00000000000E+00  0.45593999997E+02  0.45594000000E+02  0.51100000000E-03 0.  1.
         11   -1    0    0    0    0 -0.00000000000E+00 -0.00000000000E+00 -0.45593999997E+02  0.45594000000E+02  0.51100000000E-03 0. -1.
    9900012    2    1    2    0    0 -0.16721466297E+02 -0.83226929926E+01 -0.13430072519E+01  0.72461592916E+02  0.70000029469E+02 0.  0.
         12    1    1    2    0    0  0.16721466297E+02  0.83226929926E+01  0.13430072519E+01  0.18726407084E+02  0.00000000000E+00 0. -1.
         11    1    3    3    0    0 -0.28540521956E+02  0.27213777687E+01  0.14242013922E+02  0.32012532723E+02  0.51100000000E-03 0.  1.
        -11    1    3    3    0    0  0.11471597158E+02 -0.13128723419E+02  0.62433272112E+01  0.18518640741E+02  0.51100000000E-03 0. -1.
         12    1    3    3    0    0  0.34745850070E+00  0.20846526581E+01 -0.21828348386E+02  0.21930419452E+02  0.00000000000E+00 0. -1.
</event>
<event>
 7    1  0.1375918E-013  0.7246149E+02  0.7816164E-02  0.1226708E+00
        -11   -1    0    0    0    0  0.00000000000E+00  0.00000000000E+00  0.45593999997E+02  0.45594000000E+02  0.51100000000E-03 0.  1.
         11   -1    0    0    0    0 -0.00000000000E+00 -0.00000000000E+00 -0.45593999997E+02  0.45594000000E+02  0.51100000000E-03 0. -1.
    9900012    2    1    2    0    0  0.36319326014E+01  0.12199825659E+02  0.13735192194E+02  0.72461489777E+02  0.69999895111E+02 0.  0.
         12    1    1    2    0    0 -0.36319326014E+01 -0.12199825659E+02 -0.13735192194E+02  0.18726510223E+02  0.00000000000E+00 0. -1.
         11    1    3    3    0    0  0.16584948757E+02  0.13248937520E+02 -0.51933958021E+01  0.21853288789E+02  0.51100000000E-03 0. -1.
        -11    1    3    3    0    0 -0.22006884350E+02 -0.20823683394E+01 -0.69500513424E+01  0.23172018268E+02  0.51100000000E-03 0.  1.
        -12    1    3    3    0    0  0.90538681943E+01  0.10332564785E+01  0.25878639338E+02  0.27436182720E+02  0.00000000000E+00 0.  1.
</event>
<event>
 7    1  0.1375918E-013  0.7246157E+02  0.7816164E-02  0.1226708E+00
        -11   -1    0    0    0    0  0.00000000000E+00  0.00000000000E+00  0.45593999997E+02  0.45594000000E+02  0.51100000000E-03 0. -1.
         11   -1    0    0    0    0 -0.00000000000E+00 -0.00000000000E+00 -0.45593999997E+02  0.45594000000E+02  0.51100000000E-03 0.  1.
    9900012    2    1    2    0    0 -0.17734138943E+02  0.25414422565E+01 -0.54516540019E+01  0.72461570971E+02  0.70000000882E+02 0.  0.
         12    1    1    2    0    0  0.17734138943E+02 -0.25414422565E+01  0.54516540019E+01  0.18726429029E+02  0.00000000000E+00 0. -1.
         11    1    3    3    0    0  0.76428184594E+01  0.17670755583E+02  0.34691266355E+01  0.19562799308E+02  0.51100000000E-03 0. -1.
        -11    1    3    3    0    0 -0.29123303770E+02  0.65604684854E+01 -0.24353357233E+01  0.29952252496E+02  0.51100000000E-03 0.  1.
        -12    1    3    3    0    0  0.37463463671E+01 -0.21689781812E+02 -0.64854449141E+01  0.22946519167E+02  0.00000000000E+00 0.  1.
</event>
<event>
 7    1  0.1375918E-013  0.7246166E+02  0.7816164E-02  0.1226708E+00
        -11   -1    0    0    0    0  0.00000000000E+00  0.00000000000E+00  0.45593999997E+02  0.45594000000E+02  0.51100000000E-03 0. -1.
         11   -1    0    0    0    0 -0.00000000000E+00 -0.00000000000E+00 -0.45593999997E+02  0.45594000000E+02  0.51100000000E-03 0.  1.
    9900012    2    1    2    0    0 -0.49164765177E+01 -0.17379255550E+02  0.49462723839E+01  0.72461658251E+02  0.70000114579E+02 0.  0.
         12    1    1    2    0    0  0.49164765177E+01  0.17379255550E+02 -0.49462723839E+01  0.18726341749E+02  0.00000000000E+00 0. -1.
         11    1    3    3    0    0  0.10305784944E+02 -0.24624153670E+01  0.17053857361E+02  0.20077518370E+02  0.51100000000E-03 0. -1.
        -11    1    3    3    0    0 -0.16738768606E+02  0.12029161824E+02 -0.14631387875E+02  0.25277749505E+02  0.51100000000E-03 0.  1.
        -12    1    3    3    0    0  0.15165071436E+01 -0.26946002007E+02  0.25238028986E+01  0.27106390375E+02  0.00000000000E+00 0.  1.
</event>
<event>
 7    1  0.1375918E-013  0.7246166E+02  0.7816164E-02  0.1226708E+00
        -11   -1    0    0    0    0  0.00000000000E+00  0.00000000000E+00  0.45593999997E+02  0.45594000000E+02  0.51100000000E-03 0.  1.
         11   -1    0    0    0    0 -0.00000000000E+00 -0.00000000000E+00 -0.45593999997E+02  0.45594000000E+02  0.51100000000E-03 0. -1.
    9900012    2    1    2    0    0 -0.96332926873E+01  0.15911529067E+02 -0.21676726301E+01  0.72461657862E+02  0.70000114073E+02 0.  0.
         12    1    1    2    0    0  0.96332926873E+01 -0.15911529067E+02  0.21676726301E+01  0.18726342138E+02  0.00000000000E+00 0. -1.
         11    1    3    3    0    0  0.90822495363E+01  0.14873297400E+02 -0.18386839367E+02  0.25333339582E+02  0.51100000000E-03 0. -1.
        -11    1    3    3    0    0 -0.29776972646E+02  0.76669397610E+01  0.77811657091E+01  0.31717449539E+02  0.51100000000E-03 0.  1.
         12    1    3    3    0    0  0.11061430422E+02 -0.66287080947E+01  0.84380010281E+01  0.15410868740E+02  0.00000000000E+00 0. -1.
</event>
<event>
 7    1  0.1375918E-013  0.7246148E+02  0.7816164E-02  0.1226708E+00
        -11   -1    0    0    0    0  0.00000000000E+00  0.00000000000E+00  0.45593999997E+02  0.45594000000E+02  0.51100000000E-03 0.  1.
         11   -1    0    0    0    0 -0.00000000000E+00 -0.00000000000E+00 -0.45593999997E+02  0.45594000000E+02  0.51100000000E-03 0. -1.
    9900012    2    1    2    0    0  0.60901854559E+01 -0.14248709411E+02 -0.10515060104E+02  0.72461479561E+02  0.69999881803E+02 0.  0.
         12    1    1    2    0    0 -0.60901854559E+01  0.14248709411E+02  0.10515060104E+02  0.18726520439E+02  0.00000000000E+00 0. -1.
         11    1    3    3    0    0  0.24833352898E+02  0.11452393871E+02 -0.44775180616E+01  0.27711025059E+02  0.51100000000E-03 0. -1.
        -11    1    3    3    0    0 -0.65723085505E+01 -0.15640576224E+02  0.11997946395E+02  0.20779162212E+02  0.51100000000E-03 0.  1.
         12    1    3    3    0    0 -0.12170858892E+02 -0.10060527059E+02 -0.18035488438E+02  0.23971292290E+02  0.00000000000E+00 0. -1.
</event>
<event>
 7    1  0.1375918E-013  0.7246155E+02  0.7816164E-02  0.1226708E+00
        -11   -1    0    0    0    0  0.00000000000E+00  0.00000000000E+00  0.45593999997E+02  0.45594000000E+02  0.51100000000E-03 0.  1.
         11   -1    0    0    0    0 -0.00000000000E+00 -0.00000000000E+00 -0.45593999997E+02  0.45594000000E+02  0.51100000000E-03 0. -1.
    9900012    2    1    2    0    0 -0.57485547985E+01 -0.11398405705E+01  0.17785803491E+02  0.72461550133E+02  0.69999973736E+02 0.  0.
         12    1    1    2    0    0  0.57485547985E+01  0.11398405705E+01 -0.17785803491E+02  0.18726449867E+02  0.00000000000E+00 0. -1.
         11    1    3    3    0    0  0.89452128824E+01 -0.22184923318E+01 -0.33045802219E+00  0.92221334031E+01  0.51100000000E-03 0. -1.
        -11    1    3    3    0    0 -0.21266049836E+02 -0.21010735144E+02  0.25231820423E+02  0.39119568365E+02  0.51100000000E-03 0.  1.
        -12    1    3    3    0    0  0.65722821547E+01  0.22089386905E+02 -0.71155589099E+01  0.24119848365E+02  0.00000000000E+00 0.  1.
</event>
<event>
 7    1  0.1375918E-013  0.7246157E+02  0.7816164E-02  0.1226708E+00
        -11   -1    0    0    0    0  0.00000000000E+00  0.00000000000E+00  0.45593999997E+02  0.45594000000E+02  0.51100000000E-03 0. -1.
         11   -1    0    0    0    0 -0.00000000000E+00 -0.00000000000E+00 -0.45593999997E+02  0.45594000000E+02  0.51100000000E-03 0.  1.
    9900012    2    1    2    0    0 -0.24103303777E+01 -0.17178472124E+02 -0.70547573982E+01  0.72461569508E+02  0.69999998975E+02 0.  0.
         12    1    1    2    0    0  0.24103303777E+01  0.17178472124E+02  0.70547573982E+01  0.18726430492E+02  0.00000000000E+00 0. -1.
         11    1    3    3    0    0 -0.80579898487E+01  0.24830291855E+01 -0.82598396849E+00  0.84722419769E+01  0.51100000000E-03 0. -1.
        -11    1    3    3    0    0  0.99963925271E+01 -0.40842811590E+02 -0.34779660296E+01  0.42191934894E+02  0.51100000000E-03 0.  1.
        -12    1    3    3    0    0 -0.43487330561E+01  0.21181310281E+02 -0.27508074000E+01  0.21797392637E+02  0.00000000000E+00 0.  1.
</event>
<event>
 7    1  0.1375918E-013  0.7246160E+02  0.7816164E-02  0.1226708E+00
        -11   -1    0    0    0    0  0.00000000000E+00  0.00000000000E+00  0.45593999997E+02  0.45594000000E+02  0.51100000000E-03 0.  1.
         11   -1    0    0    0    0 -0.00000000000E+00 -0.00000000000E+00 -0.45593999997E+02  0.45594000000E+02  0.51100000000E-03 0. -1.
    9900012    2    1    2    0    0 -0.24567940256E+01  0.49287740553E+00  0.18557998598E+02  0.72461599465E+02  0.70000038001E+02 0.  0.
         12    1    1    2    0    0  0.24567940256E+01 -0.49287740553E+00 -0.18557998598E+02  0.18726400535E+02  0.00000000000E+00 0. -1.
         11    1    3    3    0    0 -0.26204573389E+02 -0.64202718324E+01  0.22817672370E+02  0.35334766585E+02  0.51100000000E-03 0. -1.
        -11    1    3    3    0    0  0.28046897375E+02  0.52640940235E+01 -0.95696744200E+01  0.30098468516E+02  0.51100000000E-03 0.  1.
        -12    1    3    3    0    0 -0.42991180107E+01  0.16490552144E+01  0.53100006476E+01  0.70283643650E+01  0.00000000000E+00 0.  1.
</event>
<event>
 7    1  0.1375918E-013  0.7246159E+02  0.7816164E-02  0.1226708E+00
        -11   -1    0    0    0    0  0.00000000000E+00  0.00000000000E+00  0.45593999997E+02  0.45594000000E+02  0.51100000000E-03 0.  1.
         11   -1    0    0    0    0 -0.00000000000E+00 -0.00000000000E+00 -0.45593999997E+02  0.45594000000E+02  0.51100000000E-03 0. -1.
    9900012    2    1    2    0    0 -0.13230792884E+02  0.93480034029E+01 -0.93935888149E+01  0.72461586601E+02  0.70000021243E+02 0.  0.
         12    1    1    2    0    0  0.13230792884E+02 -0.93480034029E+01  0.93935888149E+01  0.18726413399E+02  0.00000000000E+00 0. -1.
         11    1    3    3    0    0 -0.38817310322E+02 -0.36288412888E+01 -0.15390737839E+02  0.41914518740E+02  0.51100000000E-03 0. -1.
        -11    1    3    3    0    0  0.12553012697E+02  0.10766875483E+02  0.15988933895E+01  0.16615059307E+02  0.51100000000E-03 0.  1.
         12    1    3    3    0    0  0.13033504741E+02  0.22099692089E+01  0.43982556343E+01  0.13932008554E+02  0.00000000000E+00 0. -1.
</event>
<event>
 7    1  0.1375918E-013  0.7246151E+02  0.7816164E-02  0.1226708E+00
        -11   -1    0    0    0    0  0.00000000000E+00  0.00000000000E+00  0.45593999997E+02  0.45594000000E+02  0.51100000000E-03 0.  1.
         11   -1    0    0    0    0 -0.00000000000E+00 -0.00000000000E+00 -0.45593999997E+02  0.45594000000E+02  0.51100000000E-03 0. -1.
    9900012    2    1    2    0    0  0.47769560062E+01 -0.16478415981E+02 -0.75049222297E+01  0.72461511819E+02  0.69999923825E+02 0.  0.
         12    1    1    2    0    0 -0.47769560062E+01  0.16478415981E+02  0.75049222297E+01  0.18726488181E+02  0.00000000000E+00 0. -1.
         11    1    3    3    0    0 -0.24507189383E+02 -0.23085896803E+02 -0.23532854409E+01  0.33750539481E+02  0.51100000000E-03 0.  1.
        -11    1    3    3    0    0  0.24693443548E+02 -0.55066341411E+01 -0.48007928035E+01  0.25751442399E+02  0.51100000000E-03 0. -1.
         12    1    3    3    0    0  0.45907018413E+01  0.12114114963E+02 -0.35084398531E+00  0.12959529939E+02  0.00000000000E+00 0. -1.
</event>
<event>
 7    1  0.1375918E-013  0.7246157E+02  0.7816164E-02  0.1226708E+00
        -11   -1    0    0    0    0  0.00000000000E+00  0.00000000000E+00  0.45593999997E+02  0.45594000000E+02  0.51100000000E-03 0.  1.
         11   -1    0    0    0    0 -0.00000000000E+00 -0.00000000000E+00 -0.45593999997E+02  0.45594000000E+02  0.51100000000E-03 0. -1.
    9900012    2    1    2    0    0  0.16995656758E+01  0.15722310347E+02  0.10029942797E+02  0.72461566313E+02  0.69999994813E+02 0.  0.
         12    1    1    2    0    0 -0.16995656758E+01 -0.15722310347E+02 -0.10029942797E+02  0.18726433687E+02  0.00000000000E+00 0. -1.
         11    1    3    3    0    0  0.18959086632E+02  0.10161944478E+02 -0.34621024859E+01  0.21787570663E+02  0.51100000000E-03 0. -1.
        -11    1    3    3    0    0 -0.27156265087E+02  0.67815585009E+01 -0.61389566339E+01  0.28655524039E+02  0.51100000000E-03 0.  1.
        -12    1    3    3    0    0  0.98967441303E+01 -0.12211926321E+01  0.19631001917E+02  0.22018471611E+02  0.00000000000E+00 0.  1.
</event>
<event>
 7    1  0.1375918E-013  0.7246144E+02  0.7816164E-02  0.1226708E+00
        -11   -1    0    0    0    0  0.00000000000E+00  0.00000000000E+00  0.45593999997E+02  0.45594000000E+02  0.51100000000E-03 0.  1.
         11   -1    0    0    0    0 -0.00000000000E+00 -0.00000000000E+00 -0.45593999997E+02  0.45594000000E+02  0.51100000000E-03 0. -1.
    9900012    2    1    2    0    0 -0.18207843722E+01  0.97706126458E+01  0.15871483787E+02  0.72461437988E+02  0.69999827646E+02 0.  0.
         12    1    1    2    0    0  0.18207843722E+01 -0.97706126458E+01 -0.15871483787E+02  0.18726562012E+02  0.00000000000E+00 0. -1.
         11    1    3    3    0    0  0.21470750340E+02  0.11292690282E+02  0.32657747977E+01  0.24478220100E+02  0.51100000000E-03 0. -1.
        -11    1    3    3    0    0 -0.11013131012E+02 -0.57275375211E+01  0.26320521009E+02  0.29100920384E+02  0.51100000000E-03 0.  1.
        -12    1    3    3    0    0 -0.12278403700E+02  0.42054598845E+01 -0.13714812020E+02  0.18882297504E+02  0.00000000000E+00 0.  1.
</event>
<event>
 7    1  0.1375918E-013  0.7246155E+02  0.7816164E-02  0.1226708E+00
        -11   -1    0    0    0    0  0.00000000000E+00  0.00000000000E+00  0.45593999997E+02  0.45594000000E+02  0.51100000000E-03 0.  1.
         11   -1    0    0    0    0 -0.00000000000E+00 -0.00000000000E+00 -0.45593999997E+02  0.45594000000E+02  0.51100000000E-03 0. -1.
    9900012    2    1    2    0    0  0.16411769264E+02 -0.87345458887E+01 -0.22453393784E+01  0.72461547822E+02  0.69999970725E+02 0.  0.
         12    1    1    2    0    0 -0.16411769264E+02  0.87345458887E+01  0.22453393784E+01  0.18726452178E+02  0.00000000000E+00 0. -1.
         11    1    3    3    0    0  0.31213236468E+01 -0.97579311582E+01  0.26492234875E+02  0.28404196710E+02  0.51100000000E-03 0.  1.
        -11    1    3    3    0    0  0.22762192064E+02  0.24695409623E+01 -0.24642812808E+02  0.33637542173E+02  0.51100000000E-03 0. -1.
        -12    1    3    3    0    0 -0.94717464464E+01 -0.14461556928E+01 -0.40947614455E+01  0.10419808939E+02  0.00000000000E+00 0.  1.
</event>
<event>
 7    1  0.1375918E-013  0.7246158E+02  0.7816164E-02  0.1226708E+00
        -11   -1    0    0    0    0  0.00000000000E+00  0.00000000000E+00  0.45593999997E+02  0.45594000000E+02  0.51100000000E-03 0.  1.
         11   -1    0    0    0    0 -0.00000000000E+00 -0.00000000000E+00 -0.45593999997E+02  0.45594000000E+02  0.51100000000E-03 0. -1.
    9900012    2    1    2    0    0  0.22674308152E+00  0.45153098879E+01  0.18172488044E+02  0.72461581295E+02  0.70000014330E+02 0.  0.
         12    1    1    2    0    0 -0.22674308152E+00 -0.45153098879E+01 -0.18172488044E+02  0.18726418705E+02  0.00000000000E+00 0. -1.
         11    1    3    3    0    0  0.15789003869E+02 -0.25940273581E+01 -0.34983191786E+01  0.16378640311E+02  0.51100000000E-03 0. -1.
        -11    1    3    3    0    0 -0.52401925003E+01  0.96853741547E+01  0.36334456496E+02  0.37966548686E+02  0.51100000000E-03 0.  1.
        -12    1    3    3    0    0 -0.10322068287E+02 -0.25760369087E+01 -0.14663649273E+02  0.18116392298E+02  0.00000000000E+00 0.  1.
</event>
<event>
 7    1  0.1375918E-013  0.7246154E+02  0.7816164E-02  0.1226708E+00
        -11   -1    0    0    0    0  0.00000000000E+00  0.00000000000E+00  0.45593999997E+02  0.45594000000E+02  0.51100000000E-03 0. -1.
         11   -1    0    0    0    0 -0.00000000000E+00 -0.00000000000E+00 -0.45593999997E+02  0.45594000000E+02  0.51100000000E-03 0.  1.
    9900012    2    1    2    0    0 -0.17822224275E+02 -0.54806879990E+01 -0.17351810133E+01  0.72461535513E+02  0.69999954691E+02 0.  0.
         12    1    1    2    0    0  0.17822224275E+02  0.54806879990E+01  0.17351810133E+01  0.18726464487E+02  0.00000000000E+00 0. -1.
         11    1    3    3    0    0 -0.19473087144E+01  0.10843802409E+02  0.42420746024E+00  0.11025425804E+02  0.51100000000E-03 0. -1.
        -11    1    3    3    0    0 -0.30104911934E+02  0.32573198187E+01 -0.15264031735E+02  0.33910271601E+02  0.51100000000E-03 0.  1.
        -12    1    3    3    0    0  0.14229996374E+02 -0.19581810227E+02  0.13104643261E+02  0.27525838109E+02  0.00000000000E+00 0.  1.
</event>
<event>
 7    1  0.1375918E-013  0.7246177E+02  0.7816164E-02  0.1226707E+00
        -11   -1    0    0    0    0  0.00000000000E+00  0.00000000000E+00  0.45593999997E+02  0.45594000000E+02  0.51100000000E-03 0.  1.
         11   -1    0    0    0    0 -0.00000000000E+00 -0.00000000000E+00 -0.45593999997E+02  0.45594000000E+02  0.51100000000E-03 0. -1.
    9900012    2    1    2    0    0 -0.80923746199E+01 -0.59381610227E+01 -0.15808966649E+02  0.72461769471E+02  0.70000259464E+02 0.  0.
         12    1    1    2    0    0  0.80923746199E+01  0.59381610227E+01  0.15808966649E+02  0.18726230529E+02  0.00000000000E+00 0. -1.
         11    1    3    3    0    0 -0.24421542486E+02 -0.52088833238E+01 -0.34825684457E+02  0.42852917065E+02  0.51100000000E-03 0. -1.
        -11    1    3    3    0    0  0.14244681652E+02  0.36556682144E+01  0.63038749336E+01  0.16000428273E+02  0.51100000000E-03 0.  1.
         12    1    3    3    0    0  0.20844862141E+01 -0.43849459133E+01  0.12712842874E+02  0.13608424133E+02  0.00000000000E+00 0. -1.
</event>
<event>
 7    1  0.1375918E-013  0.7246127E+02  0.7816164E-02  0.1226709E+00
        -11   -1    0    0    0    0  0.00000000000E+00  0.00000000000E+00  0.45593999997E+02  0.45594000000E+02  0.51100000000E-03 0.  1.
         11   -1    0    0    0    0 -0.00000000000E+00 -0.00000000000E+00 -0.45593999997E+02  0.45594000000E+02  0.51100000000E-03 0. -1.
    9900012    2    1    2    0    0 -0.94729978652E+01 -0.14431213551E+02 -0.72589802195E+01  0.72461270255E+02  0.69999609142E+02 0.  0.
         12    1    1    2    0    0  0.94729978652E+01  0.14431213551E+02  0.72589802195E+01  0.18726729745E+02  0.00000000000E+00 0. -1.
         11    1    3    3    0    0 -0.25281784285E+01  0.91299271470E+01 -0.27033568451E+02  0.28645437321E+02  0.51100000000E-03 0. -1.
        -11    1    3    3    0    0 -0.51575315058E+01 -0.30670331411E+02  0.12592926219E+02  0.33553705475E+02  0.51100000000E-03 0.  1.
        -12    1    3    3    0    0 -0.17872879309E+01  0.71091907127E+01  0.71816620117E+01  0.10262127459E+02  0.00000000000E+00 0.  1.
</event>
<event>
 7    1  0.1375918E-013  0.7246149E+02  0.7816164E-02  0.1226708E+00
        -11   -1    0    0    0    0  0.00000000000E+00  0.00000000000E+00  0.45593999997E+02  0.45594000000E+02  0.51100000000E-03 0. -1.
         11   -1    0    0    0    0 -0.00000000000E+00 -0.00000000000E+00 -0.45593999997E+02  0.45594000000E+02  0.51100000000E-03 0.  1.
    9900012    2    1    2    0    0  0.16110139005E+02  0.91687188896E+01 -0.26608313776E+01  0.72461494495E+02  0.69999901257E+02 0.  0.
         12    1    1    2    0    0 -0.16110139005E+02 -0.91687188896E+01  0.26608313776E+01  0.18726505505E+02  0.00000000000E+00 0. -1.
         11    1    3    3    0    0  0.20850701289E+02  0.33788403287E+01  0.21732529794E+02  0.30306289079E+02  0.51100000000E-03 0. -1.
        -11    1    3    3    0    0  0.56463653962E+01 -0.43906974210E+01 -0.26509888462E+02  0.27457855936E+02  0.51100000000E-03 0.  1.
         12    1    3    3    0    0 -0.10386927681E+02  0.10180575982E+02  0.21165272907E+01  0.14697349480E+02  0.00000000000E+00 0. -1.
</event>
<event>
 7    1  0.1375918E-013  0.7246161E+02  0.7816164E-02  0.1226708E+00
        -11   -1    0    0    0    0  0.00000000000E+00  0.00000000000E+00  0.45593999997E+02  0.45594000000E+02  0.51100000000E-03 0. -1.
         11   -1    0    0    0    0 -0.00000000000E+00 -0.00000000000E+00 -0.45593999997E+02  0.45594000000E+02  0.51100000000E-03 0.  1.
    9900012    2    1    2    0    0  0.44407167942E+01 -0.16607940287E+02 -0.74252252091E+01  0.72461611783E+02  0.70000054047E+02 0.  0.
         12    1    1    2    0    0 -0.44407167942E+01  0.16607940287E+02  0.74252252091E+01  0.18726388217E+02  0.00000000000E+00 0. -1.
         11    1    3    3    0    0 -0.15771587765E+01  0.98506140403E+01  0.79534976106E+01  0.12758532489E+02  0.51100000000E-03 0. -1.
        -11    1    3    3    0    0 -0.32154440838E-01 -0.29686417373E+02 -0.30829574679E+02  0.42798914536E+02  0.51100000000E-03 0.  1.
        -12    1    3    3    0    0  0.60500300115E+01  0.32278630455E+01  0.15450851859E+02  0.16904164758E+02  0.00000000000E+00 0.  1.
</event>
<event>
 7    1  0.1375918E-013  0.7246157E+02  0.7816164E-02  0.1226708E+00
        -11   -1    0    0    0    0  0.00000000000E+00  0.00000000000E+00  0.45593999997E+02  0.45594000000E+02  0.51100000000E-03 0.  1.
         11   -1    0    0    0    0 -0.00000000000E+00 -0.00000000000E+00 -0.45593999997E+02  0.45594000000E+02  0.51100000000E-03 0. -1.
    9900012    2    1    2    0    0  0.15483532779E+00  0.49495324204E+01  0.18059830017E+02  0.72461566666E+02  0.69999995274E+02 0.  0.
         12    1    1    2    0    0 -0.15483532779E+00 -0.49495324204E+01 -0.18059830017E+02  0.18726433334E+02  0.00000000000E+00 0. -1.
         11    1    3    3    0    0 -0.15502944466E+02  0.29077240893E+02  0.16526477817E+02  0.36863962000E+02  0.51100000000E-03 0. -1.
        -11    1    3    3    0    0  0.10661717444E+02  0.19997166621E+00  0.14526552672E+01  0.10762082285E+02  0.51100000000E-03 0.  1.
         12    1    3    3    0    0  0.49960623498E+01 -0.24327680139E+02  0.80696932718E-01  0.24835522381E+02  0.00000000000E+00 0. -1.
</event>
<event>
 7    1  0.1375918E-013  0.7246160E+02  0.7816164E-02  0.1226708E+00
        -11   -1    0    0    0    0  0.00000000000E+00  0.00000000000E+00  0.45593999997E+02  0.45594000000E+02  0.51100000000E-03 0. -1.
         11   -1    0    0    0    0 -0.00000000000E+00 -0.00000000000E+00 -0.45593999997E+02  0.45594000000E+02  0.51100000000E-03 0.  1.
    9900012    2    1    2    0    0 -0.17396938099E+02 -0.14722604576E+01 -0.67717970218E+01  0.72461595087E+02  0.70000032297E+02 0.  0.
         12    1    1    2    0    0  0.17396938099E+02  0.14722604576E+01  0.67717970218E+01  0.18726404913E+02  0.00000000000E+00 0. -1.
         11    1    3    3    0    0  0.10020758529E+02  0.22987581024E+02 -0.15012250671E+02  0.29226908036E+02  0.51100000000E-03 0.  1.
        -11    1    3    3    0    0 -0.22065445935E+02 -0.21035394473E+02  0.14984202275E+02  0.33969074804E+02  0.51100000000E-03 0. -1.
        -12    1    3    3    0    0 -0.53522506922E+01 -0.34244470087E+01 -0.67437486258E+01  0.92656122472E+01  0.00000000000E+00 0.  1.
</event>
<event>
 7    1  0.1375918E-013  0.7246157E+02  0.7816164E-02  0.1226708E+00
        -11   -1    0    0    0    0  0.00000000000E+00  0.00000000000E+00  0.45593999997E+02  0.45594000000E+02  0.51100000000E-03 0.  1.
         11   -1    0    0    0    0 -0.00000000000E+00 -0.00000000000E+00 -0.45593999997E+02  0.45594000000E+02  0.51100000000E-03 0. -1.
    9900012    2    1    2    0    0  0.13662546095E+02 -0.29094008435E+01  0.12471943749E+02  0.72461570550E+02  0.70000000333E+02 0.  0.
         12    1    1    2    0    0 -0.13662546095E+02  0.29094008435E+01 -0.12471943749E+02  0.18726429450E+02  0.00000000000E+00 0. -1.
         11    1    3    3    0    0  0.10164980288E+02  0.62741035016E+01 -0.13379651966E+02  0.17936172557E+02  0.51100000000E-03 0. -1.
        -11    1    3    3    0    0 -0.11664925755E+02 -0.13835810670E+02  0.32602386231E+02  0.37288278828E+02  0.51100000000E-03 0.  1.
        -12    1    3    3    0    0  0.15162491562E+02  0.46523063249E+01 -0.67507905161E+01  0.17237119165E+02  0.00000000000E+00 0.  1.
</event>
<event>
 7    1  0.1375918E-013  0.7246160E+02  0.7816164E-02  0.1226708E+00
        -11   -1    0    0    0    0  0.00000000000E+00  0.00000000000E+00  0.45593999997E+02  0.45594000000E+02  0.51100000000E-03 0. -1.
         11   -1    0    0    0    0 -0.00000000000E+00 -0.00000000000E+00 -0.45593999997E+02  0.45594000000E+02  0.51100000000E-03 0.  1.
    9900012    2    1    2    0    0  0.15290347429E+02 -0.53359364576E+01 -0.94027201761E+01  0.72461599142E+02  0.70000037580E+02 0.  0.
         12    1    1    2    0    0 -0.15290347429E+02  0.53359364576E+01  0.94027201761E+01  0.18726400858E+02  0.00000000000E+00 0. -1.
         11    1    3    3    0    0  0.24234748741E+02  0.18190734504E+02  0.42755635455E+01  0.30602390629E+02  0.51100000000E-03 0. -1.
        -11    1    3    3    0    0 -0.54851902941E+01 -0.26104733258E+02 -0.20599919460E+02  0.33703131799E+02  0.51100000000E-03 0.  1.
        -12    1    3    3    0    0 -0.34592110175E+01  0.25780622966E+01  0.69216357386E+01  0.81560767141E+01  0.00000000000E+00 0.  1.
</event>
<event>
 7    1  0.1375918E-013  0.7246156E+02  0.7816164E-02  0.1226708E+00
        -11   -1    0    0    0    0  0.00000000000E+00  0.00000000000E+00  0.45593999997E+02  0.45594000000E+02  0.51100000000E-03 0.  1.
         11   -1    0    0    0    0 -0.00000000000E+00 -0.00000000000E+00 -0.45593999997E+02  0.45594000000E+02  0.51100000000E-03 0. -1.
    9900012    2    1    2    0    0  0.14143751213E+02 -0.11723812165E+02  0.36312481117E+01  0.72461563262E+02  0.69999990839E+02 0.  0.
         12    1    1    2    0    0 -0.14143751213E+02  0.11723812165E+02 -0.36312481117E+01  0.18726436738E+02  0.00000000000E+00 0. -1.
         11    1    3    3    0    0 -0.20592095068E+02  0.12728473958E+02 -0.11679714126E+02  0.26878693252E+02  0.51100000000E-03 0.  1.
        -11    1    3    3    0    0  0.29649838235E+02 -0.23271194273E+02  0.12970332918E+02  0.39860894703E+02  0.51100000000E-03 0. -1.
        -12    1    3    3    0    0  0.50860080465E+01 -0.11810918498E+01  0.23406293199E+01  0.57219753075E+01  0.00000000000E+00 0.  1.
</event>
<event>
 7    1  0.1375918E-013  0.7246161E+02  0.7816164E-02  0.1226708E+00
        -11   -1    0    0    0    0  0.00000000000E+00  0.00000000000E+00  0.45593999997E+02  0.45594000000E+02  0.51100000000E-03 0.  1.
         11   -1    0    0    0    0 -0.00000000000E+00 -0.00000000000E+00 -0.45593999997E+02  0.45594000000E+02  0.51100000000E-03 0. -1.
    9900012    2    1    2    0    0 -0.79749398502E+01  0.14005946478E+02  0.95347470607E+01  0.72461612097E+02  0.70000054456E+02 0.  0.
         12    1    1    2    0    0  0.79749398502E+01 -0.14005946478E+02 -0.95347470607E+01  0.18726387903E+02  0.00000000000E+00 0. -1.
         11    1    3    3    0    0 -0.39850266143E+01  0.50032348769E+00 -0.11669215648E+02  0.12341043506E+02  0.51100000000E-03 0. -1.
        -11    1    3    3    0    0  0.23249204193E+02 -0.31816356463E+01  0.14165769696E+02  0.27410168411E+02  0.51100000000E-03 0.  1.
        -12    1    3    3    0    0 -0.27239117429E+02  0.16687258637E+02  0.70381930127E+01  0.32710400181E+02  0.00000000000E+00 0.  1.
</event>
<event>
 7    1  0.1375918E-013  0.7246157E+02  0.7816164E-02  0.1226708E+00
        -11   -1    0    0    0    0  0.00000000000E+00  0.00000000000E+00  0.45593999997E+02  0.45594000000E+02  0.51100000000E-03 0. -1.
         11   -1    0    0    0    0 -0.00000000000E+00 -0.00000000000E+00 -0.45593999997E+02  0.45594000000E+02  0.51100000000E-03 0.  1.
    9900012    2    1    2    0    0 -0.17911011704E+02  0.49207403426E+01  0.23793037749E+01  0.72461571824E+02  0.70000001993E+02 0.  0.
         12    1    1    2    0    0  0.17911011704E+02 -0.49207403426E+01 -0.23793037749E+01  0.18726428176E+02  0.00000000000E+00 0. -1.
         11    1    3    3    0    0 -0.18728681813E+01 -0.15093441509E+02  0.69984523121E+01  0.16742101028E+02  0.51100000000E-03 0. -1.
        -11    1    3    3    0    0 -0.29010008285E+02  0.24914016097E+02  0.53901453419E+01  0.38617903178E+02  0.51100000000E-03 0.  1.
        -12    1    3    3    0    0  0.12971864763E+02 -0.48998342447E+01 -0.10009293879E+02  0.17101567618E+02  0.00000000000E+00 0.  1.
</event>
<event>
 7    1  0.1375918E-013  0.7246162E+02  0.7816164E-02  0.1226708E+00
        -11   -1    0    0    0    0  0.00000000000E+00  0.00000000000E+00  0.45593999997E+02  0.45594000000E+02  0.51100000000E-03 0. -1.
         11   -1    0    0    0    0 -0.00000000000E+00 -0.00000000000E+00 -0.45593999997E+02  0.45594000000E+02  0.51100000000E-03 0.  1.
    9900012    2    1    2    0    0 -0.72881972981E+01  0.23304968831E+01 -0.17091765271E+02  0.72461615521E+02  0.70000058916E+02 0.  0.
         12    1    1    2    0    0  0.72881972981E+01 -0.23304968831E+01  0.17091765271E+02  0.18726384479E+02  0.00000000000E+00 0. -1.
         11    1    3    3    0    0 -0.11103178575E+02  0.22476711010E+02 -0.17951229855E+02  0.30833906108E+02  0.51100000000E-03 0. -1.
        -11    1    3    3    0    0 -0.21554844933E+01 -0.29265562585E+02 -0.41408298108E+01  0.29635548563E+02  0.51100000000E-03 0.  1.
        -12    1    3    3    0    0  0.59704657705E+01  0.91193484584E+01  0.50002943947E+01  0.11992160850E+02  0.00000000000E+00 0.  1.
</event>
<event>
 7    1  0.1375918E-013  0.7246160E+02  0.7816164E-02  0.1226708E+00
        -11   -1    0    0    0    0  0.00000000000E+00  0.00000000000E+00  0.45593999997E+02  0.45594000000E+02  0.51100000000E-03 0.  1.
         11   -1    0    0    0    0 -0.00000000000E+00 -0.00000000000E+00 -0.45593999997E+02  0.45594000000E+02  0.51100000000E-03 0. -1.
    9900012    2    1    2    0    0 -0.16632400553E+01 -0.94633602475E+01  0.16073470102E+02  0.72461601634E+02  0.70000040826E+02 0.  0.
         12    1    1    2    0    0  0.16632400553E+01  0.94633602475E+01 -0.16073470102E+02  0.18726398366E+02  0.00000000000E+00 0. -1.
         11    1    3    3    0    0 -0.16866753750E+02  0.22528199307E+02  0.37436152133E+01  0.28390523088E+02  0.51100000000E-03 0. -1.
        -11    1    3    3    0    0  0.80864735153E+01 -0.31310830868E+02  0.32307882267E+01  0.32499187319E+02  0.51100000000E-03 0.  1.
        -12    1    3    3    0    0  0.71170401793E+01 -0.68072868642E+00  0.90990666617E+01  0.11571891227E+02  0.00000000000E+00 0.  1.
</event>
<event>
 7    1  0.1375918E-013  0.7246159E+02  0.7816164E-02  0.1226708E+00
        -11   -1    0    0    0    0  0.00000000000E+00  0.00000000000E+00  0.45593999997E+02  0.45594000000E+02  0.51100000000E-03 0.  1.
         11   -1    0    0    0    0 -0.00000000000E+00 -0.00000000000E+00 -0.45593999997E+02  0.45594000000E+02  0.51100000000E-03 0. -1.
    9900012    2    1    2    0    0 -0.17446990297E+02  0.27167706593E+01  0.62369847194E+01  0.72461593734E+02  0.70000030535E+02 0.  0.
         12    1    1    2    0    0  0.17446990297E+02 -0.27167706593E+01 -0.62369847194E+01  0.18726406266E+02  0.00000000000E+00 0. -1.
         11    1    3    3    0    0  0.20018556077E+02  0.10451997987E+02 -0.12458746275E+02  0.25791611201E+02  0.51100000000E-03 0. -1.
        -11    1    3    3    0    0 -0.26817314835E+02 -0.12042306401E+02  0.19302280824E+02  0.35167649391E+02  0.51100000000E-03 0.  1.
         12    1    3    3    0    0 -0.10648231538E+02  0.43070790732E+01 -0.60654982953E+00  0.11502333143E+02  0.00000000000E+00 0. -1.
</event>
<event>
 7    1  0.1375918E-013  0.7246160E+02  0.7816164E-02  0.1226708E+00
        -11   -1    0    0    0    0  0.00000000000E+00  0.00000000000E+00  0.45593999997E+02  0.45594000000E+02  0.51100000000E-03 0.  1.
         11   -1    0    0    0    0 -0.00000000000E+00 -0.00000000000E+00 -0.45593999997E+02  0.45594000000E+02  0.51100000000E-03 0. -1.
    9900012    2    1    2    0    0  0.15207650224E+02  0.36287995575E+01 -0.10307147931E+02  0.72461598582E+02  0.70000036851E+02 0.  0.
         12    1    1    2    0    0 -0.15207650224E+02 -0.36287995575E+01  0.10307147931E+02  0.18726401418E+02  0.00000000000E+00 0. -1.
         11    1    3    3    0    0  0.26391162537E+02 -0.15081695336E+02 -0.25913925334E+02  0.39943491594E+02  0.51100000000E-03 0. -1.
        -11    1    3    3    0    0 -0.13493279348E+02  0.50389565363E+01  0.10136549133E+02  0.17612759554E+02  0.51100000000E-03 0.  1.
         12    1    3    3    0    0  0.23097670348E+01  0.13671538357E+02  0.54702282699E+01  0.14905347434E+02  0.00000000000E+00 0. -1.
</event>
<event>
 7    1  0.1375918E-013  0.7246156E+02  0.7816164E-02  0.1226708E+00
        -11   -1    0    0    0    0  0.00000000000E+00  0.00000000000E+00  0.45593999997E+02  0.45594000000E+02  0.51100000000E-03 0.  1.
         11   -1    0    0    0    0 -0.00000000000E+00 -0.00000000000E+00 -0.45593999997E+02  0.45594000000E+02  0.51100000000E-03 0. -1.
    9900012    2    1    2    0    0  0.19792427280E+01 -0.16854306305E+02  0.79179834875E+01  0.72461561328E+02  0.69999988320E+02 0.  0.
         12    1    1    2    0    0 -0.19792427280E+01  0.16854306305E+02 -0.79179834875E+01  0.18726438672E+02  0.00000000000E+00 0. -1.
         11    1    3    3    0    0  0.60459526219E+01 -0.44610293234E+01 -0.39966431319E+01  0.85104337325E+01  0.51100000000E-03 0. -1.
        -11    1    3    3    0    0 -0.11435143185E+02  0.23520459634E+02  0.56876499787E+01  0.26764227685E+02  0.51100000000E-03 0.  1.
        -12    1    3    3    0    0  0.73684332906E+01 -0.35913736616E+02  0.62269766408E+01  0.37186899911E+02  0.00000000000E+00 0.  1.
</event>
<event>
 7    1  0.1375918E-013  0.7246175E+02  0.7816164E-02  0.1226708E+00
        -11   -1    0    0    0    0  0.00000000000E+00  0.00000000000E+00  0.45593999997E+02  0.45594000000E+02  0.51100000000E-03 0. -1.
         11   -1    0    0    0    0 -0.00000000000E+00 -0.00000000000E+00 -0.45593999997E+02  0.45594000000E+02  0.51100000000E-03 0.  1.
    9900012    2    1    2    0    0 -0.21635860421E+01  0.91937403287E+01 -0.16169919622E+02  0.72461754611E+02  0.70000240106E+02 0.  0.
         12    1    1    2    0    0  0.21635860421E+01 -0.91937403287E+01  0.16169919622E+02  0.18726245389E+02  0.00000000000E+00 0. -1.
         11    1    3    3    0    0 -0.48955479805E+01  0.16325899782E+02  0.18794318683E+02  0.25371791595E+02  0.51100000000E-03 0. -1.
        -11    1    3    3    0    0  0.10942289482E+02  0.38841580872E+01 -0.30513032303E+02  0.32647595987E+02  0.51100000000E-03 0.  1.
        -12    1    3    3    0    0 -0.82103275435E+01 -0.11016317540E+02 -0.44512060020E+01  0.14442367029E+02  0.00000000000E+00 0.  1.
</event>
<event>
 7    1  0.1375918E-013  0.7246161E+02  0.7816164E-02  0.1226708E+00
        -11   -1    0    0    0    0  0.00000000000E+00  0.00000000000E+00  0.45593999997E+02  0.45594000000E+02  0.51100000000E-03 0. -1.
         11   -1    0    0    0    0 -0.00000000000E+00 -0.00000000000E+00 -0.45593999997E+02  0.45594000000E+02  0.51100000000E-03 0.  1.
    9900012    2    1    2    0    0  0.81916636082E+01 -0.48629783287E+01 -0.16122213826E+02  0.72461609810E+02  0.70000051477E+02 0.  0.
         12    1    1    2    0    0 -0.81916636082E+01  0.48629783287E+01  0.16122213826E+02  0.18726390190E+02  0.00000000000E+00 0. -1.
         11    1    3    3    0    0  0.35346870322E+02 -0.75812877048E+01 -0.20964390940E+02  0.41789745782E+02  0.51100000000E-03 0. -1.
        -11    1    3    3    0    0 -0.13544059076E+02 -0.11774499920E+01 -0.37602389433E+01  0.14105577688E+02  0.51100000000E-03 0.  1.
         12    1    3    3    0    0 -0.13611147638E+02  0.38957593681E+01  0.86024160570E+01  0.16566286340E+02  0.00000000000E+00 0. -1.
</event>
<event>
 7    1  0.1375918E-013  0.7246161E+02  0.7816164E-02  0.1226708E+00
        -11   -1    0    0    0    0  0.00000000000E+00  0.00000000000E+00  0.45593999997E+02  0.45594000000E+02  0.51100000000E-03 0. -1.
         11   -1    0    0    0    0 -0.00000000000E+00 -0.00000000000E+00 -0.45593999997E+02  0.45594000000E+02  0.51100000000E-03 0.  1.
    9900012    2    1    2    0    0 -0.13805651819E+02  0.17306260006E+01 -0.12533424074E+02  0.72461606660E+02  0.70000047373E+02 0.  0.
         12    1    1    2    0    0  0.13805651819E+02 -0.17306260006E+01  0.12533424074E+02  0.18726393340E+02  0.00000000000E+00 0. -1.
         11    1    3    3    0    0 -0.18971565696E+02  0.21847356267E+02  0.32857863077E+01  0.29120846017E+02  0.51100000000E-03 0. -1.
        -11    1    3    3    0    0  0.48017203223E+01 -0.21519163627E+02 -0.25409378485E+02  0.33641751389E+02  0.51100000000E-03 0.  1.
         12    1    3    3    0    0  0.36419355464E+00  0.14024333609E+01  0.95901681031E+01  0.96990092547E+01  0.00000000000E+00 0. -1.
</event>
<event>
 7    1  0.1375918E-013  0.7246156E+02  0.7816164E-02  0.1226708E+00
        -11   -1    0    0    0    0  0.00000000000E+00  0.00000000000E+00  0.45593999997E+02  0.45594000000E+02  0.51100000000E-03 0. -1.
         11   -1    0    0    0    0 -0.00000000000E+00 -0.00000000000E+00 -0.45593999997E+02  0.45594000000E+02  0.51100000000E-03 0.  1.
    9900012    2    1    2    0    0  0.54202552150E+01 -0.16526110738E+02  0.69417628476E+01  0.72461559491E+02  0.69999985926E+02 0.  0.
         12    1    1    2    0    0 -0.54202552150E+01  0.16526110738E+02 -0.69417628476E+01  0.18726440509E+02  0.00000000000E+00 0. -1.
         11    1    3    3    0    0  0.19981729956E+02  0.12308339260E+02  0.20857165174E+02  0.31397230558E+02  0.51100000000E-03 0. -1.
        -11    1    3    3    0    0 -0.39307047657E+01 -0.12204776757E+02  0.49659068000E+01  0.13750172590E+02  0.51100000000E-03 0.  1.
         12    1    3    3    0    0 -0.10630769976E+02 -0.16629673241E+02 -0.18881309126E+02  0.27314156342E+02  0.00000000000E+00 0. -1.
</event>
<event>
 7    1  0.1375918E-013  0.7246220E+02  0.7816164E-02  0.1226706E+00
        -11   -1    0    0    0    0  0.00000000000E+00  0.00000000000E+00  0.45593999997E+02  0.45594000000E+02  0.51100000000E-03 0. -1.
         11   -1    0    0    0    0 -0.00000000000E+00 -0.00000000000E+00 -0.45593999997E+02  0.45594000000E+02  0.51100000000E-03 0.  1.
    9900012    2    1    2    0    0 -0.17769744826E+02  0.50057544668E+01 -0.31359433496E+01  0.72462200961E+02  0.70000821556E+02 0.  0.
         12    1    1    2    0    0  0.17769744826E+02 -0.50057544668E+01  0.31359433496E+01  0.18725799039E+02  0.00000000000E+00 0. -1.
         11    1    3    3    0    0  0.79588357309E+01  0.14054416639E+02 -0.24878820921E+02  0.29661851323E+02  0.51100000000E-03 0.  1.
        -11    1    3    3    0    0 -0.25567083769E+02 -0.13124182953E+02  0.24592531695E+02  0.37824761283E+02  0.51100000000E-03 0. -1.
         12    1    3    3    0    0 -0.16149678766E+00  0.40755207813E+01 -0.28496541240E+01  0.49755883549E+01  0.00000000000E+00 0. -1.
</event>
<event>
 7    1  0.1375918E-013  0.7246162E+02  0.7816164E-02  0.1226708E+00
        -11   -1    0    0    0    0  0.00000000000E+00  0.00000000000E+00  0.45593999997E+02  0.45594000000E+02  0.51100000000E-03 0. -1.
         11   -1    0    0    0    0 -0.00000000000E+00 -0.00000000000E+00 -0.45593999997E+02  0.45594000000E+02  0.51100000000E-03 0.  1.
    9900012    2    1    2    0    0 -0.87142153203E+01  0.11698389488E+02  0.11742555586E+02  0.72461615486E+02  0.70000058871E+02 0.  0.
         12    1    1    2    0    0  0.87142153203E+01 -0.11698389488E+02 -0.11742555586E+02  0.18726384514E+02  0.00000000000E+00 0. -1.
         11    1    3    3    0    0  0.41463294751E+00 -0.11358078050E+02  0.15757566322E+02  0.19428812473E+02  0.51100000000E-03 0. -1.
        -11    1    3    3    0    0 -0.21045808963E+02  0.31775814002E+02 -0.27455021061E+01  0.38212121277E+02  0.51100000000E-03 0.  1.
        -12    1    3    3    0    0  0.11916960696E+02 -0.87193464639E+01 -0.12695086302E+01  0.14820681737E+02  0.00000000000E+00 0.  1.
</event>
<event>
 7    1  0.1375918E-013  0.7246156E+02  0.7816164E-02  0.1226708E+00
        -11   -1    0    0    0    0  0.00000000000E+00  0.00000000000E+00  0.45593999997E+02  0.45594000000E+02  0.51100000000E-03 0.  1.
         11   -1    0    0    0    0 -0.00000000000E+00 -0.00000000000E+00 -0.45593999997E+02  0.45594000000E+02  0.51100000000E-03 0. -1.
    9900012    2    1    2    0    0  0.18037186785E+01  0.17440560938E+02  0.65767094052E+01  0.72461556838E+02  0.69999982471E+02 0.  0.
         12    1    1    2    0    0 -0.18037186785E+01 -0.17440560938E+02 -0.65767094052E+01  0.18726443162E+02  0.00000000000E+00 0. -1.
         11    1    3    3    0    0 -0.95987229069E+01 -0.10597582783E+02 -0.78674998998E+01  0.16319981532E+02  0.51100000000E-03 0. -1.
        -11    1    3    3    0    0  0.40843223596E+01  0.38549473995E+02  0.18156416057E+02  0.42806530795E+02  0.51100000000E-03 0.  1.
        -12    1    3    3    0    0  0.73181192258E+01 -0.10511330275E+02 -0.37122067518E+01  0.13335044511E+02  0.00000000000E+00 0.  1.
</event>
<event>
 7    1  0.1375918E-013  0.7246152E+02  0.7816164E-02  0.1226708E+00
        -11   -1    0    0    0    0  0.00000000000E+00  0.00000000000E+00  0.45593999997E+02  0.45594000000E+02  0.51100000000E-03 0. -1.
         11   -1    0    0    0    0 -0.00000000000E+00 -0.00000000000E+00 -0.45593999997E+02  0.45594000000E+02  0.51100000000E-03 0.  1.
    9900012    2    1    2    0    0  0.11800151019E+02 -0.12435340000E+02 -0.75365683409E+01  0.72461518554E+02  0.69999932598E+02 0.  0.
         12    1    1    2    0    0 -0.11800151019E+02  0.12435340000E+02  0.75365683409E+01  0.18726481446E+02  0.00000000000E+00 0. -1.
         11    1    3    3    0    0 -0.10361260984E+02 -0.18594619812E+02  0.82254560017E+01  0.22820467607E+02  0.51100000000E-03 0. -1.
        -11    1    3    3    0    0  0.24169839624E+02 -0.12111818740E+02 -0.28638829652E+01  0.27186009758E+02  0.51100000000E-03 0.  1.
        -12    1    3    3    0    0 -0.20084276212E+01  0.18271098552E+02 -0.12898141377E+02  0.22455041189E+02  0.00000000000E+00 0.  1.
</event>
<event>
 7    1  0.1375918E-013  0.7246151E+02  0.7816164E-02  0.1226708E+00
        -11   -1    0    0    0    0  0.00000000000E+00  0.00000000000E+00  0.45593999997E+02  0.45594000000E+02  0.51100000000E-03 0. -1.
         11   -1    0    0    0    0 -0.00000000000E+00 -0.00000000000E+00 -0.45593999997E+02  0.45594000000E+02  0.51100000000E-03 0.  1.
    9900012    2    1    2    0    0  0.44812482890E+01  0.11211329391E+02 -0.14314539658E+02  0.72461507041E+02  0.69999917600E+02 0.  0.
         12    1    1    2    0    0 -0.44812482890E+01 -0.11211329391E+02  0.14314539658E+02  0.18726492959E+02  0.00000000000E+00 0. -1.
         11    1    3    3    0    0 -0.16331242610E+02  0.84736186048E+01  0.21057518025E+02  0.27963024927E+02  0.51100000000E-03 0. -1.
        -11    1    3    3    0    0  0.35656735509E+01 -0.20673021156E+01 -0.21385954750E+02  0.21779504740E+02  0.51100000000E-03 0.  1.
        -12    1    3    3    0    0  0.17246817348E+02  0.48050129017E+01 -0.13986102933E+02  0.22718977373E+02  0.00000000000E+00 0.  1.
</event>
<event>
 7    1  0.1375918E-013  0.7246168E+02  0.7816164E-02  0.1226708E+00
        -11   -1    0    0    0    0  0.00000000000E+00  0.00000000000E+00  0.45593999997E+02  0.45594000000E+02  0.51100000000E-03 0. -1.
         11   -1    0    0    0    0 -0.00000000000E+00 -0.00000000000E+00 -0.45593999997E+02  0.45594000000E+02  0.51100000000E-03 0.  1.
    9900012    2    1    2    0    0 -0.16024401737E+02  0.93287769752E+01 -0.26206144257E+01  0.72461677594E+02  0.70000139778E+02 0.  0.
         12    1    1    2    0    0  0.16024401737E+02 -0.93287769752E+01  0.26206144257E+01  0.18726322406E+02  0.00000000000E+00 0. -1.
         11    1    3    3    0    0  0.17962172718E+01 -0.67918038607E+01  0.12409113521E+02  0.14259771906E+02  0.51100000000E-03 0. -1.
        -11    1    3    3    0    0 -0.19294341923E+02  0.19865449104E+02  0.12497194193E+02  0.30382356086E+02  0.51100000000E-03 0.  1.
        -12    1    3    3    0    0  0.14737229144E+01 -0.37448682685E+01 -0.27526922140E+02  0.27819549603E+02  0.00000000000E+00 0.  1.
</event>
<event>
 7    1  0.1375918E-013  0.7246152E+02  0.7816164E-02  0.1226708E+00
        -11   -1    0    0    0    0  0.00000000000E+00  0.00000000000E+00  0.45593999997E+02  0.45594000000E+02  0.51100000000E-03 0.  1.
         11   -1    0    0    0    0 -0.00000000000E+00 -0.00000000000E+00 -0.45593999997E+02  0.45594000000E+02  0.51100000000E-03 0. -1.
    9900012    2    1    2    0    0  0.27318434284E+01 -0.11449287464E+02  0.14564749071E+02  0.72461519619E+02  0.69999933986E+02 0.  0.
         12    1    1    2    0    0 -0.27318434284E+01  0.11449287464E+02 -0.14564749071E+02  0.18726480381E+02  0.00000000000E+00 0. -1.
         11    1    3    3    0    0  0.13649195130E+02  0.16178923028E+02  0.13677278663E+02  0.25201706885E+02  0.51100000000E-03 0.  1.
        -11    1    3    3    0    0 -0.15164359397E+02 -0.25961457864E+02  0.14153876623E+02  0.33230818739E+02  0.51100000000E-03 0. -1.
         12    1    3    3    0    0  0.42470076957E+01 -0.16667526278E+01 -0.13266406214E+02  0.14028993996E+02  0.00000000000E+00 0. -1.
</event>
<event>
 7    1  0.1375918E-013  0.7246163E+02  0.7816164E-02  0.1226708E+00
        -11   -1    0    0    0    0  0.00000000000E+00  0.00000000000E+00  0.45593999997E+02  0.45594000000E+02  0.51100000000E-03 0.  1.
         11   -1    0    0    0    0 -0.00000000000E+00 -0.00000000000E+00 -0.45593999997E+02  0.45594000000E+02  0.51100000000E-03 0. -1.
    9900012    2    1    2    0    0  0.72549540602E+01  0.63578321988E+00  0.17252201379E+02  0.72461627389E+02  0.70000074377E+02 0.  0.
         12    1    1    2    0    0 -0.72549540602E+01 -0.63578321988E+00 -0.17252201379E+02  0.18726372611E+02  0.00000000000E+00 0. -1.
         11    1    3    3    0    0 -0.33750564961E+01  0.20454528676E+02  0.94117506798E+01  0.22767516352E+02  0.51100000000E-03 0. -1.
        -11    1    3    3    0    0  0.14049910373E+02 -0.27278759233E+02  0.18812722593E+02  0.35992349443E+02  0.51100000000E-03 0.  1.
        -12    1    3    3    0    0 -0.34198998165E+01  0.74600137770E+01 -0.10972271894E+02  0.13701761595E+02  0.00000000000E+00 0.  1.
</event>
<event>
 7    1  0.1375918E-013  0.7246157E+02  0.7816164E-02  0.1226708E+00
        -11   -1    0    0    0    0  0.00000000000E+00  0.00000000000E+00  0.45593999997E+02  0.45594000000E+02  0.51100000000E-03 0.  1.
         11   -1    0    0    0    0 -0.00000000000E+00 -0.00000000000E+00 -0.45593999997E+02  0.45594000000E+02  0.51100000000E-03 0. -1.
    9900012    2    1    2    0    0  0.11444473589E+02  0.24710356842E+01  0.14614959767E+02  0.72461573697E+02  0.70000004433E+02 0.  0.
         12    1    1    2    0    0 -0.11444473589E+02 -0.24710356842E+01 -0.14614959767E+02  0.18726426303E+02  0.00000000000E+00 0. -1.
         11    1    3    3    0    0  0.23130138116E+02  0.21365360246E+02 -0.88929628101E+01  0.32719515515E+02  0.51100000000E-03 0. -1.
        -11    1    3    3    0    0  0.37684677023E+01 -0.12026462693E+02  0.26307284327E+01  0.12874699456E+02  0.51100000000E-03 0.  1.
         12    1    3    3    0    0 -0.15454132230E+02 -0.68678618691E+01  0.20877194144E+02  0.26867358727E+02  0.00000000000E+00 0. -1.
</event>
<event>
 8    1  0.1375918E-013  0.7246107E+02  0.7816164E-02  0.1226709E+00
        -11   -1    0    0    0    0  0.00000000000E+00  0.00000000000E+00  0.45593999997E+02  0.45594000000E+02  0.51100000000E-03 0.  1.
         11   -1    0    0    0    0 -0.00000000000E+00 -0.00000000000E+00 -0.45593999997E+02  0.45594000000E+02  0.51100000000E-03 0. -1.
    9900012    2    1    2    0    0 -0.10873396117E+02 -0.15233608830E+02  0.63589614000E+00  0.72461068991E+02  0.69999346956E+02 0.  0.
        -24    2    3    3    0    0  0.39022864091E+01 -0.22965244649E+02 -0.58813370215E+01  0.54556507704E+02  0.48981548635E+02 0.  0.
         12    1    1    2    0    0  0.10873396117E+02  0.15233608830E+02 -0.63589614000E+00  0.18726931009E+02  0.00000000000E+00 0. -1.
         11    1    4    4    0    0  0.25446084852E+01 -0.38200146678E+02 -0.33377385436E+00  0.38286259204E+02  0.51100000000E-03 0. -1.
        -11    1    3    3    0    0 -0.14775682526E+02  0.77316358190E+01  0.65172331615E+01  0.17904561287E+02  0.51100000000E-03 0.  1.
        -12    1    4    4    0    0  0.13576779239E+01  0.15234902029E+02 -0.55475631671E+01  0.16270248500E+02  0.00000000000E+00 0.  1.
</event>
<event>
 7    1  0.1375918E-013  0.7246159E+02  0.7816164E-02  0.1226708E+00
        -11   -1    0    0    0    0  0.00000000000E+00  0.00000000000E+00  0.45593999997E+02  0.45594000000E+02  0.51100000000E-03 0. -1.
         11   -1    0    0    0    0 -0.00000000000E+00 -0.00000000000E+00 -0.45593999997E+02  0.45594000000E+02  0.51100000000E-03 0.  1.
    9900012    2    1    2    0    0  0.17173140459E+02 -0.69976033242E+01 -0.26067672648E+01  0.72461589744E+02  0.70000025337E+02 0.  0.
         12    1    1    2    0    0 -0.17173140459E+02  0.69976033242E+01  0.26067672648E+01  0.18726410256E+02  0.00000000000E+00 0. -1.
         11    1    3    3    0    0 -0.12887795914E+01 -0.23037307953E+02  0.82609381430E+01  0.24507582700E+02  0.51100000000E-03 0. -1.
        -11    1    3    3    0    0  0.23773744102E+02  0.10008691503E+02  0.83589668360E+01  0.27115256610E+02  0.51100000000E-03 0.  1.
         12    1    3    3    0    0 -0.53118240514E+01  0.60310131256E+01 -0.19226672244E+02  0.20838750434E+02  0.00000000000E+00 0. -1.
</event>
<event>
 7    1  0.1375918E-013  0.7246156E+02  0.7816164E-02  0.1226708E+00
        -11   -1    0    0    0    0  0.00000000000E+00  0.00000000000E+00  0.45593999997E+02  0.45594000000E+02  0.51100000000E-03 0.  1.
         11   -1    0    0    0    0 -0.00000000000E+00 -0.00000000000E+00 -0.45593999997E+02  0.45594000000E+02  0.51100000000E-03 0. -1.
    9900012    2    1    2    0    0 -0.12530865009E+02 -0.10489513453E+02  0.91447800573E+01  0.72461562200E+02  0.69999989456E+02 0.  0.
         12    1    1    2    0    0  0.12530865009E+02  0.10489513453E+02 -0.91447800573E+01  0.18726437800E+02  0.00000000000E+00 0. -1.
         11    1    3    3    0    0 -0.17444694978E+02  0.20156727331E+02  0.17878011871E+01  0.26717171874E+02  0.51100000000E-03 0. -1.
        -11    1    3    3    0    0 -0.66041312133E+01 -0.20521066722E+02  0.17151181463E+02  0.27547990023E+02  0.51100000000E-03 0.  1.
         12    1    3    3    0    0  0.11517961182E+02 -0.10125174062E+02 -0.97942025924E+01  0.18196400303E+02  0.00000000000E+00 0. -1.
</event>
<event>
 7    1  0.1375918E-013  0.7246157E+02  0.7816164E-02  0.1226708E+00
        -11   -1    0    0    0    0  0.00000000000E+00  0.00000000000E+00  0.45593999997E+02  0.45594000000E+02  0.51100000000E-03 0.  1.
         11   -1    0    0    0    0 -0.00000000000E+00 -0.00000000000E+00 -0.45593999997E+02  0.45594000000E+02  0.51100000000E-03 0. -1.
    9900012    2    1    2    0    0 -0.16265417311E+02 -0.77306628321E+01  0.51334571609E+01  0.72461565995E+02  0.69999994399E+02 0.  0.
         12    1    1    2    0    0  0.16265417311E+02  0.77306628321E+01 -0.51334571609E+01  0.18726434005E+02  0.00000000000E+00 0. -1.
         11    1    3    3    0    0 -0.27055130023E+02  0.59738713430E+01  0.43926783312E+01  0.28052857654E+02  0.51100000000E-03 0. -1.
        -11    1    3    3    0    0  0.10281731940E+02  0.12939182055E+02 -0.47593202625E+01  0.17198475908E+02  0.51100000000E-03 0.  1.
         12    1    3    3    0    0  0.50798077099E+00 -0.26643716230E+02  0.55000990923E+01  0.27210232433E+02  0.00000000000E+00 0. -1.
</event>
<event>
 7    1  0.1375918E-013  0.7246164E+02  0.7816164E-02  0.1226708E+00
        -11   -1    0    0    0    0  0.00000000000E+00  0.00000000000E+00  0.45593999997E+02  0.45594000000E+02  0.51100000000E-03 0.  1.
         11   -1    0    0    0    0 -0.00000000000E+00 -0.00000000000E+00 -0.45593999997E+02  0.45594000000E+02  0.51100000000E-03 0. -1.
    9900012    2    1    2    0    0 -0.40892051044E+01 -0.17943816726E+02  0.34604063763E+01  0.72461639719E+02  0.70000090438E+02 0.  0.
         12    1    1    2    0    0  0.40892051044E+01  0.17943816726E+02 -0.34604063763E+01  0.18726360281E+02  0.00000000000E+00 0. -1.
         11    1    3    3    0    0 -0.73659946703E+01 -0.32956153876E+02 -0.34649789111E+01  0.33946605646E+02  0.51100000000E-03 0. -1.
        -11    1    3    3    0    0  0.16934313783E+02  0.14392792105E+02  0.10205343037E+02  0.24455520331E+02  0.51100000000E-03 0.  1.
         12    1    3    3    0    0 -0.13657524217E+02  0.61954504507E+00 -0.32799577495E+01  0.14059513742E+02  0.00000000000E+00 0. -1.
</event>
<event>
 7    1  0.1375918E-013  0.7246159E+02  0.7816164E-02  0.1226708E+00
        -11   -1    0    0    0    0  0.00000000000E+00  0.00000000000E+00  0.45593999997E+02  0.45594000000E+02  0.51100000000E-03 0. -1.
         11   -1    0    0    0    0 -0.00000000000E+00 -0.00000000000E+00 -0.45593999997E+02  0.45594000000E+02  0.51100000000E-03 0.  1.
    9900012    2    1    2    0    0 -0.18111310768E+02  0.47493933322E+01 -0.31971700911E+00  0.72461587270E+02  0.70000022114E+02 0.  0.
         12    1    1    2    0    0  0.18111310768E+02 -0.47493933322E+01  0.31971700911E+00  0.18726412730E+02  0.00000000000E+00 0. -1.
         11    1    3    3    0    0  0.94429912212E+01  0.26986423553E+01  0.30909982340E+01  0.10295971256E+02  0.51100000000E-03 0. -1.
        -11    1    3    3    0    0 -0.25772297808E+02 -0.21501926541E+02 -0.13890951458E+02  0.36324959903E+02  0.51100000000E-03 0.  1.
        -12    1    3    3    0    0 -0.17820041809E+01  0.23552677517E+02  0.10480236215E+02  0.25840656111E+02  0.00000000000E+00 0.  1.
</event>
<event>
 7    1  0.1375918E-013  0.7246158E+02  0.7816164E-02  0.1226708E+00
        -11   -1    0    0    0    0  0.00000000000E+00  0.00000000000E+00  0.45593999997E+02  0.45594000000E+02  0.51100000000E-03 0.  1.
         11   -1    0    0    0    0 -0.00000000000E+00 -0.00000000000E+00 -0.45593999997E+02  0.45594000000E+02  0.51100000000E-03 0. -1.
    9900012    2    1    2    0    0 -0.38211132138E+01 -0.17744803686E+02  0.46043219135E+01  0.72461581647E+02  0.70000014789E+02 0.  0.
         12    1    1    2    0    0  0.38211132138E+01  0.17744803686E+02 -0.46043219135E+01  0.18726418353E+02  0.00000000000E+00 0. -1.
         11    1    3    3    0    0 -0.20914335960E+02 -0.10105177086E+02 -0.20388482315E+02  0.30906540795E+02  0.51100000000E-03 0. -1.
        -11    1    3    3    0    0  0.18039886410E+02 -0.54142085682E+01  0.25783504230E+01  0.19010498343E+02  0.51100000000E-03 0.  1.
        -12    1    3    3    0    0 -0.94666366350E+00 -0.22254180326E+01  0.22414453805E+02  0.22544542508E+02  0.00000000000E+00 0.  1.
</event>
<event>
 7    1  0.1375918E-013  0.7246143E+02  0.7816164E-02  0.1226708E+00
        -11   -1    0    0    0    0  0.00000000000E+00  0.00000000000E+00  0.45593999997E+02  0.45594000000E+02  0.51100000000E-03 0.  1.
         11   -1    0    0    0    0 -0.00000000000E+00 -0.00000000000E+00 -0.45593999997E+02  0.45594000000E+02  0.51100000000E-03 0. -1.
    9900012    2    1    2    0    0  0.47072862461E+01 -0.87262319266E+01  0.15886435139E+02  0.72461428267E+02  0.69999814983E+02 0.  0.
         12    1    1    2    0    0 -0.47072862461E+01  0.87262319266E+01 -0.15886435139E+02  0.18726571733E+02  0.00000000000E+00 0. -1.
         11    1    3    3    0    0  0.11011088832E+02  0.41545887775E+01 -0.21919185673E+02  0.24878814000E+02  0.51100000000E-03 0. -1.
        -11    1    3    3    0    0  0.29584943164E+01 -0.16758616317E+02  0.31272775326E+02  0.35603235616E+02  0.51100000000E-03 0.  1.
         12    1    3    3    0    0 -0.92622969026E+01  0.38777956132E+01  0.65328454863E+01  0.11979378652E+02  0.00000000000E+00 0. -1.
</event>
<event>
 7    1  0.1375918E-013  0.7246154E+02  0.7816164E-02  0.1226708E+00
        -11   -1    0    0    0    0  0.00000000000E+00  0.00000000000E+00  0.45593999997E+02  0.45594000000E+02  0.51100000000E-03 0. -1.
         11   -1    0    0    0    0 -0.00000000000E+00 -0.00000000000E+00 -0.45593999997E+02  0.45594000000E+02  0.51100000000E-03 0.  1.
    9900012    2    1    2    0    0  0.16827265784E+02  0.80147403274E+01 -0.18131076956E+01  0.72461540222E+02  0.69999960826E+02 0.  0.
         12    1    1    2    0    0 -0.16827265784E+02 -0.80147403274E+01  0.18131076956E+01  0.18726459778E+02  0.00000000000E+00 0. -1.
         11    1    3    3    0    0 -0.19316670134E+02  0.12643461510E+02 -0.84359371602E+01  0.24579582992E+02  0.51100000000E-03 0. -1.
        -11    1    3    3    0    0  0.14037198981E+02  0.57582699365E+01  0.15691780576E+02  0.21827336205E+02  0.51100000000E-03 0.  1.
         12    1    3    3    0    0  0.22106736937E+02 -0.10386991119E+02 -0.90689511110E+01  0.26054621026E+02  0.00000000000E+00 0. -1.
</event>
<event>
 7    1  0.1375918E-013  0.7246212E+02  0.7816164E-02  0.1226707E+00
        -11   -1    0    0    0    0  0.00000000000E+00  0.00000000000E+00  0.45593999997E+02  0.45594000000E+02  0.51100000000E-03 0. -1.
         11   -1    0    0    0    0 -0.00000000000E+00 -0.00000000000E+00 -0.45593999997E+02  0.45594000000E+02  0.51100000000E-03 0.  1.
    9900012    2    1    2    0    0 -0.11080365578E+02 -0.13769486799E+02  0.61875248177E+01  0.72462116004E+02  0.70000710885E+02 0.  0.
         12    1    1    2    0    0  0.11080365578E+02  0.13769486799E+02 -0.61875248177E+01  0.18725883996E+02  0.00000000000E+00 0. -1.
         11    1    3    3    0    0  0.79396086789E+01  0.16464314336E+02  0.22331163451E+02  0.28858133929E+02  0.51100000000E-03 0. -1.
        -11    1    3    3    0    0 -0.80812653398E+01 -0.31938516895E+01  0.24310409580E+01  0.90231645506E+01  0.51100000000E-03 0.  1.
         12    1    3    3    0    0 -0.10938708917E+02 -0.27039949445E+02 -0.18574679591E+02  0.34580817525E+02  0.00000000000E+00 0. -1.
</event>
<event>
 7    1  0.1375918E-013  0.7246156E+02  0.7816164E-02  0.1226708E+00
        -11   -1    0    0    0    0  0.00000000000E+00  0.00000000000E+00  0.45593999997E+02  0.45594000000E+02  0.51100000000E-03 0.  1.
         11   -1    0    0    0    0 -0.00000000000E+00 -0.00000000000E+00 -0.45593999997E+02  0.45594000000E+02  0.51100000000E-03 0. -1.
    9900012    2    1    2    0    0 -0.14550383505E+02 -0.84320888985E+01 -0.82380624886E+01  0.72461562621E+02  0.69999990005E+02 0.  0.
         12    1    1    2    0    0  0.14550383505E+02  0.84320888985E+01  0.82380624886E+01  0.18726437379E+02  0.00000000000E+00 0. -1.
         11    1    3    3    0    0 -0.90560923847E+01 -0.16669446105E+01 -0.83835268765E+01  0.12452912782E+02  0.51100000000E-03 0. -1.
        -11    1    3    3    0    0  0.20485752046E+02  0.64861963861E+01  0.16021160334E+02  0.26803252772E+02  0.51100000000E-03 0.  1.
        -12    1    3    3    0    0 -0.25980043166E+02 -0.13251340674E+02 -0.15875695946E+02  0.33205397067E+02  0.00000000000E+00 0.  1.
</event>
<event>
 7    1  0.1375918E-013  0.7246156E+02  0.7816164E-02  0.1226708E+00
        -11   -1    0    0    0    0  0.00000000000E+00  0.00000000000E+00  0.45593999997E+02  0.45594000000E+02  0.51100000000E-03 0. -1.
         11   -1    0    0    0    0 -0.00000000000E+00 -0.00000000000E+00 -0.45593999997E+02  0.45594000000E+02  0.51100000000E-03 0.  1.
    9900012    2    1    2    0    0  0.16990795541E+02 -0.76636737609E+01  0.18056751076E+01  0.72461561705E+02  0.69999988811E+02 0.  0.
         12    1    1    2    0    0 -0.16990795541E+02  0.76636737609E+01 -0.18056751076E+01  0.18726438295E+02  0.00000000000E+00 0. -1.
         11    1    3    3    0    0  0.83635697777E+01  0.51005421322E+01 -0.24744939316E+02  0.26613471241E+02  0.51100000000E-03 0.  1.
        -11    1    3    3    0    0  0.17611791702E+02 -0.13443005623E+02  0.29014995221E+02  0.36506979539E+02  0.51100000000E-03 0. -1.
         12    1    3    3    0    0 -0.89845659385E+01  0.67878972953E+00 -0.24643807976E+01  0.93411109252E+01  0.00000000000E+00 0. -1.
</event>
<event>
 7    1  0.1375918E-013  0.7246162E+02  0.7816164E-02  0.1226708E+00
        -11   -1    0    0    0    0  0.00000000000E+00  0.00000000000E+00  0.45593999997E+02  0.45594000000E+02  0.51100000000E-03 0. -1.
         11   -1    0    0    0    0 -0.00000000000E+00 -0.00000000000E+00 -0.45593999997E+02  0.45594000000E+02  0.51100000000E-03 0.  1.
    9900012    2    1    2    0    0 -0.15982777979E+02  0.52082944363E+01 -0.82523831428E+01  0.72461618865E+02  0.70000063273E+02 0.  0.
         12    1    1    2    0    0  0.15982777979E+02 -0.52082944363E+01  0.82523831428E+01  0.18726381135E+02  0.00000000000E+00 0. -1.
         11    1    3    3    0    0 -0.32244905089E+01 -0.68952754658E+01  0.71416511292E+01  0.10437688628E+02  0.51100000000E-03 0. -1.
        -11    1    3    3    0    0  0.13741554927E+02  0.26374687167E+02 -0.48527475564E+01  0.30133098315E+02  0.51100000000E-03 0.  1.
        -12    1    3    3    0    0 -0.26499842397E+02 -0.14271117265E+02 -0.10541286715E+02  0.31890831922E+02  0.00000000000E+00 0.  1.
</event>
<event>
 7    1  0.1375918E-013  0.7246157E+02  0.7816164E-02  0.1226708E+00
        -11   -1    0    0    0    0  0.00000000000E+00  0.00000000000E+00  0.45593999997E+02  0.45594000000E+02  0.51100000000E-03 0. -1.
         11   -1    0    0    0    0 -0.00000000000E+00 -0.00000000000E+00 -0.45593999997E+02  0.45594000000E+02  0.51100000000E-03 0.  1.
    9900012    2    1    2    0    0 -0.14420647590E+02 -0.11946561868E+02  0.60074655401E-01  0.72461574117E+02  0.70000004979E+02 0.  0.
         12    1    1    2    0    0  0.14420647590E+02  0.11946561868E+02 -0.60074655401E-01  0.18726425883E+02  0.00000000000E+00 0. -1.
         11    1    3    3    0    0  0.20045180975E+02 -0.54707680999E+01 -0.17721174015E+02  0.27308947118E+02  0.51100000000E-03 0. -1.
        -11    1    3    3    0    0 -0.20982968363E+02 -0.11044387790E+02  0.19648390758E+02  0.30794848963E+02  0.51100000000E-03 0.  1.
        -12    1    3    3    0    0 -0.13482860202E+02  0.45685940221E+01 -0.18671420876E+01  0.14357778036E+02  0.00000000000E+00 0.  1.
</event>
<event>
 7    1  0.1375918E-013  0.7246160E+02  0.7816164E-02  0.1226708E+00
        -11   -1    0    0    0    0  0.00000000000E+00  0.00000000000E+00  0.45593999997E+02  0.45594000000E+02  0.51100000000E-03 0.  1.
         11   -1    0    0    0    0 -0.00000000000E+00 -0.00000000000E+00 -0.45593999997E+02  0.45594000000E+02  0.51100000000E-03 0. -1.
    9900012    2    1    2    0    0 -0.52087476103E+00  0.17298641419E+02  0.71528724244E+01  0.72461604475E+02  0.70000044526E+02 0.  0.
         12    1    1    2    0    0  0.52087476103E+00 -0.17298641419E+02 -0.71528724244E+01  0.18726395525E+02  0.00000000000E+00 0. -1.
         11    1    3    3    0    0 -0.15894765129E+02 -0.91570863825E+01  0.21767777778E+02  0.28466329921E+02  0.51100000000E-03 0. -1.
        -11    1    3    3    0    0  0.59368431002E+01  0.19756345079E+02  0.49947620268E+01  0.21225148406E+02  0.51100000000E-03 0.  1.
         12    1    3    3    0    0  0.94370472677E+01  0.66993827218E+01 -0.19609667381E+02  0.22770126147E+02  0.00000000000E+00 0. -1.
</event>
<event>
 7    1  0.1375918E-013  0.7246163E+02  0.7816164E-02  0.1226708E+00
        -11   -1    0    0    0    0  0.00000000000E+00  0.00000000000E+00  0.45593999997E+02  0.45594000000E+02  0.51100000000E-03 0.  1.
         11   -1    0    0    0    0 -0.00000000000E+00 -0.00000000000E+00 -0.45593999997E+02  0.45594000000E+02  0.51100000000E-03 0. -1.
    9900012    2    1    2    0    0  0.27997048253E+01  0.89692259010E+01  0.16198507744E+02  0.72461627860E+02  0.70000074991E+02 0.  0.
         12    1    1    2    0    0 -0.27997048253E+01 -0.89692259010E+01 -0.16198507744E+02  0.18726372140E+02  0.00000000000E+00 0. -1.
         11    1    3    3    0    0  0.12030715050E+01 -0.19521728057E+01 -0.16766395255E+01  0.28406830286E+01  0.51100000000E-03 0. -1.
        -11    1    3    3    0    0  0.93905642989E+01  0.13628190098E+02  0.41456445641E+02  0.44637956367E+02  0.51100000000E-03 0.  1.
        -12    1    3    3    0    0 -0.77939309786E+01 -0.27067913912E+01 -0.23581298372E+02  0.24982988465E+02  0.00000000000E+00 0.  1.
</event>
<event>
 7    1  0.1375918E-013  0.7246156E+02  0.7816164E-02  0.1226708E+00
        -11   -1    0    0    0    0  0.00000000000E+00  0.00000000000E+00  0.45593999997E+02  0.45594000000E+02  0.51100000000E-03 0.  1.
         11   -1    0    0    0    0 -0.00000000000E+00 -0.00000000000E+00 -0.45593999997E+02  0.45594000000E+02  0.51100000000E-03 0. -1.
    9900012    2    1    2    0    0  0.62188184987E+01 -0.13171700063E+02 -0.11769115788E+02  0.72461562205E+02  0.69999989462E+02 0.  0.
         12    1    1    2    0    0 -0.62188184987E+01  0.13171700063E+02  0.11769115788E+02  0.18726437795E+02  0.00000000000E+00 0. -1.
         11    1    3    3    0    0  0.74106538063E+01 -0.12593949344E+02 -0.22694827448E+02  0.26992231161E+02  0.51100000000E-03 0. -1.
        -11    1    3    3    0    0 -0.12546953117E+02 -0.18814451815E+02  0.65685543706E+01  0.23549002875E+02  0.51100000000E-03 0.  1.
        -12    1    3    3    0    0  0.11355117810E+02  0.18236701096E+02  0.43571572894E+01  0.21920328168E+02  0.00000000000E+00 0.  1.
</event>
<event>
 7    1  0.1375918E-013  0.7246164E+02  0.7816164E-02  0.1226708E+00
        -11   -1    0    0    0    0  0.00000000000E+00  0.00000000000E+00  0.45593999997E+02  0.45594000000E+02  0.51100000000E-03 0.  1.
         11   -1    0    0    0    0 -0.00000000000E+00 -0.00000000000E+00 -0.45593999997E+02  0.45594000000E+02  0.51100000000E-03 0. -1.
    9900012    2    1    2    0    0  0.24815049556E+01 -0.17846728311E+02 -0.51002861102E+01  0.72461641661E+02  0.70000092968E+02 0.  0.
         12    1    1    2    0    0 -0.24815049556E+01  0.17846728311E+02  0.51002861102E+01  0.18726358339E+02  0.00000000000E+00 0. -1.
         11    1    3    3    0    0 -0.59385314760E+00 -0.21930488445E+01 -0.26891630331E+02  0.26987439799E+02  0.51100000000E-03 0. -1.
        -11    1    3    3    0    0  0.10800157505E+02 -0.23478053614E+02  0.22759807405E+02  0.34436481194E+02  0.51100000000E-03 0.  1.
        -12    1    3    3    0    0 -0.77247994022E+01  0.78243741470E+01 -0.96846318484E+00  0.11037720668E+02  0.00000000000E+00 0.  1.
</event>
<event>
 7    1  0.1375918E-013  0.7246158E+02  0.7816164E-02  0.1226708E+00
        -11   -1    0    0    0    0  0.00000000000E+00  0.00000000000E+00  0.45593999997E+02  0.45594000000E+02  0.51100000000E-03 0.  1.
         11   -1    0    0    0    0 -0.00000000000E+00 -0.00000000000E+00 -0.45593999997E+02  0.45594000000E+02  0.51100000000E-03 0. -1.
    9900012    2    1    2    0    0 -0.57260982623E+01 -0.11645218874E+02  0.13501095655E+02  0.72461577282E+02  0.70000009103E+02 0.  0.
         12    1    1    2    0    0  0.57260982623E+01  0.11645218874E+02 -0.13501095655E+02  0.18726422718E+02  0.00000000000E+00 0. -1.
         11    1    3    3    0    0 -0.14993075754E+02 -0.30986043456E+01 -0.15245291141E+02  0.21605845776E+02  0.51100000000E-03 0. -1.
        -11    1    3    3    0    0  0.30499928877E+01 -0.17363865873E+02  0.34415537490E+02  0.38668275313E+02  0.51100000000E-03 0.  1.
        -12    1    3    3    0    0  0.62169846044E+01  0.88172513448E+01 -0.56691506946E+01  0.12187456193E+02  0.00000000000E+00 0.  1.
</event>
<event>
 7    1  0.1375918E-013  0.7246153E+02  0.7816164E-02  0.1226708E+00
        -11   -1    0    0    0    0  0.00000000000E+00  0.00000000000E+00  0.45593999997E+02  0.45594000000E+02  0.51100000000E-03 0. -1.
         11   -1    0    0    0    0 -0.00000000000E+00 -0.00000000000E+00 -0.45593999997E+02  0.45594000000E+02  0.51100000000E-03 0.  1.
    9900012    2    1    2    0    0 -0.27596346452E+01 -0.13861406178E+02 -0.12285219698E+02  0.72461527090E+02  0.69999943718E+02 0.  0.
         12    1    1    2    0    0  0.27596346452E+01  0.13861406178E+02  0.12285219698E+02  0.18726472910E+02  0.00000000000E+00 0. -1.
         11    1    3    3    0    0  0.70349038303E+01  0.65261228803E+01  0.13844159539E+02  0.16844610573E+02  0.51100000000E-03 0. -1.
        -11    1    3    3    0    0 -0.26072480374E+02 -0.14984322535E+02 -0.23712822898E+02  0.38296241653E+02  0.51100000000E-03 0.  1.
         12    1    3    3    0    0  0.16277941899E+02 -0.54032065241E+01 -0.24165563396E+01  0.17320674864E+02  0.00000000000E+00 0. -1.
</event>
<event>
 7    1  0.1375918E-013  0.7246157E+02  0.7816164E-02  0.1226708E+00
        -11   -1    0    0    0    0  0.00000000000E+00  0.00000000000E+00  0.45593999997E+02  0.45594000000E+02  0.51100000000E-03 0. -1.
         11   -1    0    0    0    0 -0.00000000000E+00 -0.00000000000E+00 -0.45593999997E+02  0.45594000000E+02  0.51100000000E-03 0.  1.
    9900012    2    1    2    0    0 -0.14602694664E+02  0.94315731547E+01 -0.69631764168E+01  0.72461572433E+02  0.70000002786E+02 0.  0.
         12    1    1    2    0    0  0.14602694664E+02 -0.94315731547E+01  0.69631764168E+01  0.18726427567E+02  0.00000000000E+00 0. -1.
         11    1    3    3    0    0  0.14411498008E+02 -0.60702916896E+01  0.29643902027E+01  0.15916259785E+02  0.51100000000E-03 0.  1.
        -11    1    3    3    0    0 -0.21356795727E+02  0.16346296884E+02  0.14763582743E+02  0.30680246433E+02  0.51100000000E-03 0. -1.
        -12    1    3    3    0    0 -0.76573969444E+01 -0.84443203958E+00 -0.24691149362E+02  0.25865066214E+02  0.00000000000E+00 0.  1.
</event>
<event>
 7    1  0.1375918E-013  0.7246156E+02  0.7816164E-02  0.1226708E+00
        -11   -1    0    0    0    0  0.00000000000E+00  0.00000000000E+00  0.45593999997E+02  0.45594000000E+02  0.51100000000E-03 0.  1.
         11   -1    0    0    0    0 -0.00000000000E+00 -0.00000000000E+00 -0.45593999997E+02  0.45594000000E+02  0.51100000000E-03 0. -1.
    9900012    2    1    2    0    0  0.14101445729E+02  0.43300911967E+01  0.11535985650E+02  0.72461563437E+02  0.69999991067E+02 0.  0.
         12    1    1    2    0    0 -0.14101445729E+02 -0.43300911967E+01 -0.11535985650E+02  0.18726436563E+02  0.00000000000E+00 0. -1.
         11    1    3    3    0    0  0.19750922315E+02  0.15190147851E+02 -0.14738808615E+02  0.28949473289E+02  0.51100000000E-03 0. -1.
        -11    1    3    3    0    0  0.59417393755E+01 -0.19218383819E+02  0.18031362665E+02  0.27014451378E+02  0.51100000000E-03 0.  1.
         12    1    3    3    0    0 -0.11591215962E+02  0.83583271642E+01  0.82434315999E+01  0.16497638770E+02  0.00000000000E+00 0. -1.
</event>
<event>
 7    1  0.1375918E-013  0.7246168E+02  0.7816164E-02  0.1226708E+00
        -11   -1    0    0    0    0  0.00000000000E+00  0.00000000000E+00  0.45593999997E+02  0.45594000000E+02  0.51100000000E-03 0.  1.
         11   -1    0    0    0    0 -0.00000000000E+00 -0.00000000000E+00 -0.45593999997E+02  0.45594000000E+02  0.51100000000E-03 0. -1.
    9900012    2    1    2    0    0  0.10011857580E+01  0.13739193678E+02  0.12684923338E+02  0.72461679060E+02  0.70000141688E+02 0.  0.
         12    1    1    2    0    0 -0.10011857580E+01 -0.13739193678E+02 -0.12684923338E+02  0.18726320940E+02  0.00000000000E+00 0. -1.
         11    1    3    3    0    0  0.86059367772E+01  0.30773500701E+02 -0.71609877310E+01  0.32746759210E+02  0.51100000000E-03 0. -1.
        -11    1    3    3    0    0  0.14240517676E+01 -0.11394372424E+02  0.25277691761E+02  0.27763669560E+02  0.51100000000E-03 0.  1.
        -12    1    3    3    0    0 -0.90288027868E+01 -0.56399345982E+01 -0.54317806923E+01  0.11951250291E+02  0.00000000000E+00 0.  1.
</event>
<event>
 7    1  0.1375918E-013  0.7246132E+02  0.7816164E-02  0.1226709E+00
        -11   -1    0    0    0    0  0.00000000000E+00  0.00000000000E+00  0.45593999997E+02  0.45594000000E+02  0.51100000000E-03 0.  1.
         11   -1    0    0    0    0 -0.00000000000E+00 -0.00000000000E+00 -0.45593999997E+02  0.45594000000E+02  0.51100000000E-03 0. -1.
    9900012    2    1    2    0    0 -0.57107471018E+01 -0.25641995903E+01  0.17649388195E+02  0.72461317014E+02  0.69999670055E+02 0.  0.
         12    1    1    2    0    0  0.57107471018E+01  0.25641995903E+01 -0.17649388195E+02  0.18726682986E+02  0.00000000000E+00 0. -1.
         11    1    3    3    0    0  0.18026828010E+02 -0.18026959735E+01 -0.55159178317E+01  0.18937834899E+02  0.51100000000E-03 0. -1.
        -11    1    3    3    0    0 -0.30380874731E+01 -0.85989337115E+01  0.29192575137E+02  0.30583951345E+02  0.51100000000E-03 0.  1.
        -12    1    3    3    0    0 -0.20699487639E+02  0.78374300947E+01 -0.60272691109E+01  0.22939530770E+02  0.00000000000E+00 0.  1.
</event>
<event>
 7    1  0.1375918E-013  0.7246158E+02  0.7816164E-02  0.1226708E+00
        -11   -1    0    0    0    0  0.00000000000E+00  0.00000000000E+00  0.45593999997E+02  0.45594000000E+02  0.51100000000E-03 0.  1.
         11   -1    0    0    0    0 -0.00000000000E+00 -0.00000000000E+00 -0.45593999997E+02  0.45594000000E+02  0.51100000000E-03 0. -1.
    9900012    2    1    2    0    0 -0.67685206080E+01  0.12964771014E+02  0.11695327273E+02  0.72461579127E+02  0.70000011507E+02 0.  0.
         12    1    1    2    0    0  0.67685206080E+01 -0.12964771014E+02 -0.11695327273E+02  0.18726420873E+02  0.00000000000E+00 0. -1.
         11    1    3    3    0    0 -0.14192383254E+02  0.38473818751E+01 -0.53487805637E+01  0.15647221591E+02  0.51100000000E-03 0. -1.
        -11    1    3    3    0    0  0.28848649623E+02  0.13359341061E+02  0.14092202536E+02  0.34775088084E+02  0.51100000000E-03 0.  1.
        -12    1    3    3    0    0 -0.21424786977E+02 -0.42419519218E+01  0.29519053002E+01  0.22039269453E+02  0.00000000000E+00 0.  1.
</event>
<event>
 7    1  0.1375918E-013  0.7246156E+02  0.7816164E-02  0.1226708E+00
        -11   -1    0    0    0    0  0.00000000000E+00  0.00000000000E+00  0.45593999997E+02  0.45594000000E+02  0.51100000000E-03 0. -1.
         11   -1    0    0    0    0 -0.00000000000E+00 -0.00000000000E+00 -0.45593999997E+02  0.45594000000E+02  0.51100000000E-03 0.  1.
    9900012    2    1    2    0    0  0.13118729764E+02 -0.13038698788E+02 -0.29275877919E+01  0.72461561284E+02  0.69999988262E+02 0.  0.
         12    1    1    2    0    0 -0.13118729764E+02  0.13038698788E+02  0.29275877919E+01  0.18726438716E+02  0.00000000000E+00 0. -1.
         11    1    3    3    0    0  0.19924912298E+02 -0.17247466047E+02 -0.78531139762E+01  0.27498156566E+02  0.51100000000E-03 0. -1.
        -11    1    3    3    0    0  0.10337983046E+02  0.18824515148E+02  0.63332445755E+01  0.22390762630E+02  0.51100000000E-03 0.  1.
         12    1    3    3    0    0 -0.17144165579E+02 -0.14615747889E+02 -0.14077183912E+01  0.22572642088E+02  0.00000000000E+00 0. -1.
</event>
<event>
 7    1  0.1375918E-013  0.7246157E+02  0.7816164E-02  0.1226708E+00
        -11   -1    0    0    0    0  0.00000000000E+00  0.00000000000E+00  0.45593999997E+02  0.45594000000E+02  0.51100000000E-03 0. -1.
         11   -1    0    0    0    0 -0.00000000000E+00 -0.00000000000E+00 -0.45593999997E+02  0.45594000000E+02  0.51100000000E-03 0.  1.
    9900012    2    1    2    0    0 -0.12844726957E+02 -0.76618074020E+01 -0.11268939200E+02  0.72461566972E+02  0.69999995672E+02 0.  0.
         12    1    1    2    0    0  0.12844726957E+02  0.76618074020E+01  0.11268939200E+02  0.18726433028E+02  0.00000000000E+00 0. -1.
         11    1    3    3    0    0 -0.11538768393E+01  0.23295545414E+02  0.12111519637E+02  0.26281224782E+02  0.51100000000E-03 0. -1.
        -11    1    3    3    0    0 -0.43405605922E+01 -0.28150821988E+02 -0.25282739170E+02  0.38085773525E+02  0.51100000000E-03 0.  1.
         12    1    3    3    0    0 -0.73502895252E+01 -0.28065308283E+01  0.19022803334E+01  0.80945686643E+01  0.00000000000E+00 0. -1.
</event>
<event>
 7    1  0.1375918E-013  0.7246156E+02  0.7816164E-02  0.1226708E+00
        -11   -1    0    0    0    0  0.00000000000E+00  0.00000000000E+00  0.45593999997E+02  0.45594000000E+02  0.51100000000E-03 0.  1.
         11   -1    0    0    0    0 -0.00000000000E+00 -0.00000000000E+00 -0.45593999997E+02  0.45594000000E+02  0.51100000000E-03 0. -1.
    9900012    2    1    2    0    0 -0.12845115966E+02 -0.97839018661E+01  0.94846013497E+01  0.72461564069E+02  0.69999991891E+02 0.  0.
         12    1    1    2    0    0  0.12845115966E+02  0.97839018661E+01 -0.94846013497E+01  0.18726435931E+02  0.00000000000E+00 0. -1.
         11    1    3    3    0    0  0.10382440751E+02 -0.18925354644E+02  0.21339594587E+02  0.30353622877E+02  0.51100000000E-03 0. -1.
        -11    1    3    3    0    0 -0.12509596118E+02 -0.11268956964E+02 -0.17180551058E+01  0.16924275456E+02  0.51100000000E-03 0.  1.
         12    1    3    3    0    0 -0.10717960599E+02  0.20410409742E+02 -0.10136938132E+02  0.25183665737E+02  0.00000000000E+00 0. -1.
</event>
<event>
 7    1  0.1375918E-013  0.7246159E+02  0.7816164E-02  0.1226708E+00
        -11   -1    0    0    0    0  0.00000000000E+00  0.00000000000E+00  0.45593999997E+02  0.45594000000E+02  0.51100000000E-03 0. -1.
         11   -1    0    0    0    0 -0.00000000000E+00 -0.00000000000E+00 -0.45593999997E+02  0.45594000000E+02  0.51100000000E-03 0.  1.
    9900012    2    1    2    0    0  0.75593861050E+01  0.98373678351E+01 -0.14027131686E+02  0.72461586901E+02  0.70000021633E+02 0.  0.
         12    1    1    2    0    0 -0.75593861050E+01 -0.98373678351E+01  0.14027131686E+02  0.18726413099E+02  0.00000000000E+00 0. -1.
         11    1    3    3    0    0 -0.11144659482E+02  0.23146321704E+02  0.38226412689E+01  0.25972451365E+02  0.51100000000E-03 0. -1.
        -11    1    3    3    0    0  0.19539673550E+02 -0.20662894008E+02 -0.14255436668E+01  0.28474307827E+02  0.51100000000E-03 0.  1.
        -12    1    3    3    0    0 -0.83562796320E+00  0.73539401395E+01 -0.16424229288E+02  0.18014827709E+02  0.00000000000E+00 0.  1.
</event>
<event>
 7    1  0.1375918E-013  0.7246155E+02  0.7816164E-02  0.1226708E+00
        -11   -1    0    0    0    0  0.00000000000E+00  0.00000000000E+00  0.45593999997E+02  0.45594000000E+02  0.51100000000E-03 0.  1.
         11   -1    0    0    0    0 -0.00000000000E+00 -0.00000000000E+00 -0.45593999997E+02  0.45594000000E+02  0.51100000000E-03 0. -1.
    9900012    2    1    2    0    0  0.14448214873E+02 -0.10585170528E+02  0.54665631901E+01  0.72461546485E+02  0.69999968984E+02 0.  0.
         12    1    1    2    0    0 -0.14448214873E+02  0.10585170528E+02 -0.54665631901E+01  0.18726453515E+02  0.00000000000E+00 0. -1.
         11    1    3    3    0    0 -0.53858999087E+01 -0.11402441086E+02 -0.76082166283E+01  0.14727815217E+02  0.51100000000E-03 0. -1.
        -11    1    3    3    0    0  0.17392685201E+01  0.23338257667E+02 -0.46214314068E+01  0.23854914681E+02  0.51100000000E-03 0.  1.
        -12    1    3    3    0    0  0.18094846262E+02 -0.22520987109E+02  0.17696211225E+02  0.33878816587E+02  0.00000000000E+00 0.  1.
</event>
<event>
 7    1  0.1375918E-013  0.7246155E+02  0.7816164E-02  0.1226708E+00
        -11   -1    0    0    0    0  0.00000000000E+00  0.00000000000E+00  0.45593999997E+02  0.45594000000E+02  0.51100000000E-03 0. -1.
         11   -1    0    0    0    0 -0.00000000000E+00 -0.00000000000E+00 -0.45593999997E+02  0.45594000000E+02  0.51100000000E-03 0.  1.
    9900012    2    1    2    0    0  0.12796467920E+02  0.33371513341E+01  0.13258717678E+02  0.72461554402E+02  0.69999979297E+02 0.  0.
         12    1    1    2    0    0 -0.12796467920E+02 -0.33371513341E+01 -0.13258717678E+02  0.18726445598E+02  0.00000000000E+00 0. -1.
         11    1    3    3    0    0 -0.19276989662E+02 -0.13053289482E+02  0.16265754159E+02  0.28400096045E+02  0.51100000000E-03 0. -1.
        -11    1    3    3    0    0  0.23259552909E+02  0.23072618499E+02 -0.73707496641E+00  0.32770349490E+02  0.51100000000E-03 0.  1.
        -12    1    3    3    0    0  0.88139046736E+01 -0.66821776824E+01 -0.22699615146E+01  0.11291108867E+02  0.00000000000E+00 0.  1.
</event>
<event>
 7    1  0.1375918E-013  0.7246163E+02  0.7816164E-02  0.1226708E+00
        -11   -1    0    0    0    0  0.00000000000E+00  0.00000000000E+00  0.45593999997E+02  0.45594000000E+02  0.51100000000E-03 0.  1.
         11   -1    0    0    0    0 -0.00000000000E+00 -0.00000000000E+00 -0.45593999997E+02  0.45594000000E+02  0.51100000000E-03 0. -1.
    9900012    2    1    2    0    0  0.90377918287E+01 -0.75902014559E+01  0.14539052104E+02  0.72461631549E+02  0.70000079796E+02 0.  0.
         12    1    1    2    0    0 -0.90377918287E+01  0.75902014559E+01 -0.14539052104E+02  0.18726368451E+02  0.00000000000E+00 0. -1.
         11    1    3    3    0    0 -0.27208108641E+01  0.34417178960E+01 -0.13971313070E+02  0.14643968826E+02  0.51100000000E-03 0. -1.
        -11    1    3    3    0    0 -0.14743402479E+02 -0.32467748216E+01  0.26021836750E+02  0.30083973333E+02  0.51100000000E-03 0.  1.
        -12    1    3    3    0    0  0.26502005171E+02 -0.77851445304E+01  0.24885284229E+01  0.27733689390E+02  0.00000000000E+00 0.  1.
</event>
<event>
 7    1  0.1375918E-013  0.7246159E+02  0.7816164E-02  0.1226708E+00
        -11   -1    0    0    0    0  0.00000000000E+00  0.00000000000E+00  0.45593999997E+02  0.45594000000E+02  0.51100000000E-03 0. -1.
         11   -1    0    0    0    0 -0.00000000000E+00 -0.00000000000E+00 -0.45593999997E+02  0.45594000000E+02  0.51100000000E-03 0.  1.
    9900012    2    1    2    0    0  0.14311227882E+02 -0.12053895748E+02  0.75546322050E+00  0.72461591618E+02  0.70000027778E+02 0.  0.
         12    1    1    2    0    0 -0.14311227882E+02  0.12053895748E+02 -0.75546322050E+00  0.18726408382E+02  0.00000000000E+00 0. -1.
         11    1    3    3    0    0  0.12439324893E+02  0.20179114965E+02  0.89817747025E+01  0.25349669853E+02  0.51100000000E-03 0. -1.
        -11    1    3    3    0    0 -0.56105711254E+01 -0.29039204196E+02  0.65052274747E+01  0.30283194571E+02  0.51100000000E-03 0.  1.
        -12    1    3    3    0    0  0.74824741146E+01 -0.31938065178E+01 -0.14731538957E+02  0.16828727194E+02  0.00000000000E+00 0.  1.
</event>
<event>
 7    1  0.1375918E-013  0.7246140E+02  0.7816164E-02  0.1226708E+00
        -11   -1    0    0    0    0  0.00000000000E+00  0.00000000000E+00  0.45593999997E+02  0.45594000000E+02  0.51100000000E-03 0.  1.
         11   -1    0    0    0    0 -0.00000000000E+00 -0.00000000000E+00 -0.45593999997E+02  0.45594000000E+02  0.51100000000E-03 0. -1.
    9900012    2    1    2    0    0 -0.10850358373E+02 -0.43420859808E+01  0.14632213859E+02  0.72461396734E+02  0.69999773905E+02 0.  0.
         12    1    1    2    0    0  0.10850358373E+02  0.43420859808E+01 -0.14632213859E+02  0.18726603266E+02  0.00000000000E+00 0. -1.
         11    1    3    3    0    0  0.10454070776E+02  0.23889275084E+02  0.18960734311E+02  0.32241192684E+02  0.51100000000E-03 0. -1.
        -11    1    3    3    0    0 -0.97038264763E+01 -0.15965311925E+02 -0.11432801449E+02  0.21903524428E+02  0.51100000000E-03 0.  1.
         12    1    3    3    0    0 -0.11600602672E+02 -0.12266049140E+02  0.71042809968E+01  0.18316679621E+02  0.00000000000E+00 0. -1.
</event>
<event>
 7    1  0.1375918E-013  0.7246157E+02  0.7816164E-02  0.1226708E+00
        -11   -1    0    0    0    0  0.00000000000E+00  0.00000000000E+00  0.45593999997E+02  0.45594000000E+02  0.51100000000E-03 0. -1.
         11   -1    0    0    0    0 -0.00000000000E+00 -0.00000000000E+00 -0.45593999997E+02  0.45594000000E+02  0.51100000000E-03 0.  1.
    9900012    2    1    2    0    0  0.12517662660E+01 -0.16605775134E+02 -0.85650687282E+01  0.72461572447E+02  0.70000002805E+02 0.  0.
         12    1    1    2    0    0 -0.12517662660E+01  0.16605775134E+02  0.85650687282E+01  0.18726427553E+02  0.00000000000E+00 0. -1.
         11    1    3    3    0    0  0.32720658946E+02 -0.50830039290E+01  0.37259135465E+01  0.33322078009E+02  0.51100000000E-03 0. -1.
        -11    1    3    3    0    0 -0.16566075100E+02  0.19061753464E+00 -0.34937182379E-01  0.16567208580E+02  0.51100000000E-03 0.  1.
         12    1    3    3    0    0 -0.14902817580E+02 -0.11713388739E+02 -0.12256045092E+02  0.22572285859E+02  0.00000000000E+00 0. -1.
</event>
<event>
 7    1  0.1375918E-013  0.7246153E+02  0.7816164E-02  0.1226708E+00
        -11   -1    0    0    0    0  0.00000000000E+00  0.00000000000E+00  0.45593999997E+02  0.45594000000E+02  0.51100000000E-03 0. -1.
         11   -1    0    0    0    0 -0.00000000000E+00 -0.00000000000E+00 -0.45593999997E+02  0.45594000000E+02  0.51100000000E-03 0.  1.
    9900012    2    1    2    0    0  0.15874961655E+01 -0.81635717396E+01 -0.16778459347E+02  0.72461528210E+02  0.69999945178E+02 0.  0.
         12    1    1    2    0    0 -0.15874961655E+01  0.81635717396E+01  0.16778459347E+02  0.18726471790E+02  0.00000000000E+00 0. -1.
         11    1    3    3    0    0  0.57243876646E+01 -0.21209042365E-01  0.12200287522E+02  0.13476501024E+02  0.51100000000E-03 0. -1.
        -11    1    3    3    0    0  0.16770549042E+02 -0.19277074226E+02 -0.23405186682E+02  0.34650536356E+02  0.51100000000E-03 0.  1.
        -12    1    3    3    0    0 -0.20907440541E+02  0.11134711529E+02 -0.55735601871E+01  0.24334490830E+02  0.00000000000E+00 0.  1.
</event>
<event>
 7    1  0.1375918E-013  0.7246148E+02  0.7816164E-02  0.1226708E+00
        -11   -1    0    0    0    0  0.00000000000E+00  0.00000000000E+00  0.45593999997E+02  0.45594000000E+02  0.51100000000E-03 0. -1.
         11   -1    0    0    0    0 -0.00000000000E+00 -0.00000000000E+00 -0.45593999997E+02  0.45594000000E+02  0.51100000000E-03 0.  1.
    9900012    2    1    2    0    0 -0.18954433537E+01  0.14851965117E+02 -0.11247626842E+02  0.72461476486E+02  0.69999877797E+02 0.  0.
         12    1    1    2    0    0  0.18954433537E+01 -0.14851965117E+02  0.11247626842E+02  0.18726523514E+02  0.00000000000E+00 0. -1.
         11    1    3    3    0    0 -0.83957357079E+01 -0.26237990321E+02 -0.36385485440E+01  0.27787758994E+02  0.51100000000E-03 0. -1.
        -11    1    3    3    0    0 -0.13200174175E+01  0.14115714616E+02  0.32797820699E+01  0.14551728962E+02  0.51100000000E-03 0.  1.
         12    1    3    3    0    0  0.78203097718E+01  0.26974240822E+02 -0.10888860368E+02  0.30121988529E+02  0.00000000000E+00 0. -1.
</event>
<event>
 7    1  0.1375918E-013  0.7246154E+02  0.7816164E-02  0.1226708E+00
        -11   -1    0    0    0    0  0.00000000000E+00  0.00000000000E+00  0.45593999997E+02  0.45594000000E+02  0.51100000000E-03 0.  1.
         11   -1    0    0    0    0 -0.00000000000E+00 -0.00000000000E+00 -0.45593999997E+02  0.45594000000E+02  0.51100000000E-03 0. -1.
    9900012    2    1    2    0    0 -0.15245791077E+01  0.13238943668E+02  0.13156234288E+02  0.72461535530E+02  0.69999954713E+02 0.  0.
         12    1    1    2    0    0  0.15245791077E+01 -0.13238943668E+02 -0.13156234288E+02  0.18726464470E+02  0.00000000000E+00 0. -1.
         11    1    3    3    0    0  0.19602847509E+01  0.16635886839E+01 -0.25832300025E+02  0.25959930055E+02  0.51100000000E-03 0. -1.
        -11    1    3    3    0    0  0.85031083037E+01  0.77733027224E-01  0.16273441038E+02  0.18361203030E+02  0.51100000000E-03 0.  1.
         12    1    3    3    0    0 -0.11987972162E+02  0.11497621957E+02  0.22715093275E+02  0.28140402445E+02  0.00000000000E+00 0. -1.
</event>
<event>
 7    1  0.1375918E-013  0.7246155E+02  0.7816164E-02  0.1226708E+00
        -11   -1    0    0    0    0  0.00000000000E+00  0.00000000000E+00  0.45593999997E+02  0.45594000000E+02  0.51100000000E-03 0. -1.
         11   -1    0    0    0    0 -0.00000000000E+00 -0.00000000000E+00 -0.45593999997E+02  0.45594000000E+02  0.51100000000E-03 0.  1.
    9900012    2    1    2    0    0  0.93784140092E+00  0.76442314273E+01 -0.17069450022E+02  0.72461549598E+02  0.69999973039E+02 0.  0.
         12    1    1    2    0    0 -0.93784140092E+00 -0.76442314273E+01  0.17069450022E+02  0.18726450402E+02  0.00000000000E+00 0. -1.
         11    1    3    3    0    0 -0.66571049264E+01  0.98916135650E+01  0.68464680435E+01  0.13749006868E+02  0.51100000000E-03 0. -1.
        -11    1    3    3    0    0 -0.85660549635E+01 -0.14617311566E+02 -0.32479279702E+02  0.36632590753E+02  0.51100000000E-03 0.  1.
        -12    1    3    3    0    0  0.16161001291E+02  0.12369929428E+02  0.85633616360E+01  0.22079951977E+02  0.00000000000E+00 0.  1.
</event>
<event>
 7    1  0.1375918E-013  0.7246159E+02  0.7816164E-02  0.1226708E+00
        -11   -1    0    0    0    0  0.00000000000E+00  0.00000000000E+00  0.45593999997E+02  0.45594000000E+02  0.51100000000E-03 0.  1.
         11   -1    0    0    0    0 -0.00000000000E+00 -0.00000000000E+00 -0.45593999997E+02  0.45594000000E+02  0.51100000000E-03 0. -1.
    9900012    2    1    2    0    0  0.25542584760E+01  0.17901033672E+02 -0.48690058513E+01  0.72461589216E+02  0.70000024649E+02 0.  0.
         12    1    1    2    0    0 -0.25542584760E+01 -0.17901033672E+02  0.48690058513E+01  0.18726410784E+02  0.00000000000E+00 0. -1.
         11    1    3    3    0    0 -0.10202830636E+01  0.77388254591E+01 -0.18773873388E+02  0.20331962995E+02  0.51100000000E-03 0. -1.
        -11    1    3    3    0    0 -0.21085613470E+02  0.19315577001E+01  0.15255370590E+02  0.26097132843E+02  0.51100000000E-03 0.  1.
        -12    1    3    3    0    0  0.24660155009E+02  0.82306505126E+01 -0.13505030536E+01  0.26032493377E+02  0.00000000000E+00 0.  1.
</event>
<event>
 7    1  0.1375918E-013  0.7246156E+02  0.7816164E-02  0.1226708E+00
        -11   -1    0    0    0    0  0.00000000000E+00  0.00000000000E+00  0.45593999997E+02  0.45594000000E+02  0.51100000000E-03 0.  1.
         11   -1    0    0    0    0 -0.00000000000E+00 -0.00000000000E+00 -0.45593999997E+02  0.45594000000E+02  0.51100000000E-03 0. -1.
    9900012    2    1    2    0    0 -0.60476825739E+01 -0.58453475746E+00  0.17713369991E+02  0.72461558218E+02  0.69999984268E+02 0.  0.
         12    1    1    2    0    0  0.60476825739E+01  0.58453475746E+00 -0.17713369991E+02  0.18726441782E+02  0.00000000000E+00 0. -1.
         11    1    3    3    0    0 -0.11181113139E+02 -0.24429981334E+02  0.84261394746E+01  0.28157434288E+02  0.51100000000E-03 0. -1.
        -11    1    3    3    0    0  0.13300179831E+02  0.25186334762E+02  0.16849719616E+02  0.33093191047E+02  0.51100000000E-03 0.  1.
         12    1    3    3    0    0 -0.81667492663E+01 -0.13408881860E+01 -0.75624890996E+01  0.11210932882E+02  0.00000000000E+00 0. -1.
</event>
<event>
 7    1  0.1375918E-013  0.7246155E+02  0.7816164E-02  0.1226708E+00
        -11   -1    0    0    0    0  0.00000000000E+00  0.00000000000E+00  0.45593999997E+02  0.45594000000E+02  0.51100000000E-03 0.  1.
         11   -1    0    0    0    0 -0.00000000000E+00 -0.00000000000E+00 -0.45593999997E+02  0.45594000000E+02  0.51100000000E-03 0. -1.
    9900012    2    1    2    0    0 -0.69830774554E+01 -0.17211042799E+02 -0.23867402320E+01  0.72461550953E+02  0.69999974804E+02 0.  0.
         12    1    1    2    0    0  0.69830774554E+01  0.17211042799E+02  0.23867402320E+01  0.18726449047E+02  0.00000000000E+00 0. -1.
         11    1    3    3    0    0 -0.39696263884E+01 -0.38548718466E+01 -0.30556087758E+02  0.31053058947E+02  0.51100000000E-03 0. -1.
        -11    1    3    3    0    0  0.40191569105E+00 -0.22057564406E+01  0.29577207625E+02  0.29662065148E+02  0.51100000000E-03 0.  1.
         12    1    3    3    0    0 -0.34153667581E+01 -0.11150414512E+02 -0.14078600987E+01  0.11746426858E+02  0.00000000000E+00 0. -1.
</event>
<event>
 7    1  0.1375918E-013  0.7246170E+02  0.7816164E-02  0.1226708E+00
        -11   -1    0    0    0    0  0.00000000000E+00  0.00000000000E+00  0.45593999997E+02  0.45594000000E+02  0.51100000000E-03 0.  1.
         11   -1    0    0    0    0 -0.00000000000E+00 -0.00000000000E+00 -0.45593999997E+02  0.45594000000E+02  0.51100000000E-03 0. -1.
    9900012    2    1    2    0    0 -0.18365490174E+01  0.12321537918E+01  0.18595246216E+02  0.72461700390E+02  0.70000169473E+02 0.  0.
         12    1    1    2    0    0  0.18365490174E+01 -0.12321537918E+01 -0.18595246216E+02  0.18726299610E+02  0.00000000000E+00 0. -1.
         11    1    3    3    0    0  0.80433203823E+01  0.50508645177E+01 -0.14939009266E+02  0.17702548778E+02  0.51100000000E-03 0. -1.
        -11    1    3    3    0    0 -0.10607259206E+02 -0.21493140987E+02  0.26476476739E+02  0.35713763147E+02  0.51100000000E-03 0.  1.
         12    1    3    3    0    0  0.72738980666E+00  0.17674430261E+02  0.70577787425E+01  0.19045388464E+02  0.00000000000E+00 0. -1.
</event>
<event>
 7    1  0.1375918E-013  0.7246169E+02  0.7816164E-02  0.1226708E+00
        -11   -1    0    0    0    0  0.00000000000E+00  0.00000000000E+00  0.45593999997E+02  0.45594000000E+02  0.51100000000E-03 0. -1.
         11   -1    0    0    0    0 -0.00000000000E+00 -0.00000000000E+00 -0.45593999997E+02  0.45594000000E+02  0.51100000000E-03 0.  1.
    9900012    2    1    2    0    0  0.26737814986E+01 -0.16910724338E+02 -0.75863776213E+01  0.72461686146E+02  0.70000150918E+02 0.  0.
         12    1    1    2    0    0 -0.26737814986E+01  0.16910724338E+02  0.75863776213E+01  0.18726313854E+02  0.00000000000E+00 0. -1.
         11    1    3    3    0    0  0.15425954766E+02 -0.19939122685E+02  0.17880532687E+02  0.30906991819E+02  0.51100000000E-03 0. -1.
        -11    1    3    3    0    0  0.67095572558E+01  0.62702560824E+01 -0.18458968038E+02  0.20617171756E+02  0.51100000000E-03 0.  1.
        -12    1    3    3    0    0 -0.19461730524E+02 -0.32418577363E+01 -0.70079422694E+01  0.20937522571E+02  0.00000000000E+00 0.  1.
</event>
<event>
 7    1  0.1375918E-013  0.7246163E+02  0.7816164E-02  0.1226708E+00
        -11   -1    0    0    0    0  0.00000000000E+00  0.00000000000E+00  0.45593999997E+02  0.45594000000E+02  0.51100000000E-03 0. -1.
         11   -1    0    0    0    0 -0.00000000000E+00 -0.00000000000E+00 -0.45593999997E+02  0.45594000000E+02  0.51100000000E-03 0.  1.
    9900012    2    1    2    0    0 -0.12703824093E+02 -0.12705680676E+02 -0.52778158200E+01  0.72461633352E+02  0.70000082144E+02 0.  0.
         12    1    1    2    0    0  0.12703824093E+02  0.12705680676E+02  0.52778158200E+01  0.18726366648E+02  0.00000000000E+00 0. -1.
         11    1    3    3    0    0 -0.28434981585E+02  0.32155621986E+01  0.13303372758E+01  0.28647125781E+02  0.51100000000E-03 0. -1.
        -11    1    3    3    0    0  0.23996385890E+02 -0.66337798442E+01 -0.14764488453E+02  0.28945184234E+02  0.51100000000E-03 0.  1.
        -12    1    3    3    0    0 -0.82652283990E+01 -0.92874630301E+01  0.81563353573E+01  0.14869323336E+02  0.00000000000E+00 0.  1.
</event>
<event>
 7    1  0.1375918E-013  0.7246155E+02  0.7816164E-02  0.1226708E+00
        -11   -1    0    0    0    0  0.00000000000E+00  0.00000000000E+00  0.45593999997E+02  0.45594000000E+02  0.51100000000E-03 0.  1.
         11   -1    0    0    0    0 -0.00000000000E+00 -0.00000000000E+00 -0.45593999997E+02  0.45594000000E+02  0.51100000000E-03 0. -1.
    9900012    2    1    2    0    0 -0.17528758321E+02 -0.55011737704E+01  0.36276208238E+01  0.72461550418E+02  0.69999974107E+02 0.  0.
         12    1    1    2    0    0  0.17528758321E+02  0.55011737704E+01 -0.36276208238E+01  0.18726449582E+02  0.00000000000E+00 0. -1.
         11    1    3    3    0    0 -0.21529797879E+01  0.27779067326E+02 -0.78487106220E+01  0.28946747005E+02  0.51100000000E-03 0. -1.
        -11    1    3    3    0    0 -0.45828556917E+01 -0.16049828744E+02  0.15512117329E+02  0.22786516919E+02  0.51100000000E-03 0.  1.
         12    1    3    3    0    0 -0.10792922841E+02 -0.17230412353E+02 -0.40357858833E+01  0.20728286494E+02  0.00000000000E+00 0. -1.
</event>
<event>
 7    1  0.1375918E-013  0.7246165E+02  0.7816164E-02  0.1226708E+00
        -11   -1    0    0    0    0  0.00000000000E+00  0.00000000000E+00  0.45593999997E+02  0.45594000000E+02  0.51100000000E-03 0. -1.
         11   -1    0    0    0    0 -0.00000000000E+00 -0.00000000000E+00 -0.45593999997E+02  0.45594000000E+02  0.51100000000E-03 0.  1.
    9900012    2    1    2    0    0 -0.17783297135E+02 -0.32244248140E+00  0.58588912528E+01  0.72461648704E+02  0.70000102143E+02 0.  0.
         12    1    1    2    0    0  0.17783297135E+02  0.32244248140E+00 -0.58588912528E+01  0.18726351296E+02  0.00000000000E+00 0. -1.
         11    1    3    3    0    0 -0.19241049511E+02 -0.53539226257E+01  0.26071970754E+02  0.32842504975E+02  0.51100000000E-03 0. -1.
        -11    1    3    3    0    0 -0.14148064288E+02  0.71557700486E+01 -0.17540841609E+02  0.23644320516E+02  0.51100000000E-03 0.  1.
         12    1    3    3    0    0  0.15605816663E+02 -0.21242899043E+01 -0.26722378923E+01  0.15974823213E+02  0.00000000000E+00 0. -1.
</event>
<event>
 7    1  0.1375918E-013  0.7246158E+02  0.7816164E-02  0.1226708E+00
        -11   -1    0    0    0    0  0.00000000000E+00  0.00000000000E+00  0.45593999997E+02  0.45594000000E+02  0.51100000000E-03 0. -1.
         11   -1    0    0    0    0 -0.00000000000E+00 -0.00000000000E+00 -0.45593999997E+02  0.45594000000E+02  0.51100000000E-03 0.  1.
    9900012    2    1    2    0    0 -0.18697265355E+02 -0.31783833167E-01 -0.10440981382E+01  0.72461577947E+02  0.70000009969E+02 0.  0.
         12    1    1    2    0    0  0.18697265355E+02  0.31783833167E-01  0.10440981382E+01  0.18726422053E+02  0.00000000000E+00 0. -1.
         11    1    3    3    0    0  0.16743078812E+01 -0.41212827489E+01  0.69749769431E+01  0.82727614492E+01  0.51100000000E-03 0. -1.
        -11    1    3    3    0    0 -0.22592486258E+02  0.17349871311E+02 -0.28106092768E+02  0.40017382733E+02  0.51100000000E-03 0.  1.
        -12    1    3    3    0    0  0.22209130215E+01 -0.13260372395E+02  0.20087017687E+02  0.24171433765E+02  0.00000000000E+00 0.  1.
</event>
<event>
 7    1  0.1375918E-013  0.7246154E+02  0.7816164E-02  0.1226708E+00
        -11   -1    0    0    0    0  0.00000000000E+00  0.00000000000E+00  0.45593999997E+02  0.45594000000E+02  0.51100000000E-03 0. -1.
         11   -1    0    0    0    0 -0.00000000000E+00 -0.00000000000E+00 -0.45593999997E+02  0.45594000000E+02  0.51100000000E-03 0.  1.
    9900012    2    1    2    0    0  0.71322035380E+00 -0.98685772289E+01 -0.15899141081E+02  0.72461543130E+02  0.69999964613E+02 0.  0.
         12    1    1    2    0    0 -0.71322035380E+00  0.98685772289E+01  0.15899141081E+02  0.18726456870E+02  0.00000000000E+00 0. -1.
         11    1    3    3    0    0  0.54263978937E+01 -0.74069313068E+01  0.37016809421E+01  0.99000438152E+01  0.51100000000E-03 0. -1.
        -11    1    3    3    0    0 -0.90379518581E+01 -0.15207847335E+02 -0.36734957351E+02  0.40772788550E+02  0.51100000000E-03 0.  1.
        -12    1    3    3    0    0  0.43247743182E+01  0.12746201413E+02  0.17134135327E+02  0.21788710764E+02  0.00000000000E+00 0.  1.
</event>
<event>
 7    1  0.1375918E-013  0.7246160E+02  0.7816164E-02  0.1226708E+00
        -11   -1    0    0    0    0  0.00000000000E+00  0.00000000000E+00  0.45593999997E+02  0.45594000000E+02  0.51100000000E-03 0. -1.
         11   -1    0    0    0    0 -0.00000000000E+00 -0.00000000000E+00 -0.45593999997E+02  0.45594000000E+02  0.51100000000E-03 0.  1.
    9900012    2    1    2    0    0 -0.35405808166E+01 -0.18281217081E+02 -0.19847837286E+01  0.72461602137E+02  0.70000041481E+02 0.  0.
         12    1    1    2    0    0  0.35405808166E+01  0.18281217081E+02  0.19847837286E+01  0.18726397863E+02  0.00000000000E+00 0. -1.
         11    1    3    3    0    0  0.72382254296E+00  0.94979547673E+01  0.17322144213E+02  0.19768453258E+02  0.51100000000E-03 0. -1.
        -11    1    3    3    0    0  0.32770961995E+01 -0.36976660195E+02 -0.14098238878E+02  0.39708602323E+02  0.51100000000E-03 0.  1.
        -12    1    3    3    0    0 -0.75414995591E+01  0.91974883472E+01 -0.52086890631E+01  0.12984546556E+02  0.00000000000E+00 0.  1.
</event>
<event>
 7    1  0.1375918E-013  0.7246154E+02  0.7816164E-02  0.1226708E+00
        -11   -1    0    0    0    0  0.00000000000E+00  0.00000000000E+00  0.45593999997E+02  0.45594000000E+02  0.51100000000E-03 0.  1.
         11   -1    0    0    0    0 -0.00000000000E+00 -0.00000000000E+00 -0.45593999997E+02  0.45594000000E+02  0.51100000000E-03 0. -1.
    9900012    2    1    2    0    0 -0.21459063842E+01 -0.18468889392E+02 -0.22306027401E+01  0.72461538023E+02  0.69999957961E+02 0.  0.
         12    1    1    2    0    0  0.21459063842E+01  0.18468889392E+02  0.22306027401E+01  0.18726461977E+02  0.00000000000E+00 0. -1.
         11    1    3    3    0    0 -0.23247987004E+02 -0.20597071558E+02 -0.76162569462E+01  0.31979925369E+02  0.51100000000E-03 0.  1.
        -11    1    3    3    0    0  0.23954336117E+02  0.14112173033E+02  0.38495719322E+01  0.28067469619E+02  0.51100000000E-03 0. -1.
         12    1    3    3    0    0 -0.28522554968E+01 -0.11983990867E+02  0.15360822740E+01  0.12414143034E+02  0.00000000000E+00 0. -1.
</event>
<event>
 7    1  0.1375918E-013  0.7246153E+02  0.7816164E-02  0.1226708E+00
        -11   -1    0    0    0    0  0.00000000000E+00  0.00000000000E+00  0.45593999997E+02  0.45594000000E+02  0.51100000000E-03 0.  1.
         11   -1    0    0    0    0 -0.00000000000E+00 -0.00000000000E+00 -0.45593999997E+02  0.45594000000E+02  0.51100000000E-03 0. -1.
    9900012    2    1    2    0    0 -0.58655533071E+01  0.17500763489E+02 -0.31621607354E+01  0.72461529462E+02  0.69999946808E+02 0.  0.
         12    1    1    2    0    0  0.58655533071E+01 -0.17500763489E+02  0.31621607354E+01  0.18726470538E+02  0.00000000000E+00 0. -1.
         11    1    3    3    0    0  0.10778767465E+02  0.13507650249E+02 -0.77104339969E+01  0.18923245916E+02  0.51100000000E-03 0. -1.
        -11    1    3    3    0    0  0.71021782621E+01 -0.39443611075E+01  0.21712049476E+02  0.23182148592E+02  0.51100000000E-03 0.  1.
        -12    1    3    3    0    0 -0.23746499034E+02  0.79374743478E+01 -0.17163776215E+02  0.30356134954E+02  0.00000000000E+00 0.  1.
</event>
<event>
 7    1  0.1375918E-013  0.7246171E+02  0.7816164E-02  0.1226708E+00
        -11   -1    0    0    0    0  0.00000000000E+00  0.00000000000E+00  0.45593999997E+02  0.45594000000E+02  0.51100000000E-03 0.  1.
         11   -1    0    0    0    0 -0.00000000000E+00 -0.00000000000E+00 -0.45593999997E+02  0.45594000000E+02  0.51100000000E-03 0. -1.
    9900012    2    1    2    0    0 -0.63803196481E+01 -0.78387307047E+01  0.15764515143E+02  0.72461705237E+02  0.70000175787E+02 0.  0.
         12    1    1    2    0    0  0.63803196481E+01  0.78387307047E+01 -0.15764515143E+02  0.18726294763E+02  0.00000000000E+00 0. -1.
         11    1    3    3    0    0 -0.23943365091E+02 -0.28438177909E+02 -0.26942258945E+01  0.37272960013E+02  0.51100000000E-03 0.  1.
        -11    1    3    3    0    0  0.16254131913E+02  0.17108443426E+02  0.94164421158E+01  0.25407971645E+02  0.51100000000E-03 0. -1.
        -12    1    3    3    0    0  0.13089135300E+01  0.34910037783E+01  0.90422989218E+01  0.97807735788E+01  0.00000000000E+00 0.  1.
</event>
<event>
 7    1  0.1375918E-013  0.7246161E+02  0.7816164E-02  0.1226708E+00
        -11   -1    0    0    0    0  0.00000000000E+00  0.00000000000E+00  0.45593999997E+02  0.45594000000E+02  0.51100000000E-03 0. -1.
         11   -1    0    0    0    0 -0.00000000000E+00 -0.00000000000E+00 -0.45593999997E+02  0.45594000000E+02  0.51100000000E-03 0.  1.
    9900012    2    1    2    0    0  0.37716616175E+01 -0.15679061952E+02 -0.95194068641E+01  0.72461614281E+02  0.70000057300E+02 0.  0.
         12    1    1    2    0    0 -0.37716616175E+01  0.15679061952E+02  0.95194068641E+01  0.18726385719E+02  0.00000000000E+00 0. -1.
         11    1    3    3    0    0 -0.12073025042E+02  0.97994038976E+01 -0.23478805701E+02  0.28160975974E+02  0.51100000000E-03 0.  1.
        -11    1    3    3    0    0  0.11922980395E+02 -0.32131204563E+02  0.12212435680E+02  0.36382899193E+02  0.51100000000E-03 0. -1.
        -12    1    3    3    0    0  0.39217062644E+01  0.66527387129E+01  0.17469631566E+01  0.79177391140E+01  0.00000000000E+00 0.  1.
</event>
<event>
 7    1  0.1375918E-013  0.7246152E+02  0.7816164E-02  0.1226708E+00
        -11   -1    0    0    0    0  0.00000000000E+00  0.00000000000E+00  0.45593999997E+02  0.45594000000E+02  0.51100000000E-03 0. -1.
         11   -1    0    0    0    0 -0.00000000000E+00 -0.00000000000E+00 -0.45593999997E+02  0.45594000000E+02  0.51100000000E-03 0.  1.
    9900012    2    1    2    0    0 -0.93185490682E+01 -0.57113011668E+01 -0.15206144957E+02  0.72461517089E+02  0.69999930690E+02 0.  0.
         12    1    1    2    0    0  0.93185490682E+01  0.57113011668E+01  0.15206144957E+02  0.18726482911E+02  0.00000000000E+00 0. -1.
         11    1    3    3    0    0 -0.30257522929E+01  0.17231072115E+02  0.22695554508E+01  0.17641312462E+02  0.51100000000E-03 0. -1.
        -11    1    3    3    0    0 -0.99204720737E+01 -0.21720831116E+02 -0.31927829766E+02  0.39869745226E+02  0.51100000000E-03 0.  1.
        -12    1    3    3    0    0  0.36276752985E+01 -0.12215421659E+01  0.14452129358E+02  0.14950459401E+02  0.00000000000E+00 0.  1.
</event>
<event>
 7    1  0.1375918E-013  0.7246156E+02  0.7816164E-02  0.1226708E+00
        -11   -1    0    0    0    0  0.00000000000E+00  0.00000000000E+00  0.45593999997E+02  0.45594000000E+02  0.51100000000E-03 0.  1.
         11   -1    0    0    0    0 -0.00000000000E+00 -0.00000000000E+00 -0.45593999997E+02  0.45594000000E+02  0.51100000000E-03 0. -1.
    9900012    2    1    2    0    0 -0.13627626156E+02 -0.10654529374E+02  0.71727459651E+01  0.72461562124E+02  0.69999989357E+02 0.  0.
         12    1    1    2    0    0  0.13627626156E+02  0.10654529374E+02 -0.71727459651E+01  0.18726437876E+02  0.00000000000E+00 0. -1.
         11    1    3    3    0    0  0.70726937500E+01 -0.10752715916E+02 -0.12792352805E+02  0.18146299541E+02  0.51100000000E-03 0. -1.
        -11    1    3    3    0    0 -0.27027369735E+02 -0.39380890289E+01  0.30780376661E+02  0.41151170671E+02  0.51100000000E-03 0.  1.
         12    1    3    3    0    0  0.63270498289E+01  0.40362755710E+01 -0.10815277891E+02  0.13164091912E+02  0.00000000000E+00 0. -1.
</event>
<event>
 7    1  0.1375918E-013  0.7246155E+02  0.7816164E-02  0.1226708E+00
        -11   -1    0    0    0    0  0.00000000000E+00  0.00000000000E+00  0.45593999997E+02  0.45594000000E+02  0.51100000000E-03 0.  1.
         11   -1    0    0    0    0 -0.00000000000E+00 -0.00000000000E+00 -0.45593999997E+02  0.45594000000E+02  0.51100000000E-03 0. -1.
    9900012    2    1    2    0    0 -0.10332263280E+02  0.61327392289E+01  0.14363633089E+02  0.72461545171E+02  0.69999967273E+02 0.  0.
         12    1    1    2    0    0  0.10332263280E+02 -0.61327392289E+01 -0.14363633089E+02  0.18726454829E+02  0.00000000000E+00 0. -1.
         11    1    3    3    0    0 -0.94775926248E+01 -0.67360097889E+01 -0.42379112245E+01  0.12375721460E+02  0.51100000000E-03 0. -1.
        -11    1    3    3    0    0 -0.76565065492E+01 -0.21348232027E+01  0.35563505526E+02  0.36440945216E+02  0.51100000000E-03 0.  1.
        -12    1    3    3    0    0  0.68018358937E+01  0.15003572221E+02 -0.16961961213E+02  0.23644878496E+02  0.00000000000E+00 0.  1.
</event>
<event>
 7    1  0.1375918E-013  0.7246165E+02  0.7816164E-02  0.1226708E+00
        -11   -1    0    0    0    0  0.00000000000E+00  0.00000000000E+00  0.45593999997E+02  0.45594000000E+02  0.51100000000E-03 0. -1.
         11   -1    0    0    0    0 -0.00000000000E+00 -0.00000000000E+00 -0.45593999997E+02  0.45594000000E+02  0.51100000000E-03 0.  1.
    9900012    2    1    2    0    0  0.27165022060E+01 -0.57089242493E+01 -0.17626823726E+02  0.72461651851E+02  0.70000106243E+02 0.  0.
         12    1    1    2    0    0 -0.27165022060E+01  0.57089242493E+01  0.17626823726E+02  0.18726348149E+02  0.00000000000E+00 0. -1.
         11    1    3    3    0    0 -0.68752502279E+01  0.18627390027E+02 -0.14201435342E+02  0.24411667107E+02  0.51100000000E-03 0. -1.
        -11    1    3    3    0    0  0.11609640961E+02 -0.23587396515E+02 -0.18930503582E+02  0.32396188105E+02  0.51100000000E-03 0.  1.
        -12    1    3    3    0    0 -0.20178885266E+01 -0.74891776151E+00  0.15505115198E+02  0.15653796640E+02  0.00000000000E+00 0.  1.
</event>
<event>
 7    1  0.1375918E-013  0.7246184E+02  0.7816164E-02  0.1226707E+00
        -11   -1    0    0    0    0  0.00000000000E+00  0.00000000000E+00  0.45593999997E+02  0.45594000000E+02  0.51100000000E-03 0.  1.
         11   -1    0    0    0    0 -0.00000000000E+00 -0.00000000000E+00 -0.45593999997E+02  0.45594000000E+02  0.51100000000E-03 0. -1.
    9900012    2    1    2    0    0  0.75561814742E+01  0.10495973902E+02  0.13542810305E+02  0.72461840288E+02  0.70000351716E+02 0.  0.
         12    1    1    2    0    0 -0.75561814742E+01 -0.10495973902E+02 -0.13542810305E+02  0.18726159712E+02  0.00000000000E+00 0. -1.
         11    1    3    3    0    0 -0.86123546080E+01 -0.59537270967E+01  0.87978690467E+01  0.13675599375E+02  0.51100000000E-03 0. -1.
        -11    1    3    3    0    0  0.27930005798E+02  0.25763825534E+02  0.14742109495E+02  0.40757695257E+02  0.51100000000E-03 0.  1.
        -12    1    3    3    0    0 -0.11761469716E+02 -0.93141245354E+01 -0.99971682368E+01  0.18028545657E+02  0.00000000000E+00 0.  1.
</event>
<event>
 7    1  0.1375918E-013  0.7246156E+02  0.7816164E-02  0.1226708E+00
        -11   -1    0    0    0    0  0.00000000000E+00  0.00000000000E+00  0.45593999997E+02  0.45594000000E+02  0.51100000000E-03 0.  1.
         11   -1    0    0    0    0 -0.00000000000E+00 -0.00000000000E+00 -0.45593999997E+02  0.45594000000E+02  0.51100000000E-03 0. -1.
    9900012    2    1    2    0    0  0.73612229158E+01  0.11679712685E+02  0.12652120057E+02  0.72461563255E+02  0.69999990830E+02 0.  0.
         12    1    1    2    0    0 -0.73612229158E+01 -0.11679712685E+02 -0.12652120057E+02  0.18726436745E+02  0.00000000000E+00 0. -1.
         11    1    3    3    0    0 -0.22242453819E+01 -0.32455948877E+01 -0.23122386705E+02  0.23454763287E+02  0.51100000000E-03 0. -1.
        -11    1    3    3    0    0  0.13769910084E+02  0.15161677708E+02  0.98159902286E+01  0.22712123614E+02  0.51100000000E-03 0.  1.
         12    1    3    3    0    0 -0.41844417867E+01 -0.23637013512E+00  0.25958516533E+02  0.26294676353E+02  0.00000000000E+00 0. -1.
</event>
<event>
 7    1  0.2016933E-013  0.7246157E+02  0.7816164E-02  0.1226708E+00
        -11   -1    0    0    0    0  0.00000000000E+00  0.00000000000E+00  0.45593999997E+02  0.45594000000E+02  0.51100000000E-03 0.  1.
         11   -1    0    0    0    0 -0.00000000000E+00 -0.00000000000E+00 -0.45593999997E+02  0.45594000000E+02  0.51100000000E-03 0. -1.
    9900012    2    1    2    0    0 -0.13355286891E+02 -0.13121129404E+02 -0.38917927391E+00  0.72461569874E+02  0.69999999452E+02 0.  0.
         12    1    1    2    0    0  0.13355286891E+02  0.13121129404E+02  0.38917927391E+00  0.18726430126E+02  0.00000000000E+00 0. -1.
         11    1    3    3    0    0 -0.10886569518E+02  0.22213884537E+02  0.91724429988E+01  0.26383854398E+02  0.51100000000E-03 0. -1.
        -11    1    3    3    0    0 -0.59438423446E+01 -0.23159930344E+02  0.72922913460E+01  0.24997782875E+02  0.51100000000E-03 0.  1.
         12    1    3    3    0    0  0.34751249717E+01 -0.12175083597E+02 -0.16853913619E+02  0.21079932600E+02  0.00000000000E+00 0. -1.
</event>
<event>
 7    1  0.1375918E-013  0.7246157E+02  0.7816164E-02  0.1226708E+00
        -11   -1    0    0    0    0  0.00000000000E+00  0.00000000000E+00  0.45593999997E+02  0.45594000000E+02  0.51100000000E-03 0.  1.
         11   -1    0    0    0    0 -0.00000000000E+00 -0.00000000000E+00 -0.45593999997E+02  0.45594000000E+02  0.51100000000E-03 0. -1.
    9900012    2    1    2    0    0 -0.19882488518E+01 -0.11517293537E+02  0.14631408293E+02  0.72461567009E+02  0.69999995721E+02 0.  0.
         12    1    1    2    0    0  0.19882488518E+01  0.11517293537E+02 -0.14631408293E+02  0.18726432991E+02  0.00000000000E+00 0. -1.
         11    1    3    3    0    0  0.14079567447E+02 -0.10242149662E+02 -0.22861004924E+02  0.28736064372E+02  0.51100000000E-03 0. -1.
        -11    1    3    3    0    0 -0.16694249501E+02  0.16012120822E+01  0.20528831252E+02  0.26508390358E+02  0.51100000000E-03 0.  1.
        -12    1    3    3    0    0  0.62643320218E+00 -0.28763559578E+01  0.16963581965E+02  0.17217112279E+02  0.00000000000E+00 0.  1.
</event>
<event>
 7    1  0.1375918E-013  0.7246154E+02  0.7816164E-02  0.1226708E+00
        -11   -1    0    0    0    0  0.00000000000E+00  0.00000000000E+00  0.45593999997E+02  0.45594000000E+02  0.51100000000E-03 0.  1.
         11   -1    0    0    0    0 -0.00000000000E+00 -0.00000000000E+00 -0.45593999997E+02  0.45594000000E+02  0.51100000000E-03 0. -1.
    9900012    2    1    2    0    0  0.15659516988E+02 -0.85449653851E+01  0.56959247662E+01  0.72461535713E+02  0.69999954952E+02 0.  0.
         12    1    1    2    0    0 -0.15659516988E+02  0.85449653851E+01 -0.56959247662E+01  0.18726464287E+02  0.00000000000E+00 0. -1.
         11    1    3    3    0    0  0.19921124173E+02 -0.20608733009E+01 -0.21410444603E+02  0.29317324664E+02  0.51100000000E-03 0. -1.
        -11    1    3    3    0    0 -0.13410622184E+02 -0.10403520792E+02  0.28422227626E+02  0.33104396320E+02  0.51100000000E-03 0.  1.
        -12    1    3    3    0    0  0.91490149996E+01  0.39194287075E+01 -0.13158582568E+01  0.10039814730E+02  0.00000000000E+00 0.  1.
</event>
<event>
 7    1  0.1375918E-013  0.7246154E+02  0.7816164E-02  0.1226708E+00
        -11   -1    0    0    0    0  0.00000000000E+00  0.00000000000E+00  0.45593999997E+02  0.45594000000E+02  0.51100000000E-03 0.  1.
         11   -1    0    0    0    0 -0.00000000000E+00 -0.00000000000E+00 -0.45593999997E+02  0.45594000000E+02  0.51100000000E-03 0. -1.
    9900012    2    1    2    0    0  0.90782956406E+01 -0.89350938017E+01  0.13726940761E+02  0.72461541295E+02  0.69999962223E+02 0.  0.
         12    1    1    2    0    0 -0.90782956406E+01  0.89350938017E+01 -0.13726940761E+02  0.18726458705E+02  0.00000000000E+00 0. -1.
         11    1    3    3    0    0  0.97987151579E+01 -0.34023059601E+02  0.19632068378E+01  0.35460366393E+02  0.51100000000E-03 0. -1.
        -11    1    3    3    0    0  0.82527838972E+01  0.23975158799E+02  0.53462293332E+01  0.25913294848E+02  0.51100000000E-03 0.  1.
        -12    1    3    3    0    0 -0.89732034145E+01  0.11128070001E+01  0.64175045899E+01  0.11087880054E+02  0.00000000000E+00 0.  1.
</event>
<event>
 7    1  0.1375918E-013  0.7246154E+02  0.7816164E-02  0.1226708E+00
        -11   -1    0    0    0    0  0.00000000000E+00  0.00000000000E+00  0.45593999997E+02  0.45594000000E+02  0.51100000000E-03 0.  1.
         11   -1    0    0    0    0 -0.00000000000E+00 -0.00000000000E+00 -0.45593999997E+02  0.45594000000E+02  0.51100000000E-03 0. -1.
    9900012    2    1    2    0    0 -0.16797334234E+02 -0.37259993132E+01 -0.73923565672E+01  0.72461536269E+02  0.69999955675E+02 0.  0.
         12    1    1    2    0    0  0.16797334234E+02  0.37259993132E+01  0.73923565672E+01  0.18726463731E+02  0.00000000000E+00 0. -1.
         11    1    3    3    0    0  0.22393654627E+02 -0.18719234525E+02  0.12162230373E+01  0.29212406739E+02  0.51100000000E-03 0. -1.
        -11    1    3    3    0    0 -0.10413095691E+02  0.68674362660E+01 -0.21796397100E+01  0.12662743473E+02  0.51100000000E-03 0.  1.
         12    1    3    3    0    0 -0.28777893170E+02  0.81257989456E+01 -0.64289398946E+01  0.30586386057E+02  0.00000000000E+00 0. -1.
</event>
<event>
 7    1  0.1375918E-013  0.7246158E+02  0.7816164E-02  0.1226708E+00
        -11   -1    0    0    0    0  0.00000000000E+00  0.00000000000E+00  0.45593999997E+02  0.45594000000E+02  0.51100000000E-03 0.  1.
         11   -1    0    0    0    0 -0.00000000000E+00 -0.00000000000E+00 -0.45593999997E+02  0.45594000000E+02  0.51100000000E-03 0. -1.
    9900012    2    1    2    0    0 -0.15473865157E+02 -0.12017210245E+01  0.10478271405E+02  0.72461579948E+02  0.70000012576E+02 0.  0.
         12    1    1    2    0    0  0.15473865157E+02  0.12017210245E+01 -0.10478271405E+02  0.18726420052E+02  0.00000000000E+00 0. -1.
         11    1    3    3    0    0 -0.78473564660E-01  0.25178979961E+01  0.16033914075E+02  0.16230599781E+02  0.51100000000E-03 0. -1.
        -11    1    3    3    0    0  0.15696753588E+02 -0.83842900955E-01 -0.16778173423E+02  0.22976122530E+02  0.51100000000E-03 0.  1.
        -12    1    3    3    0    0 -0.31092145181E+02 -0.36357761196E+01  0.11222530753E+02  0.33254857637E+02  0.00000000000E+00 0.  1.
</event>
<event>
 7    1  0.1375918E-013  0.7246152E+02  0.7816164E-02  0.1226708E+00
        -11   -1    0    0    0    0  0.00000000000E+00  0.00000000000E+00  0.45593999997E+02  0.45594000000E+02  0.51100000000E-03 0.  1.
         11   -1    0    0    0    0 -0.00000000000E+00 -0.00000000000E+00 -0.45593999997E+02  0.45594000000E+02  0.51100000000E-03 0. -1.
    9900012    2    1    2    0    0 -0.99437394082E+00 -0.79360727066E+01  0.16932545346E+02  0.72461518178E+02  0.69999932109E+02 0.  0.
         12    1    1    2    0    0  0.99437394082E+00  0.79360727066E+01 -0.16932545346E+02  0.18726481822E+02  0.00000000000E+00 0. -1.
         11    1    3    3    0    0  0.19934937142E+02  0.38177324342E+01 -0.41238552020E+01  0.20711904350E+02  0.51100000000E-03 0. -1.
        -11    1    3    3    0    0 -0.24545354960E+02 -0.21052897706E+02  0.25148958832E+02  0.40965462069E+02  0.51100000000E-03 0.  1.
        -12    1    3    3    0    0  0.36160438771E+01  0.92990925650E+01 -0.40925582848E+01  0.10784151759E+02  0.00000000000E+00 0.  1.
</event>
<event>
 7    1  0.1375918E-013  0.7246156E+02  0.7816164E-02  0.1226708E+00
        -11   -1    0    0    0    0  0.00000000000E+00  0.00000000000E+00  0.45593999997E+02  0.45594000000E+02  0.51100000000E-03 0. -1.
         11   -1    0    0    0    0 -0.00000000000E+00 -0.00000000000E+00 -0.45593999997E+02  0.45594000000E+02  0.51100000000E-03 0.  1.
    9900012    2    1    2    0    0  0.81866756969E+01 -0.91015673990E+00 -0.16817533701E+02  0.72461561897E+02  0.69999989060E+02 0.  0.
         12    1    1    2    0    0 -0.81866756969E+01  0.91015673990E+00  0.16817533701E+02  0.18726438103E+02  0.00000000000E+00 0. -1.
         11    1    3    3    0    0 -0.59701383507E+01 -0.17044908746E+02  0.17724515275E+02  0.25304740822E+02  0.51100000000E-03 0. -1.
        -11    1    3    3    0    0 -0.20062612631E+01  0.15709482712E+02 -0.15257860666E+02  0.21991253800E+02  0.51100000000E-03 0.  1.
         12    1    3    3    0    0  0.16163075311E+02  0.42526929441E+00 -0.19284188310E+02  0.25165567274E+02  0.00000000000E+00 0. -1.
</event>
<event>
 7    1  0.1375918E-013  0.7246164E+02  0.7816164E-02  0.1226708E+00
        -11   -1    0    0    0    0  0.00000000000E+00  0.00000000000E+00  0.45593999997E+02  0.45594000000E+02  0.51100000000E-03 0.  1.
         11   -1    0    0    0    0 -0.00000000000E+00 -0.00000000000E+00 -0.45593999997E+02  0.45594000000E+02  0.51100000000E-03 0. -1.
    9900012    2    1    2    0    0 -0.59168087003E+01 -0.10957206237E+02  0.13985970816E+02  0.72461644952E+02  0.70000097256E+02 0.  0.
         12    1    1    2    0    0  0.59168087003E+01  0.10957206237E+02 -0.13985970816E+02  0.18726355048E+02  0.00000000000E+00 0. -1.
         11    1    3    3    0    0  0.10578047533E+02 -0.10690407345E+02  0.27073589207E+02  0.30970294342E+02  0.51100000000E-03 0.  1.
        -11    1    3    3    0    0 -0.46498506115E+01  0.16573439481E+02 -0.11785575140E+02  0.20861442630E+02  0.51100000000E-03 0. -1.
         12    1    3    3    0    0 -0.11845005621E+02 -0.16840238374E+02 -0.13020432517E+01  0.20629907981E+02  0.00000000000E+00 0. -1.
</event>
<event>
 7    1  0.1375918E-013  0.7246157E+02  0.7816164E-02  0.1226708E+00
        -11   -1    0    0    0    0  0.00000000000E+00  0.00000000000E+00  0.45593999997E+02  0.45594000000E+02  0.51100000000E-03 0.  1.
         11   -1    0    0    0    0 -0.00000000000E+00 -0.00000000000E+00 -0.45593999997E+02  0.45594000000E+02  0.51100000000E-03 0. -1.
    9900012    2    1    2    0    0  0.17067061809E+02  0.69991383739E+01  0.32259407252E+01  0.72461568670E+02  0.69999997884E+02 0.  0.
         12    1    1    2    0    0 -0.17067061809E+02 -0.69991383739E+01 -0.32259407252E+01  0.18726431330E+02  0.00000000000E+00 0. -1.
         11    1    3    3    0    0 -0.21173530502E+02 -0.21364173817E+01 -0.11283037403E+01  0.21310930124E+02  0.51100000000E-03 0. -1.
        -11    1    3    3    0    0  0.26938047893E+02 -0.70386909460E+01  0.11556087729E+02  0.30145393651E+02  0.51100000000E-03 0.  1.
         12    1    3    3    0    0  0.11302544419E+02  0.16174246702E+02 -0.72018432640E+01  0.21005244895E+02  0.00000000000E+00 0. -1.
</event>
<event>
 7    1  0.1375918E-013  0.7246163E+02  0.7816164E-02  0.1226708E+00
        -11   -1    0    0    0    0  0.00000000000E+00  0.00000000000E+00  0.45593999997E+02  0.45594000000E+02  0.51100000000E-03 0.  1.
         11   -1    0    0    0    0 -0.00000000000E+00 -0.00000000000E+00 -0.45593999997E+02  0.45594000000E+02  0.51100000000E-03 0. -1.
    9900012    2    1    2    0    0 -0.28251409565E+01  0.16178950066E+02  0.89965062719E+01  0.72461628975E+02  0.70000076442E+02 0.  0.
         12    1    1    2    0    0  0.28251409565E+01 -0.16178950066E+02 -0.89965062719E+01  0.18726371025E+02  0.00000000000E+00 0. -1.
         11    1    3    3    0    0 -0.19124766857E+02  0.18377147565E+02  0.16000721713E+02  0.30975786601E+02  0.51100000000E-03 0.  1.
        -11    1    3    3    0    0  0.27648950446E+02  0.71125315968E+00 -0.99696472020E+01  0.29400071554E+02  0.51100000000E-03 0. -1.
        -12    1    3    3    0    0 -0.11349324545E+02 -0.29094506585E+01  0.29654317614E+01  0.12085770819E+02  0.00000000000E+00 0.  1.
</event>
<event>
 7    1  0.1375918E-013  0.7246160E+02  0.7816164E-02  0.1226708E+00
        -11   -1    0    0    0    0  0.00000000000E+00  0.00000000000E+00  0.45593999997E+02  0.45594000000E+02  0.51100000000E-03 0. -1.
         11   -1    0    0    0    0 -0.00000000000E+00 -0.00000000000E+00 -0.45593999997E+02  0.45594000000E+02  0.51100000000E-03 0.  1.
    9900012    2    1    2    0    0 -0.10940313941E+02  0.14008027843E+02 -0.58959996023E+01  0.72461598197E+02  0.70000036349E+02 0.  0.
         12    1    1    2    0    0  0.10940313941E+02 -0.14008027843E+02  0.58959996023E+01  0.18726401803E+02  0.00000000000E+00 0. -1.
         11    1    3    3    0    0 -0.24644633625E+02  0.33662719996E+02  0.32283513420E+01  0.41844461243E+02  0.51100000000E-03 0.  1.
        -11    1    3    3    0    0  0.14103391107E+02 -0.12014886937E+02 -0.12401175380E+02  0.22294669764E+02  0.51100000000E-03 0. -1.
         12    1    3    3    0    0 -0.39907142252E+00 -0.76398052170E+01  0.32768244357E+01  0.83224671904E+01  0.00000000000E+00 0. -1.
</event>
<event>
 7    1  0.1375918E-013  0.7246174E+02  0.7816164E-02  0.1226708E+00
        -11   -1    0    0    0    0  0.00000000000E+00  0.00000000000E+00  0.45593999997E+02  0.45594000000E+02  0.51100000000E-03 0.  1.
         11   -1    0    0    0    0 -0.00000000000E+00 -0.00000000000E+00 -0.45593999997E+02  0.45594000000E+02  0.51100000000E-03 0. -1.
    9900012    2    1    2    0    0 -0.45498747988E+01 -0.17975449178E+02  0.26181728928E+01  0.72461736007E+02  0.70000215871E+02 0.  0.
         12    1    1    2    0    0  0.45498747988E+01  0.17975449178E+02 -0.26181728928E+01  0.18726263993E+02  0.00000000000E+00 0. -1.
         11    1    3    3    0    0 -0.24812416465E+02 -0.24874465476E+02 -0.14417678631E+02  0.37977157620E+02  0.51100000000E-03 0. -1.
        -11    1    3    3    0    0  0.75886963802E+01  0.76917358834E+01  0.18780193130E+02  0.21666720285E+02  0.51100000000E-03 0.  1.
         12    1    3    3    0    0  0.12673845286E+02 -0.79271958552E+00 -0.17443416060E+01  0.12817858101E+02  0.00000000000E+00 0. -1.
</event>
<event>
 7    1  0.1441264E-013  0.7246161E+02  0.7816164E-02  0.1226708E+00
        -11   -1    0    0    0    0  0.00000000000E+00  0.00000000000E+00  0.45593999997E+02  0.45594000000E+02  0.51100000000E-03 0.  1.
         11   -1    0    0    0    0 -0.00000000000E+00 -0.00000000000E+00 -0.45593999997E+02  0.45594000000E+02  0.51100000000E-03 0. -1.
    9900012    2    1    2    0    0 -0.13730355445E+02 -0.11640844739E+02 -0.51619421938E+01  0.72461612893E+02  0.70000055492E+02 0.  0.
         12    1    1    2    0    0  0.13730355445E+02  0.11640844739E+02  0.51619421938E+01  0.18726387107E+02  0.00000000000E+00 0. -1.
         11    1    3    3    0    0 -0.27926150371E+01 -0.60139324028E+01 -0.23804600261E+02  0.24710829115E+02  0.51100000000E-03 0. -1.
        -11    1    3    3    0    0 -0.25130250053E+02 -0.12548282340E+02  0.13323603900E+02  0.31088700175E+02  0.51100000000E-03 0.  1.
         12    1    3    3    0    0  0.14192509646E+02  0.69213700041E+01  0.53190541672E+01  0.16662083603E+02  0.00000000000E+00 0. -1.
</event>
<event>
 7    1  0.1375918E-013  0.7246157E+02  0.7816164E-02  0.1226708E+00
        -11   -1    0    0    0    0  0.00000000000E+00  0.00000000000E+00  0.45593999997E+02  0.45594000000E+02  0.51100000000E-03 0.  1.
         11   -1    0    0    0    0 -0.00000000000E+00 -0.00000000000E+00 -0.45593999997E+02  0.45594000000E+02  0.51100000000E-03 0. -1.
    9900012    2    1    2    0    0 -0.30578908399E+01 -0.18166267163E+02 -0.33638197459E+01  0.72461568350E+02  0.69999997468E+02 0.  0.
         12    1    1    2    0    0  0.30578908399E+01  0.18166267163E+02  0.33638197459E+01  0.18726431650E+02  0.00000000000E+00 0. -1.
         11    1    3    3    0    0 -0.26533253309E+02 -0.18617027127E+02 -0.20209090030E+02  0.38197048974E+02  0.51100000000E-03 0. -1.
        -11    1    3    3    0    0  0.10387867415E+02  0.85811520996E+01  0.12188700648E+02  0.18168885066E+02  0.51100000000E-03 0.  1.
         12    1    3    3    0    0  0.13087495054E+02 -0.81303921357E+01  0.46565696361E+01  0.16095634310E+02  0.00000000000E+00 0. -1.
</event>
<event>
 7    1  0.1375918E-013  0.7246158E+02  0.7816164E-02  0.1226708E+00
        -11   -1    0    0    0    0  0.00000000000E+00  0.00000000000E+00  0.45593999997E+02  0.45594000000E+02  0.51100000000E-03 0.  1.
         11   -1    0    0    0    0 -0.00000000000E+00 -0.00000000000E+00 -0.45593999997E+02  0.45594000000E+02  0.51100000000E-03 0. -1.
    9900012    2    1    2    0    0  0.15629878864E+02 -0.50368184265E+01 -0.90008953303E+01  0.72461580964E+02  0.70000013899E+02 0.  0.
         12    1    1    2    0    0 -0.15629878864E+02  0.50368184265E+01  0.90008953303E+01  0.18726419036E+02  0.00000000000E+00 0. -1.
         11    1    3    3    0    0  0.55042605876E+00  0.58063624576E+01 -0.94656107990E+01  0.11118210373E+02  0.51100000000E-03 0.  1.
        -11    1    3    3    0    0 -0.79573301205E+01  0.64263384186E+01  0.22744459600E+02  0.24938471702E+02  0.51100000000E-03 0. -1.
        -12    1    3    3    0    0  0.23036782926E+02 -0.17269519303E+02 -0.22279744131E+02  0.36404898888E+02  0.00000000000E+00 0.  1.
</event>
<event>
 7    1  0.1375918E-013  0.7246158E+02  0.7816164E-02  0.1226708E+00
        -11   -1    0    0    0    0  0.00000000000E+00  0.00000000000E+00  0.45593999997E+02  0.45594000000E+02  0.51100000000E-03 0.  1.
         11   -1    0    0    0    0 -0.00000000000E+00 -0.00000000000E+00 -0.45593999997E+02  0.45594000000E+02  0.51100000000E-03 0. -1.
    9900012    2    1    2    0    0  0.54516814105E+01  0.11517829190E+02  0.13722163463E+02  0.72461575099E+02  0.70000006259E+02 0.  0.
         12    1    1    2    0    0 -0.54516814105E+01 -0.11517829190E+02 -0.13722163463E+02  0.18726424901E+02  0.00000000000E+00 0. -1.
         11    1    3    3    0    0 -0.59033436103E+01  0.11973141251E+02  0.44668993033E+01  0.14076887683E+02  0.51100000000E-03 0. -1.
        -11    1    3    3    0    0  0.21610430035E+02 -0.22953411538E+02 -0.11794426551E+01  0.31547755431E+02  0.51100000000E-03 0.  1.
        -12    1    3    3    0    0 -0.10255405014E+02  0.22498099476E+02  0.10434706815E+02  0.26836931985E+02  0.00000000000E+00 0.  1.
</event>
<event>
 7    1  0.1375918E-013  0.7246174E+02  0.7816164E-02  0.1226708E+00
        -11   -1    0    0    0    0  0.00000000000E+00  0.00000000000E+00  0.45593999997E+02  0.45594000000E+02  0.51100000000E-03 0.  1.
         11   -1    0    0    0    0 -0.00000000000E+00 -0.00000000000E+00 -0.45593999997E+02  0.45594000000E+02  0.51100000000E-03 0. -1.
    9900012    2    1    2    0    0  0.33461218644E+01  0.12132466404E+02  0.13866483561E+02  0.72461744664E+02  0.70000227148E+02 0.  0.
         12    1    1    2    0    0 -0.33461218644E+01 -0.12132466404E+02 -0.13866483561E+02  0.18726255336E+02  0.00000000000E+00 0. -1.
         11    1    3    3    0    0  0.12494301977E+02 -0.74733557335E+01 -0.23432189151E+01  0.14746162313E+02  0.51100000000E-03 0. -1.
        -11    1    3    3    0    0 -0.49631893940E+01  0.98533423993E+01  0.34691486184E+02  0.36403582506E+02  0.51100000000E-03 0.  1.
        -12    1    3    3    0    0 -0.41849907185E+01  0.97524797384E+01 -0.18481783708E+02  0.21311999845E+02  0.00000000000E+00 0.  1.
</event>
<event>
 7    1  0.1375918E-013  0.7246162E+02  0.7816164E-02  0.1226708E+00
        -11   -1    0    0    0    0  0.00000000000E+00  0.00000000000E+00  0.45593999997E+02  0.45594000000E+02  0.51100000000E-03 0.  1.
         11   -1    0    0    0    0 -0.00000000000E+00 -0.00000000000E+00 -0.45593999997E+02  0.45594000000E+02  0.51100000000E-03 0. -1.
    9900012    2    1    2    0    0 -0.85885437624E+01 -0.16450953960E+02  0.25060804789E+01  0.72461617287E+02  0.70000061216E+02 0.  0.
         12    1    1    2    0    0  0.85885437624E+01  0.16450953960E+02 -0.25060804789E+01  0.18726382713E+02  0.00000000000E+00 0. -1.
         11    1    3    3    0    0 -0.21692987180E+02  0.11875636222E+02  0.25342863436E+00  0.24732178529E+02  0.51100000000E-03 0. -1.
        -11    1    3    3    0    0  0.20675233972E+01 -0.14439909008E+02  0.18579002260E+02  0.23621281727E+02  0.51100000000E-03 0.  1.
         12    1    3    3    0    0  0.11036920020E+02 -0.13886681174E+02 -0.16326350416E+02  0.24108157031E+02  0.00000000000E+00 0. -1.
</event>
<event>
 7    1  0.1375918E-013  0.7246161E+02  0.7816164E-02  0.1226708E+00
        -11   -1    0    0    0    0  0.00000000000E+00  0.00000000000E+00  0.45593999997E+02  0.45594000000E+02  0.51100000000E-03 0.  1.
         11   -1    0    0    0    0 -0.00000000000E+00 -0.00000000000E+00 -0.45593999997E+02  0.45594000000E+02  0.51100000000E-03 0. -1.
    9900012    2    1    2    0    0 -0.14973484232E+02 -0.70112545375E+01 -0.87928881519E+01  0.72461606800E+02  0.70000047555E+02 0.  0.
         12    1    1    2    0    0  0.14973484232E+02  0.70112545375E+01  0.87928881519E+01  0.18726393200E+02  0.00000000000E+00 0. -1.
         11    1    3    3    0    0  0.14046231120E+01 -0.49338090648E+01 -0.22535692453E+02  0.23112180178E+02  0.51100000000E-03 0. -1.
        -11    1    3    3    0    0  0.13467666655E+02 -0.59803202612E+01  0.12334340608E+02  0.19216613491E+02  0.51100000000E-03 0.  1.
        -12    1    3    3    0    0 -0.29845773999E+02  0.39028747885E+01  0.14084636926E+01  0.30132813131E+02  0.00000000000E+00 0.  1.
</event>
<event>
 7    1  0.1375918E-013  0.7246164E+02  0.7816164E-02  0.1226708E+00
        -11   -1    0    0    0    0  0.00000000000E+00  0.00000000000E+00  0.45593999997E+02  0.45594000000E+02  0.51100000000E-03 0.  1.
         11   -1    0    0    0    0 -0.00000000000E+00 -0.00000000000E+00 -0.45593999997E+02  0.45594000000E+02  0.51100000000E-03 0. -1.
    9900012    2    1    2    0    0 -0.10905081815E+02  0.15130091259E+02 -0.16840652883E+01  0.72461640322E+02  0.70000091224E+02 0.  0.
         12    1    1    2    0    0  0.10905081815E+02 -0.15130091259E+02  0.16840652883E+01  0.18726359678E+02  0.00000000000E+00 0. -1.
         11    1    3    3    0    0  0.24233399653E+02  0.16370760565E+02  0.15382028036E+02  0.33043399447E+02  0.51100000000E-03 0.  1.
        -11    1    3    3    0    0 -0.32558552095E+02 -0.22747036043E+01 -0.14821525507E+02  0.35845658169E+02  0.51100000000E-03 0. -1.
        -12    1    3    3    0    0 -0.25799293740E+01  0.10340342975E+01 -0.22445678175E+01  0.35725827059E+01  0.00000000000E+00 0.  1.
</event>
<event>
 7    1  0.1375918E-013  0.7246153E+02  0.7816164E-02  0.1226708E+00
        -11   -1    0    0    0    0  0.00000000000E+00  0.00000000000E+00  0.45593999997E+02  0.45594000000E+02  0.51100000000E-03 0. -1.
         11   -1    0    0    0    0 -0.00000000000E+00 -0.00000000000E+00 -0.45593999997E+02  0.45594000000E+02  0.51100000000E-03 0.  1.
    9900012    2    1    2    0    0  0.33269887902E+01  0.18232338104E+02 -0.26821204865E+01  0.72461527362E+02  0.69999944073E+02 0.  0.
         12    1    1    2    0    0 -0.33269887902E+01 -0.18232338104E+02  0.26821204865E+01  0.18726472638E+02  0.00000000000E+00 0. -1.
         11    1    3    3    0    0 -0.19334158009E+01 -0.11335704903E+02  0.49027607195E+01  0.12500934575E+02  0.51100000000E-03 0. -1.
        -11    1    3    3    0    0  0.19933823894E+01  0.28180795257E+02 -0.27681795925E+02  0.39552656302E+02  0.51100000000E-03 0.  1.
        -12    1    3    3    0    0  0.32670222017E+01  0.13872477507E+01  0.20096914719E+02  0.20407936486E+02  0.00000000000E+00 0.  1.
</event>
<event>
 7    1  0.1375918E-013  0.7246158E+02  0.7816164E-02  0.1226708E+00
        -11   -1    0    0    0    0  0.00000000000E+00  0.00000000000E+00  0.45593999997E+02  0.45594000000E+02  0.51100000000E-03 0.  1.
         11   -1    0    0    0    0 -0.00000000000E+00 -0.00000000000E+00 -0.45593999997E+02  0.45594000000E+02  0.51100000000E-03 0. -1.
    9900012    2    1    2    0    0  0.51808274365E+01 -0.30287875577E+01  0.17738773831E+02  0.72461584859E+02  0.70000018973E+02 0.  0.
         12    1    1    2    0    0 -0.51808274365E+01  0.30287875577E+01 -0.17738773831E+02  0.18726415141E+02  0.00000000000E+00 0. -1.
         11    1    3    3    0    0  0.18538211154E+02 -0.22928248944E+01 -0.35800186876E+01  0.19019433557E+02  0.51100000000E-03 0. -1.
        -11    1    3    3    0    0 -0.10183354567E+02 -0.22321809369E+02  0.19877649870E+02  0.31576650366E+02  0.51100000000E-03 0.  1.
         12    1    3    3    0    0 -0.31740291499E+01  0.21585846705E+02  0.14411426488E+01  0.21865500936E+02  0.00000000000E+00 0. -1.
</event>
<event>
 7    1  0.1375918E-013  0.7246152E+02  0.7816164E-02  0.1226708E+00
        -11   -1    0    0    0    0  0.00000000000E+00  0.00000000000E+00  0.45593999997E+02  0.45594000000E+02  0.51100000000E-03 0.  1.
         11   -1    0    0    0    0 -0.00000000000E+00 -0.00000000000E+00 -0.45593999997E+02  0.45594000000E+02  0.51100000000E-03 0. -1.
    9900012    2    1    2    0    0 -0.14402603032E+02  0.10704621054E+02  0.53532332142E+01  0.72461521638E+02  0.69999936616E+02 0.  0.
         12    1    1    2    0    0  0.14402603032E+02 -0.10704621054E+02 -0.53532332142E+01  0.18726478362E+02  0.00000000000E+00 0. -1.
         11    1    3    3    0    0 -0.17056531722E+02  0.31777905853E+02 -0.65025677051E+01  0.36647564200E+02  0.51100000000E-03 0. -1.
        -11    1    3    3    0    0 -0.92733554394E+01 -0.11330045628E+02 -0.23895203889E+01  0.14834920391E+02  0.51100000000E-03 0.  1.
         12    1    3    3    0    0  0.11927284130E+02 -0.97432391704E+01  0.14245321308E+02  0.20979037047E+02  0.00000000000E+00 0. -1.
</event>
<event>
 7    1  0.1375918E-013  0.7246153E+02  0.7816164E-02  0.1226708E+00
        -11   -1    0    0    0    0  0.00000000000E+00  0.00000000000E+00  0.45593999997E+02  0.45594000000E+02  0.51100000000E-03 0. -1.
         11   -1    0    0    0    0 -0.00000000000E+00 -0.00000000000E+00 -0.45593999997E+02  0.45594000000E+02  0.51100000000E-03 0.  1.
    9900012    2    1    2    0    0  0.28107439280E+01  0.53700254486E+01 -0.17718446117E+02  0.72461527093E+02  0.69999943722E+02 0.  0.
         12    1    1    2    0    0 -0.28107439280E+01 -0.53700254486E+01  0.17718446117E+02  0.18726472907E+02  0.00000000000E+00 0. -1.
         11    1    3    3    0    0 -0.27844894026E+02 -0.24005351370E+01  0.46864510755E+00  0.27952107626E+02  0.51100000000E-03 0. -1.
        -11    1    3    3    0    0  0.51901588153E+01  0.21398229743E+01 -0.17544645154E+02  0.18420943644E+02  0.51100000000E-03 0.  1.
         12    1    3    3    0    0  0.25465479138E+02  0.56307376112E+01 -0.64244607023E+00  0.26088475822E+02  0.00000000000E+00 0. -1.
</event>
<event>
 7    1  0.1375918E-013  0.7246159E+02  0.7816164E-02  0.1226708E+00
        -11   -1    0    0    0    0  0.00000000000E+00  0.00000000000E+00  0.45593999997E+02  0.45594000000E+02  0.51100000000E-03 0. -1.
         11   -1    0    0    0    0 -0.00000000000E+00 -0.00000000000E+00 -0.45593999997E+02  0.45594000000E+02  0.51100000000E-03 0.  1.
    9900012    2    1    2    0    0  0.57225492958E-01 -0.18582643751E+02  0.23152804455E+01  0.72461589583E+02  0.70000025128E+02 0.  0.
         12    1    1    2    0    0 -0.57225492958E-01  0.18582643751E+02 -0.23152804455E+01  0.18726410417E+02  0.00000000000E+00 0. -1.
         11    1    3    3    0    0 -0.23453824800E+02 -0.56715049190E+01  0.11791870983E+02  0.26856956032E+02  0.51100000000E-03 0. -1.
        -11    1    3    3    0    0  0.29739719833E+01  0.21335846736E+01 -0.18298778596E+02  0.18661243026E+02  0.51100000000E-03 0.  1.
        -12    1    3    3    0    0  0.20537078309E+02 -0.15044723506E+02  0.88221880580E+01  0.26943390525E+02  0.00000000000E+00 0.  1.
</event>
<event>
 7    1  0.1375918E-013  0.7246153E+02  0.7816164E-02  0.1226708E+00
        -11   -1    0    0    0    0  0.00000000000E+00  0.00000000000E+00  0.45593999997E+02  0.45594000000E+02  0.51100000000E-03 0.  1.
         11   -1    0    0    0    0 -0.00000000000E+00 -0.00000000000E+00 -0.45593999997E+02  0.45594000000E+02  0.51100000000E-03 0. -1.
    9900012    2    1    2    0    0 -0.10464680772E+01 -0.32719475485E+01  0.18408694992E+02  0.72461527093E+02  0.69999943723E+02 0.  0.
         12    1    1    2    0    0  0.10464680772E+01  0.32719475485E+01 -0.18408694992E+02  0.18726472907E+02  0.00000000000E+00 0. -1.
         11    1    3    3    0    0  0.80680000805E+01 -0.16549960227E+02  0.12056447819E+02  0.22007992709E+02  0.51100000000E-03 0. -1.
        -11    1    3    3    0    0  0.14127854239E+02  0.21208158792E+02  0.37666132261E+01  0.25759845500E+02  0.51100000000E-03 0.  1.
        -12    1    3    3    0    0 -0.23242322397E+02 -0.79301461135E+01  0.25856339471E+01  0.24693688884E+02  0.00000000000E+00 0.  1.
</event>
<event>
 7    1  0.1375918E-013  0.7246160E+02  0.7816164E-02  0.1226708E+00
        -11   -1    0    0    0    0  0.00000000000E+00  0.00000000000E+00  0.45593999997E+02  0.45594000000E+02  0.51100000000E-03 0. -1.
         11   -1    0    0    0    0 -0.00000000000E+00 -0.00000000000E+00 -0.45593999997E+02  0.45594000000E+02  0.51100000000E-03 0.  1.
    9900012    2    1    2    0    0 -0.16637590430E+02 -0.70465798190E+01  0.49208112939E+01  0.72461599218E+02  0.70000037678E+02 0.  0.
         12    1    1    2    0    0  0.16637590430E+02  0.70465798190E+01 -0.49208112939E+01  0.18726400782E+02  0.00000000000E+00 0. -1.
         11    1    3    3    0    0  0.99445720994E+01  0.76754083424E+01  0.16224050906E+02  0.20518923839E+02  0.51100000000E-03 0. -1.
        -11    1    3    3    0    0 -0.25109205014E+02  0.91912592257E+01 -0.61042701306E+01  0.27426511566E+02  0.51100000000E-03 0.  1.
         12    1    3    3    0    0 -0.14729575160E+01 -0.23913247387E+02 -0.51989694811E+01  0.24516163813E+02  0.00000000000E+00 0. -1.
</event>
<event>
 7    1  0.1375918E-013  0.7246160E+02  0.7816164E-02  0.1226708E+00
        -11   -1    0    0    0    0  0.00000000000E+00  0.00000000000E+00  0.45593999997E+02  0.45594000000E+02  0.51100000000E-03 0. -1.
         11   -1    0    0    0    0 -0.00000000000E+00 -0.00000000000E+00 -0.45593999997E+02  0.45594000000E+02  0.51100000000E-03 0.  1.
    9900012    2    1    2    0    0 -0.10934411645E+02  0.14842451765E+02 -0.32890959963E+01  0.72461604594E+02  0.70000044682E+02 0.  0.
         12    1    1    2    0    0  0.10934411645E+02 -0.14842451765E+02  0.32890959963E+01  0.18726395406E+02  0.00000000000E+00 0. -1.
         11    1    3    3    0    0  0.58184540526E+01 -0.20308428038E+02  0.30694328855E+00  0.21127727549E+02  0.51100000000E-03 0. -1.
        -11    1    3    3    0    0 -0.60674761942E+01  0.10289487138E+02 -0.17282764674E+02  0.21009087747E+02  0.51100000000E-03 0.  1.
         12    1    3    3    0    0 -0.10685389503E+02  0.24861392665E+02  0.13686725389E+02  0.30324789298E+02  0.00000000000E+00 0. -1.
</event>
<event>
 7    1  0.1375918E-013  0.7246154E+02  0.7816164E-02  0.1226708E+00
        -11   -1    0    0    0    0  0.00000000000E+00  0.00000000000E+00  0.45593999997E+02  0.45594000000E+02  0.51100000000E-03 0.  1.
         11   -1    0    0    0    0 -0.00000000000E+00 -0.00000000000E+00 -0.45593999997E+02  0.45594000000E+02  0.51100000000E-03 0. -1.
    9900012    2    1    2    0    0 -0.11360013167E+02  0.95662314988E+00  0.14856495530E+02  0.72461535132E+02  0.69999954195E+02 0.  0.
         12    1    1    2    0    0  0.11360013167E+02 -0.95662314988E+00 -0.14856495530E+02  0.18726464868E+02  0.00000000000E+00 0. -1.
         11    1    3    3    0    0 -0.27519241517E+02  0.11080711042E+02  0.21193649415E+02  0.36459039848E+02  0.51100000000E-03 0.  1.
        -11    1    3    3    0    0  0.24378689198E+02 -0.92792105366E+01 -0.87903962156E+00  0.26099749924E+02  0.51100000000E-03 0. -1.
         12    1    3    3    0    0 -0.82194608473E+01 -0.84487735515E+00 -0.54581142631E+01  0.99027453605E+01  0.00000000000E+00 0. -1.
</event>
<event>
 7    1  0.1375918E-013  0.7246156E+02  0.7816164E-02  0.1226708E+00
        -11   -1    0    0    0    0  0.00000000000E+00  0.00000000000E+00  0.45593999997E+02  0.45594000000E+02  0.51100000000E-03 0.  1.
         11   -1    0    0    0    0 -0.00000000000E+00 -0.00000000000E+00 -0.45593999997E+02  0.45594000000E+02  0.51100000000E-03 0. -1.
    9900012    2    1    2    0    0  0.23543334226E+01  0.30575039052E+01  0.18324526632E+02  0.72461561677E+02  0.69999988774E+02 0.  0.
         12    1    1    2    0    0 -0.23543334226E+01 -0.30575039052E+01 -0.18324526632E+02  0.18726438323E+02  0.00000000000E+00 0. -1.
         11    1    3    3    0    0  0.30983779781E+02  0.79636546373E+01  0.20806070869E+02  0.38161590506E+02  0.51100000000E-03 0. -1.
        -11    1    3    3    0    0 -0.28300324369E+02  0.97371320581E+00 -0.22508445085E+01  0.28406386220E+02  0.51100000000E-03 0.  1.
         12    1    3    3    0    0 -0.32912198910E+00 -0.58798639379E+01 -0.23069972837E+00  0.58935849512E+01  0.00000000000E+00 0. -1.
</event>
<event>
 7    1  0.1375918E-013  0.7246179E+02  0.7816164E-02  0.1226707E+00
        -11   -1    0    0    0    0  0.00000000000E+00  0.00000000000E+00  0.45593999997E+02  0.45594000000E+02  0.51100000000E-03 0. -1.
         11   -1    0    0    0    0 -0.00000000000E+00 -0.00000000000E+00 -0.45593999997E+02  0.45594000000E+02  0.51100000000E-03 0.  1.
    9900012    2    1    2    0    0  0.17341625041E+02 -0.48978400064E+01 -0.50941205224E+01  0.72461792170E+02  0.70000289034E+02 0.  0.
         12    1    1    2    0    0 -0.17341625041E+02  0.48978400064E+01  0.50941205224E+01  0.18726207830E+02  0.00000000000E+00 0. -1.
         11    1    3    3    0    0  0.23178349037E+02 -0.11644476906E+01 -0.12736318133E+02  0.26472733187E+02  0.51100000000E-03 0. -1.
        -11    1    3    3    0    0 -0.21375905923E+02  0.91231404101E+01 -0.25694919609E+01  0.23382971030E+02  0.51100000000E-03 0.  1.
        -12    1    3    3    0    0  0.15539181927E+02 -0.12856532726E+02  0.10211689571E+02  0.22606087954E+02  0.00000000000E+00 0.  1.
</event>
<event>
 7    1  0.1375918E-013  0.7246158E+02  0.7816164E-02  0.1226708E+00
        -11   -1    0    0    0    0  0.00000000000E+00  0.00000000000E+00  0.45593999997E+02  0.45594000000E+02  0.51100000000E-03 0.  1.
         11   -1    0    0    0    0 -0.00000000000E+00 -0.00000000000E+00 -0.45593999997E+02  0.45594000000E+02  0.51100000000E-03 0. -1.
    9900012    2    1    2    0    0  0.15348827387E+02  0.74295865201E+01  0.77390924018E+01  0.72461579915E+02  0.70000012533E+02 0.  0.
         12    1    1    2    0    0 -0.15348827387E+02 -0.74295865201E+01 -0.77390924018E+01  0.18726420085E+02  0.00000000000E+00 0. -1.
         11    1    3    3    0    0  0.62415173578E+01 -0.95734668921E+01 -0.10939789281E+02  0.15820455020E+02  0.51100000000E-03 0. -1.
        -11    1    3    3    0    0  0.19354684289E+02  0.87796332957E+01  0.31685548880E+02  0.38153109609E+02  0.51100000000E-03 0.  1.
        -12    1    3    3    0    0 -0.10247374260E+02  0.82234201165E+01 -0.13006667197E+02  0.18488015286E+02  0.00000000000E+00 0.  1.
</event>
<event>
 7    1  0.1375918E-013  0.7246157E+02  0.7816164E-02  0.1226708E+00
        -11   -1    0    0    0    0  0.00000000000E+00  0.00000000000E+00  0.45593999997E+02  0.45594000000E+02  0.51100000000E-03 0.  1.
         11   -1    0    0    0    0 -0.00000000000E+00 -0.00000000000E+00 -0.45593999997E+02  0.45594000000E+02  0.51100000000E-03 0. -1.
    9900012    2    1    2    0    0  0.10209944203E+02  0.14752067035E+02 -0.53677511517E+01  0.72461569618E+02  0.69999999119E+02 0.  0.
         12    1    1    2    0    0 -0.10209944203E+02 -0.14752067035E+02  0.53677511517E+01  0.18726430382E+02  0.00000000000E+00 0. -1.
         11    1    3    3    0    0  0.11172742435E+02  0.15510733880E+02  0.15340441792E+02  0.24510042711E+02  0.51100000000E-03 0.  1.
        -11    1    3    3    0    0 -0.15696859749E+02  0.98857415410E+01 -0.23090705819E+02  0.29619250282E+02  0.51100000000E-03 0. -1.
         12    1    3    3    0    0  0.14734061517E+02 -0.10644408387E+02  0.23825128746E+01  0.18332276625E+02  0.00000000000E+00 0. -1.
</event>
<event>
 7    1  0.1375918E-013  0.7246159E+02  0.7816164E-02  0.1226708E+00
        -11   -1    0    0    0    0  0.00000000000E+00  0.00000000000E+00  0.45593999997E+02  0.45594000000E+02  0.51100000000E-03 0. -1.
         11   -1    0    0    0    0 -0.00000000000E+00 -0.00000000000E+00 -0.45593999997E+02  0.45594000000E+02  0.51100000000E-03 0.  1.
    9900012    2    1    2    0    0 -0.11724455170E+02 -0.98160020621E+01 -0.10810258878E+02  0.72461589705E+02  0.70000025286E+02 0.  0.
         12    1    1    2    0    0  0.11724455170E+02  0.98160020621E+01  0.10810258878E+02  0.18726410295E+02  0.00000000000E+00 0. -1.
         11    1    3    3    0    0 -0.74028845399E+01 -0.17603603335E+02 -0.35832441635E+02  0.40603613432E+02  0.51100000000E-03 0. -1.
        -11    1    3    3    0    0 -0.87545993329E+00  0.94427987984E+01  0.36738801163E+01  0.10170067581E+02  0.51100000000E-03 0.  1.
         12    1    3    3    0    0 -0.34461106972E+01 -0.16551975250E+01  0.21348302641E+02  0.21687908692E+02  0.00000000000E+00 0. -1.
</event>
<event>
 7    1  0.1375918E-013  0.7246170E+02  0.7816164E-02  0.1226708E+00
        -11   -1    0    0    0    0  0.00000000000E+00  0.00000000000E+00  0.45593999997E+02  0.45594000000E+02  0.51100000000E-03 0.  1.
         11   -1    0    0    0    0 -0.00000000000E+00 -0.00000000000E+00 -0.45593999997E+02  0.45594000000E+02  0.51100000000E-03 0. -1.
    9900012    2    1    2    0    0  0.73198209169E+01 -0.76442920432E+01  0.15448607051E+02  0.72461696603E+02  0.70000164541E+02 0.  0.
         12    1    1    2    0    0 -0.73198209169E+01  0.76442920432E+01 -0.15448607051E+02  0.18726303397E+02  0.00000000000E+00 0. -1.
         11    1    3    3    0    0  0.22583637139E+02 -0.81698805720E+01 -0.12034769522E+02  0.26862674713E+02  0.51100000000E-03 0. -1.
        -11    1    3    3    0    0  0.65094461810E+01 -0.72824098693E+01  0.18237876322E+02  0.20688801707E+02  0.51100000000E-03 0.  1.
         12    1    3    3    0    0 -0.21773262404E+02  0.78079983982E+01  0.92455002512E+01  0.24910220183E+02  0.00000000000E+00 0. -1.
</event>
<event>
 7    1  0.1375918E-013  0.7246165E+02  0.7816164E-02  0.1226708E+00
        -11   -1    0    0    0    0  0.00000000000E+00  0.00000000000E+00  0.45593999997E+02  0.45594000000E+02  0.51100000000E-03 0. -1.
         11   -1    0    0    0    0 -0.00000000000E+00 -0.00000000000E+00 -0.45593999997E+02  0.45594000000E+02  0.51100000000E-03 0.  1.
    9900012    2    1    2    0    0 -0.81581660183E+01  0.11973904188E+02  0.11863648209E+02  0.72461649498E+02  0.70000103177E+02 0.  0.
         12    1    1    2    0    0  0.81581660183E+01 -0.11973904188E+02 -0.11863648209E+02  0.18726350502E+02  0.00000000000E+00 0. -1.
         11    1    3    3    0    0 -0.15117197747E+02 -0.23663531134E+02  0.12746686080E+01  0.28109022640E+02  0.51100000000E-03 0.  1.
        -11    1    3    3    0    0 -0.45744234779E+01  0.28349171056E+02  0.33579280537E+01  0.28911529374E+02  0.51100000000E-03 0. -1.
        -12    1    3    3    0    0  0.11533455207E+02  0.72882642666E+01  0.72310515474E+01  0.15441097484E+02  0.00000000000E+00 0.  1.
</event>
<event>
 7    1  0.1375918E-013  0.7246156E+02  0.7816164E-02  0.1226708E+00
        -11   -1    0    0    0    0  0.00000000000E+00  0.00000000000E+00  0.45593999997E+02  0.45594000000E+02  0.51100000000E-03 0.  1.
         11   -1    0    0    0    0 -0.00000000000E+00 -0.00000000000E+00 -0.45593999997E+02  0.45594000000E+02  0.51100000000E-03 0. -1.
    9900012    2    1    2    0    0  0.14834473725E+02 -0.75875867364E+01  0.85467164840E+01  0.72461562916E+02  0.69999990389E+02 0.  0.
         12    1    1    2    0    0 -0.14834473725E+02  0.75875867364E+01 -0.85467164840E+01  0.18726437084E+02  0.00000000000E+00 0. -1.
         11    1    3    3    0    0  0.55880821439E+01 -0.19365084536E+01 -0.27883716430E+02  0.28504006196E+02  0.51100000000E-03 0. -1.
        -11    1    3    3    0    0  0.14525764000E+02  0.21237536450E+01  0.26436629523E+02  0.30239105975E+02  0.51100000000E-03 0.  1.
         12    1    3    3    0    0 -0.52793724188E+01 -0.77748319277E+01  0.99938033905E+01  0.13718450745E+02  0.00000000000E+00 0. -1.
</event>
<event>
 7    1  0.1375918E-013  0.7246158E+02  0.7816164E-02  0.1226708E+00
        -11   -1    0    0    0    0  0.00000000000E+00  0.00000000000E+00  0.45593999997E+02  0.45594000000E+02  0.51100000000E-03 0.  1.
         11   -1    0    0    0    0 -0.00000000000E+00 -0.00000000000E+00 -0.45593999997E+02  0.45594000000E+02  0.51100000000E-03 0. -1.
    9900012    2    1    2    0    0 -0.21447817055E+01 -0.68662564378E+01  0.17289682867E+02  0.72461582839E+02  0.70000016342E+02 0.  0.
         12    1    1    2    0    0  0.21447817055E+01  0.68662564378E+01 -0.17289682867E+02  0.18726417161E+02  0.00000000000E+00 0. -1.
         11    1    3    3    0    0  0.20931187050E+02 -0.36282326162E+01  0.14505151722E+02  0.25723104206E+02  0.51100000000E-03 0. -1.
        -11    1    3    3    0    0 -0.25198613903E+02  0.52714167789E+01  0.16413663018E+02  0.30531398780E+02  0.51100000000E-03 0.  1.
         12    1    3    3    0    0  0.21226451473E+01 -0.85094406004E+01 -0.13629131873E+02  0.16207079853E+02  0.00000000000E+00 0. -1.
</event>
<event>
 7    1  0.1375918E-013  0.7246161E+02  0.7816164E-02  0.1226708E+00
        -11   -1    0    0    0    0  0.00000000000E+00  0.00000000000E+00  0.45593999997E+02  0.45594000000E+02  0.51100000000E-03 0.  1.
         11   -1    0    0    0    0 -0.00000000000E+00 -0.00000000000E+00 -0.45593999997E+02  0.45594000000E+02  0.51100000000E-03 0. -1.
    9900012    2    1    2    0    0 -0.51826946887E+01  0.12292774349E+02  0.13141728121E+02  0.72461611041E+02  0.70000053080E+02 0.  0.
         12    1    1    2    0    0  0.51826946887E+01 -0.12292774349E+02 -0.13141728121E+02  0.18726388959E+02  0.00000000000E+00 0. -1.
         11    1    3    3    0    0 -0.13167731681E+02  0.41328063296E+01 -0.33942911656E+00  0.13805232999E+02  0.51100000000E-03 0. -1.
        -11    1    3    3    0    0  0.37436197636E+01 -0.20758730496E+02 -0.78128769393E+01  0.22494013138E+02  0.51100000000E-03 0.  1.
        -12    1    3    3    0    0  0.42414172285E+01  0.28918698515E+02  0.21294034177E+02  0.36162364904E+02  0.00000000000E+00 0.  1.
</event>
<event>
 7    1  0.1375918E-013  0.7246149E+02  0.7816164E-02  0.1226708E+00
        -11   -1    0    0    0    0  0.00000000000E+00  0.00000000000E+00  0.45593999997E+02  0.45594000000E+02  0.51100000000E-03 0.  1.
         11   -1    0    0    0    0 -0.00000000000E+00 -0.00000000000E+00 -0.45593999997E+02  0.45594000000E+02  0.51100000000E-03 0. -1.
    9900012    2    1    2    0    0  0.10548087673E+02 -0.13068409524E+02  0.82847191067E+01  0.72461493339E+02  0.69999899752E+02 0.  0.
         12    1    1    2    0    0 -0.10548087673E+02  0.13068409524E+02 -0.82847191067E+01  0.18726506661E+02  0.00000000000E+00 0. -1.
         11    1    3    3    0    0 -0.85095620839E+01  0.39085150785E+01 -0.16797548160E+02  0.19231400402E+02  0.51100000000E-03 0. -1.
        -11    1    3    3    0    0  0.86874375303E+01  0.84403168982E+01  0.22632244436E+02  0.25669612554E+02  0.51100000000E-03 0.  1.
        -12    1    3    3    0    0  0.10370212226E+02 -0.25417241501E+02  0.24500228302E+01  0.27560480384E+02  0.00000000000E+00 0.  1.
</event>
<event>
 7    1  0.1375918E-013  0.7246137E+02  0.7816164E-02  0.1226709E+00
        -11   -1    0    0    0    0  0.00000000000E+00  0.00000000000E+00  0.45593999997E+02  0.45594000000E+02  0.51100000000E-03 0. -1.
         11   -1    0    0    0    0 -0.00000000000E+00 -0.00000000000E+00 -0.45593999997E+02  0.45594000000E+02  0.51100000000E-03 0.  1.
    9900012    2    1    2    0    0  0.11937240200E+02  0.72462853880E+01  0.12477192259E+02  0.72461369705E+02  0.69999738695E+02 0.  0.
         12    1    1    2    0    0 -0.11937240200E+02 -0.72462853880E+01 -0.12477192259E+02  0.18726630295E+02  0.00000000000E+00 0. -1.
         11    1    3    3    0    0  0.15351786990E+01  0.22189194989E+02  0.93767562255E+01  0.24137951559E+02  0.51100000000E-03 0. -1.
        -11    1    3    3    0    0  0.94914566930E+01 -0.13968635157E+02 -0.19435648227E+02  0.25747911383E+02  0.51100000000E-03 0.  1.
        -12    1    3    3    0    0  0.91060480802E+00 -0.97427444384E+00  0.22536084261E+02  0.22575506763E+02  0.00000000000E+00 0.  1.
</event>
<event>
 7    1  0.1375918E-013  0.7246153E+02  0.7816164E-02  0.1226708E+00
        -11   -1    0    0    0    0  0.00000000000E+00  0.00000000000E+00  0.45593999997E+02  0.45594000000E+02  0.51100000000E-03 0.  1.
         11   -1    0    0    0    0 -0.00000000000E+00 -0.00000000000E+00 -0.45593999997E+02  0.45594000000E+02  0.51100000000E-03 0. -1.
    9900012    2    1    2    0    0  0.11372880905E+02  0.59754386485E+01 -0.13624692925E+02  0.72461533584E+02  0.69999952178E+02 0.  0.
         12    1    1    2    0    0 -0.11372880905E+02 -0.59754386485E+01  0.13624692925E+02  0.18726466416E+02  0.00000000000E+00 0. -1.
         11    1    3    3    0    0  0.54369089824E+01 -0.28892886886E+02 -0.68933361698E+01  0.30197300802E+02  0.51100000000E-03 0.  1.
        -11    1    3    3    0    0  0.16782555656E+00  0.35598040504E+02 -0.75571918706E+01  0.36391754593E+02  0.51100000000E-03 0. -1.
         12    1    3    3    0    0  0.57681463663E+01 -0.72971496921E+00  0.82583511541E+00  0.58724781887E+01  0.00000000000E+00 0. -1.
</event>
<event>
 7    1  0.1375918E-013  0.7246159E+02  0.7816164E-02  0.1226708E+00
        -11   -1    0    0    0    0  0.00000000000E+00  0.00000000000E+00  0.45593999997E+02  0.45594000000E+02  0.51100000000E-03 0.  1.
         11   -1    0    0    0    0 -0.00000000000E+00 -0.00000000000E+00 -0.45593999997E+02  0.45594000000E+02  0.51100000000E-03 0. -1.
    9900012    2    1    2    0    0 -0.16381769491E+02  0.86009756395E+01 -0.28877810270E+01  0.72461589963E+02  0.70000025622E+02 0.  0.
         12    1    1    2    0    0  0.16381769491E+02 -0.86009756395E+01  0.28877810270E+01  0.18726410037E+02  0.00000000000E+00 0. -1.
         11    1    3    3    0    0 -0.18666931347E+02  0.38556859896E+01 -0.48023619795E+01  0.19656635552E+02  0.51100000000E-03 0. -1.
        -11    1    3    3    0    0  0.22113716412E+02 -0.43829226535E+01 -0.13320679891E+02  0.26185243508E+02  0.51100000000E-03 0.  1.
        -12    1    3    3    0    0 -0.19828554556E+02  0.91282123033E+01  0.15235260843E+02  0.26619710904E+02  0.00000000000E+00 0.  1.
</event>
<event>
 7    1  0.1375918E-013  0.7246154E+02  0.7816164E-02  0.1226708E+00
        -11   -1    0    0    0    0  0.00000000000E+00  0.00000000000E+00  0.45593999997E+02  0.45594000000E+02  0.51100000000E-03 0. -1.
         11   -1    0    0    0    0 -0.00000000000E+00 -0.00000000000E+00 -0.45593999997E+02  0.45594000000E+02  0.51100000000E-03 0.  1.
    9900012    2    1    2    0    0  0.52434815606E+01  0.76802742171E+01 -0.16254218683E+02  0.72461539152E+02  0.69999959431E+02 0.  0.
         12    1    1    2    0    0 -0.52434815606E+01 -0.76802742171E+01  0.16254218683E+02  0.18726460848E+02  0.00000000000E+00 0. -1.
         11    1    3    3    0    0  0.76161090992E+01  0.95602265736E+01  0.14759411701E+02  0.19163592669E+02  0.51100000000E-03 0. -1.
        -11    1    3    3    0    0  0.52703415163E+01 -0.16520748679E+02 -0.32374505031E+02  0.36726287763E+02  0.51100000000E-03 0.  1.
        -12    1    3    3    0    0 -0.76429690549E+01  0.14640796322E+02  0.13608746468E+01  0.16571658720E+02  0.00000000000E+00 0.  1.
</event>
<event>
 7    1  0.1375918E-013  0.7246165E+02  0.7816164E-02  0.1226708E+00
        -11   -1    0    0    0    0  0.00000000000E+00  0.00000000000E+00  0.45593999997E+02  0.45594000000E+02  0.51100000000E-03 0.  1.
         11   -1    0    0    0    0 -0.00000000000E+00 -0.00000000000E+00 -0.45593999997E+02  0.45594000000E+02  0.51100000000E-03 0. -1.
    9900012    2    1    2    0    0  0.75599694201E+01 -0.63812825528E+01  0.15899758831E+02  0.72461648632E+02  0.70000102050E+02 0.  0.
         12    1    1    2    0    0 -0.75599694201E+01  0.63812825528E+01 -0.15899758831E+02  0.18726351368E+02  0.00000000000E+00 0. -1.
         11    1    3    3    0    0 -0.22426834897E+02  0.90938059696E+01 -0.21703834390E+01  0.24297547099E+02  0.51100000000E-03 0. -1.
        -11    1    3    3    0    0  0.22360740706E+02 -0.23132456644E+01  0.23011994714E+02  0.32169950752E+02  0.51100000000E-03 0.  1.
        -12    1    3    3    0    0  0.76260636110E+01 -0.13161842858E+02 -0.49418524438E+01  0.15994150781E+02  0.00000000000E+00 0.  1.
</event>
<event>
 7    1  0.1375918E-013  0.7246160E+02  0.7816164E-02  0.1226708E+00
        -11   -1    0    0    0    0  0.00000000000E+00  0.00000000000E+00  0.45593999997E+02  0.45594000000E+02  0.51100000000E-03 0.  1.
         11   -1    0    0    0    0 -0.00000000000E+00 -0.00000000000E+00 -0.45593999997E+02  0.45594000000E+02  0.51100000000E-03 0. -1.
    9900012    2    1    2    0    0 -0.76960537838E+00 -0.10074809350E+02  0.15766551294E+02  0.72461595764E+02  0.70000033179E+02 0.  0.
         12    1    1    2    0    0  0.76960537838E+00  0.10074809350E+02 -0.15766551294E+02  0.18726404236E+02  0.00000000000E+00 0. -1.
         11    1    3    3    0    0 -0.20656046154E+02 -0.74859271443E+00 -0.17878711482E+02  0.27329122896E+02  0.51100000000E-03 0. -1.
        -11    1    3    3    0    0  0.12965445143E+02 -0.14660803262E+02  0.15404409614E+02  0.24906580573E+02  0.51100000000E-03 0.  1.
         12    1    3    3    0    0  0.69209956323E+01  0.53345866259E+01  0.18240853163E+02  0.20225892295E+02  0.00000000000E+00 0. -1.
</event>
<event>
 7    1  0.1375918E-013  0.7246107E+02  0.7816164E-02  0.1226709E+00
        -11   -1    0    0    0    0  0.00000000000E+00  0.00000000000E+00  0.45593999997E+02  0.45594000000E+02  0.51100000000E-03 0.  1.
         11   -1    0    0    0    0 -0.00000000000E+00 -0.00000000000E+00 -0.45593999997E+02  0.45594000000E+02  0.51100000000E-03 0. -1.
    9900012    2    1    2    0    0 -0.23839743972E+01 -0.16655853752E+02  0.82217491887E+01  0.72461068648E+02  0.69999346509E+02 0.  0.
         12    1    1    2    0    0  0.23839743972E+01  0.16655853752E+02 -0.82217491887E+01  0.18726931352E+02  0.00000000000E+00 0. -1.
         11    1    3    3    0    0 -0.64192366755E+00  0.54061450230E+01 -0.61400740239E+01  0.82060331028E+01  0.51100000000E-03 0. -1.
        -11    1    3    3    0    0 -0.18085155699E+02  0.29046776719E+01  0.26354903134E+02  0.32095029655E+02  0.51100000000E-03 0.  1.
        -12    1    3    3    0    0  0.16343104970E+02 -0.24966676447E+02 -0.11993079922E+02  0.32160005890E+02  0.00000000000E+00 0.  1.
</event>
<event>
 7    1  0.1375918E-013  0.7246156E+02  0.7816164E-02  0.1226708E+00
        -11   -1    0    0    0    0  0.00000000000E+00  0.00000000000E+00  0.45593999997E+02  0.45594000000E+02  0.51100000000E-03 0.  1.
         11   -1    0    0    0    0 -0.00000000000E+00 -0.00000000000E+00 -0.45593999997E+02  0.45594000000E+02  0.51100000000E-03 0. -1.
    9900012    2    1    2    0    0  0.10154382885E+02  0.84643366345E+01  0.13263593686E+02  0.72461564037E+02  0.69999991848E+02 0.  0.
         12    1    1    2    0    0 -0.10154382885E+02 -0.84643366345E+01 -0.13263593686E+02  0.18726435963E+02  0.00000000000E+00 0. -1.
         11    1    3    3    0    0 -0.67997406255E+01 -0.17350215629E+02  0.10519838389E+02  0.21399379779E+02  0.51100000000E-03 0. -1.
        -11    1    3    3    0    0  0.16086183649E+02  0.32887525619E+02 -0.86543335152E+01  0.37619836982E+02  0.51100000000E-03 0.  1.
        -12    1    3    3    0    0  0.86793986150E+00 -0.70729733559E+01  0.11398088812E+02  0.13442347275E+02  0.00000000000E+00 0.  1.
</event>
<event>
 7    1  0.1375918E-013  0.7246169E+02  0.7816164E-02  0.1226708E+00
        -11   -1    0    0    0    0  0.00000000000E+00  0.00000000000E+00  0.45593999997E+02  0.45594000000E+02  0.51100000000E-03 0. -1.
         11   -1    0    0    0    0 -0.00000000000E+00 -0.00000000000E+00 -0.45593999997E+02  0.45594000000E+02  0.51100000000E-03 0.  1.
    9900012    2    1    2    0    0 -0.15946213613E+02 -0.50335987708E+01 -0.84294636284E+01  0.72461689573E+02  0.70000155382E+02 0.  0.
         12    1    1    2    0    0  0.15946213613E+02  0.50335987708E+01  0.84294636284E+01  0.18726310427E+02  0.00000000000E+00 0. -1.
         11    1    3    3    0    0  0.12895056977E+02 -0.18895461825E+02 -0.56464173395E+01  0.23562746042E+02  0.51100000000E-03 0. -1.
        -11    1    3    3    0    0 -0.23394190823E+02 -0.41433628194E+01 -0.13422231904E+02  0.27287578296E+02  0.51100000000E-03 0.  1.
         12    1    3    3    0    0 -0.54470797670E+01  0.18005225874E+02  0.10639185615E+02  0.21611365234E+02  0.00000000000E+00 0. -1.
</event>
<event>
 7    1  0.1375918E-013  0.7246153E+02  0.7816164E-02  0.1226708E+00
        -11   -1    0    0    0    0  0.00000000000E+00  0.00000000000E+00  0.45593999997E+02  0.45594000000E+02  0.51100000000E-03 0.  1.
         11   -1    0    0    0    0 -0.00000000000E+00 -0.00000000000E+00 -0.45593999997E+02  0.45594000000E+02  0.51100000000E-03 0. -1.
    9900012    2    1    2    0    0  0.15935318286E+02 -0.45342609277E+01  0.87285027947E+01  0.72461530710E+02  0.69999948434E+02 0.  0.
         12    1    1    2    0    0 -0.15935318286E+02  0.45342609277E+01 -0.87285027947E+01  0.18726469290E+02  0.00000000000E+00 0. -1.
         11    1    3    3    0    0  0.31263285074E+02 -0.16908601468E+02  0.23400654574E+02  0.42554487801E+02  0.51100000000E-03 0.  1.
        -11    1    3    3    0    0 -0.56590865346E-01  0.86695853810E+01 -0.10561058941E+02  0.13663853023E+02  0.51100000000E-03 0. -1.
         12    1    3    3    0    0 -0.15271375923E+02  0.37047551598E+01 -0.41110928379E+01  0.16243189886E+02  0.00000000000E+00 0. -1.
</event>
<event>
 7    1  0.1375918E-013  0.7246156E+02  0.7816164E-02  0.1226708E+00
        -11   -1    0    0    0    0  0.00000000000E+00  0.00000000000E+00  0.45593999997E+02  0.45594000000E+02  0.51100000000E-03 0. -1.
         11   -1    0    0    0    0 -0.00000000000E+00 -0.00000000000E+00 -0.45593999997E+02  0.45594000000E+02  0.51100000000E-03 0.  1.
    9900012    2    1    2    0    0  0.25447569524E+01  0.13119177898E+02 -0.13118350411E+02  0.72461555218E+02  0.69999980360E+02 0.  0.
         12    1    1    2    0    0 -0.25447569524E+01 -0.13119177898E+02  0.13118350411E+02  0.18726444782E+02  0.00000000000E+00 0. -1.
         11    1    3    3    0    0  0.20205153084E+02 -0.80502830941E+01 -0.50861545712E+01  0.22336612044E+02  0.51100000000E-03 0. -1.
        -11    1    3    3    0    0 -0.24809549264E+02 -0.23255655902E+01 -0.41266696323E+01  0.25257699668E+02  0.51100000000E-03 0.  1.
        -12    1    3    3    0    0  0.71491531328E+01  0.23495026582E+02 -0.39055262077E+01  0.24867243506E+02  0.00000000000E+00 0.  1.
</event>
<event>
 7    1  0.1375918E-013  0.7246150E+02  0.7816164E-02  0.1226708E+00
        -11   -1    0    0    0    0  0.00000000000E+00  0.00000000000E+00  0.45593999997E+02  0.45594000000E+02  0.51100000000E-03 0. -1.
         11   -1    0    0    0    0 -0.00000000000E+00 -0.00000000000E+00 -0.45593999997E+02  0.45594000000E+02  0.51100000000E-03 0.  1.
    9900012    2    1    2    0    0  0.13051067421E+02 -0.95142243401E+00 -0.13395757528E+02  0.72461497785E+02  0.69999905543E+02 0.  0.
         12    1    1    2    0    0 -0.13051067421E+02  0.95142243401E+00  0.13395757528E+02  0.18726502215E+02  0.00000000000E+00 0. -1.
         11    1    3    3    0    0  0.22706476277E+01 -0.14583674034E+02 -0.10862189673E+02  0.18325571034E+02  0.51100000000E-03 0. -1.
        -11    1    3    3    0    0  0.13921639472E+02  0.20392743544E+02 -0.22137545387E+02  0.33162432825E+02  0.51100000000E-03 0.  1.
        -12    1    3    3    0    0 -0.31412196790E+01 -0.67604919438E+01  0.19603977532E+02  0.20973493926E+02  0.00000000000E+00 0.  1.
</event>
<event>
 7    1  0.1375918E-013  0.7246149E+02  0.7816164E-02  0.1226708E+00
        -11   -1    0    0    0    0  0.00000000000E+00  0.00000000000E+00  0.45593999997E+02  0.45594000000E+02  0.51100000000E-03 0. -1.
         11   -1    0    0    0    0 -0.00000000000E+00 -0.00000000000E+00 -0.45593999997E+02  0.45594000000E+02  0.51100000000E-03 0.  1.
    9900012    2    1    2    0    0 -0.56011385601E+01  0.44816582142E+01 -0.17298100898E+02  0.72461486491E+02  0.69999890830E+02 0.  0.
         12    1    1    2    0    0  0.56011385601E+01 -0.44816582142E+01  0.17298100898E+02  0.18726513509E+02  0.00000000000E+00 0. -1.
         11    1    3    3    0    0 -0.20414887190E+02  0.37340402452E+01  0.19598003745E+02  0.28544569126E+02  0.51100000000E-03 0. -1.
        -11    1    3    3    0    0  0.55681348135E+01  0.88174304386E+01 -0.23718994339E+02  0.25910266258E+02  0.51100000000E-03 0.  1.
        -12    1    3    3    0    0  0.92456138167E+01 -0.80698124696E+01 -0.13177110304E+02  0.18006651108E+02  0.00000000000E+00 0.  1.
</event>
<event>
 7    1  0.1375918E-013  0.7246157E+02  0.7816164E-02  0.1226708E+00
        -11   -1    0    0    0    0  0.00000000000E+00  0.00000000000E+00  0.45593999997E+02  0.45594000000E+02  0.51100000000E-03 0. -1.
         11   -1    0    0    0    0 -0.00000000000E+00 -0.00000000000E+00 -0.45593999997E+02  0.45594000000E+02  0.51100000000E-03 0.  1.
    9900012    2    1    2    0    0  0.96266480020E+01 -0.97685523468E+01 -0.12750770728E+02  0.72461571593E+02  0.70000001692E+02 0.  0.
         12    1    1    2    0    0 -0.96266480020E+01  0.97685523468E+01  0.12750770728E+02  0.18726428407E+02  0.00000000000E+00 0. -1.
         11    1    3    3    0    0  0.17398971626E+02 -0.26042778137E+02  0.74835054514E+01  0.32201760213E+02  0.51100000000E-03 0. -1.
        -11    1    3    3    0    0 -0.21985930173E+01  0.21354730055E+02 -0.23684927301E+02  0.31966139719E+02  0.51100000000E-03 0.  1.
        -12    1    3    3    0    0 -0.55737306063E+01 -0.50805042648E+01  0.34506511215E+01  0.82936716609E+01  0.00000000000E+00 0.  1.
</event>
<event>
 7    1  0.1375918E-013  0.7246155E+02  0.7816164E-02  0.1226708E+00
        -11   -1    0    0    0    0  0.00000000000E+00  0.00000000000E+00  0.45593999997E+02  0.45594000000E+02  0.51100000000E-03 0.  1.
         11   -1    0    0    0    0 -0.00000000000E+00 -0.00000000000E+00 -0.45593999997E+02  0.45594000000E+02  0.51100000000E-03 0. -1.
    9900012    2    1    2    0    0  0.12617409079E+02  0.79781555106E+01 -0.11306196220E+02  0.72461546780E+02  0.69999969368E+02 0.  0.
         12    1    1    2    0    0 -0.12617409079E+02 -0.79781555106E+01  0.11306196220E+02  0.18726453220E+02  0.00000000000E+00 0. -1.
         11    1    3    3    0    0  0.37574019962E+01 -0.24347981474E+02  0.10504123775E+02  0.26782062806E+02  0.51100000000E-03 0.  1.
        -11    1    3    3    0    0  0.13419973594E+02  0.28205312622E+02 -0.10762887046E+02  0.33037480067E+02  0.51100000000E-03 0. -1.
         12    1    3    3    0    0 -0.45599665107E+01  0.41208243632E+01 -0.11047432949E+02  0.12642003907E+02  0.00000000000E+00 0. -1.
</event>
<event>
 7    1  0.1375918E-013  0.7246166E+02  0.7816164E-02  0.1226708E+00
        -11   -1    0    0    0    0  0.00000000000E+00  0.00000000000E+00  0.45593999997E+02  0.45594000000E+02  0.51100000000E-03 0. -1.
         11   -1    0    0    0    0 -0.00000000000E+00 -0.00000000000E+00 -0.45593999997E+02  0.45594000000E+02  0.51100000000E-03 0.  1.
    9900012    2    1    2    0    0 -0.14314689055E+02 -0.70606807595E+01 -0.97934785190E+01  0.72461661409E+02  0.70000118694E+02 0.  0.
         12    1    1    2    0    0  0.14314689055E+02  0.70606807595E+01  0.97934785190E+01  0.18726338591E+02  0.00000000000E+00 0. -1.
         11    1    3    3    0    0 -0.36534515709E+02 -0.14533567168E+02 -0.13432289325E+02  0.41550232364E+02  0.51100000000E-03 0. -1.
        -11    1    3    3    0    0  0.14348288024E+02  0.14082999974E+02  0.44809680338E+01  0.20598139049E+02  0.51100000000E-03 0.  1.
        -12    1    3    3    0    0  0.78715386307E+01 -0.66101135652E+01 -0.84215722814E+00  0.10313289997E+02  0.00000000000E+00 0.  1.
</event>
<event>
 7    1  0.1375918E-013  0.7246131E+02  0.7816164E-02  0.1226709E+00
        -11   -1    0    0    0    0  0.00000000000E+00  0.00000000000E+00  0.45593999997E+02  0.45594000000E+02  0.51100000000E-03 0. -1.
         11   -1    0    0    0    0 -0.00000000000E+00 -0.00000000000E+00 -0.45593999997E+02  0.45594000000E+02  0.51100000000E-03 0.  1.
    9900012    2    1    2    0    0  0.19180080907E+01  0.41382638302E+01 -0.18162739014E+02  0.72461305923E+02  0.69999655607E+02 0.  0.
         12    1    1    2    0    0 -0.19180080907E+01 -0.41382638302E+01  0.18162739014E+02  0.18726694077E+02  0.00000000000E+00 0. -1.
         11    1    3    3    0    0 -0.77719874486E+01 -0.19623593007E+02  0.23564864302E+01  0.21237754588E+02  0.51100000000E-03 0. -1.
        -11    1    3    3    0    0  0.46830901100E+01  0.27529772186E+02  0.18565591298E+01  0.27986898750E+02  0.51100000000E-03 0.  1.
        -12    1    3    3    0    0  0.50069054294E+01 -0.37679153489E+01 -0.22375784574E+02  0.23236652585E+02  0.00000000000E+00 0.  1.
</event>
<event>
 7    1  0.1375918E-013  0.7246160E+02  0.7816164E-02  0.1226708E+00
        -11   -1    0    0    0    0  0.00000000000E+00  0.00000000000E+00  0.45593999997E+02  0.45594000000E+02  0.51100000000E-03 0. -1.
         11   -1    0    0    0    0 -0.00000000000E+00 -0.00000000000E+00 -0.45593999997E+02  0.45594000000E+02  0.51100000000E-03 0.  1.
    9900012    2    1    2    0    0 -0.10892745515E+02 -0.86487719523E+01 -0.12538928609E+02  0.72461604410E+02  0.70000044442E+02 0.  0.
         12    1    1    2    0    0  0.10892745515E+02  0.86487719523E+01  0.12538928609E+02  0.18726395590E+02  0.00000000000E+00 0. -1.
         11    1    3    3    0    0 -0.21798268901E+02  0.81621935959E+01  0.10989232834E+02  0.25740030496E+02  0.51100000000E-03 0. -1.
        -11    1    3    3    0    0  0.14235926009E+02 -0.26429690520E+02 -0.15678667758E+02  0.33867547198E+02  0.51100000000E-03 0.  1.
        -12    1    3    3    0    0 -0.33304026226E+01  0.96187249715E+01 -0.78494936847E+01  0.12854026716E+02  0.00000000000E+00 0.  1.
</event>
<event>
 7    1  0.1375918E-013  0.7246156E+02  0.7816164E-02  0.1226708E+00
        -11   -1    0    0    0    0  0.00000000000E+00  0.00000000000E+00  0.45593999997E+02  0.45594000000E+02  0.51100000000E-03 0.  1.
         11   -1    0    0    0    0 -0.00000000000E+00 -0.00000000000E+00 -0.45593999997E+02  0.45594000000E+02  0.51100000000E-03 0. -1.
    9900012    2    1    2    0    0  0.14337787112E+02 -0.75132260943E+01  0.94158781883E+01  0.72461562334E+02  0.69999989630E+02 0.  0.
         12    1    1    2    0    0 -0.14337787112E+02  0.75132260943E+01 -0.94158781883E+01  0.18726437666E+02  0.00000000000E+00 0. -1.
         11    1    3    3    0    0  0.14610606615E+02 -0.22633814458E+02 -0.21932838532E+02  0.34739153543E+02  0.51100000000E-03 0. -1.
        -11    1    3    3    0    0 -0.18212523034E+01  0.12659472009E+02  0.10157418449E+02  0.16332554647E+02  0.51100000000E-03 0.  1.
         12    1    3    3    0    0  0.15484328004E+01  0.24611163552E+01  0.21191298271E+02  0.21389854143E+02  0.00000000000E+00 0. -1.
</event>
<event>
 7    1  0.1375918E-013  0.7246148E+02  0.7816164E-02  0.1226708E+00
        -11   -1    0    0    0    0  0.00000000000E+00  0.00000000000E+00  0.45593999997E+02  0.45594000000E+02  0.51100000000E-03 0.  1.
         11   -1    0    0    0    0 -0.00000000000E+00 -0.00000000000E+00 -0.45593999997E+02  0.45594000000E+02  0.51100000000E-03 0. -1.
    9900012    2    1    2    0    0 -0.14654437051E+01  0.18658208183E+02  0.63752911528E+00  0.72461475997E+02  0.69999877160E+02 0.  0.
         12    1    1    2    0    0  0.14654437051E+01 -0.18658208183E+02 -0.63752911528E+00  0.18726524003E+02  0.00000000000E+00 0. -1.
         11    1    3    3    0    0  0.26352769249E+02  0.11168499468E+02 -0.13102498149E+02  0.31478235107E+02  0.51100000000E-03 0. -1.
        -11    1    3    3    0    0 -0.50085656103E+01  0.64814802456E+01  0.16065519820E+02  0.18033198357E+02  0.51100000000E-03 0.  1.
         12    1    3    3    0    0 -0.22809647344E+02  0.10082284698E+01 -0.23254925562E+01  0.22950042532E+02  0.00000000000E+00 0. -1.
</event>
<event>
 7    1  0.1375918E-013  0.7246158E+02  0.7816164E-02  0.1226708E+00
        -11   -1    0    0    0    0  0.00000000000E+00  0.00000000000E+00  0.45593999997E+02  0.45594000000E+02  0.51100000000E-03 0.  1.
         11   -1    0    0    0    0 -0.00000000000E+00 -0.00000000000E+00 -0.45593999997E+02  0.45594000000E+02  0.51100000000E-03 0. -1.
    9900012    2    1    2    0    0  0.17002168076E+02  0.18223219361E+01  0.76344010544E+01  0.72461584006E+02  0.70000017862E+02 0.  0.
         12    1    1    2    0    0 -0.17002168076E+02 -0.18223219361E+01 -0.76344010544E+01  0.18726415994E+02  0.00000000000E+00 0. -1.
         11    1    3    3    0    0  0.25191795128E+02 -0.26197950785E+02  0.37530255414E+01  0.36538258963E+02  0.51100000000E-03 0. -1.
        -11    1    3    3    0    0  0.27797560881E+01  0.21284759806E+02 -0.24018193315E+01  0.21599462499E+02  0.51100000000E-03 0.  1.
         12    1    3    3    0    0 -0.10969383140E+02  0.67355129157E+01  0.62831948445E+01  0.14323862544E+02  0.00000000000E+00 0. -1.
</event>
<event>
 7    1  0.1375918E-013  0.7246142E+02  0.7816164E-02  0.1226708E+00
        -11   -1    0    0    0    0  0.00000000000E+00  0.00000000000E+00  0.45593999997E+02  0.45594000000E+02  0.51100000000E-03 0.  1.
         11   -1    0    0    0    0 -0.00000000000E+00 -0.00000000000E+00 -0.45593999997E+02  0.45594000000E+02  0.51100000000E-03 0. -1.
    9900012    2    1    2    0    0 -0.17844260476E+02  0.56256577169E+01 -0.78674251920E+00  0.72461424754E+02  0.69999810406E+02 0.  0.
         12    1    1    2    0    0  0.17844260476E+02 -0.56256577169E+01  0.78674251920E+00  0.18726575246E+02  0.00000000000E+00 0. -1.
         11    1    3    3    0    0  0.17637287827E+02 -0.12123654453E+02  0.29417675088E+01  0.21603493133E+02  0.51100000000E-03 0. -1.
        -11    1    3    3    0    0 -0.28733601817E+02  0.59862670869E+01 -0.15238599104E+02  0.33070684449E+02  0.51100000000E-03 0.  1.
         12    1    3    3    0    0 -0.67479464863E+01  0.11763045083E+02  0.11510089076E+02  0.17787247172E+02  0.00000000000E+00 0. -1.
</event>
<event>
 7    1  0.1375918E-013  0.7246156E+02  0.7816164E-02  0.1226708E+00
        -11   -1    0    0    0    0  0.00000000000E+00  0.00000000000E+00  0.45593999997E+02  0.45594000000E+02  0.51100000000E-03 0.  1.
         11   -1    0    0    0    0 -0.00000000000E+00 -0.00000000000E+00 -0.45593999997E+02  0.45594000000E+02  0.51100000000E-03 0. -1.
    9900012    2    1    2    0    0 -0.10277699692E+02  0.19976405531E+01  0.15526033923E+02  0.72461563924E+02  0.69999991702E+02 0.  0.
         12    1    1    2    0    0  0.10277699692E+02 -0.19976405531E+01 -0.15526033923E+02  0.18726436076E+02  0.00000000000E+00 0. -1.
         11    1    3    3    0    0  0.20476693030E+01 -0.82346477070E+01 -0.25359818750E+02  0.26741779666E+02  0.51100000000E-03 0. -1.
        -11    1    3    3    0    0 -0.41224226021E+01  0.11085409573E+02  0.28306322320E+02  0.30677818649E+02  0.51100000000E-03 0.  1.
         12    1    3    3    0    0 -0.82029463924E+01 -0.85312131330E+00  0.12579530352E+02  0.15041965609E+02  0.00000000000E+00 0. -1.
</event>
<event>
 7    1  0.1375918E-013  0.7246158E+02  0.7816164E-02  0.1226708E+00
        -11   -1    0    0    0    0  0.00000000000E+00  0.00000000000E+00  0.45593999997E+02  0.45594000000E+02  0.51100000000E-03 0.  1.
         11   -1    0    0    0    0 -0.00000000000E+00 -0.00000000000E+00 -0.45593999997E+02  0.45594000000E+02  0.51100000000E-03 0. -1.
    9900012    2    1    2    0    0 -0.17325956209E+02 -0.68176408951E+01  0.20024836638E+01  0.72461576776E+02  0.70000008444E+02 0.  0.
         12    1    1    2    0    0  0.17325956209E+02  0.68176408951E+01 -0.20024836638E+01  0.18726423224E+02  0.00000000000E+00 0. -1.
         11    1    3    3    0    0 -0.21262423152E+02 -0.12391646617E+02  0.18055238184E+02  0.30522699263E+02  0.51100000000E-03 0.  1.
        -11    1    3    3    0    0  0.16505710217E+02  0.92823619997E+01  0.26296757299E+01  0.19118470356E+02  0.51100000000E-03 0. -1.
         12    1    3    3    0    0 -0.12569243274E+02 -0.37083562776E+01 -0.18682430250E+02  0.22820407157E+02  0.00000000000E+00 0. -1.
</event>
<event>
 7    1  0.1375918E-013  0.7246158E+02  0.7816164E-02  0.1226708E+00
        -11   -1    0    0    0    0  0.00000000000E+00  0.00000000000E+00  0.45593999997E+02  0.45594000000E+02  0.51100000000E-03 0.  1.
         11   -1    0    0    0    0 -0.00000000000E+00 -0.00000000000E+00 -0.45593999997E+02  0.45594000000E+02  0.51100000000E-03 0. -1.
    9900012    2    1    2    0    0 -0.68892861335E+01  0.13502853697E+02  0.10994971746E+02  0.72461582160E+02  0.70000015458E+02 0.  0.
         12    1    1    2    0    0  0.68892861335E+01 -0.13502853697E+02 -0.10994971746E+02  0.18726417840E+02  0.00000000000E+00 0. -1.
         11    1    3    3    0    0 -0.85682207632E+01  0.11431490527E+02 -0.14905379455E+02  0.20646155082E+02  0.51100000000E-03 0. -1.
        -11    1    3    3    0    0  0.60377642901E+01  0.18991841236E+02  0.27837453999E+02  0.34235485633E+02  0.51100000000E-03 0.  1.
         12    1    3    3    0    0 -0.43588296604E+01 -0.16920478065E+02 -0.19371027977E+01  0.17579941445E+02  0.00000000000E+00 0. -1.
</event>
<event>
 7    1  0.1375918E-013  0.7246155E+02  0.7816164E-02  0.1226708E+00
        -11   -1    0    0    0    0  0.00000000000E+00  0.00000000000E+00  0.45593999997E+02  0.45594000000E+02  0.51100000000E-03 0.  1.
         11   -1    0    0    0    0 -0.00000000000E+00 -0.00000000000E+00 -0.45593999997E+02  0.45594000000E+02  0.51100000000E-03 0. -1.
    9900012    2    1    2    0    0  0.68230548335E+00  0.18512602006E+02 -0.27382272713E+01  0.72461551795E+02  0.69999975901E+02 0.  0.
         12    1    1    2    0    0 -0.68230548335E+00 -0.18512602006E+02  0.27382272713E+01  0.18726448205E+02  0.00000000000E+00 0. -1.
         11    1    3    3    0    0 -0.16196273617E+02  0.12492270506E+02  0.64663306483E+01  0.21452028664E+02  0.51100000000E-03 0. -1.
        -11    1    3    3    0    0  0.25710976879E+02  0.63431200273E+00  0.11262396560E+02  0.28076649735E+02  0.51100000000E-03 0.  1.
         12    1    3    3    0    0 -0.88323977783E+01  0.53860194965E+01 -0.20466954480E+02  0.22932873396E+02  0.00000000000E+00 0. -1.
</event>
<event>
 7    1  0.1375918E-013  0.7246159E+02  0.7816164E-02  0.1226708E+00
        -11   -1    0    0    0    0  0.00000000000E+00  0.00000000000E+00  0.45593999997E+02  0.45594000000E+02  0.51100000000E-03 0.  1.
         11   -1    0    0    0    0 -0.00000000000E+00 -0.00000000000E+00 -0.45593999997E+02  0.45594000000E+02  0.51100000000E-03 0. -1.
    9900012    2    1    2    0    0  0.68789952279E+01  0.39438054888E+01  0.16964799726E+02  0.72461585319E+02  0.70000019572E+02 0.  0.
         12    1    1    2    0    0 -0.68789952279E+01 -0.39438054888E+01 -0.16964799726E+02  0.18726414681E+02  0.00000000000E+00 0. -1.
         11    1    3    3    0    0  0.20068404806E+02  0.64575033369E+01  0.27001096852E+02  0.34256378271E+02  0.51100000000E-03 0.  1.
        -11    1    3    3    0    0 -0.24231353787E+02 -0.53205093582E+01 -0.34554875622E+01  0.25048088165E+02  0.51100000000E-03 0. -1.
         12    1    3    3    0    0  0.11041944209E+02  0.28068115101E+01 -0.65808095642E+01  0.13157118882E+02  0.00000000000E+00 0. -1.
</event>
<event>
 7    1  0.1375918E-013  0.7246163E+02  0.7816164E-02  0.1226708E+00
        -11   -1    0    0    0    0  0.00000000000E+00  0.00000000000E+00  0.45593999997E+02  0.45594000000E+02  0.51100000000E-03 0.  1.
         11   -1    0    0    0    0 -0.00000000000E+00 -0.00000000000E+00 -0.45593999997E+02  0.45594000000E+02  0.51100000000E-03 0. -1.
    9900012    2    1    2    0    0  0.12763999286E+02 -0.59669918958E+01  0.12335007158E+02  0.72461626308E+02  0.70000072968E+02 0.  0.
         12    1    1    2    0    0 -0.12763999286E+02  0.59669918958E+01 -0.12335007158E+02  0.18726373692E+02  0.00000000000E+00 0. -1.
         11    1    3    3    0    0 -0.22085120277E+01  0.20289422856E+02 -0.16348063578E+02  0.26149519847E+02  0.51100000000E-03 0. -1.
        -11    1    3    3    0    0 -0.15073353331E+01  0.15329457285E+01  0.71976934748E+01  0.75119088141E+01  0.51100000000E-03 0.  1.
         12    1    3    3    0    0  0.16479846647E+02 -0.27789360480E+02  0.21485377262E+02  0.38800197647E+02  0.00000000000E+00 0. -1.
</event>
<event>
 7    1  0.1375918E-013  0.7246151E+02  0.7816164E-02  0.1226708E+00
        -11   -1    0    0    0    0  0.00000000000E+00  0.00000000000E+00  0.45593999997E+02  0.45594000000E+02  0.51100000000E-03 0. -1.
         11   -1    0    0    0    0 -0.00000000000E+00 -0.00000000000E+00 -0.45593999997E+02  0.45594000000E+02  0.51100000000E-03 0.  1.
    9900012    2    1    2    0    0 -0.11333259903E+02 -0.35120068156E+01 -0.14488084238E+02  0.72461506554E+02  0.69999916966E+02 0.  0.
         12    1    1    2    0    0  0.11333259903E+02  0.35120068156E+01  0.14488084238E+02  0.18726493446E+02  0.00000000000E+00 0. -1.
         11    1    3    3    0    0  0.17186523122E+02  0.18087198528E+02  0.71014596543E+00  0.24960521533E+02  0.51100000000E-03 0. -1.
        -11    1    3    3    0    0 -0.16147756816E+02 -0.25859850960E+02 -0.49638510142E+01  0.30888861407E+02  0.51100000000E-03 0.  1.
         12    1    3    3    0    0 -0.12372026210E+02  0.42606456158E+01 -0.10234379189E+02  0.16612123614E+02  0.00000000000E+00 0. -1.
</event>
<event>
 7    1  0.1375918E-013  0.7246156E+02  0.7816164E-02  0.1226708E+00
        -11   -1    0    0    0    0  0.00000000000E+00  0.00000000000E+00  0.45593999997E+02  0.45594000000E+02  0.51100000000E-03 0. -1.
         11   -1    0    0    0    0 -0.00000000000E+00 -0.00000000000E+00 -0.45593999997E+02  0.45594000000E+02  0.51100000000E-03 0.  1.
    9900012    2    1    2    0    0  0.58049918549E+01 -0.69807580470E+01 -0.16378355581E+02  0.72461562942E+02  0.69999990422E+02 0.  0.
         12    1    1    2    0    0 -0.58049918549E+01  0.69807580470E+01  0.16378355581E+02  0.18726437058E+02  0.00000000000E+00 0. -1.
         11    1    3    3    0    0 -0.24296127792E+02 -0.19526870733E+02 -0.17340642840E+02  0.35669292125E+02  0.51100000000E-03 0. -1.
        -11    1    3    3    0    0  0.12264759008E+01  0.68830391053E+01 -0.18538769689E+01  0.72330719986E+01  0.51100000000E-03 0.  1.
         12    1    3    3    0    0  0.28874643746E+02  0.56630735809E+01  0.28161642272E+01  0.29559198819E+02  0.00000000000E+00 0. -1.
</event>
<event>
 7    1  0.1375918E-013  0.7246155E+02  0.7816164E-02  0.1226708E+00
        -11   -1    0    0    0    0  0.00000000000E+00  0.00000000000E+00  0.45593999997E+02  0.45594000000E+02  0.51100000000E-03 0. -1.
         11   -1    0    0    0    0 -0.00000000000E+00 -0.00000000000E+00 -0.45593999997E+02  0.45594000000E+02  0.51100000000E-03 0.  1.
    9900012    2    1    2    0    0  0.53943332850E+01 -0.15211732000E+02  0.94965364345E+01  0.72461552759E+02  0.69999977156E+02 0.  0.
         12    1    1    2    0    0 -0.53943332850E+01  0.15211732000E+02 -0.94965364345E+01  0.18726447241E+02  0.00000000000E+00 0. -1.
         11    1    3    3    0    0  0.84017049041E+01 -0.91900481026E+01  0.30877288285E+02  0.33293431207E+02  0.51100000000E-03 0. -1.
        -11    1    3    3    0    0  0.12255243947E+02 -0.60812727677E+01 -0.19455813863E+02  0.23784481832E+02  0.51100000000E-03 0.  1.
        -12    1    3    3    0    0 -0.15262615566E+02  0.59588870211E-01 -0.19249379880E+01  0.15383639720E+02  0.00000000000E+00 0.  1.
</event>
<event>
 7    1  0.1375918E-013  0.7246158E+02  0.7816164E-02  0.1226708E+00
        -11   -1    0    0    0    0  0.00000000000E+00  0.00000000000E+00  0.45593999997E+02  0.45594000000E+02  0.51100000000E-03 0. -1.
         11   -1    0    0    0    0 -0.00000000000E+00 -0.00000000000E+00 -0.45593999997E+02  0.45594000000E+02  0.51100000000E-03 0.  1.
    9900012    2    1    2    0    0 -0.63398089076E+01 -0.17559410448E+02 -0.14672783878E+01  0.72461575404E+02  0.70000006657E+02 0.  0.
         12    1    1    2    0    0  0.63398089076E+01  0.17559410448E+02  0.14672783878E+01  0.18726424596E+02  0.00000000000E+00 0. -1.
         11    1    3    3    0    0  0.82720330258E+00  0.68189517070E+01  0.30456751074E+01  0.75138874630E+01  0.51100000000E-03 0. -1.
        -11    1    3    3    0    0  0.15913288021E+02 -0.17698993535E+02 -0.24156870219E+02  0.33912261600E+02  0.51100000000E-03 0.  1.
        -12    1    3    3    0    0 -0.23080300231E+02 -0.66793686202E+01  0.19643916724E+02  0.31035426341E+02  0.00000000000E+00 0.  1.
</event>
<event>
 7    1  0.1375918E-013  0.7246157E+02  0.7816164E-02  0.1226708E+00
        -11   -1    0    0    0    0  0.00000000000E+00  0.00000000000E+00  0.45593999997E+02  0.45594000000E+02  0.51100000000E-03 0.  1.
         11   -1    0    0    0    0 -0.00000000000E+00 -0.00000000000E+00 -0.45593999997E+02  0.45594000000E+02  0.51100000000E-03 0. -1.
    9900012    2    1    2    0    0  0.18009309585E+02 -0.44485153257E+01 -0.25602225119E+01  0.72461567888E+02  0.69999996865E+02 0.  0.
         12    1    1    2    0    0 -0.18009309585E+02  0.44485153257E+01  0.25602225119E+01  0.18726432112E+02  0.00000000000E+00 0. -1.
         11    1    3    3    0    0  0.77439164276E+01  0.19539177225E+02 -0.12808096174E+02  0.24612903448E+02  0.51100000000E-03 0. -1.
        -11    1    3    3    0    0  0.39379169506E+01 -0.32830194016E+02  0.14588921671E+02  0.36140911234E+02  0.51100000000E-03 0.  1.
        -12    1    3    3    0    0  0.63274762070E+01  0.88425014656E+01 -0.43410480089E+01  0.11707753206E+02  0.00000000000E+00 0.  1.
</event>
<event>
 7    1  0.1375918E-013  0.7246161E+02  0.7816164E-02  0.1226708E+00
        -11   -1    0    0    0    0  0.00000000000E+00  0.00000000000E+00  0.45593999997E+02  0.45594000000E+02  0.51100000000E-03 0.  1.
         11   -1    0    0    0    0 -0.00000000000E+00 -0.00000000000E+00 -0.45593999997E+02  0.45594000000E+02  0.51100000000E-03 0. -1.
    9900012    2    1    2    0    0  0.95243431071E+01 -0.99236289884E+00  0.16092852095E+02  0.72461607280E+02  0.70000048181E+02 0.  0.
         12    1    1    2    0    0 -0.95243431071E+01  0.99236289884E+00 -0.16092852095E+02  0.18726392720E+02  0.00000000000E+00 0. -1.
         11    1    3    3    0    0  0.52256265187E+01 -0.93123390150E+01 -0.14993603559E+02  0.18407470722E+02  0.51100000000E-03 0.  1.
        -11    1    3    3    0    0 -0.18110831490E+02 -0.24165129565E+01  0.19214956435E+02  0.26515208903E+02  0.51100000000E-03 0. -1.
        -12    1    3    3    0    0  0.22409548078E+02  0.10736489073E+02  0.11871499219E+02  0.27538927655E+02  0.00000000000E+00 0.  1.
</event>
<event>
 7    1  0.1375918E-013  0.7246157E+02  0.7816164E-02  0.1226708E+00
        -11   -1    0    0    0    0  0.00000000000E+00  0.00000000000E+00  0.45593999997E+02  0.45594000000E+02  0.51100000000E-03 0. -1.
         11   -1    0    0    0    0 -0.00000000000E+00 -0.00000000000E+00 -0.45593999997E+02  0.45594000000E+02  0.51100000000E-03 0.  1.
    9900012    2    1    2    0    0  0.30781333003E+01  0.10786280567E+02 -0.14995344469E+02  0.72461571915E+02  0.70000002111E+02 0.  0.
         12    1    1    2    0    0 -0.30781333003E+01 -0.10786280567E+02  0.14995344469E+02  0.18726428085E+02  0.00000000000E+00 0. -1.
         11    1    3    3    0    0  0.10786078796E+01  0.34667229770E+02 -0.23467895875E+02  0.41877468309E+02  0.51100000000E-03 0. -1.
        -11    1    3    3    0    0  0.88400898619E+01 -0.11491349526E+02  0.88334786917E+00  0.14525102630E+02  0.51100000000E-03 0.  1.
         12    1    3    3    0    0 -0.68405644412E+01 -0.12389599677E+02  0.75892035366E+01  0.16059000976E+02  0.00000000000E+00 0. -1.
</event>
<event>
 7    1  0.1375918E-013  0.7246159E+02  0.7816164E-02  0.1226708E+00
        -11   -1    0    0    0    0  0.00000000000E+00  0.00000000000E+00  0.45593999997E+02  0.45594000000E+02  0.51100000000E-03 0.  1.
         11   -1    0    0    0    0 -0.00000000000E+00 -0.00000000000E+00 -0.45593999997E+02  0.45594000000E+02  0.51100000000E-03 0. -1.
    9900012    2    1    2    0    0  0.81407579681E+01  0.28291012623E+01  0.16625357377E+02  0.72461594521E+02  0.70000031560E+02 0.  0.
         12    1    1    2    0    0 -0.81407579681E+01 -0.28291012623E+01 -0.16625357377E+02  0.18726405479E+02  0.00000000000E+00 0. -1.
         11    1    3    3    0    0  0.15983184387E+02  0.20659388912E+02 -0.15614431452E+01  0.26166976102E+02  0.51100000000E-03 0. -1.
        -11    1    3    3    0    0  0.87324575449E+01 -0.23303274776E+02  0.13047421985E+02  0.28098641440E+02  0.51100000000E-03 0.  1.
        -12    1    3    3    0    0 -0.16574883963E+02  0.54729871262E+01  0.51393785371E+01  0.18195976979E+02  0.00000000000E+00 0.  1.
</event>
<event>
 7    1  0.1375918E-013  0.7246157E+02  0.7816164E-02  0.1226708E+00
        -11   -1    0    0    0    0  0.00000000000E+00  0.00000000000E+00  0.45593999997E+02  0.45594000000E+02  0.51100000000E-03 0. -1.
         11   -1    0    0    0    0 -0.00000000000E+00 -0.00000000000E+00 -0.45593999997E+02  0.45594000000E+02  0.51100000000E-03 0.  1.
    9900012    2    1    2    0    0 -0.29648633635E+01 -0.17984218820E+02 -0.42961124682E+01  0.72461571519E+02  0.70000001595E+02 0.  0.
         12    1    1    2    0    0  0.29648633635E+01  0.17984218820E+02  0.42961124682E+01  0.18726428481E+02  0.00000000000E+00 0. -1.
         11    1    3    3    0    0  0.24839108735E+02 -0.18201809318E+02 -0.11809449620E+02  0.32981059501E+02  0.51100000000E-03 0. -1.
        -11    1    3    3    0    0 -0.12807660469E+02 -0.12414639117E+02 -0.15007553816E+01  0.17900047432E+02  0.51100000000E-03 0.  1.
         12    1    3    3    0    0 -0.14996311630E+02  0.12632229615E+02  0.90140925332E+01  0.21580464586E+02  0.00000000000E+00 0. -1.
</event>
<event>
 7    1  0.1375918E-013  0.7246157E+02  0.7816164E-02  0.1226708E+00
        -11   -1    0    0    0    0  0.00000000000E+00  0.00000000000E+00  0.45593999997E+02  0.45594000000E+02  0.51100000000E-03 0.  1.
         11   -1    0    0    0    0 -0.00000000000E+00 -0.00000000000E+00 -0.45593999997E+02  0.45594000000E+02  0.51100000000E-03 0. -1.
    9900012    2    1    2    0    0 -0.16200740602E+02  0.76823318310E+01  0.54034065796E+01  0.72461574258E+02  0.70000005163E+02 0.  0.
         12    1    1    2    0    0  0.16200740602E+02 -0.76823318310E+01 -0.54034065796E+01  0.18726425742E+02  0.00000000000E+00 0. -1.
         11    1    3    3    0    0  0.20729766761E+02 -0.77619170791E+01  0.16451929918E+02  0.27579640770E+02  0.51100000000E-03 0. -1.
        -11    1    3    3    0    0 -0.21276033281E+02  0.59746765567E+01  0.23228498024E+01  0.22220755694E+02  0.51100000000E-03 0.  1.
         12    1    3    3    0    0 -0.15654474082E+02  0.94695723534E+01 -0.13371373141E+02  0.22661177794E+02  0.00000000000E+00 0. -1.
</event>
<event>
 7    1  0.1375918E-013  0.7246157E+02  0.7816164E-02  0.1226708E+00
        -11   -1    0    0    0    0  0.00000000000E+00  0.00000000000E+00  0.45593999997E+02  0.45594000000E+02  0.51100000000E-03 0. -1.
         11   -1    0    0    0    0 -0.00000000000E+00 -0.00000000000E+00 -0.45593999997E+02  0.45594000000E+02  0.51100000000E-03 0.  1.
    9900012    2    1    2    0    0 -0.16823193341E+02  0.14804735448E+00 -0.82241936883E+01  0.72461571776E+02  0.70000001930E+02 0.  0.
         12    1    1    2    0    0  0.16823193341E+02 -0.14804735448E+00  0.82241936883E+01  0.18726428224E+02  0.00000000000E+00 0. -1.
         11    1    3    3    0    0  0.15266852856E+01  0.15022816758E+02  0.21128819630E+02  0.25970036783E+02  0.51100000000E-03 0. -1.
        -11    1    3    3    0    0 -0.11418399062E+01 -0.30255940199E+01 -0.24925630079E+02  0.25134539038E+02  0.51100000000E-03 0.  1.
         12    1    3    3    0    0 -0.17208038720E+02 -0.11849175383E+02 -0.44273832395E+01  0.21356995955E+02  0.00000000000E+00 0. -1.
</event>
<event>
 7    1  0.1375918E-013  0.7246153E+02  0.7816164E-02  0.1226708E+00
        -11   -1    0    0    0    0  0.00000000000E+00  0.00000000000E+00  0.45593999997E+02  0.45594000000E+02  0.51100000000E-03 0.  1.
         11   -1    0    0    0    0 -0.00000000000E+00 -0.00000000000E+00 -0.45593999997E+02  0.45594000000E+02  0.51100000000E-03 0. -1.
    9900012    2    1    2    0    0 -0.17867826101E+02 -0.53248441603E+01  0.17514119200E+01  0.72461531603E+02  0.69999949597E+02 0.  0.
         12    1    1    2    0    0  0.17867826101E+02  0.53248441603E+01 -0.17514119200E+01  0.18726468397E+02  0.00000000000E+00 0. -1.
         11    1    3    3    0    0 -0.24035045774E+02 -0.11327977489E+02 -0.19509942787E+02  0.32964289271E+02  0.51100000000E-03 0. -1.
        -11    1    3    3    0    0 -0.70111161106E+00 -0.72279634038E+01  0.23341666911E+02  0.24445212760E+02  0.51100000000E-03 0.  1.
         12    1    3    3    0    0  0.68683312837E+01  0.13231096732E+02 -0.20803122037E+01  0.15052029571E+02  0.00000000000E+00 0. -1.
</event>
<event>
 7    1  0.1375918E-013  0.7246168E+02  0.7816164E-02  0.1226708E+00
        -11   -1    0    0    0    0  0.00000000000E+00  0.00000000000E+00  0.45593999997E+02  0.45594000000E+02  0.51100000000E-03 0. -1.
         11   -1    0    0    0    0 -0.00000000000E+00 -0.00000000000E+00 -0.45593999997E+02  0.45594000000E+02  0.51100000000E-03 0.  1.
    9900012    2    1    2    0    0 -0.10532148178E+02 -0.11350648271E+02 -0.10531461267E+02  0.72461680612E+02  0.70000143709E+02 0.  0.
         12    1    1    2    0    0  0.10532148178E+02  0.11350648271E+02  0.10531461267E+02  0.18726319388E+02  0.00000000000E+00 0. -1.
         11    1    3    3    0    0  0.20577294054E+02  0.18679167384E+02 -0.74435857830E+01  0.28770528224E+02  0.51100000000E-03 0. -1.
        -11    1    3    3    0    0 -0.90641228335E+01 -0.12146919005E+02 -0.19155430128E+00  0.15157264178E+02  0.51100000000E-03 0.  1.
         12    1    3    3    0    0 -0.22045319398E+02 -0.17882896650E+02 -0.28963211826E+01  0.28533888209E+02  0.00000000000E+00 0. -1.
</event>
<event>
 7    1  0.1375918E-013  0.7246163E+02  0.7816164E-02  0.1226708E+00
        -11   -1    0    0    0    0  0.00000000000E+00  0.00000000000E+00  0.45593999997E+02  0.45594000000E+02  0.51100000000E-03 0.  1.
         11   -1    0    0    0    0 -0.00000000000E+00 -0.00000000000E+00 -0.45593999997E+02  0.45594000000E+02  0.51100000000E-03 0. -1.
    9900012    2    1    2    0    0  0.17067995442E+02 -0.76354849462E+01 -0.10295522901E+01  0.72461626174E+02  0.70000072793E+02 0.  0.
         12    1    1    2    0    0 -0.17067995442E+02  0.76354849462E+01  0.10295522901E+01  0.18726373826E+02  0.00000000000E+00 0. -1.
         11    1    3    3    0    0  0.69833686047E+01  0.12112761068E+01 -0.33177698578E+02  0.33926307050E+02  0.51100000000E-03 0. -1.
        -11    1    3    3    0    0  0.24768456524E+01  0.24538258728E+01  0.19940521004E+02  0.20243033468E+02  0.51100000000E-03 0.  1.
        -12    1    3    3    0    0  0.76077811846E+01 -0.11300586926E+02  0.12207625284E+02  0.18292285655E+02  0.00000000000E+00 0.  1.
</event>
<event>
 7    1  0.1375918E-013  0.7246156E+02  0.7816164E-02  0.1226708E+00
        -11   -1    0    0    0    0  0.00000000000E+00  0.00000000000E+00  0.45593999997E+02  0.45594000000E+02  0.51100000000E-03 0.  1.
         11   -1    0    0    0    0 -0.00000000000E+00 -0.00000000000E+00 -0.45593999997E+02  0.45594000000E+02  0.51100000000E-03 0. -1.
    9900012    2    1    2    0    0  0.20008245440E+00  0.11992131313E+02  0.14381521248E+02  0.72461564145E+02  0.69999991989E+02 0.  0.
         12    1    1    2    0    0 -0.20008245440E+00 -0.11992131313E+02 -0.14381521248E+02  0.18726435855E+02  0.00000000000E+00 0. -1.
         11    1    3    3    0    0  0.12543650202E+02 -0.26175247262E+01 -0.21130062564E+02  0.24711821873E+02  0.51100000000E-03 0. -1.
        -11    1    3    3    0    0 -0.54982924421E+01 -0.71265868820E+01  0.81655955194E+01  0.12153041217E+02  0.51100000000E-03 0.  1.
         12    1    3    3    0    0 -0.68452753052E+01  0.21736242921E+02  0.27345988293E+02  0.35596701055E+02  0.00000000000E+00 0. -1.
</event>
<event>
 7    1  0.1375918E-013  0.7246178E+02  0.7816164E-02  0.1226707E+00
        -11   -1    0    0    0    0  0.00000000000E+00  0.00000000000E+00  0.45593999997E+02  0.45594000000E+02  0.51100000000E-03 0. -1.
         11   -1    0    0    0    0 -0.00000000000E+00 -0.00000000000E+00 -0.45593999997E+02  0.45594000000E+02  0.51100000000E-03 0.  1.
    9900012    2    1    2    0    0  0.67837144474E+01  0.17736817521E+01 -0.17363940762E+02  0.72461783953E+02  0.70000278330E+02 0.  0.
         12    1    1    2    0    0 -0.67837144474E+01 -0.17736817521E+01  0.17363940762E+02  0.18726216047E+02  0.00000000000E+00 0. -1.
         11    1    3    3    0    0 -0.13136150635E+02 -0.22924188064E+02 -0.69706013414E+01  0.27325192318E+02  0.51100000000E-03 0. -1.
        -11    1    3    3    0    0 -0.43547414915E+01  0.18141516071E+02 -0.60964469423E+01  0.19627660186E+02  0.51100000000E-03 0.  1.
         12    1    3    3    0    0  0.24274606574E+02  0.65563537448E+01 -0.42968924779E+01  0.25508931449E+02  0.00000000000E+00 0. -1.
</event>
<event>
 7    1  0.1375918E-013  0.7246159E+02  0.7816164E-02  0.1226708E+00
        -11   -1    0    0    0    0  0.00000000000E+00  0.00000000000E+00  0.45593999997E+02  0.45594000000E+02  0.51100000000E-03 0. -1.
         11   -1    0    0    0    0 -0.00000000000E+00 -0.00000000000E+00 -0.45593999997E+02  0.45594000000E+02  0.51100000000E-03 0.  1.
    9900012    2    1    2    0    0  0.19958340511E+01  0.13677413318E+02 -0.12634223357E+02  0.72461585809E+02  0.70000020211E+02 0.  0.
         12    1    1    2    0    0 -0.19958340511E+01 -0.13677413318E+02  0.12634223357E+02  0.18726414191E+02  0.00000000000E+00 0. -1.
         11    1    3    3    0    0  0.20075281317E+02  0.23380548734E+02 -0.27406611751E+02  0.41240627383E+02  0.51100000000E-03 0. -1.
        -11    1    3    3    0    0 -0.13480331462E+02 -0.11044849645E+02  0.19538518508E+01  0.17536407196E+02  0.51100000000E-03 0.  1.
         12    1    3    3    0    0 -0.45991158037E+01  0.13417142291E+01  0.12818536543E+02  0.13684551230E+02  0.00000000000E+00 0. -1.
</event>
<event>
 7    1  0.1375918E-013  0.7246154E+02  0.7816164E-02  0.1226708E+00
        -11   -1    0    0    0    0  0.00000000000E+00  0.00000000000E+00  0.45593999997E+02  0.45594000000E+02  0.51100000000E-03 0.  1.
         11   -1    0    0    0    0 -0.00000000000E+00 -0.00000000000E+00 -0.45593999997E+02  0.45594000000E+02  0.51100000000E-03 0. -1.
    9900012    2    1    2    0    0 -0.72905262741E+01 -0.41990267042E+01  0.16730113689E+02  0.72461540039E+02  0.69999960587E+02 0.  0.
         12    1    1    2    0    0  0.72905262741E+01  0.41990267042E+01 -0.16730113689E+02  0.18726459961E+02  0.00000000000E+00 0. -1.
         11    1    3    3    0    0 -0.20978204846E+02 -0.19270428470E+02  0.70275494948E+01  0.29339750240E+02  0.51100000000E-03 0. -1.
        -11    1    3    3    0    0  0.11678347426E+02  0.73107600143E+01  0.23455618464E+02  0.27202886766E+02  0.51100000000E-03 0.  1.
        -12    1    3    3    0    0  0.20093311452E+01  0.77606417517E+01 -0.13753054269E+02  0.15918903033E+02  0.00000000000E+00 0.  1.
</event>
<event>
 7    1  0.1375918E-013  0.7246152E+02  0.7816164E-02  0.1226708E+00
        -11   -1    0    0    0    0  0.00000000000E+00  0.00000000000E+00  0.45593999997E+02  0.45594000000E+02  0.51100000000E-03 0. -1.
         11   -1    0    0    0    0 -0.00000000000E+00 -0.00000000000E+00 -0.45593999997E+02  0.45594000000E+02  0.51100000000E-03 0.  1.
    9900012    2    1    2    0    0 -0.88781451513E+01 -0.32018924930E+01 -0.16174288619E+02  0.72461516369E+02  0.69999929752E+02 0.  0.
         12    1    1    2    0    0  0.88781451513E+01  0.32018924930E+01  0.16174288619E+02  0.18726483631E+02  0.00000000000E+00 0. -1.
         11    1    3    3    0    0  0.38126215219E+01 -0.13415276884E+00  0.14997046514E+02  0.15474672347E+02  0.51100000000E-03 0. -1.
        -11    1    3    3    0    0 -0.17385504539E+02 -0.14624753436E+02 -0.36842480458E+02  0.43284033403E+02  0.51100000000E-03 0.  1.
        -12    1    3    3    0    0  0.46947378655E+01  0.11557013712E+02  0.56711453247E+01  0.13702810619E+02  0.00000000000E+00 0.  1.
</event>
<event>
 7    1  0.1375918E-013  0.7246159E+02  0.7816164E-02  0.1226708E+00
        -11   -1    0    0    0    0  0.00000000000E+00  0.00000000000E+00  0.45593999997E+02  0.45594000000E+02  0.51100000000E-03 0.  1.
         11   -1    0    0    0    0 -0.00000000000E+00 -0.00000000000E+00 -0.45593999997E+02  0.45594000000E+02  0.51100000000E-03 0. -1.
    9900012    2    1    2    0    0  0.61071192792E+00 -0.14792933690E+02  0.11466240705E+02  0.72461587313E+02  0.70000022170E+02 0.  0.
         12    1    1    2    0    0 -0.61071192792E+00  0.14792933690E+02 -0.11466240705E+02  0.18726412687E+02  0.00000000000E+00 0. -1.
         11    1    3    3    0    0 -0.50772681275E+01 -0.28654720324E+02 -0.16647252535E+02  0.33526148984E+02  0.51100000000E-03 0. -1.
        -11    1    3    3    0    0 -0.42323153002E+01  0.14228482720E+02  0.88978777919E+01  0.17307063378E+02  0.51100000000E-03 0.  1.
         12    1    3    3    0    0  0.99202953556E+01 -0.36669608620E+00  0.19215615448E+02  0.21628374951E+02  0.00000000000E+00 0. -1.
</event>
<event>
 7    1  0.1375918E-013  0.7246153E+02  0.7816164E-02  0.1226708E+00
        -11   -1    0    0    0    0  0.00000000000E+00  0.00000000000E+00  0.45593999997E+02  0.45594000000E+02  0.51100000000E-03 0. -1.
         11   -1    0    0    0    0 -0.00000000000E+00 -0.00000000000E+00 -0.45593999997E+02  0.45594000000E+02  0.51100000000E-03 0.  1.
    9900012    2    1    2    0    0  0.11078089537E+00 -0.18321029117E+02 -0.38740397972E+01  0.72461533044E+02  0.69999951474E+02 0.  0.
         12    1    1    2    0    0 -0.11078089537E+00  0.18321029117E+02  0.38740397972E+01  0.18726466956E+02  0.00000000000E+00 0. -1.
         11    1    3    3    0    0 -0.10313337121E+02 -0.33492350081E+02  0.86672622329E+01  0.36100192124E+02  0.51100000000E-03 0. -1.
        -11    1    3    3    0    0  0.68196701882E+01  0.14441568766E+02 -0.21438861709E+02  0.26733716568E+02  0.51100000000E-03 0.  1.
        -12    1    3    3    0    0  0.36044478279E+01  0.72975219791E+00  0.88975596788E+01  0.96276243514E+01  0.00000000000E+00 0.  1.
</event>
<event>
 7    1  0.1375918E-013  0.7246159E+02  0.7816164E-02  0.1226708E+00
        -11   -1    0    0    0    0  0.00000000000E+00  0.00000000000E+00  0.45593999997E+02  0.45594000000E+02  0.51100000000E-03 0. -1.
         11   -1    0    0    0    0 -0.00000000000E+00 -0.00000000000E+00 -0.45593999997E+02  0.45594000000E+02  0.51100000000E-03 0.  1.
    9900012    2    1    2    0    0 -0.12363028987E+01  0.35444060757E+01 -0.18346314787E+02  0.72461587489E+02  0.70000022399E+02 0.  0.
         12    1    1    2    0    0  0.12363028987E+01 -0.35444060757E+01  0.18346314787E+02  0.18726412511E+02  0.00000000000E+00 0. -1.
         11    1    3    3    0    0 -0.93092568407E+01 -0.22038218237E+02  0.94702202984E+01  0.25729951395E+02  0.51100000000E-03 0. -1.
        -11    1    3    3    0    0 -0.89247877388E+01  0.95426246352E+01 -0.15637726865E+02  0.20377733507E+02  0.51100000000E-03 0.  1.
         12    1    3    3    0    0  0.16997741681E+02  0.16039999678E+02 -0.12178808221E+02  0.26353902587E+02  0.00000000000E+00 0. -1.
</event>
<event>
 7    1  0.1375918E-013  0.7246160E+02  0.7816164E-02  0.1226708E+00
        -11   -1    0    0    0    0  0.00000000000E+00  0.00000000000E+00  0.45593999997E+02  0.45594000000E+02  0.51100000000E-03 0.  1.
         11   -1    0    0    0    0 -0.00000000000E+00 -0.00000000000E+00 -0.45593999997E+02  0.45594000000E+02  0.51100000000E-03 0. -1.
    9900012    2    1    2    0    0  0.18345237453E+02  0.95990509880E+00  0.36343932885E+01  0.72461602333E+02  0.70000041736E+02 0.  0.
         12    1    1    2    0    0 -0.18345237453E+02 -0.95990509880E+00 -0.36343932885E+01  0.18726397667E+02  0.00000000000E+00 0. -1.
         11    1    3    3    0    0  0.16289042687E+02  0.90276920814E+01 -0.24291635542E+02  0.30609078613E+02  0.51100000000E-03 0. -1.
        -11    1    3    3    0    0 -0.12724550539E+01 -0.12422432240E+02  0.32434546893E+02  0.34755370765E+02  0.51100000000E-03 0.  1.
        -12    1    3    3    0    0  0.33286498198E+01  0.43546452578E+01 -0.45085180619E+01  0.70971529544E+01  0.00000000000E+00 0.  1.
</event>
<event>
 7    1  0.1375918E-013  0.7246158E+02  0.7816164E-02  0.1226708E+00
        -11   -1    0    0    0    0  0.00000000000E+00  0.00000000000E+00  0.45593999997E+02  0.45594000000E+02  0.51100000000E-03 0.  1.
         11   -1    0    0    0    0 -0.00000000000E+00 -0.00000000000E+00 -0.45593999997E+02  0.45594000000E+02  0.51100000000E-03 0. -1.
    9900012    2    1    2    0    0 -0.17769186724E+02  0.30968293609E+01 -0.50343100077E+01  0.72461584802E+02  0.70000018899E+02 0.  0.
         12    1    1    2    0    0  0.17769186724E+02 -0.30968293609E+01  0.50343100077E+01  0.18726415198E+02  0.00000000000E+00 0. -1.
         11    1    3    3    0    0  0.64803576715E+01 -0.13653752147E+02 -0.20310400781E+02  0.25316642025E+02  0.51100000000E-03 0. -1.
        -11    1    3    3    0    0 -0.23186510894E+02  0.23195206077E+02  0.26182130096E+01  0.32901168855E+02  0.51100000000E-03 0.  1.
         12    1    3    3    0    0 -0.10630335013E+01 -0.64446245689E+01  0.12657877764E+02  0.14243773922E+02  0.00000000000E+00 0. -1.
</event>
<event>
 7    1  0.1375918E-013  0.7246157E+02  0.7816164E-02  0.1226708E+00
        -11   -1    0    0    0    0  0.00000000000E+00  0.00000000000E+00  0.45593999997E+02  0.45594000000E+02  0.51100000000E-03 0.  1.
         11   -1    0    0    0    0 -0.00000000000E+00 -0.00000000000E+00 -0.45593999997E+02  0.45594000000E+02  0.51100000000E-03 0. -1.
    9900012    2    1    2    0    0 -0.47888542417E+01  0.79475120870E+00  0.18086299812E+02  0.72461574946E+02  0.70000006059E+02 0.  0.
         12    1    1    2    0    0  0.47888542417E+01 -0.79475120870E+00 -0.18086299812E+02  0.18726425054E+02  0.00000000000E+00 0. -1.
         11    1    3    3    0    0 -0.60104183945E+01  0.10644114568E+02 -0.64924380213E+01  0.13841027994E+02  0.51100000000E-03 0. -1.
        -11    1    3    3    0    0  0.16863559093E+02 -0.23728538594E+02  0.23954624703E+02  0.37699432542E+02  0.51100000000E-03 0.  1.
        -12    1    3    3    0    0 -0.15641994940E+02  0.13879175235E+02  0.62411313041E+00  0.20921114409E+02  0.00000000000E+00 0.  1.
</event>
<event>
 7    1  0.1375918E-013  0.7246159E+02  0.7816164E-02  0.1226708E+00
        -11   -1    0    0    0    0  0.00000000000E+00  0.00000000000E+00  0.45593999997E+02  0.45594000000E+02  0.51100000000E-03 0. -1.
         11   -1    0    0    0    0 -0.00000000000E+00 -0.00000000000E+00 -0.45593999997E+02  0.45594000000E+02  0.51100000000E-03 0.  1.
    9900012    2    1    2    0    0 -0.16228554911E+02  0.32662493428E+01 -0.87546617574E+01  0.72461588658E+02  0.70000023922E+02 0.  0.
         12    1    1    2    0    0  0.16228554911E+02 -0.32662493428E+01  0.87546617574E+01  0.18726411342E+02  0.00000000000E+00 0. -1.
         11    1    3    3    0    0 -0.30949248624E+02  0.83385120705E+00 -0.28345147538E+01  0.31089962567E+02  0.51100000000E-03 0. -1.
        -11    1    3    3    0    0  0.17725264847E+02  0.17680199229E+02 -0.94350656652E+00  0.25053236589E+02  0.51100000000E-03 0.  1.
         12    1    3    3    0    0 -0.30045711341E+01 -0.15247801094E+02 -0.49766404371E+01  0.16318389502E+02  0.00000000000E+00 0. -1.
</event>
<event>
 7    1  0.1375918E-013  0.7246148E+02  0.7816164E-02  0.1226708E+00
        -11   -1    0    0    0    0  0.00000000000E+00  0.00000000000E+00  0.45593999997E+02  0.45594000000E+02  0.51100000000E-03 0.  1.
         11   -1    0    0    0    0 -0.00000000000E+00 -0.00000000000E+00 -0.45593999997E+02  0.45594000000E+02  0.51100000000E-03 0. -1.
    9900012    2    1    2    0    0 -0.10709512389E+02 -0.14971028046E+02 -0.34434228842E+01  0.72461481436E+02  0.69999884246E+02 0.  0.
         12    1    1    2    0    0  0.10709512389E+02  0.14971028046E+02  0.34434228842E+01  0.18726518564E+02  0.00000000000E+00 0. -1.
         11    1    3    3    0    0 -0.16057939023E+02 -0.75059479533E+01 -0.24917727468E+02  0.30579238100E+02  0.51100000000E-03 0. -1.
        -11    1    3    3    0    0 -0.12168583974E+02 -0.56204894410E+01  0.20173335301E+02  0.24220400387E+02  0.51100000000E-03 0.  1.
         12    1    3    3    0    0  0.17517010608E+02 -0.18445906520E+01  0.13009692832E+01  0.17661842950E+02  0.00000000000E+00 0. -1.
</event>
<event>
 7    1  0.1375918E-013  0.7246149E+02  0.7816164E-02  0.1226708E+00
        -11   -1    0    0    0    0  0.00000000000E+00  0.00000000000E+00  0.45593999997E+02  0.45594000000E+02  0.51100000000E-03 0.  1.
         11   -1    0    0    0    0 -0.00000000000E+00 -0.00000000000E+00 -0.45593999997E+02  0.45594000000E+02  0.51100000000E-03 0. -1.
    9900012    2    1    2    0    0  0.44522439996E+01  0.75376621791E+01  0.16554253203E+02  0.72461491333E+02  0.69999897138E+02 0.  0.
         12    1    1    2    0    0 -0.44522439996E+01 -0.75376621791E+01 -0.16554253203E+02  0.18726508667E+02  0.00000000000E+00 0. -1.
         11    1    3    3    0    0  0.20394672915E+02  0.18872080485E+02  0.27887453234E+02  0.39367602839E+02  0.51100000000E-03 0. -1.
        -11    1    3    3    0    0 -0.88058097398E+01  0.34884266868E+01  0.42975455163E+01  0.10400976091E+02  0.51100000000E-03 0.  1.
         12    1    3    3    0    0 -0.71366191759E+01 -0.14822844993E+02 -0.15630745547E+02  0.22692912402E+02  0.00000000000E+00 0. -1.
</event>
<event>
 7    1  0.1375918E-013  0.7246162E+02  0.7816164E-02  0.1226708E+00
        -11   -1    0    0    0    0  0.00000000000E+00  0.00000000000E+00  0.45593999997E+02  0.45594000000E+02  0.51100000000E-03 0. -1.
         11   -1    0    0    0    0 -0.00000000000E+00 -0.00000000000E+00 -0.45593999997E+02  0.45594000000E+02  0.51100000000E-03 0.  1.
    9900012    2    1    2    0    0 -0.44610667786E+01 -0.16766056108E+02 -0.70480999134E+01  0.72461615762E+02  0.70000059230E+02 0.  0.
         12    1    1    2    0    0  0.44610667786E+01  0.16766056108E+02  0.70480999134E+01  0.18726384238E+02  0.00000000000E+00 0. -1.
         11    1    3    3    0    0 -0.10610111594E+02  0.22619606984E+01 -0.56873738513E+01  0.12248965500E+02  0.51100000000E-03 0. -1.
        -11    1    3    3    0    0  0.21629625050E+02 -0.96361449810E+01 -0.22302545413E+02  0.32528441433E+02  0.51100000000E-03 0.  1.
        -12    1    3    3    0    0 -0.15480580235E+02 -0.93918718258E+01  0.20941819351E+02  0.27684208830E+02  0.00000000000E+00 0.  1.
</event>
<event>
 8    1  0.1375918E-013  0.7246155E+02  0.7816164E-02  0.1226708E+00
        -11   -1    0    0    0    0  0.00000000000E+00  0.00000000000E+00  0.45593999997E+02  0.45594000000E+02  0.51100000000E-03 0.  1.
         11   -1    0    0    0    0 -0.00000000000E+00 -0.00000000000E+00 -0.45593999997E+02  0.45594000000E+02  0.51100000000E-03 0. -1.
    9900012    2    1    2    0    0 -0.17358916036E+02 -0.22279504588E+01  0.66621605553E+01  0.72461545118E+02  0.69999967203E+02 0.  0.
         24    2    3    3    0    0 -0.29829984825E+02 -0.18522603585E+00  0.90512852728E+01  0.59600433308E+02  0.50797869857E+02 0.  0.
         12    1    1    2    0    0  0.17358916036E+02  0.22279504588E+01 -0.66621605553E+01  0.18726454882E+02  0.00000000000E+00 0. -1.
         11    1    3    3    0    0  0.12471068789E+02 -0.20427244230E+01 -0.23891247176E+01  0.12861111810E+02  0.51100000000E-03 0. -1.
        -11    1    4    4    0    0 -0.17659778420E+02  0.47948973138E+01  0.29838745434E+02  0.35002993350E+02  0.51100000000E-03 0.  1.
         12    1    4    4    0    0 -0.12170206406E+02 -0.49801233496E+01 -0.20787460161E+02  0.24597439958E+02  0.00000000000E+00 0. -1.
</event>
<event>
 7    1  0.1375918E-013  0.7246172E+02  0.7816164E-02  0.1226708E+00
        -11   -1    0    0    0    0  0.00000000000E+00  0.00000000000E+00  0.45593999997E+02  0.45594000000E+02  0.51100000000E-03 0. -1.
         11   -1    0    0    0    0 -0.00000000000E+00 -0.00000000000E+00 -0.45593999997E+02  0.45594000000E+02  0.51100000000E-03 0.  1.
    9900012    2    1    2    0    0  0.13963663989E+01  0.15227787934E+02  0.10809173734E+02  0.72461718968E+02  0.70000193674E+02 0.  0.
         12    1    1    2    0    0 -0.13963663989E+01 -0.15227787934E+02 -0.10809173734E+02  0.18726281032E+02  0.00000000000E+00 0. -1.
         11    1    3    3    0    0 -0.68999132606E+01 -0.50992542460E+01  0.70284508470E+00  0.86084370442E+01  0.51100000000E-03 0. -1.
        -11    1    3    3    0    0  0.22512173127E+02  0.22069974066E+02  0.27139777536E+02  0.41598668478E+02  0.51100000000E-03 0.  1.
        -12    1    3    3    0    0 -0.14215893468E+02 -0.17429318855E+01 -0.17033448887E+02  0.22254613446E+02  0.00000000000E+00 0.  1.
</event>
<event>
 7    1  0.1375918E-013  0.7246154E+02  0.7816164E-02  0.1226708E+00
        -11   -1    0    0    0    0  0.00000000000E+00  0.00000000000E+00  0.45593999997E+02  0.45594000000E+02  0.51100000000E-03 0. -1.
         11   -1    0    0    0    0 -0.00000000000E+00 -0.00000000000E+00 -0.45593999997E+02  0.45594000000E+02  0.51100000000E-03 0.  1.
    9900012    2    1    2    0    0 -0.23211203086E+01  0.14299649868E+02 -0.11866448101E+02  0.72461543411E+02  0.69999964980E+02 0.  0.
         12    1    1    2    0    0  0.23211203086E+01 -0.14299649868E+02  0.11866448101E+02  0.18726456589E+02  0.00000000000E+00 0. -1.
         11    1    3    3    0    0 -0.10156224971E+02 -0.11593772377E+02  0.16394911226E+02  0.22502390494E+02  0.51100000000E-03 0. -1.
        -11    1    3    3    0    0  0.99554304883E+00  0.74200293923E+01 -0.29291758219E+02  0.30233343215E+02  0.51100000000E-03 0.  1.
        -12    1    3    3    0    0  0.68395616138E+01  0.18473392852E+02  0.10303988924E+01  0.19725809703E+02  0.00000000000E+00 0.  1.
</event>
<event>
 7    1  0.1375918E-013  0.7246159E+02  0.7816164E-02  0.1226708E+00
        -11   -1    0    0    0    0  0.00000000000E+00  0.00000000000E+00  0.45593999997E+02  0.45594000000E+02  0.51100000000E-03 0. -1.
         11   -1    0    0    0    0 -0.00000000000E+00 -0.00000000000E+00 -0.45593999997E+02  0.45594000000E+02  0.51100000000E-03 0.  1.
    9900012    2    1    2    0    0 -0.68766279860E+01  0.30231232763E+01 -0.17153752212E+02  0.72461588124E+02  0.70000023227E+02 0.  0.
         12    1    1    2    0    0  0.68766279860E+01 -0.30231232763E+01  0.17153752212E+02  0.18726411876E+02  0.00000000000E+00 0. -1.
         11    1    3    3    0    0 -0.80030929528E+01  0.17156926251E+02  0.16998267524E+02  0.25443087750E+02  0.51100000000E-03 0. -1.
        -11    1    3    3    0    0  0.13709318391E+02 -0.81571649774E+01 -0.26997731970E+02  0.31358607798E+02  0.51100000000E-03 0.  1.
        -12    1    3    3    0    0 -0.12582853425E+02 -0.59766379973E+01 -0.71542877652E+01  0.15659892576E+02  0.00000000000E+00 0.  1.
</event>
<event>
 7    1  0.1375918E-013  0.7246125E+02  0.7816164E-02  0.1226709E+00
        -11   -1    0    0    0    0  0.00000000000E+00  0.00000000000E+00  0.45593999997E+02  0.45594000000E+02  0.51100000000E-03 0.  1.
         11   -1    0    0    0    0 -0.00000000000E+00 -0.00000000000E+00 -0.45593999997E+02  0.45594000000E+02  0.51100000000E-03 0. -1.
    9900012    2    1    2    0    0  0.55441840728E+01  0.14036979827E+02  0.11086758713E+02  0.72461254462E+02  0.69999588568E+02 0.  0.
         12    1    1    2    0    0 -0.55441840728E+01 -0.14036979827E+02 -0.11086758713E+02  0.18726745538E+02  0.00000000000E+00 0. -1.
         11    1    3    3    0    0  0.15475333502E+02 -0.18245360958E+02 -0.13512680724E+02  0.27476748063E+02  0.51100000000E-03 0. -1.
        -11    1    3    3    0    0 -0.10962574935E+02  0.15331562557E+02  0.19801931374E+02  0.27337727522E+02  0.51100000000E-03 0.  1.
        -12    1    3    3    0    0  0.10314255059E+01  0.16950778229E+02  0.47975080625E+01  0.17646778877E+02  0.00000000000E+00 0.  1.
</event>
<event>
 7    1  0.1375918E-013  0.7246117E+02  0.7816164E-02  0.1226709E+00
        -11   -1    0    0    0    0  0.00000000000E+00  0.00000000000E+00  0.45593999997E+02  0.45594000000E+02  0.51100000000E-03 0.  1.
         11   -1    0    0    0    0 -0.00000000000E+00 -0.00000000000E+00 -0.45593999997E+02  0.45594000000E+02  0.51100000000E-03 0. -1.
    9900012    2    1    2    0    0  0.29041223902E+01  0.44330872909E+01  0.17961295437E+02  0.72461165682E+02  0.69999472916E+02 0.  0.
         12    1    1    2    0    0 -0.29041223902E+01 -0.44330872909E+01 -0.17961295437E+02  0.18726834318E+02  0.00000000000E+00 0. -1.
         11    1    3    3    0    0 -0.11923108576E+02  0.27367784179E+01  0.15268564804E+02  0.19564752634E+02  0.51100000000E-03 0. -1.
        -11    1    3    3    0    0  0.22572480794E+02  0.16352296311E+02  0.15550541855E+02  0.31917610125E+02  0.51100000000E-03 0.  1.
        -12    1    3    3    0    0 -0.77452498275E+01 -0.14655987438E+02 -0.12857811221E+02  0.20978802923E+02  0.00000000000E+00 0.  1.
</event>
<event>
 7    1  0.1375918E-013  0.7246150E+02  0.7816164E-02  0.1226708E+00
        -11   -1    0    0    0    0  0.00000000000E+00  0.00000000000E+00  0.45593999997E+02  0.45594000000E+02  0.51100000000E-03 0.  1.
         11   -1    0    0    0    0 -0.00000000000E+00 -0.00000000000E+00 -0.45593999997E+02  0.45594000000E+02  0.51100000000E-03 0. -1.
    9900012    2    1    2    0    0 -0.75844369719E+01 -0.11747374604E+02  0.12456218156E+02  0.72461498324E+02  0.69999906246E+02 0.  0.
         12    1    1    2    0    0  0.75844369719E+01  0.11747374604E+02 -0.12456218156E+02  0.18726501676E+02  0.00000000000E+00 0. -1.
         11    1    3    3    0    0  0.67860632187E+01  0.26045635318E+02  0.88496703868E+01  0.28332709707E+02  0.51100000000E-03 0. -1.
        -11    1    3    3    0    0  0.41241041027E+00 -0.22080115538E+02  0.44945998326E+01  0.22536703672E+02  0.51100000000E-03 0.  1.
        -12    1    3    3    0    0 -0.14782910601E+02 -0.15712894385E+02 -0.88805206364E+00  0.21592084944E+02  0.00000000000E+00 0.  1.
</event>
<event>
 7    1  0.1375918E-013  0.7246157E+02  0.7816164E-02  0.1226708E+00
        -11   -1    0    0    0    0  0.00000000000E+00  0.00000000000E+00  0.45593999997E+02  0.45594000000E+02  0.51100000000E-03 0. -1.
         11   -1    0    0    0    0 -0.00000000000E+00 -0.00000000000E+00 -0.45593999997E+02  0.45594000000E+02  0.51100000000E-03 0.  1.
    9900012    2    1    2    0    0 -0.49710117132E+01  0.14463279020E+02 -0.10806564313E+02  0.72461568687E+02  0.69999997906E+02 0.  0.
         12    1    1    2    0    0  0.49710117132E+01 -0.14463279020E+02  0.10806564313E+02  0.18726431313E+02  0.00000000000E+00 0. -1.
         11    1    3    3    0    0  0.14580683374E+02 -0.16550815659E+02  0.59009967349E+01  0.22833037234E+02  0.51100000000E-03 0. -1.
        -11    1    3    3    0    0 -0.63726464833E+01  0.30811090433E+02 -0.18225613502E+02  0.36360788009E+02  0.51100000000E-03 0.  1.
         12    1    3    3    0    0 -0.13179048604E+02  0.20300424549E+00  0.15180524541E+01  0.13267743444E+02  0.00000000000E+00 0. -1.
</event>
<event>
 7    1  0.1375918E-013  0.7246161E+02  0.7816164E-02  0.1226708E+00
        -11   -1    0    0    0    0  0.00000000000E+00  0.00000000000E+00  0.45593999997E+02  0.45594000000E+02  0.51100000000E-03 0. -1.
         11   -1    0    0    0    0 -0.00000000000E+00 -0.00000000000E+00 -0.45593999997E+02  0.45594000000E+02  0.51100000000E-03 0.  1.
    9900012    2    1    2    0    0 -0.21248542354E+01 -0.18605447479E+02  0.77571010884E-02  0.72461608420E+02  0.70000049666E+02 0.  0.
         12    1    1    2    0    0  0.21248542354E+01  0.18605447479E+02 -0.77571010884E-02  0.18726391580E+02  0.00000000000E+00 0. -1.
         11    1    3    3    0    0  0.17053685675E+02 -0.10277502092E+02  0.20901272270E+02  0.28867255275E+02  0.51100000000E-03 0.  1.
        -11    1    3    3    0    0 -0.91040782101E+01  0.85032534643E+01 -0.20483420228E+02  0.23974154084E+02  0.51100000000E-03 0. -1.
        -12    1    3    3    0    0 -0.10074461701E+02 -0.16831198852E+02 -0.41009494057E+00  0.19620199061E+02  0.00000000000E+00 0.  1.
</event>
<event>
 7    1  0.1375918E-013  0.7246156E+02  0.7816164E-02  0.1226708E+00
        -11   -1    0    0    0    0  0.00000000000E+00  0.00000000000E+00  0.45593999997E+02  0.45594000000E+02  0.51100000000E-03 0.  1.
         11   -1    0    0    0    0 -0.00000000000E+00 -0.00000000000E+00 -0.45593999997E+02  0.45594000000E+02  0.51100000000E-03 0. -1.
    9900012    2    1    2    0    0  0.39073672284E+01 -0.12453106582E+02 -0.13428784322E+02  0.72461557984E+02  0.69999983964E+02 0.  0.
         12    1    1    2    0    0 -0.39073672284E+01  0.12453106582E+02  0.13428784322E+02  0.18726442016E+02  0.00000000000E+00 0. -1.
         11    1    3    3    0    0  0.16232884944E+02  0.12104837483E+02 -0.27722065232E+01  0.20438169521E+02  0.51100000000E-03 0. -1.
        -11    1    3    3    0    0 -0.17477370431E+02 -0.24294392618E+02  0.93563576672E+01  0.31356297915E+02  0.51100000000E-03 0.  1.
        -12    1    3    3    0    0  0.51518527162E+01 -0.26355144699E+00 -0.20012935466E+02  0.20667090549E+02  0.00000000000E+00 0.  1.
</event>
<event>
 7    1  0.1375918E-013  0.7246155E+02  0.7816164E-02  0.1226708E+00
        -11   -1    0    0    0    0  0.00000000000E+00  0.00000000000E+00  0.45593999997E+02  0.45594000000E+02  0.51100000000E-03 0. -1.
         11   -1    0    0    0    0 -0.00000000000E+00 -0.00000000000E+00 -0.45593999997E+02  0.45594000000E+02  0.51100000000E-03 0.  1.
    9900012    2    1    2    0    0  0.15609703749E+02  0.96306458611E+01  0.37772624104E+01  0.72461550733E+02  0.69999974518E+02 0.  0.
         12    1    1    2    0    0 -0.15609703749E+02 -0.96306458611E+01 -0.37772624104E+01  0.18726449267E+02  0.00000000000E+00 0. -1.
         11    1    3    3    0    0  0.26526169561E+02  0.21938779417E+02 -0.65844788789E+01  0.35047155038E+02  0.51100000000E-03 0. -1.
        -11    1    3    3    0    0  0.92133220427E+01 -0.10962601615E+02 -0.82861259470E+00  0.14344006983E+02  0.51100000000E-03 0.  1.
         12    1    3    3    0    0 -0.20129787855E+02 -0.13455319407E+01  0.11190353884E+02  0.23070388712E+02  0.00000000000E+00 0. -1.
</event>
<event>
 7    1  0.1375918E-013  0.7246157E+02  0.7816164E-02  0.1226708E+00
        -11   -1    0    0    0    0  0.00000000000E+00  0.00000000000E+00  0.45593999997E+02  0.45594000000E+02  0.51100000000E-03 0.  1.
         11   -1    0    0    0    0 -0.00000000000E+00 -0.00000000000E+00 -0.45593999997E+02  0.45594000000E+02  0.51100000000E-03 0. -1.
    9900012    2    1    2    0    0  0.17981724967E+02  0.19512770153E+01 -0.48506807623E+01  0.72461574323E+02  0.70000005248E+02 0.  0.
         12    1    1    2    0    0 -0.17981724967E+02 -0.19512770153E+01  0.48506807623E+01  0.18726425677E+02  0.00000000000E+00 0. -1.
         11    1    3    3    0    0 -0.18848782851E+02  0.10842647143E+02  0.49862955015E+01  0.22309252680E+02  0.51100000000E-03 0. -1.
        -11    1    3    3    0    0  0.14135933382E+02  0.18114785779E+01  0.10623993999E+02  0.17775694528E+02  0.51100000000E-03 0.  1.
         12    1    3    3    0    0  0.22694574436E+02 -0.10702848705E+02 -0.20460970263E+02  0.32376627115E+02  0.00000000000E+00 0. -1.
</event>
<event>
 7    1  0.1375918E-013  0.7246158E+02  0.7816164E-02  0.1226708E+00
        -11   -1    0    0    0    0  0.00000000000E+00  0.00000000000E+00  0.45593999997E+02  0.45594000000E+02  0.51100000000E-03 0.  1.
         11   -1    0    0    0    0 -0.00000000000E+00 -0.00000000000E+00 -0.45593999997E+02  0.45594000000E+02  0.51100000000E-03 0. -1.
    9900012    2    1    2    0    0  0.14093893718E+02 -0.12285773429E+02  0.10492035026E+01  0.72461577574E+02  0.70000009484E+02 0.  0.
         12    1    1    2    0    0 -0.14093893718E+02  0.12285773429E+02 -0.10492035026E+01  0.18726422426E+02  0.00000000000E+00 0. -1.
         11    1    3    3    0    0  0.18416903886E+01  0.22660485892E+02 -0.16080626547E+02  0.27847369620E+02  0.51100000000E-03 0. -1.
        -11    1    3    3    0    0  0.10376628732E+02 -0.20611934908E+02  0.12074527953E+01  0.23108098732E+02  0.51100000000E-03 0.  1.
         12    1    3    3    0    0  0.18755745971E+01 -0.14334324413E+02  0.15922377255E+02  0.21506109222E+02  0.00000000000E+00 0. -1.
</event>
<event>
 7    1  0.1375918E-013  0.7246157E+02  0.7816164E-02  0.1226708E+00
        -11   -1    0    0    0    0  0.00000000000E+00  0.00000000000E+00  0.45593999997E+02  0.45594000000E+02  0.51100000000E-03 0.  1.
         11   -1    0    0    0    0 -0.00000000000E+00 -0.00000000000E+00 -0.45593999997E+02  0.45594000000E+02  0.51100000000E-03 0. -1.
    9900012    2    1    2    0    0  0.11828002607E+02 -0.68726182500E+01  0.12788453128E+02  0.72461573201E+02  0.70000003786E+02 0.  0.
         12    1    1    2    0    0 -0.11828002607E+02  0.68726182500E+01 -0.12788453128E+02  0.18726426799E+02  0.00000000000E+00 0. -1.
         11    1    3    3    0    0  0.43806082541E+01 -0.11589360819E+02 -0.19464578190E+01  0.12541599227E+02  0.51100000000E-03 0. -1.
        -11    1    3    3    0    0 -0.10981546798E+02 -0.72521950610E+00  0.32153312081E+02  0.33984640522E+02  0.51100000000E-03 0.  1.
        -12    1    3    3    0    0  0.18428941150E+02  0.54419620756E+01 -0.17418401134E+02  0.25935333451E+02  0.00000000000E+00 0.  1.
</event>
<event>
 7    1  0.1375918E-013  0.7246155E+02  0.7816164E-02  0.1226708E+00
        -11   -1    0    0    0    0  0.00000000000E+00  0.00000000000E+00  0.45593999997E+02  0.45594000000E+02  0.51100000000E-03 0.  1.
         11   -1    0    0    0    0 -0.00000000000E+00 -0.00000000000E+00 -0.45593999997E+02  0.45594000000E+02  0.51100000000E-03 0. -1.
    9900012    2    1    2    0    0 -0.43506443273E+00 -0.18406618417E+02 -0.34186576600E+01  0.72461545375E+02  0.69999967538E+02 0.  0.
         12    1    1    2    0    0  0.43506443273E+00  0.18406618417E+02  0.34186576600E+01  0.18726454625E+02  0.00000000000E+00 0. -1.
         11    1    3    3    0    0 -0.18407331104E+02 -0.12165643849E+02 -0.23442503013E+02  0.32192913450E+02  0.51100000000E-03 0. -1.
        -11    1    3    3    0    0  0.17358586869E+02  0.83416200773E+01  0.63774251412E+01  0.20287304289E+02  0.51100000000E-03 0.  1.
         12    1    3    3    0    0  0.61367980241E+00 -0.14582594646E+02  0.13646420212E+02  0.19981327636E+02  0.00000000000E+00 0. -1.
</event>
<event>
 7    1  0.1375918E-013  0.7246151E+02  0.7816164E-02  0.1226708E+00
        -11   -1    0    0    0    0  0.00000000000E+00  0.00000000000E+00  0.45593999997E+02  0.45594000000E+02  0.51100000000E-03 0.  1.
         11   -1    0    0    0    0 -0.00000000000E+00 -0.00000000000E+00 -0.45593999997E+02  0.45594000000E+02  0.51100000000E-03 0. -1.
    9900012    2    1    2    0    0  0.12158147923E+02  0.13600743498E+02 -0.42285516629E+01  0.72461509838E+02  0.69999921244E+02 0.  0.
         12    1    1    2    0    0 -0.12158147923E+02 -0.13600743498E+02  0.42285516629E+01  0.18726490162E+02  0.00000000000E+00 0. -1.
         11    1    3    3    0    0 -0.22333998528E+02  0.29314848944E+01 -0.91181064979E+01  0.24301048543E+02  0.51100000000E-03 0. -1.
        -11    1    3    3    0    0  0.36624265626E+02  0.17547980003E+02  0.52541530049E+01  0.40949658837E+02  0.51100000000E-03 0.  1.
        -12    1    3    3    0    0 -0.21321191752E+01 -0.68787213988E+01 -0.36459816987E+00  0.72108024578E+01  0.00000000000E+00 0.  1.
</event>
<event>
 7    1  0.1375918E-013  0.7246149E+02  0.7816164E-02  0.1226708E+00
        -11   -1    0    0    0    0  0.00000000000E+00  0.00000000000E+00  0.45593999997E+02  0.45594000000E+02  0.51100000000E-03 0. -1.
         11   -1    0    0    0    0 -0.00000000000E+00 -0.00000000000E+00 -0.45593999997E+02  0.45594000000E+02  0.51100000000E-03 0.  1.
    9900012    2    1    2    0    0 -0.61181074525E+00 -0.47508464898E+01 -0.18103520036E+02  0.72461486912E+02  0.69999891378E+02 0.  0.
         12    1    1    2    0    0  0.61181074525E+00  0.47508464898E+01  0.18103520036E+02  0.18726513088E+02  0.00000000000E+00 0. -1.
         11    1    3    3    0    0  0.23971895725E+01 -0.31136114832E+02 -0.59744577214E+01  0.31794627062E+02  0.51100000000E-03 0. -1.
        -11    1    3    3    0    0  0.48668172525E+01  0.89371514104E+01 -0.17970808407E+02  0.20652083202E+02  0.51100000000E-03 0.  1.
         12    1    3    3    0    0 -0.78758175702E+01  0.17448116932E+02  0.58417460927E+01  0.20014776648E+02  0.00000000000E+00 0. -1.
</event>
<event>
 7    1  0.1375918E-013  0.7246149E+02  0.7816164E-02  0.1226708E+00
        -11   -1    0    0    0    0  0.00000000000E+00  0.00000000000E+00  0.45593999997E+02  0.45594000000E+02  0.51100000000E-03 0.  1.
         11   -1    0    0    0    0 -0.00000000000E+00 -0.00000000000E+00 -0.45593999997E+02  0.45594000000E+02  0.51100000000E-03 0. -1.
    9900012    2    1    2    0    0 -0.12903331690E+02 -0.13067501005E+02 -0.36642208801E+01  0.72461492962E+02  0.69999899260E+02 0.  0.
         12    1    1    2    0    0  0.12903331690E+02  0.13067501005E+02  0.36642208801E+01  0.18726507038E+02  0.00000000000E+00 0. -1.
         11    1    3    3    0    0 -0.94195654418E+01 -0.20699841222E+02 -0.13249299871E+02  0.26320250513E+02  0.51100000000E-03 0. -1.
        -11    1    3    3    0    0  0.16405503609E+02  0.15940388679E+02  0.89921520432E+01  0.24578351013E+02  0.51100000000E-03 0.  1.
        -12    1    3    3    0    0 -0.19889269857E+02 -0.83080484610E+01  0.59292694749E+00  0.21562891435E+02  0.00000000000E+00 0.  1.
</event>
<event>
 7    1  0.1375918E-013  0.7246157E+02  0.7816164E-02  0.1226708E+00
        -11   -1    0    0    0    0  0.00000000000E+00  0.00000000000E+00  0.45593999997E+02  0.45594000000E+02  0.51100000000E-03 0. -1.
         11   -1    0    0    0    0 -0.00000000000E+00 -0.00000000000E+00 -0.45593999997E+02  0.45594000000E+02  0.51100000000E-03 0.  1.
    9900012    2    1    2    0    0 -0.17187941714E+02 -0.65053235551E+01 -0.35964729174E+01  0.72461569684E+02  0.69999999205E+02 0.  0.
         12    1    1    2    0    0  0.17187941714E+02  0.65053235551E+01  0.35964729174E+01  0.18726430316E+02  0.00000000000E+00 0. -1.
         11    1    3    3    0    0  0.13467825898E+02  0.41843883189E+01 -0.68956013429E+01  0.15698431711E+02  0.51100000000E-03 0. -1.
        -11    1    3    3    0    0 -0.14988504641E+02  0.12699253839E+02  0.16514294799E+02  0.25664143321E+02  0.51100000000E-03 0.  1.
        -12    1    3    3    0    0 -0.15667262972E+02 -0.23388965713E+02 -0.13215166374E+02  0.31098994653E+02  0.00000000000E+00 0.  1.
</event>
<event>
 7    1  0.1375918E-013  0.7246154E+02  0.7816164E-02  0.1226708E+00
        -11   -1    0    0    0    0  0.00000000000E+00  0.00000000000E+00  0.45593999997E+02  0.45594000000E+02  0.51100000000E-03 0. -1.
         11   -1    0    0    0    0 -0.00000000000E+00 -0.00000000000E+00 -0.45593999997E+02  0.45594000000E+02  0.51100000000E-03 0.  1.
    9900012    2    1    2    0    0  0.15022881225E+02  0.38070914879E+01 -0.10511876241E+02  0.72461536159E+02  0.69999955532E+02 0.  0.
         12    1    1    2    0    0 -0.15022881225E+02 -0.38070914879E+01  0.10511876241E+02  0.18726463841E+02  0.00000000000E+00 0. -1.
         11    1    3    3    0    0  0.18141672903E+02 -0.78396859213E+01 -0.27854925448E+02  0.34153738346E+02  0.51100000000E-03 0. -1.
        -11    1    3    3    0    0 -0.17031292992E+02  0.96144001181E+01  0.66992498642E+01  0.20673209224E+02  0.51100000000E-03 0.  1.
         12    1    3    3    0    0  0.13912501314E+02  0.20323772910E+01  0.10643799342E+02  0.17634588589E+02  0.00000000000E+00 0. -1.
</event>
<event>
 7    1  0.1375918E-013  0.7246163E+02  0.7816164E-02  0.1226708E+00
        -11   -1    0    0    0    0  0.00000000000E+00  0.00000000000E+00  0.45593999997E+02  0.45594000000E+02  0.51100000000E-03 0. -1.
         11   -1    0    0    0    0 -0.00000000000E+00 -0.00000000000E+00 -0.45593999997E+02  0.45594000000E+02  0.51100000000E-03 0.  1.
    9900012    2    1    2    0    0 -0.40803396497E+01  0.65886090149E+01 -0.17047522940E+02  0.72461628787E+02  0.70000076198E+02 0.  0.
         12    1    1    2    0    0  0.40803396497E+01 -0.65886090149E+01  0.17047522940E+02  0.18726371213E+02  0.00000000000E+00 0. -1.
         11    1    3    3    0    0 -0.11109737457E+02  0.31322996040E+02 -0.10209026659E+02  0.34767521810E+02  0.51100000000E-03 0. -1.
        -11    1    3    3    0    0 -0.75816934687E+01 -0.10559478693E+02 -0.10865672800E+02  0.16942476554E+02  0.51100000000E-03 0.  1.
         12    1    3    3    0    0  0.14611091276E+02 -0.14174908332E+02  0.40271765187E+01  0.20751630423E+02  0.00000000000E+00 0. -1.
</event>
<event>
 7    1  0.1375918E-013  0.7246148E+02  0.7816164E-02  0.1226708E+00
        -11   -1    0    0    0    0  0.00000000000E+00  0.00000000000E+00  0.45593999997E+02  0.45594000000E+02  0.51100000000E-03 0. -1.
         11   -1    0    0    0    0 -0.00000000000E+00 -0.00000000000E+00 -0.45593999997E+02  0.45594000000E+02  0.51100000000E-03 0.  1.
    9900012    2    1    2    0    0 -0.18277224355E+00  0.18547884125E+01 -0.18633544696E+02  0.72461477801E+02  0.69999879510E+02 0.  0.
         12    1    1    2    0    0  0.18277224355E+00 -0.18547884125E+01  0.18633544696E+02  0.18726522199E+02  0.00000000000E+00 0. -1.
         11    1    3    3    0    0 -0.95626126698E+00 -0.31019254206E+02 -0.91940282398E+00  0.31047606493E+02  0.51100000000E-03 0. -1.
        -11    1    3    3    0    0  0.32014480621E+01  0.47856584990E+01 -0.11025197517E+02  0.12438117925E+02  0.51100000000E-03 0.  1.
         12    1    3    3    0    0 -0.24279590386E+01  0.28088384120E+02 -0.66889443544E+01  0.28975753383E+02  0.00000000000E+00 0. -1.
</event>
<event>
 7    1  0.1375918E-013  0.7246155E+02  0.7816164E-02  0.1226708E+00
        -11   -1    0    0    0    0  0.00000000000E+00  0.00000000000E+00  0.45593999997E+02  0.45594000000E+02  0.51100000000E-03 0.  1.
         11   -1    0    0    0    0 -0.00000000000E+00 -0.00000000000E+00 -0.45593999997E+02  0.45594000000E+02  0.51100000000E-03 0. -1.
    9900012    2    1    2    0    0 -0.59346513095E+01 -0.14102269291E+02  0.10797500085E+02  0.72461545626E+02  0.69999967865E+02 0.  0.
         12    1    1    2    0    0  0.59346513095E+01  0.14102269291E+02 -0.10797500085E+02  0.18726454374E+02  0.00000000000E+00 0. -1.
         11    1    3    3    0    0  0.18962215284E+01  0.51586140991E+01 -0.75010245180E+01  0.92990496605E+01  0.51100000000E-03 0. -1.
        -11    1    3    3    0    0  0.13726551369E+02 -0.29968086876E+02  0.20778976301E+02  0.38964988129E+02  0.51100000000E-03 0.  1.
        -12    1    3    3    0    0 -0.21557424206E+02  0.10707203486E+02 -0.24804516974E+01  0.24197507837E+02  0.00000000000E+00 0.  1.
</event>
<event>
 7    1  0.1375918E-013  0.7246152E+02  0.7816164E-02  0.1226708E+00
        -11   -1    0    0    0    0  0.00000000000E+00  0.00000000000E+00  0.45593999997E+02  0.45594000000E+02  0.51100000000E-03 0.  1.
         11   -1    0    0    0    0 -0.00000000000E+00 -0.00000000000E+00 -0.45593999997E+02  0.45594000000E+02  0.51100000000E-03 0. -1.
    9900012    2    1    2    0    0 -0.15395147690E+02 -0.10566978512E+02 -0.14175262961E+01  0.72461521739E+02  0.69999936748E+02 0.  0.
         12    1    1    2    0    0  0.15395147690E+02  0.10566978512E+02  0.14175262961E+01  0.18726478261E+02  0.00000000000E+00 0. -1.
         11    1    3    3    0    0 -0.17226047858E+02 -0.27719846051E+02 -0.16536994141E+02  0.36586866023E+02  0.51100000000E-03 0.  1.
        -11    1    3    3    0    0  0.12577344529E+02  0.15515670907E+02  0.40878780518E+01  0.20387162292E+02  0.51100000000E-03 0. -1.
        -12    1    3    3    0    0 -0.10746444360E+02  0.16371966320E+01  0.11031589793E+02  0.15487493424E+02  0.00000000000E+00 0.  1.
</event>
<event>
 7    1  0.1375918E-013  0.7246157E+02  0.7816164E-02  0.1226708E+00
        -11   -1    0    0    0    0  0.00000000000E+00  0.00000000000E+00  0.45593999997E+02  0.45594000000E+02  0.51100000000E-03 0.  1.
         11   -1    0    0    0    0 -0.00000000000E+00 -0.00000000000E+00 -0.45593999997E+02  0.45594000000E+02  0.51100000000E-03 0. -1.
    9900012    2    1    2    0    0 -0.15585533360E+02  0.22772523203E+00 -0.10378757861E+02  0.72461566179E+02  0.69999994639E+02 0.  0.
         12    1    1    2    0    0  0.15585533360E+02 -0.22772523203E+00  0.10378757861E+02  0.18726433821E+02  0.00000000000E+00 0. -1.
         11    1    3    3    0    0 -0.14580393706E+02  0.10417785404E+02 -0.35499505708E+02  0.39765978413E+02  0.51100000000E-03 0. -1.
        -11    1    3    3    0    0 -0.43651702343E+01 -0.14543241967E+02  0.16099375319E+02  0.22130306912E+02  0.51100000000E-03 0.  1.
         12    1    3    3    0    0  0.33600305800E+01  0.43531817949E+01  0.90213725281E+01  0.10565280854E+02  0.00000000000E+00 0. -1.
</event>
<event>
 7    1  0.1375918E-013  0.7246154E+02  0.7816164E-02  0.1226708E+00
        -11   -1    0    0    0    0  0.00000000000E+00  0.00000000000E+00  0.45593999997E+02  0.45594000000E+02  0.51100000000E-03 0.  1.
         11   -1    0    0    0    0 -0.00000000000E+00 -0.00000000000E+00 -0.45593999997E+02  0.45594000000E+02  0.51100000000E-03 0. -1.
    9900012    2    1    2    0    0 -0.15424684704E+02 -0.25854670780E+01  0.10299265247E+02  0.72461537364E+02  0.69999957102E+02 0.  0.
         12    1    1    2    0    0  0.15424684704E+02  0.25854670780E+01 -0.10299265247E+02  0.18726462636E+02  0.00000000000E+00 0. -1.
         11    1    3    3    0    0 -0.23697601454E+02 -0.20918839621E+02  0.24675927050E+02  0.40100817221E+02  0.51100000000E-03 0.  1.
        -11    1    3    3    0    0  0.10347172894E+01  0.20664029702E+02 -0.13503391247E+02  0.24706564690E+02  0.51100000000E-03 0. -1.
        -12    1    3    3    0    0  0.72381994608E+01 -0.23306571585E+01 -0.87327055599E+00  0.76541554523E+01  0.00000000000E+00 0.  1.
</event>
<event>
 7    1  0.1375918E-013  0.7246150E+02  0.7816164E-02  0.1226708E+00
        -11   -1    0    0    0    0  0.00000000000E+00  0.00000000000E+00  0.45593999997E+02  0.45594000000E+02  0.51100000000E-03 0.  1.
         11   -1    0    0    0    0 -0.00000000000E+00 -0.00000000000E+00 -0.45593999997E+02  0.45594000000E+02  0.51100000000E-03 0. -1.
    9900012    2    1    2    0    0  0.14524374454E+02 -0.11551473629E+02  0.25075376548E+01  0.72461501626E+02  0.69999910546E+02 0.  0.
         12    1    1    2    0    0 -0.14524374454E+02  0.11551473629E+02 -0.25075376548E+01  0.18726498374E+02  0.00000000000E+00 0. -1.
         11    1    3    3    0    0  0.11854350280E+02 -0.38862630039E+02 -0.32928749996E+01  0.40763619321E+02  0.51100000000E-03 0.  1.
        -11    1    3    3    0    0  0.19754113858E+01  0.21825443449E+02 -0.21432119863E+01  0.22019209563E+02  0.51100000000E-03 0. -1.
         12    1    3    3    0    0  0.69461278814E+00  0.54857129607E+01  0.79436246407E+01  0.96786727419E+01  0.00000000000E+00 0. -1.
</event>
<event>
 7    1  0.1375918E-013  0.7246164E+02  0.7816164E-02  0.1226708E+00
        -11   -1    0    0    0    0  0.00000000000E+00  0.00000000000E+00  0.45593999997E+02  0.45594000000E+02  0.51100000000E-03 0. -1.
         11   -1    0    0    0    0 -0.00000000000E+00 -0.00000000000E+00 -0.45593999997E+02  0.45594000000E+02  0.51100000000E-03 0.  1.
    9900012    2    1    2    0    0 -0.11735189010E+02 -0.12568755109E+02 -0.74154019350E+01  0.72461642854E+02  0.70000094522E+02 0.  0.
         12    1    1    2    0    0  0.11735189010E+02  0.12568755109E+02  0.74154019350E+01  0.18726357146E+02  0.00000000000E+00 0. -1.
         11    1    3    3    0    0 -0.15613751037E+02  0.57784813480E+01  0.11677988602E+02  0.20336063685E+02  0.51100000000E-03 0. -1.
        -11    1    3    3    0    0  0.72643572237E+00  0.11251145249E+02 -0.19308317183E+02  0.22359049420E+02  0.51100000000E-03 0.  1.
         12    1    3    3    0    0  0.31521263044E+01 -0.29598381706E+02  0.21492664614E+00  0.29766529749E+02  0.00000000000E+00 0. -1.
</event>
<event>
 7    1  0.1375918E-013  0.7246162E+02  0.7816164E-02  0.1226708E+00
        -11   -1    0    0    0    0  0.00000000000E+00  0.00000000000E+00  0.45593999997E+02  0.45594000000E+02  0.51100000000E-03 0.  1.
         11   -1    0    0    0    0 -0.00000000000E+00 -0.00000000000E+00 -0.45593999997E+02  0.45594000000E+02  0.51100000000E-03 0. -1.
    9900012    2    1    2    0    0  0.16390155514E+02  0.46282067253E+01  0.77858659768E+01  0.72461622767E+02  0.70000068355E+02 0.  0.
         12    1    1    2    0    0 -0.16390155514E+02 -0.46282067253E+01 -0.77858659768E+01  0.18726377233E+02  0.00000000000E+00 0. -1.
         11    1    3    3    0    0  0.11798241616E+02  0.11549918861E+02  0.12068647490E+02  0.20451195159E+02  0.51100000000E-03 0. -1.
        -11    1    3    3    0    0 -0.32970093826E+01 -0.14644707379E+02 -0.24639913337E+02  0.28852435852E+02  0.51100000000E-03 0.  1.
        -12    1    3    3    0    0  0.78889232806E+01  0.77229952431E+01  0.20357131824E+02  0.23157991755E+02  0.00000000000E+00 0.  1.
</event>
<event>
 7    1  0.1375918E-013  0.7246159E+02  0.7816164E-02  0.1226708E+00
        -11   -1    0    0    0    0  0.00000000000E+00  0.00000000000E+00  0.45593999997E+02  0.45594000000E+02  0.51100000000E-03 0.  1.
         11   -1    0    0    0    0 -0.00000000000E+00 -0.00000000000E+00 -0.45593999997E+02  0.45594000000E+02  0.51100000000E-03 0. -1.
    9900012    2    1    2    0    0 -0.11587461972E+02  0.57213119191E+01  0.13552696320E+02  0.72461594510E+02  0.70000031545E+02 0.  0.
         12    1    1    2    0    0  0.11587461972E+02 -0.57213119191E+01 -0.13552696320E+02  0.18726405490E+02  0.00000000000E+00 0. -1.
         11    1    3    3    0    0 -0.14664819923E+02 -0.13458981051E+02  0.15587730266E+02  0.25281978748E+02  0.51100000000E-03 0. -1.
        -11    1    3    3    0    0 -0.79078434293E+01  0.30101422623E+02 -0.46563302378E+01  0.31469207858E+02  0.51100000000E-03 0.  1.
         12    1    3    3    0    0  0.10985201380E+02 -0.10921129653E+02  0.26212962923E+01  0.15710407904E+02  0.00000000000E+00 0. -1.
</event>
<event>
 7    1  0.1375918E-013  0.7246159E+02  0.7816164E-02  0.1226708E+00
        -11   -1    0    0    0    0  0.00000000000E+00  0.00000000000E+00  0.45593999997E+02  0.45594000000E+02  0.51100000000E-03 0.  1.
         11   -1    0    0    0    0 -0.00000000000E+00 -0.00000000000E+00 -0.45593999997E+02  0.45594000000E+02  0.51100000000E-03 0. -1.
    9900012    2    1    2    0    0  0.67951959024E+01  0.14000652923E+02  0.10415638819E+02  0.72461588127E+02  0.70000023231E+02 0.  0.
         12    1    1    2    0    0 -0.67951959024E+01 -0.14000652923E+02 -0.10415638819E+02  0.18726411873E+02  0.00000000000E+00 0. -1.
         11    1    3    3    0    0  0.68942554122E+00 -0.14191093313E+02 -0.70023388816E+01  0.15839671305E+02  0.51100000000E-03 0. -1.
        -11    1    3    3    0    0  0.23708601565E+02  0.14046534303E+02  0.19773407144E+02  0.33917407691E+02  0.51100000000E-03 0.  1.
         12    1    3    3    0    0 -0.17602831204E+02  0.14145211933E+02 -0.23554294440E+01  0.22704509131E+02  0.00000000000E+00 0. -1.
</event>
<event>
 7    1  0.1375918E-013  0.7246158E+02  0.7816164E-02  0.1226708E+00
        -11   -1    0    0    0    0  0.00000000000E+00  0.00000000000E+00  0.45593999997E+02  0.45594000000E+02  0.51100000000E-03 0.  1.
         11   -1    0    0    0    0 -0.00000000000E+00 -0.00000000000E+00 -0.45593999997E+02  0.45594000000E+02  0.51100000000E-03 0. -1.
    9900012    2    1    2    0    0  0.16797547048E+01 -0.18497885726E+02  0.23844070497E+01  0.72461581518E+02  0.70000014621E+02 0.  0.
         12    1    1    2    0    0 -0.16797547048E+01  0.18497885726E+02 -0.23844070497E+01  0.18726418482E+02  0.00000000000E+00 0. -1.
         11    1    3    3    0    0  0.27164769708E+02 -0.25084996872E+02 -0.27253342066E+01  0.37075722895E+02  0.51100000000E-03 0. -1.
        -11    1    3    3    0    0 -0.18158352269E+02  0.30863471826E+01  0.14155670298E+02  0.23230030088E+02  0.51100000000E-03 0.  1.
         12    1    3    3    0    0 -0.73266627343E+01  0.35007639638E+01 -0.90459290416E+01  0.12155828535E+02  0.00000000000E+00 0. -1.
</event>
<event>
 7    1  0.1375918E-013  0.7246151E+02  0.7816164E-02  0.1226708E+00
        -11   -1    0    0    0    0  0.00000000000E+00  0.00000000000E+00  0.45593999997E+02  0.45594000000E+02  0.51100000000E-03 0. -1.
         11   -1    0    0    0    0 -0.00000000000E+00 -0.00000000000E+00 -0.45593999997E+02  0.45594000000E+02  0.51100000000E-03 0.  1.
    9900012    2    1    2    0    0 -0.46478024240E+01 -0.17817876800E+02 -0.34062836886E+01  0.72461506212E+02  0.69999916520E+02 0.  0.
         12    1    1    2    0    0  0.46478024240E+01  0.17817876800E+02  0.34062836886E+01  0.18726493788E+02  0.00000000000E+00 0. -1.
         11    1    3    3    0    0 -0.25714205942E+01  0.17068423857E+02  0.20513184449E+02  0.26809215455E+02  0.51100000000E-03 0. -1.
        -11    1    3    3    0    0  0.25307432838E+01 -0.26229167305E+02 -0.90924315446E+01  0.27875548259E+02  0.51100000000E-03 0.  1.
         12    1    3    3    0    0 -0.46071251135E+01 -0.86571333523E+01 -0.14827036593E+02  0.17776742498E+02  0.00000000000E+00 0. -1.
</event>
<event>
 7    1  0.1375918E-013  0.7246155E+02  0.7816164E-02  0.1226708E+00
        -11   -1    0    0    0    0  0.00000000000E+00  0.00000000000E+00  0.45593999997E+02  0.45594000000E+02  0.51100000000E-03 0.  1.
         11   -1    0    0    0    0 -0.00000000000E+00 -0.00000000000E+00 -0.45593999997E+02  0.45594000000E+02  0.51100000000E-03 0. -1.
    9900012    2    1    2    0    0 -0.26972068256E+01 -0.10867692258E+01  0.18499290958E+02  0.72461554583E+02  0.69999979533E+02 0.  0.
         12    1    1    2    0    0  0.26972068256E+01  0.10867692258E+01 -0.18499290958E+02  0.18726445417E+02  0.00000000000E+00 0. -1.
         11    1    3    3    0    0  0.69358307605E+01  0.26242958421E+01 -0.23747649240E+02  0.24878575556E+02  0.51100000000E-03 0. -1.
        -11    1    3    3    0    0  0.13256350103E+01 -0.84792235554E+01  0.26232730311E+02  0.27600918102E+02  0.51100000000E-03 0.  1.
         12    1    3    3    0    0 -0.10958672597E+02  0.47681584876E+01  0.16014209888E+02  0.19982060924E+02  0.00000000000E+00 0. -1.
</event>
<event>
 7    1  0.1375918E-013  0.7246176E+02  0.7816164E-02  0.1226708E+00
        -11   -1    0    0    0    0  0.00000000000E+00  0.00000000000E+00  0.45593999997E+02  0.45594000000E+02  0.51100000000E-03 0. -1.
         11   -1    0    0    0    0 -0.00000000000E+00 -0.00000000000E+00 -0.45593999997E+02  0.45594000000E+02  0.51100000000E-03 0.  1.
    9900012    2    1    2    0    0 -0.93341289786E+01 -0.81834502673E+01 -0.14020597810E+02  0.72461762123E+02  0.70000249892E+02 0.  0.
         12    1    1    2    0    0  0.93341289786E+01  0.81834502673E+01  0.14020597810E+02  0.18726237877E+02  0.00000000000E+00 0. -1.
         11    1    3    3    0    0 -0.17942612386E+02 -0.77524170052E+01  0.39284855935E+01  0.19936657392E+02  0.51100000000E-03 0. -1.
        -11    1    3    3    0    0  0.87015308270E+01 -0.15061215359E+02 -0.29254865574E+02  0.34035334681E+02  0.51100000000E-03 0.  1.
        -12    1    3    3    0    0 -0.93047419605E-01  0.14630182097E+02  0.11305782171E+02  0.18489770050E+02  0.00000000000E+00 0.  1.
</event>
<event>
 7    1  0.1375918E-013  0.7246160E+02  0.7816164E-02  0.1226708E+00
        -11   -1    0    0    0    0  0.00000000000E+00  0.00000000000E+00  0.45593999997E+02  0.45594000000E+02  0.51100000000E-03 0.  1.
         11   -1    0    0    0    0 -0.00000000000E+00 -0.00000000000E+00 -0.45593999997E+02  0.45594000000E+02  0.51100000000E-03 0. -1.
    9900012    2    1    2    0    0 -0.70684752881E+00 -0.47133837126E+01  0.18109729452E+02  0.72461603649E+02  0.70000043451E+02 0.  0.
         12    1    1    2    0    0  0.70684752881E+00  0.47133837126E+01 -0.18109729452E+02  0.18726396351E+02  0.00000000000E+00 0. -1.
         11    1    3    3    0    0 -0.95483221263E+01 -0.17618854975E+02  0.42878420539E+01  0.20493415913E+02  0.51100000000E-03 0. -1.
        -11    1    3    3    0    0  0.10159945873E+02  0.54995457417E+01  0.31071462805E+02  0.33149740642E+02  0.51100000000E-03 0.  1.
         12    1    3    3    0    0 -0.13184712760E+01  0.74059255205E+01 -0.17249575407E+02  0.18818447094E+02  0.00000000000E+00 0. -1.
</event>
<event>
 7    1  0.1375918E-013  0.7246158E+02  0.7816164E-02  0.1226708E+00
        -11   -1    0    0    0    0  0.00000000000E+00  0.00000000000E+00  0.45593999997E+02  0.45594000000E+02  0.51100000000E-03 0. -1.
         11   -1    0    0    0    0 -0.00000000000E+00 -0.00000000000E+00 -0.45593999997E+02  0.45594000000E+02  0.51100000000E-03 0.  1.
    9900012    2    1    2    0    0 -0.81701245484E+01  0.13646725473E+02 -0.98840630108E+01  0.72461581419E+02  0.70000014492E+02 0.  0.
         12    1    1    2    0    0  0.81701245484E+01 -0.13646725473E+02  0.98840630108E+01  0.18726418581E+02  0.00000000000E+00 0. -1.
         11    1    3    3    0    0 -0.15621712249E+02  0.13756099904E+02 -0.14174957667E+01  0.20863304452E+02  0.51100000000E-03 0. -1.
        -11    1    3    3    0    0  0.22825169166E+02  0.10919245477E+02  0.79778504230E+01  0.26530442267E+02  0.51100000000E-03 0.  1.
        -12    1    3    3    0    0 -0.15373581466E+02 -0.11028619908E+02 -0.16444417667E+02  0.25067834701E+02  0.00000000000E+00 0.  1.
</event>
<event>
 7    1  0.1375918E-013  0.7246154E+02  0.7816164E-02  0.1226708E+00
        -11   -1    0    0    0    0  0.00000000000E+00  0.00000000000E+00  0.45593999997E+02  0.45594000000E+02  0.51100000000E-03 0.  1.
         11   -1    0    0    0    0 -0.00000000000E+00 -0.00000000000E+00 -0.45593999997E+02  0.45594000000E+02  0.51100000000E-03 0. -1.
    9900012    2    1    2    0    0  0.10294224097E+02  0.13388452108E+02  0.80906472333E+01  0.72461540851E+02  0.69999961644E+02 0.  0.
         12    1    1    2    0    0 -0.10294224097E+02 -0.13388452108E+02 -0.80906472333E+01  0.18726459149E+02  0.00000000000E+00 0. -1.
         11    1    3    3    0    0 -0.51281670663E+01 -0.19658559356E+02 -0.14945461255E+02  0.25221496105E+02  0.51100000000E-03 0. -1.
        -11    1    3    3    0    0  0.12561676884E+02  0.67357844336E+01  0.45699451516E+01  0.14968330469E+02  0.51100000000E-03 0.  1.
         12    1    3    3    0    0  0.28607142794E+01  0.26311227030E+02  0.18466163337E+02  0.32271714277E+02  0.00000000000E+00 0. -1.
</event>
<event>
 7    1  0.1375918E-013  0.7246157E+02  0.7816164E-02  0.1226708E+00
        -11   -1    0    0    0    0  0.00000000000E+00  0.00000000000E+00  0.45593999997E+02  0.45594000000E+02  0.51100000000E-03 0. -1.
         11   -1    0    0    0    0 -0.00000000000E+00 -0.00000000000E+00 -0.45593999997E+02  0.45594000000E+02  0.51100000000E-03 0.  1.
    9900012    2    1    2    0    0  0.33279929094E+01 -0.10775029866E+02 -0.14949994379E+02  0.72461571153E+02  0.70000001119E+02 0.  0.
         12    1    1    2    0    0 -0.33279929094E+01  0.10775029866E+02  0.14949994379E+02  0.18726428847E+02  0.00000000000E+00 0. -1.
         11    1    3    3    0    0  0.32640698530E+02 -0.19281468123E+00  0.45721553096E+01  0.32959929952E+02  0.51100000000E-03 0. -1.
        -11    1    3    3    0    0 -0.21194981202E+02 -0.45987746042E+01 -0.19865618369E+02  0.29411201088E+02  0.51100000000E-03 0.  1.
         12    1    3    3    0    0 -0.81177244190E+01 -0.59834405807E+01  0.34346868050E+00  0.10090440112E+02  0.00000000000E+00 0. -1.
</event>
<event>
 7    1  0.1375918E-013  0.7246153E+02  0.7816164E-02  0.1226708E+00
        -11   -1    0    0    0    0  0.00000000000E+00  0.00000000000E+00  0.45593999997E+02  0.45594000000E+02  0.51100000000E-03 0.  1.
         11   -1    0    0    0    0 -0.00000000000E+00 -0.00000000000E+00 -0.45593999997E+02  0.45594000000E+02  0.51100000000E-03 0. -1.
    9900012    2    1    2    0    0  0.16891060714E+01 -0.18630226295E+02  0.86159953846E+00  0.72461527698E+02  0.69999944510E+02 0.  0.
         12    1    1    2    0    0 -0.16891060714E+01  0.18630226295E+02 -0.86159953846E+00  0.18726472302E+02  0.00000000000E+00 0. -1.
         11    1    3    3    0    0 -0.24780896776E+01 -0.19629735015E+02 -0.28644702709E+02  0.34813595315E+02  0.51100000000E-03 0. -1.
        -11    1    3    3    0    0  0.86768084304E+01 -0.38942505146E+01  0.24998956772E+01  0.98337007411E+01  0.51100000000E-03 0.  1.
         12    1    3    3    0    0 -0.45096126814E+01  0.48937592348E+01  0.27006406570E+02  0.27814231642E+02  0.00000000000E+00 0. -1.
</event>
<event>
 8    1  0.1375918E-013  0.7246158E+02  0.7816164E-02  0.1226708E+00
        -11   -1    0    0    0    0  0.00000000000E+00  0.00000000000E+00  0.45593999997E+02  0.45594000000E+02  0.51100000000E-03 0. -1.
         11   -1    0    0    0    0 -0.00000000000E+00 -0.00000000000E+00 -0.45593999997E+02  0.45594000000E+02  0.51100000000E-03 0.  1.
    9900012    2    1    2    0    0 -0.16616286003E+02  0.50433800167E+01 -0.70101375196E+01  0.72461583616E+02  0.70000017354E+02 0.  0.
        -24    2    3    3    0    0 -0.23140590741E+01 -0.85224273321E+01  0.37759127452E+01  0.49991076173E+02  0.49059795585E+02 0.  0.
         12    1    1    2    0    0  0.16616286003E+02 -0.50433800167E+01  0.70101375196E+01  0.18726416384E+02  0.00000000000E+00 0. -1.
         11    1    4    4    0    0 -0.20455097204E+02 -0.19110424573E+02  0.66996002130E+01  0.28783744931E+02  0.51100000000E-03 0. -1.
        -11    1    3    3    0    0 -0.14302226929E+02  0.13565807349E+02 -0.10786050265E+02  0.22470507443E+02  0.51100000000E-03 0.  1.
        -12    1    4    4    0    0  0.18141038130E+02  0.10587997241E+02 -0.29236874677E+01  0.21207331242E+02  0.00000000000E+00 0.  1.
</event>
<event>
 7    1  0.1375918E-013  0.7246124E+02  0.7816164E-02  0.1226709E+00
        -11   -1    0    0    0    0  0.00000000000E+00  0.00000000000E+00  0.45593999997E+02  0.45594000000E+02  0.51100000000E-03 0. -1.
         11   -1    0    0    0    0 -0.00000000000E+00 -0.00000000000E+00 -0.45593999997E+02  0.45594000000E+02  0.51100000000E-03 0.  1.
    9900012    2    1    2    0    0 -0.13539418025E+02  0.65036093748E+01 -0.11183865987E+02  0.72461237499E+02  0.69999566471E+02 0.  0.
         12    1    1    2    0    0  0.13539418025E+02 -0.65036093748E+01  0.11183865987E+02  0.18726762501E+02  0.00000000000E+00 0. -1.
         11    1    3    3    0    0  0.70639782448E+01 -0.96473389221E+01 -0.30352052158E+01  0.12336263935E+02  0.51100000000E-03 0. -1.
        -11    1    3    3    0    0  0.55816362707E+01  0.20169714235E+02  0.14344770107E+02  0.25372119846E+02  0.51100000000E-03 0.  1.
        -12    1    3    3    0    0 -0.26185032540E+02 -0.40187659385E+01 -0.22493430879E+02  0.34752853717E+02  0.00000000000E+00 0.  1.
</event>
<event>
 7    1  0.1375918E-013  0.7246161E+02  0.7816164E-02  0.1226708E+00
        -11   -1    0    0    0    0  0.00000000000E+00  0.00000000000E+00  0.45593999997E+02  0.45594000000E+02  0.51100000000E-03 0.  1.
         11   -1    0    0    0    0 -0.00000000000E+00 -0.00000000000E+00 -0.45593999997E+02  0.45594000000E+02  0.51100000000E-03 0. -1.
    9900012    2    1    2    0    0 -0.13998130373E+02  0.60546747477E+01 -0.10866039968E+02  0.72461613140E+02  0.70000055814E+02 0.  0.
         12    1    1    2    0    0  0.13998130373E+02 -0.60546747477E+01  0.10866039968E+02  0.18726386860E+02  0.00000000000E+00 0. -1.
         11    1    3    3    0    0 -0.15267364791E+02 -0.75677952393E+01 -0.18085313690E+02  0.24848390772E+02  0.51100000000E-03 0. -1.
        -11    1    3    3    0    0  0.14627882092E+01  0.29524782834E+02 -0.12651554171E+01  0.29588057882E+02  0.51100000000E-03 0.  1.
         12    1    3    3    0    0 -0.19355379164E+00 -0.15902312847E+02  0.84844291387E+01  0.18025164486E+02  0.00000000000E+00 0. -1.
</event>
<event>
 7    1  0.1375918E-013  0.7246148E+02  0.7816164E-02  0.1226708E+00
        -11   -1    0    0    0    0  0.00000000000E+00  0.00000000000E+00  0.45593999997E+02  0.45594000000E+02  0.51100000000E-03 0. -1.
         11   -1    0    0    0    0 -0.00000000000E+00 -0.00000000000E+00 -0.45593999997E+02  0.45594000000E+02  0.51100000000E-03 0.  1.
    9900012    2    1    2    0    0  0.11272287003E+02  0.13332281337E+02  0.67726182205E+01  0.72461480369E+02  0.69999882855E+02 0.  0.
         12    1    1    2    0    0 -0.11272287003E+02 -0.13332281337E+02 -0.67726182205E+01  0.18726519631E+02  0.00000000000E+00 0. -1.
         11    1    3    3    0    0 -0.40334628115E+01 -0.11535432730E+02  0.12997678717E+02  0.17840254561E+02  0.51100000000E-03 0. -1.
        -11    1    3    3    0    0  0.26811980750E+02  0.32301518340E+00 -0.61640372350E+01  0.27513305978E+02  0.51100000000E-03 0.  1.
        -12    1    3    3    0    0 -0.11506230936E+02  0.24544698883E+02 -0.61023261969E-01  0.27107919829E+02  0.00000000000E+00 0.  1.
</event>
