<event>
 7    1  0.1542786E-009  0.4778727E+02  0.7816164E-02  0.1312668E+00
        -11   -1    0    0    0    0  0.00000000000E+00  0.00000000000E+00  0.45593999997E+02  0.45594000000E+02  0.51100000000E-03 0.  1.
         11   -1    0    0    0    0 -0.00000000000E+00 -0.00000000000E+00 -0.45593999997E+02  0.45594000000E+02  0.51100000000E-03 0. -1.
    9900012    2    1    2    0    0 -0.14596311130E+02 -0.25378602954E+02 -0.32039000600E+02  0.47787270214E+02  0.19999996214E+02 0.  0.
        -12    1    1    2    0    0  0.14596311130E+02  0.25378602954E+02  0.32039000600E+02  0.43400729786E+02  0.00000000000E+00 0.  1.
         11    1    3    3    0    0  0.29151444573E+00 -0.86290930592E+01 -0.33667622384E+01  0.92672172699E+01  0.51100000000E-03 0.  1.
        -11    1    3    3    0    0 -0.16023486608E+02 -0.17904579090E+02 -0.27514059474E+02  0.36528749561E+02  0.51100000000E-03 0. -1.
         12    1    3    3    0    0  0.11356610326E+01  0.11550691958E+01 -0.11581788876E+01  0.19913033831E+01  0.00000000000E+00 0. -1.
</event>
<event>
 7    1  0.1542786E-009  0.4778727E+02  0.7816164E-02  0.1312668E+00
        -11   -1    0    0    0    0  0.00000000000E+00  0.00000000000E+00  0.45593999997E+02  0.45594000000E+02  0.51100000000E-03 0.  1.
         11   -1    0    0    0    0 -0.00000000000E+00 -0.00000000000E+00 -0.45593999997E+02  0.45594000000E+02  0.51100000000E-03 0. -1.
    9900012    2    1    2    0    0  0.37906004152E+02 -0.15468088461E+02 -0.14404728133E+02  0.47787273002E+02  0.20000008925E+02 0.  0.
        -12    1    1    2    0    0 -0.37906004152E+02  0.15468088461E+02  0.14404728133E+02  0.43400726998E+02  0.00000000000E+00 0.  1.
         11    1    3    3    0    0  0.26779299065E+02 -0.16700476393E+02 -0.80545971142E+01  0.32571664143E+02  0.51100000000E-03 0. -1.
        -11    1    3    3    0    0 -0.99878048625E+00 -0.89874844232E+00 -0.14168634234E+01  0.19526426821E+01  0.51100000000E-03 0.  1.
         12    1    3    3    0    0  0.12125485573E+02  0.21311363739E+01 -0.49332675950E+01  0.13262966176E+02  0.00000000000E+00 0. -1.
</event>
<event>
 7    1  0.1542786E-009  0.4778727E+02  0.7816164E-02  0.1312668E+00
        -11   -1    0    0    0    0  0.00000000000E+00  0.00000000000E+00  0.45593999997E+02  0.45594000000E+02  0.51100000000E-03 0. -1.
         11   -1    0    0    0    0 -0.00000000000E+00 -0.00000000000E+00 -0.45593999997E+02  0.45594000000E+02  0.51100000000E-03 0.  1.
    9900012    2    1    2    0    0  0.95875656305E+01  0.33296870926E+02  0.26134654144E+02  0.47787272179E+02  0.20000005174E+02 0.  0.
        -12    1    1    2    0    0 -0.95875656305E+01 -0.33296870926E+02 -0.26134654144E+02  0.43400727821E+02  0.00000000000E+00 0.  1.
         11    1    3    3    0    0  0.31994844122E+01  0.15883315623E+02  0.12780069084E+02  0.20636050536E+02  0.51100000000E-03 0. -1.
        -11    1    3    3    0    0  0.37837248162E+01  0.13078718934E+02  0.82548468642E+00  0.13640047202E+02  0.51100000000E-03 0.  1.
         12    1    3    3    0    0  0.26043564021E+01  0.43348363687E+01  0.12529100373E+02  0.13511174441E+02  0.00000000000E+00 0. -1.
</event>
<event>
 7    1  0.1542786E-009  0.4778727E+02  0.7816164E-02  0.1312668E+00
        -11   -1    0    0    0    0  0.00000000000E+00  0.00000000000E+00  0.45593999997E+02  0.45594000000E+02  0.51100000000E-03 0.  1.
         11   -1    0    0    0    0 -0.00000000000E+00 -0.00000000000E+00 -0.45593999997E+02  0.45594000000E+02  0.51100000000E-03 0. -1.
    9900012    2    1    2    0    0 -0.68049917787E+01  0.27911177032E+02 -0.32531238479E+02  0.47787271972E+02  0.20000004228E+02 0.  0.
        -12    1    1    2    0    0  0.68049917787E+01 -0.27911177032E+02  0.32531238479E+02  0.43400728028E+02  0.00000000000E+00 0.  1.
         11    1    3    3    0    0 -0.86100520536E+01  0.79537932673E+01 -0.92382169273E+01  0.14924492486E+02  0.51100000000E-03 0. -1.
        -11    1    3    3    0    0  0.23851369680E+01  0.63446874144E+01 -0.11667194498E+01  0.68778754917E+01  0.51100000000E-03 0.  1.
        -12    1    3    3    0    0 -0.58007669318E+00  0.13612696350E+02 -0.22126302102E+02  0.25984903994E+02  0.00000000000E+00 0.  1.
</event>
<event>
 7    1  0.1542786E-009  0.4778727E+02  0.7816164E-02  0.1312668E+00
        -11   -1    0    0    0    0  0.00000000000E+00  0.00000000000E+00  0.45593999997E+02  0.45594000000E+02  0.51100000000E-03 0. -1.
         11   -1    0    0    0    0 -0.00000000000E+00 -0.00000000000E+00 -0.45593999997E+02  0.45594000000E+02  0.51100000000E-03 0.  1.
    9900012    2    1    2    0    0  0.12606919126E+02 -0.41484356446E+02  0.19331613658E+01  0.47787270139E+02  0.19999995872E+02 0.  0.
        -12    1    1    2    0    0 -0.12606919126E+02  0.41484356446E+02 -0.19331613658E+01  0.43400729861E+02  0.00000000000E+00 0.  1.
         11    1    3    3    0    0  0.89657341573E+01 -0.12600294575E+02  0.30828147605E+00  0.15467606475E+02  0.51100000000E-03 0. -1.
        -11    1    3    3    0    0 -0.15738603102E+01 -0.19034503021E+02 -0.44720103140E+01  0.19616019424E+02  0.51100000000E-03 0.  1.
         12    1    3    3    0    0  0.52150452785E+01 -0.98495588504E+01  0.60968902038E+01  0.12703644239E+02  0.00000000000E+00 0. -1.
</event>
<event>
 7    1  0.1542786E-009  0.4778727E+02  0.7816164E-02  0.1312668E+00
        -11   -1    0    0    0    0  0.00000000000E+00  0.00000000000E+00  0.45593999997E+02  0.45594000000E+02  0.51100000000E-03 0.  1.
         11   -1    0    0    0    0 -0.00000000000E+00 -0.00000000000E+00 -0.45593999997E+02  0.45594000000E+02  0.51100000000E-03 0. -1.
    9900012    2    1    2    0    0 -0.39370086964E+02 -0.17210893211E+02 -0.61159405892E+01  0.47787270490E+02  0.19999997474E+02 0.  0.
        -12    1    1    2    0    0  0.39370086964E+02  0.17210893211E+02  0.61159405892E+01  0.43400729510E+02  0.00000000000E+00 0.  1.
         11    1    3    3    0    0  0.38061981583E+00  0.42641780433E+00  0.23302773605E+01  0.23993533350E+01  0.51100000000E-03 0. -1.
        -11    1    3    3    0    0 -0.10759017754E+02 -0.70407174126E+01 -0.66307255456E+01  0.14467020641E+02  0.51100000000E-03 0.  1.
         12    1    3    3    0    0 -0.28991689026E+02 -0.10596593603E+02 -0.18154924042E+01  0.30920896514E+02  0.00000000000E+00 0. -1.
</event>
<event>
 7    1  0.1542786E-009  0.4778727E+02  0.7816164E-02  0.1312668E+00
        -11   -1    0    0    0    0  0.00000000000E+00  0.00000000000E+00  0.45593999997E+02  0.45594000000E+02  0.51100000000E-03 0.  1.
         11   -1    0    0    0    0 -0.00000000000E+00 -0.00000000000E+00 -0.45593999997E+02  0.45594000000E+02  0.51100000000E-03 0. -1.
    9900012    2    1    2    0    0 -0.26896969247E+02  0.26742656329E+02  0.21095174888E+02  0.47787273903E+02  0.20000013032E+02 0.  0.
        -12    1    1    2    0    0  0.26896969247E+02 -0.26742656329E+02 -0.21095174888E+02  0.43400726097E+02  0.00000000000E+00 0.  1.
         11    1    3    3    0    0 -0.75534941999E+01  0.14222341104E+01  0.21839504596E+01  0.79904733504E+01  0.51100000000E-03 0. -1.
        -11    1    3    3    0    0 -0.69816677588E+01  0.16900993024E+02  0.16533265754E+02  0.24652304692E+02  0.51100000000E-03 0.  1.
         12    1    3    3    0    0 -0.12361807289E+02  0.84194291943E+01  0.23779586751E+01  0.15144495860E+02  0.00000000000E+00 0. -1.
</event>
<event>
 7    1  0.1542786E-009  0.4778727E+02  0.7816164E-02  0.1312668E+00
        -11   -1    0    0    0    0  0.00000000000E+00  0.00000000000E+00  0.45593999997E+02  0.45594000000E+02  0.51100000000E-03 0.  1.
         11   -1    0    0    0    0 -0.00000000000E+00 -0.00000000000E+00 -0.45593999997E+02  0.45594000000E+02  0.51100000000E-03 0. -1.
    9900012    2    1    2    0    0 -0.35529221293E+02  0.18874732614E+02 -0.16280115875E+02  0.47787271091E+02  0.20000000211E+02 0.  0.
        -12    1    1    2    0    0  0.35529221293E+02 -0.18874732614E+02  0.16280115875E+02  0.43400728909E+02  0.00000000000E+00 0.  1.
         11    1    3    3    0    0 -0.11329401887E+01  0.57721547780E+01 -0.25967719387E+01  0.64299727072E+01  0.51100000000E-03 0. -1.
        -11    1    3    3    0    0 -0.23644467685E+01  0.53230434612E+01 -0.37609898379E+01  0.69332852987E+01  0.51100000000E-03 0.  1.
        -12    1    3    3    0    0 -0.32031834336E+02  0.77795343748E+01 -0.99223540984E+01  0.34424013085E+02  0.00000000000E+00 0.  1.
</event>
<event>
 7    1  0.1542786E-009  0.4778727E+02  0.7816164E-02  0.1312668E+00
        -11   -1    0    0    0    0  0.00000000000E+00  0.00000000000E+00  0.45593999997E+02  0.45594000000E+02  0.51100000000E-03 0.  1.
         11   -1    0    0    0    0 -0.00000000000E+00 -0.00000000000E+00 -0.45593999997E+02  0.45594000000E+02  0.51100000000E-03 0. -1.
    9900012    2    1    2    0    0  0.16976179038E+02 -0.36545045316E+02 -0.16121170544E+02  0.47787272683E+02  0.20000007472E+02 0.  0.
        -12    1    1    2    0    0 -0.16976179038E+02  0.36545045316E+02  0.16121170544E+02  0.43400727317E+02  0.00000000000E+00 0.  1.
         11    1    3    3    0    0  0.23878578318E+01 -0.12456798451E+02 -0.77320193748E+01  0.14854555414E+02  0.51100000000E-03 0. -1.
        -11    1    3    3    0    0  0.97101403737E+01 -0.16394601427E+02  0.19486646735E+01  0.19153774467E+02  0.51100000000E-03 0.  1.
        -12    1    3    3    0    0  0.48781808327E+01 -0.76936454378E+01 -0.10337815843E+02  0.13778942803E+02  0.00000000000E+00 0.  1.
</event>
<event>
 7    1  0.1542786E-009  0.4778729E+02  0.7816164E-02  0.1312668E+00
        -11   -1    0    0    0    0  0.00000000000E+00  0.00000000000E+00  0.45593999997E+02  0.45594000000E+02  0.51100000000E-03 0. -1.
         11   -1    0    0    0    0 -0.00000000000E+00 -0.00000000000E+00 -0.45593999997E+02  0.45594000000E+02  0.51100000000E-03 0.  1.
    9900012    2    1    2    0    0 -0.13762697493E+02  0.38603408177E+02  0.14282389215E+02  0.47787290249E+02  0.20000087562E+02 0.  0.
        -12    1    1    2    0    0  0.13762697493E+02 -0.38603408177E+02 -0.14282389215E+02  0.43400709751E+02  0.00000000000E+00 0.  1.
         11    1    3    3    0    0  0.17106319720E+00  0.13473224619E+02 -0.10953105843E+01  0.13518755482E+02  0.51100000000E-03 0. -1.
        -11    1    3    3    0    0 -0.24958148626E+01  0.29907392600E+00  0.38517200803E+01  0.45993787493E+01  0.51100000000E-03 0.  1.
         12    1    3    3    0    0 -0.11437945828E+02  0.24831109632E+02  0.11525979719E+02  0.29669156018E+02  0.00000000000E+00 0. -1.
</event>
<event>
 7    1  0.1542786E-009  0.4778727E+02  0.7816164E-02  0.1312668E+00
        -11   -1    0    0    0    0  0.00000000000E+00  0.00000000000E+00  0.45593999997E+02  0.45594000000E+02  0.51100000000E-03 0.  1.
         11   -1    0    0    0    0 -0.00000000000E+00 -0.00000000000E+00 -0.45593999997E+02  0.45594000000E+02  0.51100000000E-03 0. -1.
    9900012    2    1    2    0    0  0.17366510681E+00 -0.28763678481E+02 -0.32499912646E+02  0.47787266350E+02  0.19999978597E+02 0.  0.
        -12    1    1    2    0    0 -0.17366510681E+00  0.28763678481E+02  0.32499912646E+02  0.43400733650E+02  0.00000000000E+00 0.  1.
         11    1    3    3    0    0 -0.82789745384E+00 -0.31741361525E+02 -0.30144054186E+02  0.43781999140E+02  0.51100000000E-03 0. -1.
        -11    1    3    3    0    0 -0.53178616775E-01  0.95894396924E+00 -0.65222047537E+00  0.11609450078E+01  0.51100000000E-03 0.  1.
         12    1    3    3    0    0  0.10547411774E+01  0.20187390753E+01 -0.17036379853E+01  0.28443222023E+01  0.00000000000E+00 0. -1.
</event>
<event>
 7    1  0.1542786E-009  0.4778727E+02  0.7816164E-02  0.1312668E+00
        -11   -1    0    0    0    0  0.00000000000E+00  0.00000000000E+00  0.45593999997E+02  0.45594000000E+02  0.51100000000E-03 0.  1.
         11   -1    0    0    0    0 -0.00000000000E+00 -0.00000000000E+00 -0.45593999997E+02  0.45594000000E+02  0.51100000000E-03 0. -1.
    9900012    2    1    2    0    0 -0.33664383409E+02 -0.15669337549E+02 -0.22467851938E+02  0.47787271662E+02  0.20000002816E+02 0.  0.
        -12    1    1    2    0    0  0.33664383409E+02  0.15669337549E+02  0.22467851938E+02  0.43400728338E+02  0.00000000000E+00 0.  1.
         11    1    3    3    0    0 -0.77438626746E+01  0.18145776731E+01 -0.85688845815E+01  0.11691273861E+02  0.51100000000E-03 0. -1.
        -11    1    3    3    0    0 -0.57834674065E+01 -0.53343876841E+01  0.14660887896E+01  0.80033495367E+01  0.51100000000E-03 0.  1.
         12    1    3    3    0    0 -0.20137053328E+02 -0.12149527538E+02 -0.15365056146E+02  0.28092648265E+02  0.00000000000E+00 0. -1.
</event>
<event>
 7    1  0.1542786E-009  0.4778726E+02  0.7816164E-02  0.1312668E+00
        -11   -1    0    0    0    0  0.00000000000E+00  0.00000000000E+00  0.45593999997E+02  0.45594000000E+02  0.51100000000E-03 0. -1.
         11   -1    0    0    0    0 -0.00000000000E+00 -0.00000000000E+00 -0.45593999997E+02  0.45594000000E+02  0.51100000000E-03 0.  1.
    9900012    2    1    2    0    0 -0.42258318054E+02 -0.98278235474E+01 -0.11282900528E+01  0.47787255779E+02  0.19999930401E+02 0.  0.
        -12    1    1    2    0    0  0.42258318054E+02  0.98278235474E+01  0.11282900528E+01  0.43400744221E+02  0.00000000000E+00 0.  1.
         11    1    3    3    0    0 -0.21817524233E+02 -0.95290232841E+01 -0.61687640646E+00  0.23815691994E+02  0.51100000000E-03 0. -1.
        -11    1    3    3    0    0 -0.18360961820E+02  0.24272862934E+01  0.33351176121E+01  0.18818598446E+02  0.51100000000E-03 0.  1.
        -12    1    3    3    0    0 -0.20798320012E+01 -0.27260865568E+01 -0.38465312585E+01  0.51529653396E+01  0.00000000000E+00 0.  1.
</event>
<event>
 7    1  0.1542786E-009  0.4778727E+02  0.7816164E-02  0.1312668E+00
        -11   -1    0    0    0    0  0.00000000000E+00  0.00000000000E+00  0.45593999997E+02  0.45594000000E+02  0.51100000000E-03 0.  1.
         11   -1    0    0    0    0 -0.00000000000E+00 -0.00000000000E+00 -0.45593999997E+02  0.45594000000E+02  0.51100000000E-03 0. -1.
    9900012    2    1    2    0    0  0.24336687590E+02 -0.35923754512E+02 -0.91253448280E+00  0.47787271662E+02  0.20000002817E+02 0.  0.
        -12    1    1    2    0    0 -0.24336687590E+02  0.35923754512E+02  0.91253448280E+00  0.43400728338E+02  0.00000000000E+00 0.  1.
         11    1    3    3    0    0  0.98388633836E+01 -0.15908128044E+02  0.59288097752E+01  0.19621991646E+02  0.51100000000E-03 0. -1.
        -11    1    3    3    0    0  0.97756769964E+01 -0.75141442340E+01  0.14865539521E+01  0.12419181423E+02  0.51100000000E-03 0.  1.
         12    1    3    3    0    0  0.47221472099E+01 -0.12501482233E+02 -0.83278982102E+01  0.15746098593E+02  0.00000000000E+00 0. -1.
</event>
<event>
 7    1  0.1542786E-009  0.4778727E+02  0.7816164E-02  0.1312668E+00
        -11   -1    0    0    0    0  0.00000000000E+00  0.00000000000E+00  0.45593999997E+02  0.45594000000E+02  0.51100000000E-03 0.  1.
         11   -1    0    0    0    0 -0.00000000000E+00 -0.00000000000E+00 -0.45593999997E+02  0.45594000000E+02  0.51100000000E-03 0. -1.
    9900012    2    1    2    0    0  0.42765153479E+02 -0.72502551984E+01 -0.14827959869E+01  0.47787271475E+02  0.20000001965E+02 0.  0.
        -12    1    1    2    0    0 -0.42765153479E+02  0.72502551984E+01  0.14827959869E+01  0.43400728525E+02  0.00000000000E+00 0.  1.
         11    1    3    3    0    0  0.15685067164E+02  0.20931629279E+01  0.49891726948E+01  0.16592001309E+02  0.51100000000E-03 0.  1.
        -11    1    3    3    0    0  0.25183525489E+02 -0.75782544889E+01 -0.24525321545E+01  0.26413156029E+02  0.51100000000E-03 0. -1.
        -12    1    3    3    0    0  0.18965608257E+01 -0.17651636374E+01 -0.40194365273E+01  0.47821141380E+01  0.00000000000E+00 0.  1.
</event>
<event>
 7    1  0.1542786E-009  0.4778727E+02  0.7816164E-02  0.1312668E+00
        -11   -1    0    0    0    0  0.00000000000E+00  0.00000000000E+00  0.45593999997E+02  0.45594000000E+02  0.51100000000E-03 0. -1.
         11   -1    0    0    0    0 -0.00000000000E+00 -0.00000000000E+00 -0.45593999997E+02  0.45594000000E+02  0.51100000000E-03 0.  1.
    9900012    2    1    2    0    0 -0.35947569519E+02 -0.24109222355E+02  0.31844863142E+01  0.47787270628E+02  0.19999998103E+02 0.  0.
        -12    1    1    2    0    0  0.35947569519E+02  0.24109222355E+02 -0.31844863142E+01  0.43400729372E+02  0.00000000000E+00 0.  1.
         11    1    3    3    0    0 -0.17656210546E+02 -0.83726535050E+01  0.35533297290E+01  0.19861249960E+02  0.51100000000E-03 0. -1.
        -11    1    3    3    0    0 -0.15920867849E+02 -0.17225290899E+02 -0.35115838807E+01  0.23717417676E+02  0.51100000000E-03 0.  1.
         12    1    3    3    0    0 -0.23704911244E+01  0.14887220488E+01  0.31427404660E+01  0.42086029922E+01  0.00000000000E+00 0. -1.
</event>
<event>
 7    1  0.1542786E-009  0.4778727E+02  0.7816164E-02  0.1312668E+00
        -11   -1    0    0    0    0  0.00000000000E+00  0.00000000000E+00  0.45593999997E+02  0.45594000000E+02  0.51100000000E-03 0.  1.
         11   -1    0    0    0    0 -0.00000000000E+00 -0.00000000000E+00 -0.45593999997E+02  0.45594000000E+02  0.51100000000E-03 0. -1.
    9900012    2    1    2    0    0  0.20494474531E+01 -0.31691902768E+02 -0.29581179769E+02  0.47787272673E+02  0.20000007427E+02 0.  0.
        -12    1    1    2    0    0 -0.20494474531E+01  0.31691902768E+02  0.29581179769E+02  0.43400727327E+02  0.00000000000E+00 0.  1.
         11    1    3    3    0    0  0.38769841908E+01 -0.16394207574E+02 -0.20719950785E+02  0.26704258259E+02  0.51100000000E-03 0. -1.
        -11    1    3    3    0    0 -0.35247266473E+01 -0.24686218413E+00 -0.36123290763E+01  0.50530743605E+01  0.51100000000E-03 0.  1.
         12    1    3    3    0    0  0.16971899096E+01 -0.15050833010E+02 -0.52488999085E+01  0.16029940054E+02  0.00000000000E+00 0. -1.
</event>
<event>
 7    1  0.1542786E-009  0.4778723E+02  0.7816164E-02  0.1312668E+00
        -11   -1    0    0    0    0  0.00000000000E+00  0.00000000000E+00  0.45593999997E+02  0.45594000000E+02  0.51100000000E-03 0.  1.
         11   -1    0    0    0    0 -0.00000000000E+00 -0.00000000000E+00 -0.45593999997E+02  0.45594000000E+02  0.51100000000E-03 0. -1.
    9900012    2    1    2    0    0  0.41331672488E+01 -0.26670855925E+02 -0.33988367163E+02  0.47787231232E+02  0.19999818478E+02 0.  0.
        -12    1    1    2    0    0 -0.41331672488E+01  0.26670855925E+02  0.33988367163E+02  0.43400768768E+02  0.00000000000E+00 0.  1.
         11    1    3    3    0    0  0.28627730179E+01 -0.15512259193E+02 -0.88307603669E+01  0.18077831273E+02  0.51100000000E-03 0. -1.
        -11    1    3    3    0    0 -0.49260550292E+01 -0.55492593652E+01 -0.12662707566E+02  0.14676663817E+02  0.51100000000E-03 0.  1.
         12    1    3    3    0    0  0.61964492601E+01 -0.56093373667E+01 -0.12494899230E+02  0.15032736141E+02  0.00000000000E+00 0. -1.
</event>
<event>
 7    1  0.1542786E-009  0.4778727E+02  0.7816164E-02  0.1312668E+00
        -11   -1    0    0    0    0  0.00000000000E+00  0.00000000000E+00  0.45593999997E+02  0.45594000000E+02  0.51100000000E-03 0.  1.
         11   -1    0    0    0    0 -0.00000000000E+00 -0.00000000000E+00 -0.45593999997E+02  0.45594000000E+02  0.51100000000E-03 0. -1.
    9900012    2    1    2    0    0 -0.22394982881E+02 -0.21227471923E+02 -0.30520194901E+02  0.47787272826E+02  0.20000008122E+02 0.  0.
        -12    1    1    2    0    0  0.22394982881E+02  0.21227471923E+02  0.30520194901E+02  0.43400727174E+02  0.00000000000E+00 0.  1.
         11    1    3    3    0    0 -0.10154123066E+02 -0.11796680941E+02 -0.11892792670E+02  0.19588425517E+02  0.51100000000E-03 0. -1.
        -11    1    3    3    0    0 -0.10158650074E+02  0.22486940358E+00 -0.48837425750E+01  0.11273849359E+02  0.51100000000E-03 0.  1.
         12    1    3    3    0    0 -0.20822097410E+01 -0.96556603850E+01 -0.13743659656E+02  0.16924997950E+02  0.00000000000E+00 0. -1.
</event>
<event>
 7    1  0.1542786E-009  0.4778727E+02  0.7816164E-02  0.1312668E+00
        -11   -1    0    0    0    0  0.00000000000E+00  0.00000000000E+00  0.45593999997E+02  0.45594000000E+02  0.51100000000E-03 0. -1.
         11   -1    0    0    0    0 -0.00000000000E+00 -0.00000000000E+00 -0.45593999997E+02  0.45594000000E+02  0.51100000000E-03 0.  1.
    9900012    2    1    2    0    0 -0.23370516531E+02 -0.30122562287E+02  0.20738206725E+02  0.47787273971E+02  0.20000013345E+02 0.  0.
        -12    1    1    2    0    0  0.23370516531E+02  0.30122562287E+02 -0.20738206725E+02  0.43400726029E+02  0.00000000000E+00 0.  1.
         11    1    3    3    0    0 -0.41368426478E+01 -0.11776014384E+02 -0.43017887909E+00  0.12488916526E+02  0.51100000000E-03 0. -1.
        -11    1    3    3    0    0 -0.10222016731E+02 -0.44717805682E+01  0.52181105327E+01  0.12317269393E+02  0.51100000000E-03 0.  1.
        -12    1    3    3    0    0 -0.90116571519E+01 -0.13874767335E+02  0.15950275072E+02  0.22981088052E+02  0.00000000000E+00 0.  1.
</event>
<event>
 7    1  0.1542786E-009  0.4778728E+02  0.7816164E-02  0.1312668E+00
        -11   -1    0    0    0    0  0.00000000000E+00  0.00000000000E+00  0.45593999997E+02  0.45594000000E+02  0.51100000000E-03 0.  1.
         11   -1    0    0    0    0 -0.00000000000E+00 -0.00000000000E+00 -0.45593999997E+02  0.45594000000E+02  0.51100000000E-03 0. -1.
    9900012    2    1    2    0    0  0.25841784917E+02  0.34177823326E+02 -0.69065743192E+01  0.47787283141E+02  0.20000055155E+02 0.  0.
        -12    1    1    2    0    0 -0.25841784917E+02 -0.34177823326E+02  0.69065743192E+01  0.43400716859E+02  0.00000000000E+00 0.  1.
         11    1    3    3    0    0 -0.16100764036E+01  0.85004350794E+01 -0.27981500722E+01  0.90928206104E+01  0.51100000000E-03 0.  1.
        -11    1    3    3    0    0  0.10407184321E+02  0.78178743925E+01 -0.51170166564E+01  0.13986154054E+02  0.51100000000E-03 0. -1.
        -12    1    3    3    0    0  0.17044677000E+02  0.17859513854E+02  0.10085924094E+01  0.24708308477E+02  0.00000000000E+00 0.  1.
</event>
<event>
 7    1  0.1542786E-009  0.4778727E+02  0.7816164E-02  0.1312668E+00
        -11   -1    0    0    0    0  0.00000000000E+00  0.00000000000E+00  0.45593999997E+02  0.45594000000E+02  0.51100000000E-03 0.  1.
         11   -1    0    0    0    0 -0.00000000000E+00 -0.00000000000E+00 -0.45593999997E+02  0.45594000000E+02  0.51100000000E-03 0. -1.
    9900012    2    1    2    0    0  0.38788122810E+01  0.14079028361E+02 -0.40870025789E+02  0.47787271523E+02  0.20000002182E+02 0.  0.
        -12    1    1    2    0    0 -0.38788122810E+01 -0.14079028361E+02  0.40870025789E+02  0.43400728477E+02  0.00000000000E+00 0.  1.
         11    1    3    3    0    0  0.23971569074E+01 -0.42932142741E+01 -0.10023078810E+02  0.11164235716E+02  0.51100000000E-03 0. -1.
        -11    1    3    3    0    0  0.30268165980E+01  0.31983127100E+01 -0.55638490573E+01  0.70955788701E+01  0.51100000000E-03 0.  1.
         12    1    3    3    0    0 -0.15451612244E+01  0.15173929926E+02 -0.25283097922E+02  0.29527456937E+02  0.00000000000E+00 0. -1.
</event>
<event>
 7    1  0.1542786E-009  0.4778727E+02  0.7816164E-02  0.1312668E+00
        -11   -1    0    0    0    0  0.00000000000E+00  0.00000000000E+00  0.45593999997E+02  0.45594000000E+02  0.51100000000E-03 0.  1.
         11   -1    0    0    0    0 -0.00000000000E+00 -0.00000000000E+00 -0.45593999997E+02  0.45594000000E+02  0.51100000000E-03 0. -1.
    9900012    2    1    2    0    0 -0.18308556012E+02  0.17620003802E+02 -0.35184594581E+02  0.47787268980E+02  0.19999990589E+02 0.  0.
        -12    1    1    2    0    0  0.18308556012E+02 -0.17620003802E+02  0.35184594581E+02  0.43400731020E+02  0.00000000000E+00 0.  1.
         11    1    3    3    0    0 -0.12648517186E+02  0.10622886676E+02 -0.18203525395E+02  0.24580460643E+02  0.51100000000E-03 0. -1.
        -11    1    3    3    0    0 -0.72141795536E+00  0.83683964795E+01 -0.41065701042E+01  0.93495680000E+01  0.51100000000E-03 0.  1.
        -12    1    3    3    0    0 -0.49386208706E+01 -0.13712793539E+01 -0.12874499082E+02  0.13857240338E+02  0.00000000000E+00 0.  1.
</event>
<event>
 7    1  0.1542786E-009  0.4778727E+02  0.7816164E-02  0.1312668E+00
        -11   -1    0    0    0    0  0.00000000000E+00  0.00000000000E+00  0.45593999997E+02  0.45594000000E+02  0.51100000000E-03 0.  1.
         11   -1    0    0    0    0 -0.00000000000E+00 -0.00000000000E+00 -0.45593999997E+02  0.45594000000E+02  0.51100000000E-03 0. -1.
    9900012    2    1    2    0    0 -0.30352214452E+02 -0.18815043762E+02 -0.24664970334E+02  0.47787267800E+02  0.19999985207E+02 0.  0.
        -12    1    1    2    0    0  0.30352214452E+02  0.18815043762E+02  0.24664970334E+02  0.43400732200E+02  0.00000000000E+00 0.  1.
         11    1    3    3    0    0 -0.34130604861E+01  0.14251474165E+01  0.10310280178E+01  0.38396674433E+01  0.51100000000E-03 0.  1.
        -11    1    3    3    0    0 -0.22100054672E+02 -0.10009348002E+02 -0.18820927512E+02  0.30705484471E+02  0.51100000000E-03 0. -1.
        -12    1    3    3    0    0 -0.48390992946E+01 -0.10230843176E+02 -0.68750708397E+01  0.13242115886E+02  0.00000000000E+00 0.  1.
</event>
<event>
 7    1  0.1542786E-009  0.4778727E+02  0.7816164E-02  0.1312668E+00
        -11   -1    0    0    0    0  0.00000000000E+00  0.00000000000E+00  0.45593999997E+02  0.45594000000E+02  0.51100000000E-03 0.  1.
         11   -1    0    0    0    0 -0.00000000000E+00 -0.00000000000E+00 -0.45593999997E+02  0.45594000000E+02  0.51100000000E-03 0. -1.
    9900012    2    1    2    0    0 -0.89747967411E+01 -0.22146310041E+02 -0.36230059866E+02  0.47787271171E+02  0.20000000576E+02 0.  0.
        -12    1    1    2    0    0  0.89747967411E+01  0.22146310041E+02  0.36230059866E+02  0.43400728829E+02  0.00000000000E+00 0.  1.
         11    1    3    3    0    0  0.14371105298E+01  0.13591789667E+00 -0.79491379624E+01  0.80791432068E+01  0.51100000000E-03 0. -1.
        -11    1    3    3    0    0 -0.72978924764E+01 -0.11510069651E+02 -0.62620577044E+01  0.14998476754E+02  0.51100000000E-03 0.  1.
         12    1    3    3    0    0 -0.31140147945E+01 -0.10772158286E+02 -0.22018864200E+02  0.24709651210E+02  0.00000000000E+00 0. -1.
</event>
<event>
 7    1  0.1542786E-009  0.4778730E+02  0.7816164E-02  0.1312668E+00
        -11   -1    0    0    0    0  0.00000000000E+00  0.00000000000E+00  0.45593999997E+02  0.45594000000E+02  0.51100000000E-03 0.  1.
         11   -1    0    0    0    0 -0.00000000000E+00 -0.00000000000E+00 -0.45593999997E+02  0.45594000000E+02  0.51100000000E-03 0. -1.
    9900012    2    1    2    0    0 -0.16903088574E+02  0.35977392467E+02 -0.17422210714E+02  0.47787301870E+02  0.20000140544E+02 0.  0.
        -12    1    1    2    0    0  0.16903088574E+02 -0.35977392467E+02  0.17422210714E+02  0.43400698130E+02  0.00000000000E+00 0.  1.
         11    1    3    3    0    0 -0.96911572339E+00  0.11661916718E+02 -0.68211631583E+01  0.13545026907E+02  0.51100000000E-03 0. -1.
        -11    1    3    3    0    0 -0.92482817906E+00  0.13186121165E+02 -0.78000705657E+01  0.15348296310E+02  0.51100000000E-03 0.  1.
         12    1    3    3    0    0 -0.15009144671E+02  0.11129354584E+02 -0.28009769903E+01  0.18893978652E+02  0.00000000000E+00 0. -1.
</event>
<event>
 7    1  0.2127708E-009  0.4778727E+02  0.7816164E-02  0.1312668E+00
        -11   -1    0    0    0    0  0.00000000000E+00  0.00000000000E+00  0.45593999997E+02  0.45594000000E+02  0.51100000000E-03 0.  1.
         11   -1    0    0    0    0 -0.00000000000E+00 -0.00000000000E+00 -0.45593999997E+02  0.45594000000E+02  0.51100000000E-03 0. -1.
    9900012    2    1    2    0    0  0.38922697865E+02 -0.60415475020E+01 -0.18224892840E+02  0.47787269311E+02  0.19999992097E+02 0.  0.
        -12    1    1    2    0    0 -0.38922697865E+02  0.60415475020E+01  0.18224892840E+02  0.43400730689E+02  0.00000000000E+00 0.  1.
         11    1    3    3    0    0  0.17845050295E+02  0.35358435924E+01 -0.94785405592E+01  0.20513184573E+02  0.51100000000E-03 0. -1.
        -11    1    3    3    0    0  0.64834692861E+01 -0.17726479920E+01  0.26014261099E+01  0.72072930393E+01  0.51100000000E-03 0.  1.
        -12    1    3    3    0    0  0.14594178284E+02 -0.78047431024E+01 -0.11347778390E+02  0.20066791699E+02  0.00000000000E+00 0.  1.
</event>
<event>
 7    1  0.1542786E-009  0.4778727E+02  0.7816164E-02  0.1312668E+00
        -11   -1    0    0    0    0  0.00000000000E+00  0.00000000000E+00  0.45593999997E+02  0.45594000000E+02  0.51100000000E-03 0.  1.
         11   -1    0    0    0    0 -0.00000000000E+00 -0.00000000000E+00 -0.45593999997E+02  0.45594000000E+02  0.51100000000E-03 0. -1.
    9900012    2    1    2    0    0 -0.80158509174E+01 -0.29691061356E+02 -0.30623696786E+02  0.47787265038E+02  0.19999972616E+02 0.  0.
        -12    1    1    2    0    0  0.80158509174E+01  0.29691061356E+02  0.30623696786E+02  0.43400734962E+02  0.00000000000E+00 0.  1.
         11    1    3    3    0    0 -0.72530523478E+01 -0.81065750873E+01 -0.20502445487E+02  0.23209342929E+02  0.51100000000E-03 0. -1.
        -11    1    3    3    0    0  0.18423179549E+00 -0.13211050287E+02 -0.92022141416E+01  0.16101134631E+02  0.51100000000E-03 0.  1.
         12    1    3    3    0    0 -0.94703036501E+00 -0.83734359816E+01 -0.91903715742E+00  0.84767874779E+01  0.00000000000E+00 0. -1.
</event>
<event>
 7    1  0.1542786E-009  0.4778728E+02  0.7816164E-02  0.1312668E+00
        -11   -1    0    0    0    0  0.00000000000E+00  0.00000000000E+00  0.45593999997E+02  0.45594000000E+02  0.51100000000E-03 0. -1.
         11   -1    0    0    0    0 -0.00000000000E+00 -0.00000000000E+00 -0.45593999997E+02  0.45594000000E+02  0.51100000000E-03 0.  1.
    9900012    2    1    2    0    0 -0.19063668504E+02 -0.26403100086E+02  0.28689289612E+02  0.47787280081E+02  0.20000041203E+02 0.  0.
        -12    1    1    2    0    0  0.19063668504E+02  0.26403100086E+02 -0.28689289612E+02  0.43400719919E+02  0.00000000000E+00 0.  1.
         11    1    3    3    0    0 -0.25438775142E+01 -0.12299345720E+02  0.62124490616E+01  0.14012128373E+02  0.51100000000E-03 0. -1.
        -11    1    3    3    0    0 -0.17280189820E+01 -0.99749921567E+00 -0.16487902304E+01  0.25883515550E+01  0.51100000000E-03 0.  1.
         12    1    3    3    0    0 -0.14791772008E+02 -0.13106255151E+02  0.24125630781E+02  0.31186800153E+02  0.00000000000E+00 0. -1.
</event>
<event>
 7    1  0.1542786E-009  0.4778727E+02  0.7816164E-02  0.1312668E+00
        -11   -1    0    0    0    0  0.00000000000E+00  0.00000000000E+00  0.45593999997E+02  0.45594000000E+02  0.51100000000E-03 0.  1.
         11   -1    0    0    0    0 -0.00000000000E+00 -0.00000000000E+00 -0.45593999997E+02  0.45594000000E+02  0.51100000000E-03 0. -1.
    9900012    2    1    2    0    0  0.30519325039E+02 -0.72071495269E+01 -0.30004184565E+02  0.47787270784E+02  0.19999998810E+02 0.  0.
        -12    1    1    2    0    0 -0.30519325039E+02  0.72071495269E+01  0.30004184565E+02  0.43400729216E+02  0.00000000000E+00 0.  1.
         11    1    3    3    0    0  0.54045691171E+01 -0.44589380051E+01 -0.13577587648E+02  0.15278821357E+02  0.51100000000E-03 0. -1.
        -11    1    3    3    0    0  0.16665227555E+02  0.35189494119E+01 -0.71139322596E+01  0.18458625270E+02  0.51100000000E-03 0.  1.
         12    1    3    3    0    0  0.84495283670E+01 -0.62671609336E+01 -0.93126646575E+01  0.14049824156E+02  0.00000000000E+00 0. -1.
</event>
<event>
 7    1  0.1542786E-009  0.4778727E+02  0.7816164E-02  0.1312668E+00
        -11   -1    0    0    0    0  0.00000000000E+00  0.00000000000E+00  0.45593999997E+02  0.45594000000E+02  0.51100000000E-03 0.  1.
         11   -1    0    0    0    0 -0.00000000000E+00 -0.00000000000E+00 -0.45593999997E+02  0.45594000000E+02  0.51100000000E-03 0. -1.
    9900012    2    1    2    0    0  0.36583359720E+02 -0.18418121807E+02  0.14354585282E+02  0.47787268003E+02  0.19999986132E+02 0.  0.
        -12    1    1    2    0    0 -0.36583359720E+02  0.18418121807E+02 -0.14354585282E+02  0.43400731997E+02  0.00000000000E+00 0.  1.
         11    1    3    3    0    0  0.12899149904E+02 -0.56474156669E+01  0.53055455750E+01  0.15047597352E+02  0.51100000000E-03 0. -1.
        -11    1    3    3    0    0  0.58724403344E+01 -0.47908852460E+01 -0.46524810626E+01  0.88929026319E+01  0.51100000000E-03 0.  1.
        -12    1    3    3    0    0  0.17811769481E+02 -0.79798208937E+01  0.13701520769E+02  0.23846768019E+02  0.00000000000E+00 0.  1.
</event>
<event>
 7    1  0.1542786E-009  0.4778727E+02  0.7816164E-02  0.1312668E+00
        -11   -1    0    0    0    0  0.00000000000E+00  0.00000000000E+00  0.45593999997E+02  0.45594000000E+02  0.51100000000E-03 0. -1.
         11   -1    0    0    0    0 -0.00000000000E+00 -0.00000000000E+00 -0.45593999997E+02  0.45594000000E+02  0.51100000000E-03 0.  1.
    9900012    2    1    2    0    0  0.18155046301E+01 -0.40032148657E+02 -0.16665957690E+02  0.47787272715E+02  0.20000007615E+02 0.  0.
        -12    1    1    2    0    0 -0.18155046301E+01  0.40032148657E+02  0.16665957690E+02  0.43400727285E+02  0.00000000000E+00 0.  1.
         11    1    3    3    0    0  0.68129647496E+00 -0.80460831907E+01 -0.12228790583E+02  0.14654246449E+02  0.51100000000E-03 0. -1.
        -11    1    3    3    0    0 -0.10844927836E+01 -0.48903839527E+01  0.16491993201E+01  0.52736930571E+01  0.51100000000E-03 0.  1.
         12    1    3    3    0    0  0.22187009387E+01 -0.27095681514E+02 -0.60863664273E+01  0.27859333209E+02  0.00000000000E+00 0. -1.
</event>
<event>
 7    1  0.1542786E-009  0.4778727E+02  0.7816164E-02  0.1312668E+00
        -11   -1    0    0    0    0  0.00000000000E+00  0.00000000000E+00  0.45593999997E+02  0.45594000000E+02  0.51100000000E-03 0.  1.
         11   -1    0    0    0    0 -0.00000000000E+00 -0.00000000000E+00 -0.45593999997E+02  0.45594000000E+02  0.51100000000E-03 0. -1.
    9900012    2    1    2    0    0  0.13593841551E+02  0.13279553384E+02 -0.39019024381E+02  0.47787270400E+02  0.19999997061E+02 0.  0.
        -12    1    1    2    0    0 -0.13593841551E+02 -0.13279553384E+02  0.39019024381E+02  0.43400729600E+02  0.00000000000E+00 0.  1.
         11    1    3    3    0    0  0.89438115832E+01  0.24750526448E+01 -0.13240912915E+02  0.16169088605E+02  0.51100000000E-03 0. -1.
        -11    1    3    3    0    0  0.68373009587E+01 -0.44157559013E+00 -0.96903019727E+01  0.11867839988E+02  0.51100000000E-03 0.  1.
        -12    1    3    3    0    0 -0.21872709908E+01  0.11246076329E+02 -0.16087809493E+02  0.19750341807E+02  0.00000000000E+00 0.  1.
</event>
<event>
 7    1  0.1542786E-009  0.4778728E+02  0.7816164E-02  0.1312668E+00
        -11   -1    0    0    0    0  0.00000000000E+00  0.00000000000E+00  0.45593999997E+02  0.45594000000E+02  0.51100000000E-03 0. -1.
         11   -1    0    0    0    0 -0.00000000000E+00 -0.00000000000E+00 -0.45593999997E+02  0.45594000000E+02  0.51100000000E-03 0.  1.
    9900012    2    1    2    0    0 -0.69039789383E+01 -0.39644105653E+02  0.16257385631E+02  0.47787278511E+02  0.20000034041E+02 0.  0.
        -12    1    1    2    0    0  0.69039789383E+01  0.39644105653E+02 -0.16257385631E+02  0.43400721489E+02  0.00000000000E+00 0.  1.
         11    1    3    3    0    0 -0.86499258353E+01 -0.21657714740E+02  0.13928404353E+02  0.27163914901E+02  0.51100000000E-03 0. -1.
        -11    1    3    3    0    0  0.15796438180E+01  0.46748978047E+00  0.13721043754E+01  0.21439430880E+01  0.51100000000E-03 0.  1.
         12    1    3    3    0    0  0.16630307898E+00 -0.18453880694E+02  0.95687690344E+00  0.18479420521E+02  0.00000000000E+00 0. -1.
</event>
<event>
 7    1  0.1542786E-009  0.4778727E+02  0.7816164E-02  0.1312668E+00
        -11   -1    0    0    0    0  0.00000000000E+00  0.00000000000E+00  0.45593999997E+02  0.45594000000E+02  0.51100000000E-03 0.  1.
         11   -1    0    0    0    0 -0.00000000000E+00 -0.00000000000E+00 -0.45593999997E+02  0.45594000000E+02  0.51100000000E-03 0. -1.
    9900012    2    1    2    0    0  0.14084794968E+02 -0.15615518819E+02 -0.37965740323E+02  0.47787270564E+02  0.19999997811E+02 0.  0.
        -12    1    1    2    0    0 -0.14084794968E+02  0.15615518819E+02  0.37965740323E+02  0.43400729436E+02  0.00000000000E+00 0.  1.
         11    1    3    3    0    0  0.75441636534E+01 -0.88425692501E+01 -0.14200252737E+02  0.18350820533E+02  0.51100000000E-03 0. -1.
        -11    1    3    3    0    0  0.35014478994E+01  0.17551488456E+01 -0.18610622209E+02  0.19018305501E+02  0.51100000000E-03 0.  1.
        -12    1    3    3    0    0  0.30391834150E+01 -0.85280984144E+01 -0.51548653768E+01  0.10418144530E+02  0.00000000000E+00 0.  1.
</event>
<event>
 7    1  0.1542786E-009  0.4778727E+02  0.7816164E-02  0.1312668E+00
        -11   -1    0    0    0    0  0.00000000000E+00  0.00000000000E+00  0.45593999997E+02  0.45594000000E+02  0.51100000000E-03 0.  1.
         11   -1    0    0    0    0 -0.00000000000E+00 -0.00000000000E+00 -0.45593999997E+02  0.45594000000E+02  0.51100000000E-03 0. -1.
    9900012    2    1    2    0    0  0.26882508120E+01 -0.11342670288E+01 -0.43302541788E+02  0.47787269829E+02  0.19999994457E+02 0.  0.
        -12    1    1    2    0    0 -0.26882508120E+01  0.11342670288E+01  0.43302541788E+02  0.43400730171E+02  0.00000000000E+00 0.  1.
         11    1    3    3    0    0 -0.11666099219E+01  0.31980585409E+01 -0.33171555844E+02  0.33345774462E+02  0.51100000000E-03 0. -1.
        -11    1    3    3    0    0 -0.17786730423E+01 -0.20169627131E+01 -0.71927688544E+01  0.76790455416E+01  0.51100000000E-03 0.  1.
        -12    1    3    3    0    0  0.56335337762E+01 -0.23153628565E+01 -0.29382170896E+01  0.67624498246E+01  0.00000000000E+00 0.  1.
</event>
<event>
 7    1  0.1542786E-009  0.4778727E+02  0.7816164E-02  0.1312668E+00
        -11   -1    0    0    0    0  0.00000000000E+00  0.00000000000E+00  0.45593999997E+02  0.45594000000E+02  0.51100000000E-03 0.  1.
         11   -1    0    0    0    0 -0.00000000000E+00 -0.00000000000E+00 -0.45593999997E+02  0.45594000000E+02  0.51100000000E-03 0. -1.
    9900012    2    1    2    0    0  0.28455701237E+02 -0.21785402539E+02 -0.24480454363E+02  0.47787270254E+02  0.19999996396E+02 0.  0.
        -12    1    1    2    0    0 -0.28455701237E+02  0.21785402539E+02  0.24480454363E+02  0.43400729746E+02  0.00000000000E+00 0.  1.
         11    1    3    3    0    0  0.73955288892E+00 -0.35892373334E+01 -0.69081150701E+01  0.78199499483E+01  0.51100000000E-03 0. -1.
        -11    1    3    3    0    0 -0.82354841647E+00 -0.20895575017E+01  0.81623331843E+00  0.23897112040E+01  0.51100000000E-03 0.  1.
         12    1    3    3    0    0  0.28539696765E+02 -0.16106607703E+02 -0.18388572611E+02  0.37577609102E+02  0.00000000000E+00 0. -1.
</event>
<event>
 7    1  0.1542786E-009  0.4778727E+02  0.7816164E-02  0.1312668E+00
        -11   -1    0    0    0    0  0.00000000000E+00  0.00000000000E+00  0.45593999997E+02  0.45594000000E+02  0.51100000000E-03 0.  1.
         11   -1    0    0    0    0 -0.00000000000E+00 -0.00000000000E+00 -0.45593999997E+02  0.45594000000E+02  0.51100000000E-03 0. -1.
    9900012    2    1    2    0    0  0.44493463353E+01 -0.27291627685E+02 -0.33451358793E+02  0.47787273858E+02  0.20000012829E+02 0.  0.
        -12    1    1    2    0    0 -0.44493463353E+01  0.27291627685E+02  0.33451358793E+02  0.43400726142E+02  0.00000000000E+00 0.  1.
         11    1    3    3    0    0 -0.40569491400E+01 -0.14065039094E+02 -0.16507241653E+02  0.22062936983E+02  0.51100000000E-03 0. -1.
        -11    1    3    3    0    0  0.54251863942E+01 -0.13545856942E+02 -0.88697030967E+01  0.17076138937E+02  0.51100000000E-03 0.  1.
         12    1    3    3    0    0  0.30811090812E+01  0.31926835041E+00 -0.80744140434E+01  0.86481979391E+01  0.00000000000E+00 0. -1.
</event>
<event>
 7    1  0.1542786E-009  0.4778727E+02  0.7816164E-02  0.1312668E+00
        -11   -1    0    0    0    0  0.00000000000E+00  0.00000000000E+00  0.45593999997E+02  0.45594000000E+02  0.51100000000E-03 0. -1.
         11   -1    0    0    0    0 -0.00000000000E+00 -0.00000000000E+00 -0.45593999997E+02  0.45594000000E+02  0.51100000000E-03 0.  1.
    9900012    2    1    2    0    0 -0.10114191894E+02 -0.17498265610E+02  0.38407515003E+02  0.47787269756E+02  0.19999994127E+02 0.  0.
        -12    1    1    2    0    0  0.10114191894E+02  0.17498265610E+02 -0.38407515003E+02  0.43400730244E+02  0.00000000000E+00 0.  1.
         11    1    3    3    0    0 -0.30114799286E+01 -0.10124855183E+02  0.31199800851E+02  0.32939479007E+02  0.51100000000E-03 0. -1.
        -11    1    3    3    0    0 -0.77884931047E+01 -0.37855683398E+01  0.70919483857E+01  0.11193162407E+02  0.51100000000E-03 0.  1.
        -12    1    3    3    0    0  0.68578113957E+00 -0.35878420869E+01  0.11576576600E+00  0.36546283428E+01  0.00000000000E+00 0.  1.
</event>
<event>
 7    1  0.1542786E-009  0.4778727E+02  0.7816164E-02  0.1312668E+00
        -11   -1    0    0    0    0  0.00000000000E+00  0.00000000000E+00  0.45593999997E+02  0.45594000000E+02  0.51100000000E-03 0. -1.
         11   -1    0    0    0    0 -0.00000000000E+00 -0.00000000000E+00 -0.45593999997E+02  0.45594000000E+02  0.51100000000E-03 0.  1.
    9900012    2    1    2    0    0  0.36513905392E+02  0.14018806379E+02  0.18810399911E+02  0.47787270005E+02  0.19999995263E+02 0.  0.
        -12    1    1    2    0    0 -0.36513905392E+02 -0.14018806379E+02 -0.18810399911E+02  0.43400729995E+02  0.00000000000E+00 0.  1.
         11    1    3    3    0    0  0.39818192921E+01  0.39962426639E+01 -0.88339573271E+00  0.57100988245E+01  0.51100000000E-03 0.  1.
        -11    1    3    3    0    0  0.30309761639E+02  0.12086171527E+02  0.20968963114E+02  0.38787299559E+02  0.51100000000E-03 0. -1.
         12    1    3    3    0    0  0.22223244608E+01 -0.20636078120E+01 -0.12751674698E+01  0.32898716216E+01  0.00000000000E+00 0. -1.
</event>
<event>
 7    1  0.1542786E-009  0.4778727E+02  0.7816164E-02  0.1312668E+00
        -11   -1    0    0    0    0  0.00000000000E+00  0.00000000000E+00  0.45593999997E+02  0.45594000000E+02  0.51100000000E-03 0.  1.
         11   -1    0    0    0    0 -0.00000000000E+00 -0.00000000000E+00 -0.45593999997E+02  0.45594000000E+02  0.51100000000E-03 0. -1.
    9900012    2    1    2    0    0  0.16100723924E+02 -0.27018083090E+02 -0.29906743707E+02  0.47787269086E+02  0.19999991072E+02 0.  0.
        -12    1    1    2    0    0 -0.16100723924E+02  0.27018083090E+02  0.29906743707E+02  0.43400730914E+02  0.00000000000E+00 0.  1.
         11    1    3    3    0    0  0.18860822049E+02 -0.27111655325E+02 -0.23741666418E+02  0.40674797939E+02  0.51100000000E-03 0. -1.
        -11    1    3    3    0    0 -0.35729939584E+00  0.91359248539E+00 -0.21311380121E+01  0.23460740771E+01  0.51100000000E-03 0.  1.
         12    1    3    3    0    0 -0.24027987289E+01 -0.82002024969E+00 -0.40339392768E+01  0.47663970702E+01  0.00000000000E+00 0. -1.
</event>
<event>
 7    1  0.1542786E-009  0.4778727E+02  0.7816164E-02  0.1312668E+00
        -11   -1    0    0    0    0  0.00000000000E+00  0.00000000000E+00  0.45593999997E+02  0.45594000000E+02  0.51100000000E-03 0. -1.
         11   -1    0    0    0    0 -0.00000000000E+00 -0.00000000000E+00 -0.45593999997E+02  0.45594000000E+02  0.51100000000E-03 0.  1.
    9900012    2    1    2    0    0 -0.25178127362E+02  0.34809878211E+02  0.61609681530E+01  0.47787271353E+02  0.20000001406E+02 0.  0.
        -12    1    1    2    0    0  0.25178127362E+02 -0.34809878211E+02 -0.61609681530E+01  0.43400728647E+02  0.00000000000E+00 0.  1.
         11    1    3    3    0    0 -0.21005712948E+02  0.19917095416E+02 -0.14695424147E+01  0.28984309919E+02  0.51100000000E-03 0. -1.
        -11    1    3    3    0    0 -0.40861491570E+01  0.55070497738E+01  0.63203640095E+01  0.93258358134E+01  0.51100000000E-03 0.  1.
        -12    1    3    3    0    0 -0.86265256928E-01  0.93857330205E+01  0.13101465582E+01  0.94771256207E+01  0.00000000000E+00 0.  1.
</event>
<event>
 7    1  0.1542786E-009  0.4778727E+02  0.7816164E-02  0.1312668E+00
        -11   -1    0    0    0    0  0.00000000000E+00  0.00000000000E+00  0.45593999997E+02  0.45594000000E+02  0.51100000000E-03 0.  1.
         11   -1    0    0    0    0 -0.00000000000E+00 -0.00000000000E+00 -0.45593999997E+02  0.45594000000E+02  0.51100000000E-03 0. -1.
    9900012    2    1    2    0    0  0.12336909482E+02 -0.30918556615E+02 -0.27847200746E+02  0.47787273415E+02  0.20000010809E+02 0.  0.
        -12    1    1    2    0    0 -0.12336909482E+02  0.30918556615E+02  0.27847200746E+02  0.43400726585E+02  0.00000000000E+00 0.  1.
         11    1    3    3    0    0  0.44652246905E+01 -0.11127769999E+02 -0.65982476548E+01  0.13685845574E+02  0.51100000000E-03 0. -1.
        -11    1    3    3    0    0 -0.24326259088E+01 -0.22578498540E+01 -0.10676952609E+02  0.11180915528E+02  0.51100000000E-03 0.  1.
        -12    1    3    3    0    0  0.10304310700E+02 -0.17532936761E+02 -0.10572000482E+02  0.22920512313E+02  0.00000000000E+00 0.  1.
</event>
<event>
 7    1  0.1542786E-009  0.4778727E+02  0.7816164E-02  0.1312668E+00
        -11   -1    0    0    0    0  0.00000000000E+00  0.00000000000E+00  0.45593999997E+02  0.45594000000E+02  0.51100000000E-03 0.  1.
         11   -1    0    0    0    0 -0.00000000000E+00 -0.00000000000E+00 -0.45593999997E+02  0.45594000000E+02  0.51100000000E-03 0. -1.
    9900012    2    1    2    0    0 -0.64593699559E+01  0.48628139913E+01 -0.42640978156E+02  0.47787269151E+02  0.19999991368E+02 0.  0.
        -12    1    1    2    0    0  0.64593699559E+01 -0.48628139913E+01  0.42640978156E+02  0.43400730849E+02  0.00000000000E+00 0.  1.
         11    1    3    3    0    0  0.64477696476E+00  0.49147545637E+01 -0.23142522486E+02  0.23667422696E+02  0.51100000000E-03 0. -1.
        -11    1    3    3    0    0 -0.23429438658E+01 -0.48462513227E+01 -0.15166989636E+02  0.16093884327E+02  0.51100000000E-03 0.  1.
         12    1    3    3    0    0 -0.47612030549E+01  0.47943107503E+01 -0.43314660330E+01  0.80259621290E+01  0.00000000000E+00 0. -1.
</event>
<event>
 7    1  0.1542786E-009  0.4778727E+02  0.7816164E-02  0.1312668E+00
        -11   -1    0    0    0    0  0.00000000000E+00  0.00000000000E+00  0.45593999997E+02  0.45594000000E+02  0.51100000000E-03 0. -1.
         11   -1    0    0    0    0 -0.00000000000E+00 -0.00000000000E+00 -0.45593999997E+02  0.45594000000E+02  0.51100000000E-03 0.  1.
    9900012    2    1    2    0    0 -0.50005133276E+01 -0.42530194293E+02 -0.70569479864E+01  0.47787273335E+02  0.20000010444E+02 0.  0.
        -12    1    1    2    0    0  0.50005133276E+01  0.42530194293E+02  0.70569479864E+01  0.43400726665E+02  0.00000000000E+00 0.  1.
         11    1    3    3    0    0 -0.25722640209E+01 -0.34524752566E+02  0.32604101653E+00  0.34621978351E+02  0.51100000000E-03 0. -1.
        -11    1    3    3    0    0 -0.18194830312E+01  0.56223585990E+00 -0.10511565018E+00  0.19072695730E+01  0.51100000000E-03 0.  1.
         12    1    3    3    0    0 -0.60876627552E+00 -0.85676775875E+01 -0.72778733528E+01  0.11258025411E+02  0.00000000000E+00 0. -1.
</event>
<event>
 7    1  0.1542786E-009  0.4778727E+02  0.7816164E-02  0.1312668E+00
        -11   -1    0    0    0    0  0.00000000000E+00  0.00000000000E+00  0.45593999997E+02  0.45594000000E+02  0.51100000000E-03 0.  1.
         11   -1    0    0    0    0 -0.00000000000E+00 -0.00000000000E+00 -0.45593999997E+02  0.45594000000E+02  0.51100000000E-03 0. -1.
    9900012    2    1    2    0    0 -0.31791514516E+02 -0.18535142189E+02 -0.23008075457E+02  0.47787269275E+02  0.19999991933E+02 0.  0.
        -12    1    1    2    0    0  0.31791514516E+02  0.18535142189E+02  0.23008075457E+02  0.43400730725E+02  0.00000000000E+00 0.  1.
         11    1    3    3    0    0 -0.23147040664E+01 -0.74064211086E+01 -0.31933717600E+01  0.83910995711E+01  0.51100000000E-03 0. -1.
        -11    1    3    3    0    0 -0.12723848475E+02 -0.12243357559E+01 -0.18598550375E+01  0.12917212512E+02  0.51100000000E-03 0.  1.
         12    1    3    3    0    0 -0.16752961974E+02 -0.99043853243E+01 -0.17954848660E+02  0.26478957192E+02  0.00000000000E+00 0. -1.
</event>
<event>
 7    1  0.1542786E-009  0.4778727E+02  0.7816164E-02  0.1312668E+00
        -11   -1    0    0    0    0  0.00000000000E+00  0.00000000000E+00  0.45593999997E+02  0.45594000000E+02  0.51100000000E-03 0. -1.
         11   -1    0    0    0    0 -0.00000000000E+00 -0.00000000000E+00 -0.45593999997E+02  0.45594000000E+02  0.51100000000E-03 0.  1.
    9900012    2    1    2    0    0  0.13135822117E+02 -0.96160712315E+01  0.40231890840E+02  0.47787266260E+02  0.19999978187E+02 0.  0.
        -12    1    1    2    0    0 -0.13135822117E+02  0.96160712315E+01 -0.40231890840E+02  0.43400733740E+02  0.00000000000E+00 0.  1.
         11    1    3    3    0    0  0.64252585099E+01 -0.54699155826E+01  0.25845079891E+01  0.88251688486E+01  0.51100000000E-03 0. -1.
        -11    1    3    3    0    0 -0.62206667815E+00  0.49538364614E+00  0.88464388432E+01  0.88821085546E+01  0.51100000000E-03 0.  1.
         12    1    3    3    0    0  0.73326302854E+01 -0.46415392951E+01  0.28800944007E+02  0.30079988857E+02  0.00000000000E+00 0. -1.
</event>
<event>
 7    1  0.1542786E-009  0.4778727E+02  0.7816164E-02  0.1312668E+00
        -11   -1    0    0    0    0  0.00000000000E+00  0.00000000000E+00  0.45593999997E+02  0.45594000000E+02  0.51100000000E-03 0. -1.
         11   -1    0    0    0    0 -0.00000000000E+00 -0.00000000000E+00 -0.45593999997E+02  0.45594000000E+02  0.51100000000E-03 0.  1.
    9900012    2    1    2    0    0  0.37609626110E+02  0.16724750904E+02  0.13763055549E+02  0.47787274580E+02  0.20000016119E+02 0.  0.
        -12    1    1    2    0    0 -0.37609626110E+02 -0.16724750904E+02 -0.13763055549E+02  0.43400725420E+02  0.00000000000E+00 0.  1.
         11    1    3    3    0    0  0.21713150678E+02  0.17958171417E+02  0.63990446445E+01  0.28894715878E+02  0.51100000000E-03 0. -1.
        -11    1    3    3    0    0  0.38501388063E+00  0.66436897505E+00 -0.92578985202E+00  0.12027921410E+01  0.51100000000E-03 0.  1.
         12    1    3    3    0    0  0.15511461551E+02 -0.18977894883E+01  0.82898007569E+01  0.17689766561E+02  0.00000000000E+00 0. -1.
</event>
<event>
 7    1  0.1542786E-009  0.4778728E+02  0.7816164E-02  0.1312668E+00
        -11   -1    0    0    0    0  0.00000000000E+00  0.00000000000E+00  0.45593999997E+02  0.45594000000E+02  0.51100000000E-03 0.  1.
         11   -1    0    0    0    0 -0.00000000000E+00 -0.00000000000E+00 -0.45593999997E+02  0.45594000000E+02  0.51100000000E-03 0. -1.
    9900012    2    1    2    0    0  0.37961718143E+02  0.20949645816E+02 -0.19084969117E+01  0.47787284975E+02  0.20000063516E+02 0.  0.
        -12    1    1    2    0    0 -0.37961718143E+02 -0.20949645816E+02  0.19084969117E+01  0.43400715025E+02  0.00000000000E+00 0.  1.
         11    1    3    3    0    0  0.69671982709E+01  0.77546644013E+01  0.28778199506E+00  0.10428781830E+02  0.51100000000E-03 0. -1.
        -11    1    3    3    0    0 -0.16302785175E+01  0.22984960372E+01  0.47844110143E+00  0.28582858895E+01  0.51100000000E-03 0.  1.
        -12    1    3    3    0    0  0.32624798390E+02  0.10896485377E+02 -0.26747200082E+01  0.34500217256E+02  0.00000000000E+00 0.  1.
</event>
<event>
 7    1  0.1542786E-009  0.4778726E+02  0.7816164E-02  0.1312668E+00
        -11   -1    0    0    0    0  0.00000000000E+00  0.00000000000E+00  0.45593999997E+02  0.45594000000E+02  0.51100000000E-03 0. -1.
         11   -1    0    0    0    0 -0.00000000000E+00 -0.00000000000E+00 -0.45593999997E+02  0.45594000000E+02  0.51100000000E-03 0.  1.
    9900012    2    1    2    0    0 -0.16279844634E+02  0.40187271557E+02  0.18904305419E+01  0.47787264244E+02  0.19999968996E+02 0.  0.
        -12    1    1    2    0    0  0.16279844634E+02 -0.40187271557E+02 -0.18904305419E+01  0.43400735756E+02  0.00000000000E+00 0.  1.
         11    1    3    3    0    0 -0.78970242105E+01  0.14150258992E+02  0.26849119846E+01  0.16425637691E+02  0.51100000000E-03 0. -1.
        -11    1    3    3    0    0 -0.68501028985E+00  0.20678485931E+02 -0.46748392877E+01  0.21211391800E+02  0.51100000000E-03 0.  1.
        -12    1    3    3    0    0 -0.76978101332E+01  0.53585266341E+01  0.38803578450E+01  0.10150234753E+02  0.00000000000E+00 0.  1.
</event>
<event>
 7    1  0.1542786E-009  0.4778727E+02  0.7816164E-02  0.1312668E+00
        -11   -1    0    0    0    0  0.00000000000E+00  0.00000000000E+00  0.45593999997E+02  0.45594000000E+02  0.51100000000E-03 0. -1.
         11   -1    0    0    0    0 -0.00000000000E+00 -0.00000000000E+00 -0.45593999997E+02  0.45594000000E+02  0.51100000000E-03 0.  1.
    9900012    2    1    2    0    0 -0.31067789265E+02  0.43129602375E+01  0.29996901503E+02  0.47787271255E+02  0.20000000960E+02 0.  0.
        -12    1    1    2    0    0  0.31067789265E+02 -0.43129602375E+01 -0.29996901503E+02  0.43400728745E+02  0.00000000000E+00 0.  1.
         11    1    3    3    0    0 -0.21498346423E+02  0.10023479134E+02  0.15307107510E+02  0.28230419293E+02  0.51100000000E-03 0.  1.
        -11    1    3    3    0    0 -0.88996554978E+01 -0.20844693676E+01  0.11428259904E+02  0.14634001682E+02  0.51100000000E-03 0. -1.
        -12    1    3    3    0    0 -0.66978734435E+00 -0.36260495290E+01  0.32615340892E+01  0.49228502809E+01  0.00000000000E+00 0.  1.
</event>
<event>
 7    1  0.1542786E-009  0.4778727E+02  0.7816164E-02  0.1312668E+00
        -11   -1    0    0    0    0  0.00000000000E+00  0.00000000000E+00  0.45593999997E+02  0.45594000000E+02  0.51100000000E-03 0.  1.
         11   -1    0    0    0    0 -0.00000000000E+00 -0.00000000000E+00 -0.45593999997E+02  0.45594000000E+02  0.51100000000E-03 0. -1.
    9900012    2    1    2    0    0 -0.98552650494E+01  0.14717182128E+02 -0.39621983079E+02  0.47787271411E+02  0.20000001670E+02 0.  0.
        -12    1    1    2    0    0  0.98552650494E+01 -0.14717182128E+02  0.39621983079E+02  0.43400728589E+02  0.00000000000E+00 0.  1.
         11    1    3    3    0    0 -0.82771043059E+01  0.81172027152E+01 -0.19842941844E+02  0.22981335403E+02  0.51100000000E-03 0. -1.
        -11    1    3    3    0    0  0.20188976988E+01  0.34572308680E+00  0.13672563917E+01  0.24626941899E+01  0.51100000000E-03 0.  1.
        -12    1    3    3    0    0 -0.35970584424E+01  0.62542563264E+01 -0.21146297627E+02  0.22343241818E+02  0.00000000000E+00 0.  1.
</event>
<event>
 7    1  0.1542786E-009  0.4778727E+02  0.7816164E-02  0.1312668E+00
        -11   -1    0    0    0    0  0.00000000000E+00  0.00000000000E+00  0.45593999997E+02  0.45594000000E+02  0.51100000000E-03 0.  1.
         11   -1    0    0    0    0 -0.00000000000E+00 -0.00000000000E+00 -0.45593999997E+02  0.45594000000E+02  0.51100000000E-03 0. -1.
    9900012    2    1    2    0    0  0.22513711179E+01  0.19526113762E+02 -0.38694771883E+02  0.47787272338E+02  0.20000005897E+02 0.  0.
        -12    1    1    2    0    0 -0.22513711179E+01 -0.19526113762E+02  0.38694771883E+02  0.43400727662E+02  0.00000000000E+00 0.  1.
         11    1    3    3    0    0 -0.16045408458E+01  0.91791737776E+01 -0.12491073144E+02  0.15583924125E+02  0.51100000000E-03 0. -1.
        -11    1    3    3    0    0 -0.15316860211E+01  0.12734743164E+02 -0.17950771600E+02  0.22062410267E+02  0.51100000000E-03 0.  1.
        -12    1    3    3    0    0  0.53875979849E+01 -0.23878031790E+01 -0.82529271385E+01  0.10140937946E+02  0.00000000000E+00 0.  1.
</event>
<event>
 7    1  0.1542786E-009  0.4778722E+02  0.7816164E-02  0.1312668E+00
        -11   -1    0    0    0    0  0.00000000000E+00  0.00000000000E+00  0.45593999997E+02  0.45594000000E+02  0.51100000000E-03 0.  1.
         11   -1    0    0    0    0 -0.00000000000E+00 -0.00000000000E+00 -0.45593999997E+02  0.45594000000E+02  0.51100000000E-03 0. -1.
    9900012    2    1    2    0    0 -0.88175327398E+01  0.22329936736E+02 -0.36155950176E+02  0.47787220152E+02  0.19999767960E+02 0.  0.
        -12    1    1    2    0    0  0.88175327398E+01 -0.22329936736E+02  0.36155950176E+02  0.43400779848E+02  0.00000000000E+00 0.  1.
         11    1    3    3    0    0 -0.52738221621E+01  0.50463504775E+01 -0.19587516847E+02  0.20903341117E+02  0.51100000000E-03 0. -1.
        -11    1    3    3    0    0  0.33653936125E+01  0.13269628533E+01 -0.16631999428E+01  0.39815749261E+01  0.51100000000E-03 0.  1.
         12    1    3    3    0    0 -0.69091041903E+01  0.15956623405E+02 -0.14905233386E+02  0.22902304109E+02  0.00000000000E+00 0. -1.
</event>
<event>
 7    1  0.1542786E-009  0.4778727E+02  0.7816164E-02  0.1312668E+00
        -11   -1    0    0    0    0  0.00000000000E+00  0.00000000000E+00  0.45593999997E+02  0.45594000000E+02  0.51100000000E-03 0. -1.
         11   -1    0    0    0    0 -0.00000000000E+00 -0.00000000000E+00 -0.45593999997E+02  0.45594000000E+02  0.51100000000E-03 0.  1.
    9900012    2    1    2    0    0  0.26920355897E+02  0.23118001834E+02  0.24989512786E+02  0.47787270516E+02  0.19999997590E+02 0.  0.
        -12    1    1    2    0    0 -0.26920355897E+02 -0.23118001834E+02 -0.24989512786E+02  0.43400729484E+02  0.00000000000E+00 0.  1.
         11    1    3    3    0    0  0.39686990336E+00 -0.12029603941E+00 -0.20940511657E+01  0.21347195139E+01  0.51100000000E-03 0. -1.
        -11    1    3    3    0    0  0.13519023715E+01  0.59249119031E+00 -0.89780123255E+00  0.17276380254E+01  0.51100000000E-03 0.  1.
         12    1    3    3    0    0  0.25171583622E+02  0.22645806684E+02  0.27981365185E+02  0.43924912977E+02  0.00000000000E+00 0. -1.
</event>
<event>
 7    1  0.1542786E-009  0.4778727E+02  0.7816164E-02  0.1312668E+00
        -11   -1    0    0    0    0  0.00000000000E+00  0.00000000000E+00  0.45593999997E+02  0.45594000000E+02  0.51100000000E-03 0.  1.
         11   -1    0    0    0    0 -0.00000000000E+00 -0.00000000000E+00 -0.45593999997E+02  0.45594000000E+02  0.51100000000E-03 0. -1.
    9900012    2    1    2    0    0 -0.14494460926E+02  0.38136293080E+02 -0.14803944170E+02  0.47787274080E+02  0.20000013842E+02 0.  0.
        -12    1    1    2    0    0  0.14494460926E+02 -0.38136293080E+02  0.14803944170E+02  0.43400725920E+02  0.00000000000E+00 0.  1.
         11    1    3    3    0    0 -0.12206497840E+01 -0.11675264629E+01 -0.71580683237E+00  0.18345254479E+01  0.51100000000E-03 0.  1.
        -11    1    3    3    0    0 -0.69331519237E+01  0.24351540850E+02 -0.15439598760E+02  0.29655477530E+02  0.51100000000E-03 0. -1.
         12    1    3    3    0    0 -0.63406592181E+01  0.14952278693E+02  0.13514614231E+01  0.16297271103E+02  0.00000000000E+00 0. -1.
</event>
<event>
 7    1  0.1542786E-009  0.4778728E+02  0.7816164E-02  0.1312668E+00
        -11   -1    0    0    0    0  0.00000000000E+00  0.00000000000E+00  0.45593999997E+02  0.45594000000E+02  0.51100000000E-03 0.  1.
         11   -1    0    0    0    0 -0.00000000000E+00 -0.00000000000E+00 -0.45593999997E+02  0.45594000000E+02  0.51100000000E-03 0. -1.
    9900012    2    1    2    0    0  0.10029012407E+01  0.26427786060E+02 -0.34412044071E+02  0.47787280373E+02  0.20000042535E+02 0.  0.
        -12    1    1    2    0    0 -0.10029012407E+01 -0.26427786060E+02  0.34412044071E+02  0.43400719627E+02  0.00000000000E+00 0.  1.
         11    1    3    3    0    0 -0.10298843827E+00 -0.30556392654E+00 -0.64148815000E+01  0.64229806828E+01  0.51100000000E-03 0. -1.
        -11    1    3    3    0    0  0.52646076657E+00 -0.72937202592E+00  0.10521878807E+01  0.13842846847E+01  0.51100000000E-03 0.  1.
         12    1    3    3    0    0  0.57942891236E+00  0.27462722013E+02 -0.29049350452E+02  0.39980015006E+02  0.00000000000E+00 0. -1.
</event>
<event>
 7    1  0.1542786E-009  0.4778727E+02  0.7816164E-02  0.1312668E+00
        -11   -1    0    0    0    0  0.00000000000E+00  0.00000000000E+00  0.45593999997E+02  0.45594000000E+02  0.51100000000E-03 0.  1.
         11   -1    0    0    0    0 -0.00000000000E+00 -0.00000000000E+00 -0.45593999997E+02  0.45594000000E+02  0.51100000000E-03 0. -1.
    9900012    2    1    2    0    0  0.88418707225E+01 -0.20785525123E+02 -0.37059497677E+02  0.47787273041E+02  0.20000009102E+02 0.  0.
        -12    1    1    2    0    0 -0.88418707225E+01  0.20785525123E+02  0.37059497677E+02  0.43400726959E+02  0.00000000000E+00 0.  1.
         11    1    3    3    0    0 -0.20332126212E+01 -0.41258651665E+01 -0.97396121505E+01  0.10771107744E+02  0.51100000000E-03 0. -1.
        -11    1    3    3    0    0 -0.30815224214E+01 -0.57547669429E+00 -0.13018898538E+01  0.33943882088E+01  0.51100000000E-03 0.  1.
         12    1    3    3    0    0  0.13956605765E+02 -0.16084183263E+02 -0.26017995673E+02  0.33621777088E+02  0.00000000000E+00 0. -1.
</event>
<event>
 7    1  0.1542786E-009  0.4778727E+02  0.7816164E-02  0.1312668E+00
        -11   -1    0    0    0    0  0.00000000000E+00  0.00000000000E+00  0.45593999997E+02  0.45594000000E+02  0.51100000000E-03 0.  1.
         11   -1    0    0    0    0 -0.00000000000E+00 -0.00000000000E+00 -0.45593999997E+02  0.45594000000E+02  0.51100000000E-03 0. -1.
    9900012    2    1    2    0    0 -0.19488309051E+02 -0.28884064768E+02 -0.25875468776E+02  0.47787271071E+02  0.20000000121E+02 0.  0.
        -12    1    1    2    0    0  0.19488309051E+02  0.28884064768E+02  0.25875468776E+02  0.43400728929E+02  0.00000000000E+00 0.  1.
         11    1    3    3    0    0 -0.92335658030E+01 -0.15251595306E+02 -0.81753950471E+01  0.19613948640E+02  0.51100000000E-03 0. -1.
        -11    1    3    3    0    0 -0.80962755785E+01 -0.13304085502E+02 -0.19768168302E+02  0.25166025660E+02  0.51100000000E-03 0.  1.
        -12    1    3    3    0    0 -0.21584676698E+01 -0.32838396008E+00  0.20680945723E+01  0.30072967707E+01  0.00000000000E+00 0.  1.
</event>
<event>
 7    1  0.1542786E-009  0.4778727E+02  0.7816164E-02  0.1312668E+00
        -11   -1    0    0    0    0  0.00000000000E+00  0.00000000000E+00  0.45593999997E+02  0.45594000000E+02  0.51100000000E-03 0.  1.
         11   -1    0    0    0    0 -0.00000000000E+00 -0.00000000000E+00 -0.45593999997E+02  0.45594000000E+02  0.51100000000E-03 0. -1.
    9900012    2    1    2    0    0 -0.17430440222E+02 -0.21316549116E+02 -0.33547098523E+02  0.47787270376E+02  0.19999996953E+02 0.  0.
        -12    1    1    2    0    0  0.17430440222E+02  0.21316549116E+02  0.33547098523E+02  0.43400729624E+02  0.00000000000E+00 0.  1.
         11    1    3    3    0    0 -0.41014210372E+00 -0.92433369799E+01 -0.21361091779E+02  0.23278825944E+02  0.51100000000E-03 0. -1.
        -11    1    3    3    0    0 -0.71055546036E+01 -0.47840333212E+01 -0.27345583783E+01  0.89918680389E+01  0.51100000000E-03 0.  1.
         12    1    3    3    0    0 -0.99147435146E+01 -0.72891788149E+01 -0.94514483663E+01  0.15516576394E+02  0.00000000000E+00 0. -1.
</event>
<event>
 7    1  0.1542786E-009  0.4778727E+02  0.7816164E-02  0.1312668E+00
        -11   -1    0    0    0    0  0.00000000000E+00  0.00000000000E+00  0.45593999997E+02  0.45594000000E+02  0.51100000000E-03 0.  1.
         11   -1    0    0    0    0 -0.00000000000E+00 -0.00000000000E+00 -0.45593999997E+02  0.45594000000E+02  0.51100000000E-03 0. -1.
    9900012    2    1    2    0    0 -0.41124393031E+02  0.13058734705E+02 -0.46772988444E+01  0.47787269837E+02  0.19999994493E+02 0.  0.
        -12    1    1    2    0    0  0.41124393031E+02 -0.13058734705E+02  0.46772988444E+01  0.43400730163E+02  0.00000000000E+00 0.  1.
         11    1    3    3    0    0 -0.63792620423E+01 -0.64137250786E+00  0.44351328480E+01  0.77959442365E+01  0.51100000000E-03 0. -1.
        -11    1    3    3    0    0 -0.37032563441E+00  0.25742353011E+01  0.39576601248E+00  0.26306766162E+01  0.51100000000E-03 0.  1.
         12    1    3    3    0    0 -0.34374805354E+02  0.11125871912E+02 -0.95081977048E+01  0.37360648984E+02  0.00000000000E+00 0. -1.
</event>
<event>
 7    1  0.1542786E-009  0.4778727E+02  0.7816164E-02  0.1312668E+00
        -11   -1    0    0    0    0  0.00000000000E+00  0.00000000000E+00  0.45593999997E+02  0.45594000000E+02  0.51100000000E-03 0.  1.
         11   -1    0    0    0    0 -0.00000000000E+00 -0.00000000000E+00 -0.45593999997E+02  0.45594000000E+02  0.51100000000E-03 0. -1.
    9900012    2    1    2    0    0 -0.11773181210E+02  0.18710949063E+02 -0.37348575316E+02  0.47787268568E+02  0.19999988710E+02 0.  0.
        -12    1    1    2    0    0  0.11773181210E+02 -0.18710949063E+02  0.37348575316E+02  0.43400731432E+02  0.00000000000E+00 0.  1.
         11    1    3    3    0    0 -0.77266117494E+00  0.50266130338E+01 -0.13757937264E+01  0.52684582680E+01  0.51100000000E-03 0. -1.
        -11    1    3    3    0    0  0.34677684206E+01  0.19332536125E+01 -0.75341106850E+01  0.85162028759E+01  0.51100000000E-03 0.  1.
         12    1    3    3    0    0 -0.14468288456E+02  0.11751082417E+02 -0.28438670905E+02  0.34002607424E+02  0.00000000000E+00 0. -1.
</event>
<event>
 7    1  0.1542786E-009  0.4778727E+02  0.7816164E-02  0.1312668E+00
        -11   -1    0    0    0    0  0.00000000000E+00  0.00000000000E+00  0.45593999997E+02  0.45594000000E+02  0.51100000000E-03 0.  1.
         11   -1    0    0    0    0 -0.00000000000E+00 -0.00000000000E+00 -0.45593999997E+02  0.45594000000E+02  0.51100000000E-03 0. -1.
    9900012    2    1    2    0    0 -0.29684280803E+02  0.12584088495E+02 -0.29053532926E+02  0.47787267454E+02  0.19999983630E+02 0.  0.
        -12    1    1    2    0    0  0.29684280803E+02 -0.12584088495E+02  0.29053532926E+02  0.43400732546E+02  0.00000000000E+00 0.  1.
         11    1    3    3    0    0 -0.13913057778E+02  0.76927383328E+01 -0.12112632682E+02  0.19986677327E+02  0.51100000000E-03 0. -1.
        -11    1    3    3    0    0  0.27095541021E+01  0.47075728164E+00 -0.38267404773E+01  0.47124557072E+01  0.51100000000E-03 0.  1.
         12    1    3    3    0    0 -0.18480777127E+02  0.44205928807E+01 -0.13114159767E+02  0.23088134420E+02  0.00000000000E+00 0. -1.
</event>
<event>
 7    1  0.1542786E-009  0.4778727E+02  0.7816164E-02  0.1312668E+00
        -11   -1    0    0    0    0  0.00000000000E+00  0.00000000000E+00  0.45593999997E+02  0.45594000000E+02  0.51100000000E-03 0.  1.
         11   -1    0    0    0    0 -0.00000000000E+00 -0.00000000000E+00 -0.45593999997E+02  0.45594000000E+02  0.51100000000E-03 0. -1.
    9900012    2    1    2    0    0  0.29626288408E+02 -0.12922418864E+02 -0.28964069949E+02  0.47787271641E+02  0.20000002720E+02 0.  0.
        -12    1    1    2    0    0 -0.29626288408E+02  0.12922418864E+02  0.28964069949E+02  0.43400728359E+02  0.00000000000E+00 0.  1.
         11    1    3    3    0    0  0.11913905810E+02 -0.15676570540E+01 -0.45862918488E+01  0.12862067231E+02  0.51100000000E-03 0. -1.
        -11    1    3    3    0    0 -0.22549204010E+01 -0.13733024600E+01 -0.19570763832E+01  0.32864530869E+01  0.51100000000E-03 0.  1.
        -12    1    3    3    0    0  0.19967302999E+02 -0.99814593498E+01 -0.22420701717E+02  0.31638751323E+02  0.00000000000E+00 0.  1.
</event>
<event>
 7    1  0.1542786E-009  0.4778726E+02  0.7816164E-02  0.1312668E+00
        -11   -1    0    0    0    0  0.00000000000E+00  0.00000000000E+00  0.45593999997E+02  0.45594000000E+02  0.51100000000E-03 0.  1.
         11   -1    0    0    0    0 -0.00000000000E+00 -0.00000000000E+00 -0.45593999997E+02  0.45594000000E+02  0.51100000000E-03 0. -1.
    9900012    2    1    2    0    0  0.25814845229E+02 -0.16921982171E+02 -0.30510073382E+02  0.47787259308E+02  0.19999946490E+02 0.  0.
        -12    1    1    2    0    0 -0.25814845229E+02  0.16921982171E+02  0.30510073382E+02  0.43400740692E+02  0.00000000000E+00 0.  1.
         11    1    3    3    0    0  0.24290875113E+02 -0.12535856672E+02 -0.14560684442E+02  0.30971080833E+02  0.51100000000E-03 0. -1.
        -11    1    3    3    0    0  0.19328740033E+01 -0.26109973667E+01 -0.75112354841E+01  0.81836402609E+01  0.51100000000E-03 0.  1.
        -12    1    3    3    0    0 -0.40890388760E+00 -0.17751281326E+01 -0.84381534560E+01  0.86325382144E+01  0.00000000000E+00 0.  1.
</event>
<event>
 7    1  0.1542786E-009  0.4778727E+02  0.7816164E-02  0.1312668E+00
        -11   -1    0    0    0    0  0.00000000000E+00  0.00000000000E+00  0.45593999997E+02  0.45594000000E+02  0.51100000000E-03 0. -1.
         11   -1    0    0    0    0 -0.00000000000E+00 -0.00000000000E+00 -0.45593999997E+02  0.45594000000E+02  0.51100000000E-03 0.  1.
    9900012    2    1    2    0    0  0.17006833844E+02 -0.62167325676E+01  0.39442907374E+02  0.47787273009E+02  0.20000008956E+02 0.  0.
        -12    1    1    2    0    0 -0.17006833844E+02  0.62167325676E+01 -0.39442907374E+02  0.43400726991E+02  0.00000000000E+00 0.  1.
         11    1    3    3    0    0  0.50082412001E+01  0.20499426924E+01  0.74888002460E+01  0.92394195893E+01  0.51100000000E-03 0. -1.
        -11    1    3    3    0    0  0.33246138292E+01 -0.99453191444E+01  0.25602392622E+02  0.27666675591E+02  0.51100000000E-03 0.  1.
        -12    1    3    3    0    0  0.86739788150E+01  0.16786438843E+01  0.63517145059E+01  0.10881177829E+02  0.00000000000E+00 0.  1.
</event>
<event>
 7    1  0.1542786E-009  0.4778727E+02  0.7816164E-02  0.1312668E+00
        -11   -1    0    0    0    0  0.00000000000E+00  0.00000000000E+00  0.45593999997E+02  0.45594000000E+02  0.51100000000E-03 0.  1.
         11   -1    0    0    0    0 -0.00000000000E+00 -0.00000000000E+00 -0.45593999997E+02  0.45594000000E+02  0.51100000000E-03 0. -1.
    9900012    2    1    2    0    0  0.57960786858E+01  0.38270996563E+02 -0.19630572896E+02  0.47787273067E+02  0.20000009223E+02 0.  0.
        -12    1    1    2    0    0 -0.57960786858E+01 -0.38270996563E+02  0.19630572896E+02  0.43400726933E+02  0.00000000000E+00 0.  1.
         11    1    3    3    0    0 -0.17864538947E+01  0.59330719965E+01  0.89615585301E+00  0.62606594227E+01  0.51100000000E-03 0. -1.
        -11    1    3    3    0    0  0.72476711156E+01  0.77788244804E+01 -0.10665338121E+02  0.15059491505E+02  0.51100000000E-03 0.  1.
         12    1    3    3    0    0  0.33486146487E+00  0.24559100086E+02 -0.98613906287E+01  0.26467122140E+02  0.00000000000E+00 0. -1.
</event>
<event>
 7    1  0.1542786E-009  0.4778730E+02  0.7816164E-02  0.1312668E+00
        -11   -1    0    0    0    0  0.00000000000E+00  0.00000000000E+00  0.45593999997E+02  0.45594000000E+02  0.51100000000E-03 0.  1.
         11   -1    0    0    0    0 -0.00000000000E+00 -0.00000000000E+00 -0.45593999997E+02  0.45594000000E+02  0.51100000000E-03 0. -1.
    9900012    2    1    2    0    0  0.42299571702E+02 -0.79991656135E+00 -0.96812676442E+01  0.47787302127E+02  0.20000141716E+02 0.  0.
        -12    1    1    2    0    0 -0.42299571702E+02  0.79991656135E+00  0.96812676442E+01  0.43400697873E+02  0.00000000000E+00 0.  1.
         11    1    3    3    0    0  0.21137384652E+02  0.53296365705E+01 -0.19572802052E+01  0.21886639805E+02  0.51100000000E-03 0. -1.
        -11    1    3    3    0    0  0.16508688512E+02 -0.49467739139E+01 -0.51817115617E+00  0.17241689887E+02  0.51100000000E-03 0.  1.
         12    1    3    3    0    0  0.46534985375E+01 -0.11827792180E+01 -0.72058162828E+01  0.86589724343E+01  0.00000000000E+00 0. -1.
</event>
<event>
 7    1  0.1542786E-009  0.4778728E+02  0.7816164E-02  0.1312668E+00
        -11   -1    0    0    0    0  0.00000000000E+00  0.00000000000E+00  0.45593999997E+02  0.45594000000E+02  0.51100000000E-03 0.  1.
         11   -1    0    0    0    0 -0.00000000000E+00 -0.00000000000E+00 -0.45593999997E+02  0.45594000000E+02  0.51100000000E-03 0. -1.
    9900012    2    1    2    0    0 -0.19099823054E+02 -0.29785581230E+02 -0.25132417292E+02  0.47787280088E+02  0.20000041235E+02 0.  0.
        -12    1    1    2    0    0  0.19099823054E+02  0.29785581230E+02  0.25132417292E+02  0.43400719912E+02  0.00000000000E+00 0.  1.
         11    1    3    3    0    0  0.14963481571E-01 -0.21867536064E+01  0.16028799135E+01  0.27113353756E+01  0.51100000000E-03 0. -1.
        -11    1    3    3    0    0 -0.12352157085E+02 -0.25190533867E+02 -0.16417404978E+02  0.32506460399E+02  0.51100000000E-03 0.  1.
        -12    1    3    3    0    0 -0.67626294505E+01 -0.24082937566E+01 -0.10317892228E+02  0.12569484314E+02  0.00000000000E+00 0.  1.
</event>
<event>
 7    1  0.1542786E-009  0.4778727E+02  0.7816164E-02  0.1312668E+00
        -11   -1    0    0    0    0  0.00000000000E+00  0.00000000000E+00  0.45593999997E+02  0.45594000000E+02  0.51100000000E-03 0. -1.
         11   -1    0    0    0    0 -0.00000000000E+00 -0.00000000000E+00 -0.45593999997E+02  0.45594000000E+02  0.51100000000E-03 0.  1.
    9900012    2    1    2    0    0 -0.31215387369E+02 -0.14618934579E+02  0.26372517720E+02  0.47787270194E+02  0.19999996121E+02 0.  0.
        -12    1    1    2    0    0  0.31215387369E+02  0.14618934579E+02 -0.26372517720E+02  0.43400729806E+02  0.00000000000E+00 0.  1.
         11    1    3    3    0    0 -0.81120715478E+01 -0.80868945430E+01  0.10323106581E+02  0.15419795650E+02  0.51100000000E-03 0. -1.
        -11    1    3    3    0    0 -0.15870336290E+02  0.27228280946E+01  0.11426307912E+02  0.19744413883E+02  0.51100000000E-03 0.  1.
         12    1    3    3    0    0 -0.72329795313E+01 -0.92548681301E+01  0.46231032267E+01  0.12623060661E+02  0.00000000000E+00 0. -1.
</event>
<event>
 7    1  0.1542786E-009  0.4778727E+02  0.7816164E-02  0.1312668E+00
        -11   -1    0    0    0    0  0.00000000000E+00  0.00000000000E+00  0.45593999997E+02  0.45594000000E+02  0.51100000000E-03 0.  1.
         11   -1    0    0    0    0 -0.00000000000E+00 -0.00000000000E+00 -0.45593999997E+02  0.45594000000E+02  0.51100000000E-03 0. -1.
    9900012    2    1    2    0    0 -0.32213850100E+02  0.59713123448E+00 -0.29078079329E+02  0.47787269575E+02  0.19999993298E+02 0.  0.
        -12    1    1    2    0    0  0.32213850100E+02 -0.59713123448E+00  0.29078079329E+02  0.43400730425E+02  0.00000000000E+00 0.  1.
         11    1    3    3    0    0 -0.13950500545E+02  0.36990533147E+01 -0.12358819418E+02  0.19001049406E+02  0.51100000000E-03 0. -1.
        -11    1    3    3    0    0 -0.76504072365E+01 -0.69368231373E+01 -0.13603688786E+02  0.17079478767E+02  0.51100000000E-03 0.  1.
         12    1    3    3    0    0 -0.10612942319E+02  0.38349010572E+01 -0.31155711252E+01  0.11706741401E+02  0.00000000000E+00 0. -1.
</event>
<event>
 7    1  0.1931061E-009  0.4778726E+02  0.7816164E-02  0.1312668E+00
        -11   -1    0    0    0    0  0.00000000000E+00  0.00000000000E+00  0.45593999997E+02  0.45594000000E+02  0.51100000000E-03 0. -1.
         11   -1    0    0    0    0 -0.00000000000E+00 -0.00000000000E+00 -0.45593999997E+02  0.45594000000E+02  0.51100000000E-03 0.  1.
    9900012    2    1    2    0    0 -0.11338263957E+01 -0.15704930676E+02  0.40443711289E+02  0.47787260459E+02  0.19999951737E+02 0.  0.
        -12    1    1    2    0    0  0.11338263957E+01  0.15704930676E+02 -0.40443711289E+02  0.43400739541E+02  0.00000000000E+00 0.  1.
         11    1    3    3    0    0  0.16542060075E+01 -0.32553395591E+01  0.22572032623E+02  0.22865482505E+02  0.51100000000E-03 0. -1.
        -11    1    3    3    0    0 -0.46884639616E+01 -0.14498944784E+00  0.31948242147E+01  0.56753518202E+01  0.51100000000E-03 0.  1.
        -12    1    3    3    0    0  0.19004315583E+01 -0.12304601669E+02  0.14676854451E+02  0.19246426134E+02  0.00000000000E+00 0.  1.
</event>
<event>
 7    1  0.2361700E-009  0.4778727E+02  0.7816164E-02  0.1312668E+00
        -11   -1    0    0    0    0  0.00000000000E+00  0.00000000000E+00  0.45593999997E+02  0.45594000000E+02  0.51100000000E-03 0.  1.
         11   -1    0    0    0    0 -0.00000000000E+00 -0.00000000000E+00 -0.45593999997E+02  0.45594000000E+02  0.51100000000E-03 0. -1.
    9900012    2    1    2    0    0 -0.37769200446E+02 -0.44892207541E-01 -0.21380105530E+02  0.47787269245E+02  0.19999991794E+02 0.  0.
        -12    1    1    2    0    0  0.37769200446E+02  0.44892207541E-01  0.21380105530E+02  0.43400730755E+02  0.00000000000E+00 0.  1.
         11    1    3    3    0    0 -0.24927863022E+02 -0.34296527541E+01 -0.98993915728E+01  0.27039948717E+02  0.51100000000E-03 0.  1.
        -11    1    3    3    0    0  0.80357934695E+00 -0.22884195124E+01 -0.23473507445E+01  0.33753013807E+01  0.51100000000E-03 0. -1.
         12    1    3    3    0    0 -0.13644916771E+02  0.56731800590E+01 -0.91333632123E+01  0.17372019147E+02  0.00000000000E+00 0. -1.
</event>
<event>
 7    1  0.1542786E-009  0.4778727E+02  0.7816164E-02  0.1312668E+00
        -11   -1    0    0    0    0  0.00000000000E+00  0.00000000000E+00  0.45593999997E+02  0.45594000000E+02  0.51100000000E-03 0. -1.
         11   -1    0    0    0    0 -0.00000000000E+00 -0.00000000000E+00 -0.45593999997E+02  0.45594000000E+02  0.51100000000E-03 0.  1.
    9900012    2    1    2    0    0  0.12215196700E+02  0.38348452761E+02  0.16242172959E+02  0.47787273716E+02  0.20000012179E+02 0.  0.
        -12    1    1    2    0    0 -0.12215196700E+02 -0.38348452761E+02 -0.16242172959E+02  0.43400726284E+02  0.00000000000E+00 0.  1.
         11    1    3    3    0    0  0.36148184174E+01  0.22020491777E+02  0.15302667968E+02  0.27058097078E+02  0.51100000000E-03 0. -1.
        -11    1    3    3    0    0  0.73890016827E+01  0.57938609777E+01  0.31379532283E+01  0.99001475554E+01  0.51100000000E-03 0.  1.
        -12    1    3    3    0    0  0.12113765995E+01  0.10534100007E+02 -0.21984482367E+01  0.10829029082E+02  0.00000000000E+00 0.  1.
</event>
<event>
 7    1  0.1542786E-009  0.4778727E+02  0.7816164E-02  0.1312668E+00
        -11   -1    0    0    0    0  0.00000000000E+00  0.00000000000E+00  0.45593999997E+02  0.45594000000E+02  0.51100000000E-03 0.  1.
         11   -1    0    0    0    0 -0.00000000000E+00 -0.00000000000E+00 -0.45593999997E+02  0.45594000000E+02  0.51100000000E-03 0. -1.
    9900012    2    1    2    0    0  0.21977028427E+02 -0.11239334277E+02 -0.35697494820E+02  0.47787267864E+02  0.19999985500E+02 0.  0.
        -12    1    1    2    0    0 -0.21977028427E+02  0.11239334277E+02  0.35697494820E+02  0.43400732136E+02  0.00000000000E+00 0.  1.
         11    1    3    3    0    0 -0.38513583854E+00  0.13233810146E+01 -0.45421199236E+01  0.47466325522E+01  0.51100000000E-03 0. -1.
        -11    1    3    3    0    0  0.54188914980E-01 -0.65540852014E+01 -0.59988980171E+01  0.88851419205E+01  0.51100000000E-03 0.  1.
         12    1    3    3    0    0  0.22307975351E+02 -0.60086300900E+01 -0.25156476880E+02  0.34155493391E+02  0.00000000000E+00 0. -1.
</event>
<event>
 7    1  0.1542786E-009  0.4778727E+02  0.7816164E-02  0.1312668E+00
        -11   -1    0    0    0    0  0.00000000000E+00  0.00000000000E+00  0.45593999997E+02  0.45594000000E+02  0.51100000000E-03 0. -1.
         11   -1    0    0    0    0 -0.00000000000E+00 -0.00000000000E+00 -0.45593999997E+02  0.45594000000E+02  0.51100000000E-03 0.  1.
    9900012    2    1    2    0    0  0.19421109032E+02 -0.18074973104E+02  0.34347330361E+02  0.47787271531E+02  0.20000002216E+02 0.  0.
        -12    1    1    2    0    0 -0.19421109032E+02  0.18074973104E+02 -0.34347330361E+02  0.43400728469E+02  0.00000000000E+00 0.  1.
         11    1    3    3    0    0  0.60604184921E+01 -0.45127148337E+01  0.13157341988E+02  0.15172637079E+02  0.51100000000E-03 0. -1.
        -11    1    3    3    0    0  0.11074009176E+02 -0.14204904793E+02  0.23291413935E+02  0.29443215903E+02  0.51100000000E-03 0.  1.
        -12    1    3    3    0    0  0.22866813641E+01  0.64264652216E+00 -0.21014255622E+01  0.31714185481E+01  0.00000000000E+00 0.  1.
</event>
<event>
 7    1  0.1542786E-009  0.4778728E+02  0.7816164E-02  0.1312668E+00
        -11   -1    0    0    0    0  0.00000000000E+00  0.00000000000E+00  0.45593999997E+02  0.45594000000E+02  0.51100000000E-03 0.  1.
         11   -1    0    0    0    0 -0.00000000000E+00 -0.00000000000E+00 -0.45593999997E+02  0.45594000000E+02  0.51100000000E-03 0. -1.
    9900012    2    1    2    0    0  0.29943709206E+01  0.27151667781E+02 -0.33726005524E+02  0.47787276859E+02  0.20000026512E+02 0.  0.
        -12    1    1    2    0    0 -0.29943709206E+01 -0.27151667781E+02  0.33726005524E+02  0.43400723141E+02  0.00000000000E+00 0.  1.
         11    1    3    3    0    0  0.58073261604E+00  0.38442319512E+01  0.79005512242E+00  0.39673110570E+01  0.51100000000E-03 0. -1.
        -11    1    3    3    0    0  0.30421605517E+01  0.10350536115E+01 -0.64524045259E+00  0.32775619451E+01  0.51100000000E-03 0.  1.
         12    1    3    3    0    0 -0.62852224711E+00  0.22272382218E+02 -0.33870820194E+02  0.40542403857E+02  0.00000000000E+00 0. -1.
</event>
<event>
 7    1  0.1542786E-009  0.4778724E+02  0.7816164E-02  0.1312668E+00
        -11   -1    0    0    0    0  0.00000000000E+00  0.00000000000E+00  0.45593999997E+02  0.45594000000E+02  0.51100000000E-03 0.  1.
         11   -1    0    0    0    0 -0.00000000000E+00 -0.00000000000E+00 -0.45593999997E+02  0.45594000000E+02  0.51100000000E-03 0. -1.
    9900012    2    1    2    0    0  0.11330933297E+02 -0.41627997455E+02  0.47271246666E+01  0.47787240455E+02  0.19999860529E+02 0.  0.
        -12    1    1    2    0    0 -0.11330933297E+02  0.41627997455E+02 -0.47271246666E+01  0.43400759545E+02  0.00000000000E+00 0.  1.
         11    1    3    3    0    0  0.16637922985E+01 -0.22915111277E+02  0.69901177877E+00  0.22986064200E+02  0.51100000000E-03 0. -1.
        -11    1    3    3    0    0  0.22977912140E+01 -0.14019053321E+02  0.66408286312E+01  0.15681655068E+02  0.51100000000E-03 0.  1.
        -12    1    3    3    0    0  0.73693497847E+01 -0.46938328561E+01 -0.26127157433E+01  0.91195211873E+01  0.00000000000E+00 0.  1.
</event>
<event>
 7    1  0.1542786E-009  0.4778727E+02  0.7816164E-02  0.1312668E+00
        -11   -1    0    0    0    0  0.00000000000E+00  0.00000000000E+00  0.45593999997E+02  0.45594000000E+02  0.51100000000E-03 0.  1.
         11   -1    0    0    0    0 -0.00000000000E+00 -0.00000000000E+00 -0.45593999997E+02  0.45594000000E+02  0.51100000000E-03 0. -1.
    9900012    2    1    2    0    0  0.23176543101E+02  0.22474705549E+01 -0.36625402377E+02  0.47787269900E+02  0.19999994781E+02 0.  0.
        -12    1    1    2    0    0 -0.23176543101E+02 -0.22474705549E+01  0.36625402377E+02  0.43400730100E+02  0.00000000000E+00 0.  1.
         11    1    3    3    0    0  0.68989864931E+01  0.54978964137E+01 -0.15696595495E+02  0.18005721036E+02  0.51100000000E-03 0. -1.
        -11    1    3    3    0    0 -0.13371113520E+01 -0.29324760000E+01 -0.15011253980E+01  0.35553705826E+01  0.51100000000E-03 0.  1.
        -12    1    3    3    0    0  0.17614667959E+02 -0.31794985878E+00 -0.19427681483E+02  0.26226178281E+02  0.00000000000E+00 0.  1.
</event>
<event>
 7    1  0.1542786E-009  0.4778727E+02  0.7816164E-02  0.1312668E+00
        -11   -1    0    0    0    0  0.00000000000E+00  0.00000000000E+00  0.45593999997E+02  0.45594000000E+02  0.51100000000E-03 0. -1.
         11   -1    0    0    0    0 -0.00000000000E+00 -0.00000000000E+00 -0.45593999997E+02  0.45594000000E+02  0.51100000000E-03 0.  1.
    9900012    2    1    2    0    0  0.24847266667E+02  0.16399971194E+02  0.31579699408E+02  0.47787272694E+02  0.20000007522E+02 0.  0.
        -12    1    1    2    0    0 -0.24847266667E+02 -0.16399971194E+02 -0.31579699408E+02  0.43400727306E+02  0.00000000000E+00 0.  1.
         11    1    3    3    0    0  0.88571731364E+00  0.17437935885E+01  0.59375424299E-01  0.19567414088E+01  0.51100000000E-03 0. -1.
        -11    1    3    3    0    0  0.32430705721E+01  0.54061944458E+01 -0.78531714655E+00  0.63530440266E+01  0.51100000000E-03 0.  1.
         12    1    3    3    0    0  0.20718478781E+02  0.92499831599E+01  0.32305641130E+02  0.39477487259E+02  0.00000000000E+00 0. -1.
</event>
<event>
 7    1  0.2248644E-009  0.4778727E+02  0.7816164E-02  0.1312668E+00
        -11   -1    0    0    0    0  0.00000000000E+00  0.00000000000E+00  0.45593999997E+02  0.45594000000E+02  0.51100000000E-03 0. -1.
         11   -1    0    0    0    0 -0.00000000000E+00 -0.00000000000E+00 -0.45593999997E+02  0.45594000000E+02  0.51100000000E-03 0.  1.
    9900012    2    1    2    0    0  0.25886861435E+02 -0.59706975660E+01  0.34319738707E+02  0.47787270866E+02  0.19999999188E+02 0.  0.
        -12    1    1    2    0    0 -0.25886861435E+02  0.59706975660E+01 -0.34319738707E+02  0.43400729134E+02  0.00000000000E+00 0.  1.
         11    1    3    3    0    0  0.18561835611E+02 -0.61537803210E+01  0.23307656821E+02  0.30424621941E+02  0.51100000000E-03 0. -1.
        -11    1    3    3    0    0  0.46659881683E+01  0.45450836180E+01  0.10325131181E+02  0.12208094235E+02  0.51100000000E-03 0.  1.
        -12    1    3    3    0    0  0.26590376560E+01 -0.43620008631E+01  0.68695070479E+00  0.51545546904E+01  0.00000000000E+00 0.  1.
</event>
<event>
 7    1  0.1542786E-009  0.4778727E+02  0.7816164E-02  0.1312668E+00
        -11   -1    0    0    0    0  0.00000000000E+00  0.00000000000E+00  0.45593999997E+02  0.45594000000E+02  0.51100000000E-03 0.  1.
         11   -1    0    0    0    0 -0.00000000000E+00 -0.00000000000E+00 -0.45593999997E+02  0.45594000000E+02  0.51100000000E-03 0. -1.
    9900012    2    1    2    0    0 -0.35674279534E+02 -0.52598191990E+01 -0.24151678578E+02  0.47787268481E+02  0.19999988310E+02 0.  0.
        -12    1    1    2    0    0  0.35674279534E+02  0.52598191990E+01  0.24151678578E+02  0.43400731519E+02  0.00000000000E+00 0.  1.
         11    1    3    3    0    0 -0.15972886317E+02 -0.54327191917E+01 -0.41513082723E+01  0.17374720019E+02  0.51100000000E-03 0. -1.
        -11    1    3    3    0    0 -0.12925810814E+01 -0.33366196838E+01 -0.61286338093E+01  0.70967562587E+01  0.51100000000E-03 0.  1.
         12    1    3    3    0    0 -0.18408812136E+02  0.35095196765E+01 -0.13871736496E+02  0.23315792202E+02  0.00000000000E+00 0. -1.
</event>
<event>
 7    1  0.1542786E-009  0.4778727E+02  0.7816164E-02  0.1312668E+00
        -11   -1    0    0    0    0  0.00000000000E+00  0.00000000000E+00  0.45593999997E+02  0.45594000000E+02  0.51100000000E-03 0. -1.
         11   -1    0    0    0    0 -0.00000000000E+00 -0.00000000000E+00 -0.45593999997E+02  0.45594000000E+02  0.51100000000E-03 0.  1.
    9900012    2    1    2    0    0 -0.38209168242E+02  0.14658265797E+01  0.20531298378E+02  0.47787269610E+02  0.19999993459E+02 0.  0.
        -12    1    1    2    0    0  0.38209168242E+02 -0.14658265797E+01 -0.20531298378E+02  0.43400730390E+02  0.00000000000E+00 0.  1.
         11    1    3    3    0    0  0.27535926297E+00  0.14421113390E+01 -0.89474321155E+00  0.17193235628E+01  0.51100000000E-03 0.  1.
        -11    1    3    3    0    0 -0.31586215371E+02  0.74247475503E-01  0.10766365655E+02  0.33370782787E+02  0.51100000000E-03 0. -1.
         12    1    3    3    0    0 -0.68983121339E+01 -0.50532234825E-01  0.10659675935E+02  0.12697163259E+02  0.00000000000E+00 0. -1.
</event>
<event>
 7    1  0.1542786E-009  0.4778726E+02  0.7816164E-02  0.1312668E+00
        -11   -1    0    0    0    0  0.00000000000E+00  0.00000000000E+00  0.45593999997E+02  0.45594000000E+02  0.51100000000E-03 0. -1.
         11   -1    0    0    0    0 -0.00000000000E+00 -0.00000000000E+00 -0.45593999997E+02  0.45594000000E+02  0.51100000000E-03 0.  1.
    9900012    2    1    2    0    0 -0.31286505696E+02  0.29014878437E+02  0.79319288020E+01  0.47787261482E+02  0.19999956402E+02 0.  0.
        -12    1    1    2    0    0  0.31286505696E+02 -0.29014878437E+02 -0.79319288020E+01  0.43400738518E+02  0.00000000000E+00 0.  1.
         11    1    3    3    0    0 -0.12153163277E+02  0.16203988201E+02  0.31451543853E+01  0.20497819582E+02  0.51100000000E-03 0. -1.
        -11    1    3    3    0    0 -0.15857660042E+02  0.25234240650E+01  0.32743638040E+01  0.16387632824E+02  0.51100000000E-03 0.  1.
        -12    1    3    3    0    0 -0.32756823773E+01  0.10287466171E+02  0.15124106127E+01  0.10901809076E+02  0.00000000000E+00 0.  1.
</event>
<event>
 7    1  0.1542786E-009  0.4778727E+02  0.7816164E-02  0.1312668E+00
        -11   -1    0    0    0    0  0.00000000000E+00  0.00000000000E+00  0.45593999997E+02  0.45594000000E+02  0.51100000000E-03 0. -1.
         11   -1    0    0    0    0 -0.00000000000E+00 -0.00000000000E+00 -0.45593999997E+02  0.45594000000E+02  0.51100000000E-03 0.  1.
    9900012    2    1    2    0    0 -0.21847126258E+02  0.36161498718E+02  0.99334052714E+01  0.47787268952E+02  0.19999990458E+02 0.  0.
        -12    1    1    2    0    0  0.21847126258E+02 -0.36161498718E+02 -0.99334052714E+01  0.43400731048E+02  0.00000000000E+00 0.  1.
         11    1    3    3    0    0 -0.18340826418E+02  0.23474479999E+02  0.29073444863E+01  0.29931417894E+02  0.51100000000E-03 0. -1.
        -11    1    3    3    0    0 -0.55948818421E+01  0.27000812737E+01  0.26313192161E+01  0.67466275123E+01  0.51100000000E-03 0.  1.
        -12    1    3    3    0    0  0.20885820029E+01  0.99869374452E+01  0.43947415690E+01  0.11109223545E+02  0.00000000000E+00 0.  1.
</event>
<event>
 7    1  0.1542786E-009  0.4778727E+02  0.7816164E-02  0.1312668E+00
        -11   -1    0    0    0    0  0.00000000000E+00  0.00000000000E+00  0.45593999997E+02  0.45594000000E+02  0.51100000000E-03 0.  1.
         11   -1    0    0    0    0 -0.00000000000E+00 -0.00000000000E+00 -0.45593999997E+02  0.45594000000E+02  0.51100000000E-03 0. -1.
    9900012    2    1    2    0    0 -0.33711433915E+02 -0.12719531597E+02 -0.24194540111E+02  0.47787273833E+02  0.20000012713E+02 0.  0.
        -12    1    1    2    0    0  0.33711433915E+02  0.12719531597E+02  0.24194540111E+02  0.43400726167E+02  0.00000000000E+00 0.  1.
         11    1    3    3    0    0 -0.92568500746E+01 -0.89695275482E+01 -0.13246204769E+02  0.18482522522E+02  0.51100000000E-03 0. -1.
        -11    1    3    3    0    0 -0.22699659477E+02 -0.32802598109E+01 -0.13159867985E+02  0.26442707321E+02  0.51100000000E-03 0.  1.
        -12    1    3    3    0    0 -0.17549243630E+01 -0.46974423820E+00  0.22115326428E+01  0.28620439898E+01  0.00000000000E+00 0.  1.
</event>
<event>
 7    1  0.1542786E-009  0.4778727E+02  0.7816164E-02  0.1312668E+00
        -11   -1    0    0    0    0  0.00000000000E+00  0.00000000000E+00  0.45593999997E+02  0.45594000000E+02  0.51100000000E-03 0.  1.
         11   -1    0    0    0    0 -0.00000000000E+00 -0.00000000000E+00 -0.45593999997E+02  0.45594000000E+02  0.51100000000E-03 0. -1.
    9900012    2    1    2    0    0  0.15676681918E+01 -0.66838010197E+01 -0.42854321145E+02  0.47787267052E+02  0.19999981796E+02 0.  0.
        -12    1    1    2    0    0 -0.15676681918E+01  0.66838010197E+01  0.42854321145E+02  0.43400732948E+02  0.00000000000E+00 0.  1.
         11    1    3    3    0    0  0.34116722620E+01 -0.63042982089E+01 -0.43986506308E+02  0.44566763636E+02  0.51100000000E-03 0. -1.
        -11    1    3    3    0    0  0.39148746570E+00 -0.62621656153E+00  0.47231001029E+00  0.87663368899E+00  0.51100000000E-03 0.  1.
         12    1    3    3    0    0 -0.22354915359E+01  0.24671375067E+00  0.65987515234E+00  0.23438697273E+01  0.00000000000E+00 0. -1.
</event>
<event>
 7    1  0.1542786E-009  0.4778727E+02  0.7816164E-02  0.1312668E+00
        -11   -1    0    0    0    0  0.00000000000E+00  0.00000000000E+00  0.45593999997E+02  0.45594000000E+02  0.51100000000E-03 0.  1.
         11   -1    0    0    0    0 -0.00000000000E+00 -0.00000000000E+00 -0.45593999997E+02  0.45594000000E+02  0.51100000000E-03 0. -1.
    9900012    2    1    2    0    0 -0.98183068093E+01  0.70672595432E+01 -0.41680666698E+02  0.47787270946E+02  0.19999999550E+02 0.  0.
        -12    1    1    2    0    0  0.98183068093E+01 -0.70672595432E+01  0.41680666698E+02  0.43400729054E+02  0.00000000000E+00 0.  1.
         11    1    3    3    0    0  0.19065409209E+01  0.46970185605E+01 -0.17135430822E+02  0.17869523535E+02  0.51100000000E-03 0. -1.
        -11    1    3    3    0    0 -0.93544567538E+00  0.42485731499E+01 -0.14203721235E+02  0.14855003521E+02  0.51100000000E-03 0.  1.
        -12    1    3    3    0    0 -0.10789402055E+02 -0.18783321672E+01 -0.10341514641E+02  0.15062743890E+02  0.00000000000E+00 0.  1.
</event>
<event>
 7    1  0.1542786E-009  0.4778729E+02  0.7816164E-02  0.1312668E+00
        -11   -1    0    0    0    0  0.00000000000E+00  0.00000000000E+00  0.45593999997E+02  0.45594000000E+02  0.51100000000E-03 0.  1.
         11   -1    0    0    0    0 -0.00000000000E+00 -0.00000000000E+00 -0.45593999997E+02  0.45594000000E+02  0.51100000000E-03 0. -1.
    9900012    2    1    2    0    0 -0.35003377082E+02 -0.25630694008E+02  0.12052358033E+01  0.47787291759E+02  0.20000094445E+02 0.  0.
        -12    1    1    2    0    0  0.35003377082E+02  0.25630694008E+02 -0.12052358033E+01  0.43400708241E+02  0.00000000000E+00 0.  1.
         11    1    3    3    0    0 -0.85956333333E+01  0.51366000525E+00  0.18928315004E+01  0.88165509328E+01  0.51100000000E-03 0.  1.
        -11    1    3    3    0    0 -0.21775775931E+02 -0.15319973981E+02 -0.35321713350E+01  0.26858187854E+02  0.51100000000E-03 0. -1.
        -12    1    3    3    0    0 -0.46319678180E+01 -0.10824380032E+02  0.28445756380E+01  0.12112552972E+02  0.00000000000E+00 0.  1.
</event>
<event>
 7    1  0.1542786E-009  0.4778727E+02  0.7816164E-02  0.1312668E+00
        -11   -1    0    0    0    0  0.00000000000E+00  0.00000000000E+00  0.45593999997E+02  0.45594000000E+02  0.51100000000E-03 0. -1.
         11   -1    0    0    0    0 -0.00000000000E+00 -0.00000000000E+00 -0.45593999997E+02  0.45594000000E+02  0.51100000000E-03 0.  1.
    9900012    2    1    2    0    0  0.13625242079E+02 -0.21429422297E+02  0.35195963009E+02  0.47787272197E+02  0.20000005254E+02 0.  0.
        -12    1    1    2    0    0 -0.13625242079E+02  0.21429422297E+02 -0.35195963009E+02  0.43400727803E+02  0.00000000000E+00 0.  1.
         11    1    3    3    0    0  0.18416771190E+02 -0.15291576971E+02  0.27419975073E+02  0.36398692567E+02  0.51100000000E-03 0. -1.
        -11    1    3    3    0    0 -0.15727099913E+01 -0.41308787488E+01  0.50860958885E+01  0.67383935476E+01  0.51100000000E-03 0.  1.
         12    1    3    3    0    0 -0.32188191199E+01 -0.20069665767E+01  0.26898920479E+01  0.46501860819E+01  0.00000000000E+00 0. -1.
</event>
<event>
 7    1  0.1542786E-009  0.4778727E+02  0.7816164E-02  0.1312668E+00
        -11   -1    0    0    0    0  0.00000000000E+00  0.00000000000E+00  0.45593999997E+02  0.45594000000E+02  0.51100000000E-03 0. -1.
         11   -1    0    0    0    0 -0.00000000000E+00 -0.00000000000E+00 -0.45593999997E+02  0.45594000000E+02  0.51100000000E-03 0.  1.
    9900012    2    1    2    0    0 -0.21041934873E+02  0.16129613924E+02  0.34361253328E+02  0.47787271909E+02  0.20000003943E+02 0.  0.
        -12    1    1    2    0    0  0.21041934873E+02 -0.16129613924E+02 -0.34361253328E+02  0.43400728091E+02  0.00000000000E+00 0.  1.
         11    1    3    3    0    0  0.81586441908E+00  0.38057226278E+01  0.75434067238E+01  0.84883534759E+01  0.51100000000E-03 0. -1.
        -11    1    3    3    0    0 -0.76887114762E+01  0.46792191446E+01  0.12537340629E+01  0.90875313110E+01  0.51100000000E-03 0.  1.
         12    1    3    3    0    0 -0.14169087816E+02  0.76446721518E+01  0.25564112541E+02  0.30211387122E+02  0.00000000000E+00 0. -1.
</event>
<event>
 7    1  0.1542786E-009  0.4778727E+02  0.7816164E-02  0.1312668E+00
        -11   -1    0    0    0    0  0.00000000000E+00  0.00000000000E+00  0.45593999997E+02  0.45594000000E+02  0.51100000000E-03 0.  1.
         11   -1    0    0    0    0 -0.00000000000E+00 -0.00000000000E+00 -0.45593999997E+02  0.45594000000E+02  0.51100000000E-03 0. -1.
    9900012    2    1    2    0    0 -0.39362998518E+02 -0.16171653711E+02 -0.85238043015E+01  0.47787271022E+02  0.19999999897E+02 0.  0.
        -12    1    1    2    0    0  0.39362998518E+02  0.16171653711E+02  0.85238043015E+01  0.43400728978E+02  0.00000000000E+00 0.  1.
         11    1    3    3    0    0 -0.22180203637E+02 -0.59190863965E+01  0.27095085744E+00  0.22958014543E+02  0.51100000000E-03 0. -1.
        -11    1    3    3    0    0 -0.16956995009E+02 -0.66760619821E+01 -0.36924192553E+01  0.18594177678E+02  0.51100000000E-03 0.  1.
        -12    1    3    3    0    0 -0.22579987266E+00 -0.35765053321E+01 -0.51023359036E+01  0.62350788003E+01  0.00000000000E+00 0.  1.
</event>
<event>
 7    1  0.1542786E-009  0.4778728E+02  0.7816164E-02  0.1312668E+00
        -11   -1    0    0    0    0  0.00000000000E+00  0.00000000000E+00  0.45593999997E+02  0.45594000000E+02  0.51100000000E-03 0.  1.
         11   -1    0    0    0    0 -0.00000000000E+00 -0.00000000000E+00 -0.45593999997E+02  0.45594000000E+02  0.51100000000E-03 0. -1.
    9900012    2    1    2    0    0 -0.40243763392E+02 -0.64530676836E+01 -0.14913760264E+02  0.47787276277E+02  0.20000023857E+02 0.  0.
        -12    1    1    2    0    0  0.40243763392E+02  0.64530676836E+01  0.14913760264E+02  0.43400723723E+02  0.00000000000E+00 0.  1.
         11    1    3    3    0    0 -0.71244124598E+01  0.14854436594E+01 -0.62030352680E+01  0.95625018986E+01  0.51100000000E-03 0. -1.
        -11    1    3    3    0    0 -0.98873187711E+01  0.17031954522E+01 -0.83752204079E+01  0.13069210549E+02  0.51100000000E-03 0.  1.
        -12    1    3    3    0    0 -0.23232032161E+02 -0.96417067952E+01 -0.33550458825E+00  0.25155563829E+02  0.00000000000E+00 0.  1.
</event>
<event>
 7    1  0.1542786E-009  0.4778729E+02  0.7816164E-02  0.1312668E+00
        -11   -1    0    0    0    0  0.00000000000E+00  0.00000000000E+00  0.45593999997E+02  0.45594000000E+02  0.51100000000E-03 0.  1.
         11   -1    0    0    0    0 -0.00000000000E+00 -0.00000000000E+00 -0.45593999997E+02  0.45594000000E+02  0.51100000000E-03 0. -1.
    9900012    2    1    2    0    0  0.30216899736E+02  0.28840596091E+02 -0.11780531674E+02  0.47787286422E+02  0.20000070113E+02 0.  0.
        -12    1    1    2    0    0 -0.30216899736E+02 -0.28840596091E+02  0.11780531674E+02  0.43400713578E+02  0.00000000000E+00 0.  1.
         11    1    3    3    0    0  0.50914929946E+01  0.47842513100E+01 -0.59107677048E+01  0.91514772924E+01  0.51100000000E-03 0. -1.
        -11    1    3    3    0    0  0.25757320931E+02  0.20503730464E+02 -0.14822957340E+01  0.32955117135E+02  0.51100000000E-03 0.  1.
        -12    1    3    3    0    0 -0.63191418914E+00  0.35526143164E+01 -0.43874682352E+01  0.56806919947E+01  0.00000000000E+00 0.  1.
</event>
<event>
 7    1  0.1542786E-009  0.4778725E+02  0.7816164E-02  0.1312668E+00
        -11   -1    0    0    0    0  0.00000000000E+00  0.00000000000E+00  0.45593999997E+02  0.45594000000E+02  0.51100000000E-03 0.  1.
         11   -1    0    0    0    0 -0.00000000000E+00 -0.00000000000E+00 -0.45593999997E+02  0.45594000000E+02  0.51100000000E-03 0. -1.
    9900012    2    1    2    0    0  0.21664378052E+02 -0.30807960568E+02 -0.21567312251E+02  0.47787254978E+02  0.19999926747E+02 0.  0.
        -12    1    1    2    0    0 -0.21664378052E+02  0.30807960568E+02  0.21567312251E+02  0.43400745022E+02  0.00000000000E+00 0.  1.
         11    1    3    3    0    0  0.15429380849E+02 -0.18814083280E+02 -0.90573285685E+01  0.25962872031E+02  0.51100000000E-03 0.  1.
        -11    1    3    3    0    0 -0.60734508253E+00 -0.10467527604E+02 -0.52279766907E+01  0.11716217083E+02  0.51100000000E-03 0. -1.
        -12    1    3    3    0    0  0.68423422855E+01 -0.15263496838E+01 -0.72820069921E+01  0.10108165864E+02  0.00000000000E+00 0.  1.
</event>
<event>
 7    1  0.1542786E-009  0.4778727E+02  0.7816164E-02  0.1312668E+00
        -11   -1    0    0    0    0  0.00000000000E+00  0.00000000000E+00  0.45593999997E+02  0.45594000000E+02  0.51100000000E-03 0.  1.
         11   -1    0    0    0    0 -0.00000000000E+00 -0.00000000000E+00 -0.45593999997E+02  0.45594000000E+02  0.51100000000E-03 0. -1.
    9900012    2    1    2    0    0 -0.35992334264E+02  0.23743797808E+02 -0.49403635941E+01  0.47787271290E+02  0.20000001118E+02 0.  0.
        -12    1    1    2    0    0  0.35992334264E+02 -0.23743797808E+02  0.49403635941E+01  0.43400728710E+02  0.00000000000E+00 0.  1.
         11    1    3    3    0    0  0.59454371691E+00 -0.75454314825E+00 -0.11942645559E+01  0.15326727258E+01  0.51100000000E-03 0. -1.
        -11    1    3    3    0    0 -0.17745805186E+02  0.12948606763E+02  0.49283407106E+01  0.22513741609E+02  0.51100000000E-03 0.  1.
         12    1    3    3    0    0 -0.18841072795E+02  0.11549734193E+02 -0.86744397488E+01  0.23740856955E+02  0.00000000000E+00 0. -1.
</event>
<event>
 7    1  0.1542786E-009  0.4778727E+02  0.7816164E-02  0.1312668E+00
        -11   -1    0    0    0    0  0.00000000000E+00  0.00000000000E+00  0.45593999997E+02  0.45594000000E+02  0.51100000000E-03 0.  1.
         11   -1    0    0    0    0 -0.00000000000E+00 -0.00000000000E+00 -0.45593999997E+02  0.45594000000E+02  0.51100000000E-03 0. -1.
    9900012    2    1    2    0    0 -0.10117442887E+02 -0.41341908418E+02 -0.84916048314E+01  0.47787269650E+02  0.19999993644E+02 0.  0.
        -12    1    1    2    0    0  0.10117442887E+02  0.41341908418E+02  0.84916048314E+01  0.43400730350E+02  0.00000000000E+00 0.  1.
         11    1    3    3    0    0 -0.52370029836E+01 -0.30982044188E+02 -0.21372378287E+01  0.31494143076E+02  0.51100000000E-03 0. -1.
        -11    1    3    3    0    0 -0.44659821263E+00 -0.86269318195E+01 -0.74510655120E+01  0.11407970026E+02  0.51100000000E-03 0.  1.
        -12    1    3    3    0    0 -0.44338416912E+01 -0.17329324112E+01  0.10966985093E+01  0.48851565486E+01  0.00000000000E+00 0.  1.
</event>
<event>
 7    1  0.1923917E-009  0.4778726E+02  0.7816164E-02  0.1312668E+00
        -11   -1    0    0    0    0  0.00000000000E+00  0.00000000000E+00  0.45593999997E+02  0.45594000000E+02  0.51100000000E-03 0.  1.
         11   -1    0    0    0    0 -0.00000000000E+00 -0.00000000000E+00 -0.45593999997E+02  0.45594000000E+02  0.51100000000E-03 0. -1.
    9900012    2    1    2    0    0 -0.15577465903E+02  0.36992454427E+02 -0.16508322082E+02  0.47787264678E+02  0.19999970975E+02 0.  0.
        -12    1    1    2    0    0  0.15577465903E+02 -0.36992454427E+02  0.16508322082E+02  0.43400735322E+02  0.00000000000E+00 0.  1.
         11    1    3    3    0    0 -0.12265826450E+02  0.29376855259E+02 -0.10178649001E+02  0.33422373033E+02  0.51100000000E-03 0. -1.
        -11    1    3    3    0    0 -0.33481836453E+01  0.68761447966E+01 -0.88740626955E+01  0.11714977165E+02  0.51100000000E-03 0.  1.
        -12    1    3    3    0    0  0.36544192291E-01  0.73945437106E+00  0.25443896143E+01  0.26499144806E+01  0.00000000000E+00 0.  1.
</event>
<event>
 7    1  0.1542786E-009  0.4778727E+02  0.7816164E-02  0.1312668E+00
        -11   -1    0    0    0    0  0.00000000000E+00  0.00000000000E+00  0.45593999997E+02  0.45594000000E+02  0.51100000000E-03 0. -1.
         11   -1    0    0    0    0 -0.00000000000E+00 -0.00000000000E+00 -0.45593999997E+02  0.45594000000E+02  0.51100000000E-03 0.  1.
    9900012    2    1    2    0    0  0.42907702725E+02  0.64035076133E+01  0.12440121913E+01  0.47787269255E+02  0.19999991841E+02 0.  0.
        -12    1    1    2    0    0 -0.42907702725E+02 -0.64035076133E+01 -0.12440121913E+01  0.43400730745E+02  0.00000000000E+00 0.  1.
         11    1    3    3    0    0  0.19426478247E+02  0.34759868705E+01 -0.15620506706E+01  0.19796730649E+02  0.51100000000E-03 0. -1.
        -11    1    3    3    0    0  0.54002794283E+01  0.29227622490E+01  0.71199582579E+01  0.94020935394E+01  0.51100000000E-03 0.  1.
        -12    1    3    3    0    0  0.18080945049E+02  0.47584937586E-02 -0.43138953960E+01  0.18588445067E+02  0.00000000000E+00 0.  1.
</event>
<event>
 7    1  0.1542786E-009  0.4778727E+02  0.7816164E-02  0.1312668E+00
        -11   -1    0    0    0    0  0.00000000000E+00  0.00000000000E+00  0.45593999997E+02  0.45594000000E+02  0.51100000000E-03 0.  1.
         11   -1    0    0    0    0 -0.00000000000E+00 -0.00000000000E+00 -0.45593999997E+02  0.45594000000E+02  0.51100000000E-03 0. -1.
    9900012    2    1    2    0    0 -0.28294992783E+02  0.31198756075E+02  0.10471591721E+02  0.47787271545E+02  0.20000002284E+02 0.  0.
        -12    1    1    2    0    0  0.28294992783E+02 -0.31198756075E+02 -0.10471591721E+02  0.43400728455E+02  0.00000000000E+00 0.  1.
         11    1    3    3    0    0 -0.20366093221E+02  0.20308345803E+02 -0.41978147339E+00  0.28764263924E+02  0.51100000000E-03 0. -1.
        -11    1    3    3    0    0 -0.67367519783E+01  0.26940988231E+01  0.59098628687E+01  0.93578028978E+01  0.51100000000E-03 0.  1.
        -12    1    3    3    0    0 -0.11921475840E+01  0.81963114491E+01  0.49815103255E+01  0.96652047240E+01  0.00000000000E+00 0.  1.
</event>
<event>
 7    1  0.1542786E-009  0.4778727E+02  0.7816164E-02  0.1312668E+00
        -11   -1    0    0    0    0  0.00000000000E+00  0.00000000000E+00  0.45593999997E+02  0.45594000000E+02  0.51100000000E-03 0.  1.
         11   -1    0    0    0    0 -0.00000000000E+00 -0.00000000000E+00 -0.45593999997E+02  0.45594000000E+02  0.51100000000E-03 0. -1.
    9900012    2    1    2    0    0 -0.10295791436E+02  0.14093727724E+01 -0.42138268701E+02  0.47787270260E+02  0.19999996422E+02 0.  0.
        -12    1    1    2    0    0  0.10295791436E+02 -0.14093727724E+01  0.42138268701E+02  0.43400729740E+02  0.00000000000E+00 0.  1.
         11    1    3    3    0    0 -0.62232255930E+01  0.74638171559E+00 -0.26693732867E+02  0.27419719129E+02  0.51100000000E-03 0. -1.
        -11    1    3    3    0    0 -0.77417528269E+01 -0.23103462337E+01 -0.69894797502E+01  0.10682942665E+02  0.51100000000E-03 0.  1.
         12    1    3    3    0    0  0.36691869834E+01  0.29733372906E+01 -0.84550560831E+01  0.96846084656E+01  0.00000000000E+00 0. -1.
</event>
<event>
 7    1  0.1542786E-009  0.4778727E+02  0.7816164E-02  0.1312668E+00
        -11   -1    0    0    0    0  0.00000000000E+00  0.00000000000E+00  0.45593999997E+02  0.45594000000E+02  0.51100000000E-03 0.  1.
         11   -1    0    0    0    0 -0.00000000000E+00 -0.00000000000E+00 -0.45593999997E+02  0.45594000000E+02  0.51100000000E-03 0. -1.
    9900012    2    1    2    0    0  0.30696790887E+02 -0.14842809210E+02 -0.26851841881E+02  0.47787269955E+02  0.19999995035E+02 0.  0.
        -12    1    1    2    0    0 -0.30696790887E+02  0.14842809210E+02  0.26851841881E+02  0.43400730045E+02  0.00000000000E+00 0.  1.
         11    1    3    3    0    0  0.13386917412E+02 -0.52601120259E+01 -0.14097964629E+02  0.20140281608E+02  0.51100000000E-03 0. -1.
        -11    1    3    3    0    0  0.31448187112E+01 -0.98063753128E+01 -0.63619746606E+01  0.12104941278E+02  0.51100000000E-03 0.  1.
         12    1    3    3    0    0  0.14165054763E+02  0.22367812897E+00 -0.63919025920E+01  0.15542047069E+02  0.00000000000E+00 0. -1.
</event>
<event>
 7    1  0.1542786E-009  0.4778727E+02  0.7816164E-02  0.1312668E+00
        -11   -1    0    0    0    0  0.00000000000E+00  0.00000000000E+00  0.45593999997E+02  0.45594000000E+02  0.51100000000E-03 0.  1.
         11   -1    0    0    0    0 -0.00000000000E+00 -0.00000000000E+00 -0.45593999997E+02  0.45594000000E+02  0.51100000000E-03 0. -1.
    9900012    2    1    2    0    0  0.10320795237E+02 -0.34459107682E+02 -0.24283208628E+02  0.47787272611E+02  0.20000007144E+02 0.  0.
        -12    1    1    2    0    0 -0.10320795237E+02  0.34459107682E+02  0.24283208628E+02  0.43400727389E+02  0.00000000000E+00 0.  1.
         11    1    3    3    0    0 -0.53179498172E+01 -0.57481804320E+01 -0.73797170978E+01  0.10760222732E+02  0.51100000000E-03 0. -1.
        -11    1    3    3    0    0  0.42730358270E+01 -0.10914487216E+02 -0.46254897553E+01  0.12600794503E+02  0.51100000000E-03 0.  1.
         12    1    3    3    0    0  0.11365709227E+02 -0.17796440035E+02 -0.12278001775E+02  0.24426255377E+02  0.00000000000E+00 0. -1.
</event>
<event>
 7    1  0.1542786E-009  0.4778723E+02  0.7816164E-02  0.1312668E+00
        -11   -1    0    0    0    0  0.00000000000E+00  0.00000000000E+00  0.45593999997E+02  0.45594000000E+02  0.51100000000E-03 0. -1.
         11   -1    0    0    0    0 -0.00000000000E+00 -0.00000000000E+00 -0.45593999997E+02  0.45594000000E+02  0.51100000000E-03 0.  1.
    9900012    2    1    2    0    0 -0.28327302779E+01  0.77246715685E+01  0.42613751057E+02  0.47787231679E+02  0.19999820517E+02 0.  0.
        -12    1    1    2    0    0  0.28327302779E+01 -0.77246715685E+01 -0.42613751057E+02  0.43400768321E+02  0.00000000000E+00 0.  1.
         11    1    3    3    0    0  0.22181478923E+01  0.27464030611E+01  0.13374860036E+02  0.13832924170E+02  0.51100000000E-03 0. -1.
        -11    1    3    3    0    0  0.47862409486E+01  0.14249377472E+01  0.17652820958E+02  0.18345589062E+02  0.51100000000E-03 0.  1.
        -12    1    3    3    0    0 -0.98371191188E+01  0.35533307602E+01  0.11586070063E+02  0.15608718447E+02  0.00000000000E+00 0.  1.
</event>
<event>
 7    1  0.1542786E-009  0.4778727E+02  0.7816164E-02  0.1312668E+00
        -11   -1    0    0    0    0  0.00000000000E+00  0.00000000000E+00  0.45593999997E+02  0.45594000000E+02  0.51100000000E-03 0.  1.
         11   -1    0    0    0    0 -0.00000000000E+00 -0.00000000000E+00 -0.45593999997E+02  0.45594000000E+02  0.51100000000E-03 0. -1.
    9900012    2    1    2    0    0 -0.37937251564E+02  0.10048493563E+02  0.18531487262E+02  0.47787270752E+02  0.19999998665E+02 0.  0.
        -12    1    1    2    0    0  0.37937251564E+02 -0.10048493563E+02 -0.18531487262E+02  0.43400729248E+02  0.00000000000E+00 0.  1.
         11    1    3    3    0    0 -0.11971917904E+02  0.86270804091E+01  0.47572479736E+01  0.15504345947E+02  0.51100000000E-03 0. -1.
        -11    1    3    3    0    0 -0.11111526969E+02  0.94131462211E+00  0.13377878220E+02  0.17416076789E+02  0.51100000000E-03 0.  1.
        -12    1    3    3    0    0 -0.14853806691E+02  0.48009853179E+00  0.39636106871E+00  0.14866848016E+02  0.00000000000E+00 0.  1.
</event>
<event>
 7    1  0.1542786E-009  0.4778727E+02  0.7816164E-02  0.1312668E+00
        -11   -1    0    0    0    0  0.00000000000E+00  0.00000000000E+00  0.45593999997E+02  0.45594000000E+02  0.51100000000E-03 0.  1.
         11   -1    0    0    0    0 -0.00000000000E+00 -0.00000000000E+00 -0.45593999997E+02  0.45594000000E+02  0.51100000000E-03 0. -1.
    9900012    2    1    2    0    0  0.63286159251E+01  0.13292028601E+02 -0.40827613529E+02  0.47787269242E+02  0.19999991782E+02 0.  0.
        -12    1    1    2    0    0 -0.63286159251E+01 -0.13292028601E+02  0.40827613529E+02  0.43400730758E+02  0.00000000000E+00 0.  1.
         11    1    3    3    0    0 -0.32990369802E+01 -0.91473463775E+00 -0.59671364555E+01  0.68794696158E+01  0.51100000000E-03 0.  1.
        -11    1    3    3    0    0  0.36069728343E+01  0.10677687992E+02 -0.99364863482E+01  0.15025213312E+02  0.51100000000E-03 0. -1.
         12    1    3    3    0    0  0.60206800710E+01  0.35290752470E+01 -0.24923990725E+02  0.25882586314E+02  0.00000000000E+00 0. -1.
</event>
<event>
 7    1  0.1542786E-009  0.4778728E+02  0.7816164E-02  0.1312668E+00
        -11   -1    0    0    0    0  0.00000000000E+00  0.00000000000E+00  0.45593999997E+02  0.45594000000E+02  0.51100000000E-03 0.  1.
         11   -1    0    0    0    0 -0.00000000000E+00 -0.00000000000E+00 -0.45593999997E+02  0.45594000000E+02  0.51100000000E-03 0. -1.
    9900012    2    1    2    0    0  0.27548006366E+02 -0.30213395434E+02 -0.14556126651E+02  0.47787277178E+02  0.20000027966E+02 0.  0.
        -12    1    1    2    0    0 -0.27548006366E+02  0.30213395434E+02  0.14556126651E+02  0.43400722822E+02  0.00000000000E+00 0.  1.
         11    1    3    3    0    0  0.56342081376E+01 -0.12408517201E+02 -0.98130656235E+01  0.16793208677E+02  0.51100000000E-03 0. -1.
        -11    1    3    3    0    0  0.25687239244E+01  0.16617237004E+01  0.35685628971E+00  0.30800998245E+01  0.51100000000E-03 0.  1.
         12    1    3    3    0    0  0.19345074304E+02 -0.19466601933E+02 -0.50999173174E+01  0.27913968677E+02  0.00000000000E+00 0. -1.
</event>
<event>
 7    1  0.1542786E-009  0.4778727E+02  0.7816164E-02  0.1312668E+00
        -11   -1    0    0    0    0  0.00000000000E+00  0.00000000000E+00  0.45593999997E+02  0.45594000000E+02  0.51100000000E-03 0. -1.
         11   -1    0    0    0    0 -0.00000000000E+00 -0.00000000000E+00 -0.45593999997E+02  0.45594000000E+02  0.51100000000E-03 0.  1.
    9900012    2    1    2    0    0 -0.11051954623E+02  0.24695997045E+02  0.33935017453E+02  0.47787269815E+02  0.19999994394E+02 0.  0.
        -12    1    1    2    0    0  0.11051954623E+02 -0.24695997045E+02 -0.33935017453E+02  0.43400730185E+02  0.00000000000E+00 0.  1.
         11    1    3    3    0    0 -0.89120903269E+00  0.89518323100E+01  0.23047216908E+02  0.24740730844E+02  0.51100000000E-03 0. -1.
        -11    1    3    3    0    0  0.56464825618E+00  0.48898258105E+01  0.15675848135E+01  0.51659022948E+01  0.51100000000E-03 0.  1.
        -12    1    3    3    0    0 -0.10725393847E+02  0.10854338924E+02  0.93202157321E+01  0.17880636676E+02  0.00000000000E+00 0.  1.
</event>
<event>
 7    1  0.1542786E-009  0.4778727E+02  0.7816164E-02  0.1312668E+00
        -11   -1    0    0    0    0  0.00000000000E+00  0.00000000000E+00  0.45593999997E+02  0.45594000000E+02  0.51100000000E-03 0.  1.
         11   -1    0    0    0    0 -0.00000000000E+00 -0.00000000000E+00 -0.45593999997E+02  0.45594000000E+02  0.51100000000E-03 0. -1.
    9900012    2    1    2    0    0 -0.27564039512E+02  0.65343051269E+01 -0.32880842272E+02  0.47787271823E+02  0.20000003550E+02 0.  0.
        -12    1    1    2    0    0  0.27564039512E+02 -0.65343051269E+01  0.32880842272E+02  0.43400728177E+02  0.00000000000E+00 0.  1.
         11    1    3    3    0    0 -0.13393490310E+02  0.10528104954E+02 -0.21700637052E+02  0.27588842406E+02  0.51100000000E-03 0. -1.
        -11    1    3    3    0    0 -0.46889277042E-01 -0.26141240643E+01 -0.20720673800E+01  0.33360615576E+01  0.51100000000E-03 0.  1.
        -12    1    3    3    0    0 -0.14123659926E+02 -0.13796757624E+01 -0.91081378406E+01  0.16862367859E+02  0.00000000000E+00 0.  1.
</event>
<event>
 7    1  0.1542786E-009  0.4778728E+02  0.7816164E-02  0.1312668E+00
        -11   -1    0    0    0    0  0.00000000000E+00  0.00000000000E+00  0.45593999997E+02  0.45594000000E+02  0.51100000000E-03 0.  1.
         11   -1    0    0    0    0 -0.00000000000E+00 -0.00000000000E+00 -0.45593999997E+02  0.45594000000E+02  0.51100000000E-03 0. -1.
    9900012    2    1    2    0    0  0.12190324607E+02 -0.41628884171E+02  0.14334905591E+01  0.47787275276E+02  0.20000019294E+02 0.  0.
        -12    1    1    2    0    0 -0.12190324607E+02  0.41628884171E+02 -0.14334905591E+01  0.43400724724E+02  0.00000000000E+00 0.  1.
         11    1    3    3    0    0  0.42619809211E+01 -0.13469980281E+02 -0.10522907017E+01  0.14167292124E+02  0.51100000000E-03 0. -1.
        -11    1    3    3    0    0  0.11727769011E+02 -0.12738743313E+02 -0.10600456299E+01  0.17347617825E+02  0.51100000000E-03 0.  1.
         12    1    3    3    0    0 -0.37994253254E+01 -0.15420160577E+02  0.35458268907E+01  0.16272365328E+02  0.00000000000E+00 0. -1.
</event>
<event>
 7    1  0.1542786E-009  0.4778727E+02  0.7816164E-02  0.1312668E+00
        -11   -1    0    0    0    0  0.00000000000E+00  0.00000000000E+00  0.45593999997E+02  0.45594000000E+02  0.51100000000E-03 0. -1.
         11   -1    0    0    0    0 -0.00000000000E+00 -0.00000000000E+00 -0.45593999997E+02  0.45594000000E+02  0.51100000000E-03 0.  1.
    9900012    2    1    2    0    0  0.43048873791E+01  0.34796903779E+02  0.25578637260E+02  0.47787271296E+02  0.20000001147E+02 0.  0.
        -12    1    1    2    0    0 -0.43048873791E+01 -0.34796903779E+02 -0.25578637260E+02  0.43400728704E+02  0.00000000000E+00 0.  1.
         11    1    3    3    0    0 -0.21643632536E+01  0.68209498907E+01  0.93163338238E+01  0.11747506198E+02  0.51100000000E-03 0. -1.
        -11    1    3    3    0    0  0.13898837871E+01  0.25395930318E+02  0.16534797040E+02  0.30336192362E+02  0.51100000000E-03 0.  1.
        -12    1    3    3    0    0  0.50793668456E+01  0.25800235710E+01 -0.27249360394E+00  0.57035727350E+01  0.00000000000E+00 0.  1.
</event>
<event>
 7    1  0.1542786E-009  0.4778727E+02  0.7816164E-02  0.1312668E+00
        -11   -1    0    0    0    0  0.00000000000E+00  0.00000000000E+00  0.45593999997E+02  0.45594000000E+02  0.51100000000E-03 0. -1.
         11   -1    0    0    0    0 -0.00000000000E+00 -0.00000000000E+00 -0.45593999997E+02  0.45594000000E+02  0.51100000000E-03 0.  1.
    9900012    2    1    2    0    0 -0.33294107253E+02  0.25170762845E+02  0.11897829478E+02  0.47787271593E+02  0.20000002502E+02 0.  0.
        -12    1    1    2    0    0  0.33294107253E+02 -0.25170762845E+02 -0.11897829478E+02  0.43400728407E+02  0.00000000000E+00 0.  1.
         11    1    3    3    0    0 -0.18068383654E+02  0.55712879469E+01  0.15376580907E+01  0.18970243275E+02  0.51100000000E-03 0. -1.
        -11    1    3    3    0    0 -0.46286333042E+01  0.93199533212E+01 -0.60980473891E+00  0.10423897460E+02  0.51100000000E-03 0.  1.
        -12    1    3    3    0    0 -0.10597090295E+02  0.10279521577E+02  0.10969976126E+02  0.18393130859E+02  0.00000000000E+00 0.  1.
</event>
<event>
 7    1  0.1542786E-009  0.4778726E+02  0.7816164E-02  0.1312668E+00
        -11   -1    0    0    0    0  0.00000000000E+00  0.00000000000E+00  0.45593999997E+02  0.45594000000E+02  0.51100000000E-03 0.  1.
         11   -1    0    0    0    0 -0.00000000000E+00 -0.00000000000E+00 -0.45593999997E+02  0.45594000000E+02  0.51100000000E-03 0. -1.
    9900012    2    1    2    0    0 -0.32221044197E+02 -0.22413839006E+02 -0.18521553629E+02  0.47787264787E+02  0.19999971471E+02 0.  0.
        -12    1    1    2    0    0  0.32221044197E+02  0.22413839006E+02  0.18521553629E+02  0.43400735213E+02  0.00000000000E+00 0.  1.
         11    1    3    3    0    0  0.20531684493E+01 -0.79811233774E+00  0.13158834454E+01  0.25659371559E+01  0.51100000000E-03 0. -1.
        -11    1    3    3    0    0 -0.10337953835E+02 -0.52771897921E+01 -0.66979838901E+01  0.13400933178E+02  0.51100000000E-03 0.  1.
         12    1    3    3    0    0 -0.23936258812E+02 -0.16338536876E+02 -0.13139453184E+02  0.31820394453E+02  0.00000000000E+00 0. -1.
</event>
<event>
 7    1  0.1686597E-009  0.4778728E+02  0.7816164E-02  0.1312668E+00
        -11   -1    0    0    0    0  0.00000000000E+00  0.00000000000E+00  0.45593999997E+02  0.45594000000E+02  0.51100000000E-03 0.  1.
         11   -1    0    0    0    0 -0.00000000000E+00 -0.00000000000E+00 -0.45593999997E+02  0.45594000000E+02  0.51100000000E-03 0. -1.
    9900012    2    1    2    0    0 -0.28547760037E+02 -0.12925304771E+01 -0.32664611889E+02  0.47787284476E+02  0.20000061239E+02 0.  0.
        -12    1    1    2    0    0  0.28547760037E+02  0.12925304771E+01  0.32664611889E+02  0.43400715524E+02  0.00000000000E+00 0.  1.
         11    1    3    3    0    0 -0.11903480814E+02 -0.25481481123E+01 -0.13531482645E+02  0.18201289436E+02  0.51100000000E-03 0. -1.
        -11    1    3    3    0    0  0.21106022376E+01 -0.38940947006E+00 -0.66721576898E+01  0.70088494091E+01  0.51100000000E-03 0.  1.
        -12    1    3    3    0    0 -0.18754881460E+02  0.16450271053E+01 -0.12460971554E+02  0.22577145631E+02  0.00000000000E+00 0.  1.
</event>
<event>
 7    1  0.1542786E-009  0.4778725E+02  0.7816164E-02  0.1312668E+00
        -11   -1    0    0    0    0  0.00000000000E+00  0.00000000000E+00  0.45593999997E+02  0.45594000000E+02  0.51100000000E-03 0. -1.
         11   -1    0    0    0    0 -0.00000000000E+00 -0.00000000000E+00 -0.45593999997E+02  0.45594000000E+02  0.51100000000E-03 0.  1.
    9900012    2    1    2    0    0 -0.25531341263E+02 -0.31359255894E+02  0.15759836547E+02  0.47787253867E+02  0.19999921681E+02 0.  0.
        -12    1    1    2    0    0  0.25531341263E+02  0.31359255894E+02 -0.15759836547E+02  0.43400746133E+02  0.00000000000E+00 0.  1.
         11    1    3    3    0    0 -0.30457234166E+01  0.66910523419E+00  0.35121793926E+01  0.46967581684E+01  0.51100000000E-03 0. -1.
        -11    1    3    3    0    0 -0.31848120980E+01 -0.15332984133E+02  0.29878053354E+01  0.15942722838E+02  0.51100000000E-03 0.  1.
        -12    1    3    3    0    0 -0.19300805749E+02 -0.16695376995E+02  0.92598518190E+01  0.27147772860E+02  0.00000000000E+00 0.  1.
</event>
<event>
 7    1  0.1542786E-009  0.4778727E+02  0.7816164E-02  0.1312668E+00
        -11   -1    0    0    0    0  0.00000000000E+00  0.00000000000E+00  0.45593999997E+02  0.45594000000E+02  0.51100000000E-03 0.  1.
         11   -1    0    0    0    0 -0.00000000000E+00 -0.00000000000E+00 -0.45593999997E+02  0.45594000000E+02  0.51100000000E-03 0. -1.
    9900012    2    1    2    0    0  0.32762614666E+02  0.17366830377E+02 -0.22552771734E+02  0.47787271550E+02  0.20000002306E+02 0.  0.
        -12    1    1    2    0    0 -0.32762614666E+02 -0.17366830377E+02  0.22552771734E+02  0.43400728450E+02  0.00000000000E+00 0.  1.
         11    1    3    3    0    0  0.85043651120E+01  0.68290457359E+01 -0.86363841373E+01  0.13912125030E+02  0.51100000000E-03 0. -1.
        -11    1    3    3    0    0  0.12456284642E+02 -0.14602822724E+01 -0.85329322708E+00  0.12570583161E+02  0.51100000000E-03 0.  1.
        -12    1    3    3    0    0  0.11801964912E+02  0.11998066913E+02 -0.13063094370E+02  0.21304563360E+02  0.00000000000E+00 0.  1.
</event>
<event>
 7    1  0.1542786E-009  0.4778727E+02  0.7816164E-02  0.1312668E+00
        -11   -1    0    0    0    0  0.00000000000E+00  0.00000000000E+00  0.45593999997E+02  0.45594000000E+02  0.51100000000E-03 0. -1.
         11   -1    0    0    0    0 -0.00000000000E+00 -0.00000000000E+00 -0.45593999997E+02  0.45594000000E+02  0.51100000000E-03 0.  1.
    9900012    2    1    2    0    0 -0.47425732959E+01  0.24097291943E+02  0.35783401384E+02  0.47787270800E+02  0.19999998887E+02 0.  0.
        -12    1    1    2    0    0  0.47425732959E+01 -0.24097291943E+02 -0.35783401384E+02  0.43400729200E+02  0.00000000000E+00 0.  1.
         11    1    3    3    0    0 -0.74993794701E+01  0.64361380139E+01  0.69484685004E+01  0.12080802115E+02  0.51100000000E-03 0. -1.
        -11    1    3    3    0    0 -0.10032243507E+00  0.37139428511E+01  0.16362467107E+02  0.16778967971E+02  0.51100000000E-03 0.  1.
        -12    1    3    3    0    0  0.28571286093E+01  0.13947211078E+02  0.12472465777E+02  0.18927500714E+02  0.00000000000E+00 0.  1.
</event>
<event>
 7    1  0.1542786E-009  0.4778727E+02  0.7816164E-02  0.1312668E+00
        -11   -1    0    0    0    0  0.00000000000E+00  0.00000000000E+00  0.45593999997E+02  0.45594000000E+02  0.51100000000E-03 0.  1.
         11   -1    0    0    0    0 -0.00000000000E+00 -0.00000000000E+00 -0.45593999997E+02  0.45594000000E+02  0.51100000000E-03 0. -1.
    9900012    2    1    2    0    0  0.18474049951E+01  0.54135248580E+01 -0.43022140195E+02  0.47787266094E+02  0.19999977429E+02 0.  0.
        -12    1    1    2    0    0 -0.18474049951E+01 -0.54135248580E+01  0.43022140195E+02  0.43400733906E+02  0.00000000000E+00 0.  1.
         11    1    3    3    0    0  0.19139249326E+01 -0.39584076151E+01 -0.40063806587E+01  0.59483767314E+01  0.51100000000E-03 0. -1.
        -11    1    3    3    0    0  0.46505479173E+01  0.71667019648E+01 -0.14974675081E+02  0.17240362729E+02  0.51100000000E-03 0.  1.
        -12    1    3    3    0    0 -0.47170678548E+01  0.22052305083E+01 -0.24041084456E+02  0.24598526634E+02  0.00000000000E+00 0.  1.
</event>
<event>
 7    1  0.1542786E-009  0.4778727E+02  0.7816164E-02  0.1312668E+00
        -11   -1    0    0    0    0  0.00000000000E+00  0.00000000000E+00  0.45593999997E+02  0.45594000000E+02  0.51100000000E-03 0.  1.
         11   -1    0    0    0    0 -0.00000000000E+00 -0.00000000000E+00 -0.45593999997E+02  0.45594000000E+02  0.51100000000E-03 0. -1.
    9900012    2    1    2    0    0 -0.13030372159E+02  0.27303182041E+02 -0.31118631139E+02  0.47787267839E+02  0.19999985384E+02 0.  0.
        -12    1    1    2    0    0  0.13030372159E+02 -0.27303182041E+02  0.31118631139E+02  0.43400732161E+02  0.00000000000E+00 0.  1.
         11    1    3    3    0    0 -0.22680297931E+01  0.10615896899E+02 -0.11079488595E+02  0.15511166748E+02  0.51100000000E-03 0. -1.
        -11    1    3    3    0    0 -0.16209011513E+01  0.34421233356E+01  0.25209329253E+01  0.45640592322E+01  0.51100000000E-03 0.  1.
        -12    1    3    3    0    0 -0.91414412148E+01  0.13245161807E+02 -0.22560075469E+02  0.27712041858E+02  0.00000000000E+00 0.  1.
</event>
<event>
 7    1  0.1542786E-009  0.4778727E+02  0.7816164E-02  0.1312668E+00
        -11   -1    0    0    0    0  0.00000000000E+00  0.00000000000E+00  0.45593999997E+02  0.45594000000E+02  0.51100000000E-03 0.  1.
         11   -1    0    0    0    0 -0.00000000000E+00 -0.00000000000E+00 -0.45593999997E+02  0.45594000000E+02  0.51100000000E-03 0. -1.
    9900012    2    1    2    0    0  0.38132341908E+02 -0.18304450752E+01 -0.20644541955E+02  0.47787272574E+02  0.20000006976E+02 0.  0.
        -12    1    1    2    0    0 -0.38132341908E+02  0.18304450752E+01  0.20644541955E+02  0.43400727426E+02  0.00000000000E+00 0.  1.
         11    1    3    3    0    0  0.24926066859E+02 -0.31269729501E+00 -0.19139102726E+02  0.31427883195E+02  0.51100000000E-03 0. -1.
        -11    1    3    3    0    0 -0.11289230685E+01 -0.13203336358E+01 -0.10202775342E+01  0.20146252039E+01  0.51100000000E-03 0.  1.
        -12    1    3    3    0    0  0.14335198117E+02 -0.19741414437E+00 -0.48516169490E+00  0.14344764176E+02  0.00000000000E+00 0.  1.
</event>
<event>
 7    1  0.1542786E-009  0.4778727E+02  0.7816164E-02  0.1312668E+00
        -11   -1    0    0    0    0  0.00000000000E+00  0.00000000000E+00  0.45593999997E+02  0.45594000000E+02  0.51100000000E-03 0.  1.
         11   -1    0    0    0    0 -0.00000000000E+00 -0.00000000000E+00 -0.45593999997E+02  0.45594000000E+02  0.51100000000E-03 0. -1.
    9900012    2    1    2    0    0  0.39599448350E+02  0.13140616331E+02 -0.11951192278E+02  0.47787273001E+02  0.20000008921E+02 0.  0.
        -12    1    1    2    0    0 -0.39599448350E+02 -0.13140616331E+02  0.11951192278E+02  0.43400726999E+02  0.00000000000E+00 0.  1.
         11    1    3    3    0    0  0.25294543189E+01  0.27890370521E+01  0.16703144262E+01  0.41190796755E+01  0.51100000000E-03 0. -1.
        -11    1    3    3    0    0 -0.44891932759E+00  0.46391331007E+00  0.18027422809E+01  0.19148431044E+01  0.51100000000E-03 0.  1.
        -12    1    3    3    0    0  0.37518913359E+02  0.98876659690E+01 -0.15424248985E+02  0.41753350221E+02  0.00000000000E+00 0.  1.
</event>
<event>
 7    1  0.1542786E-009  0.4778727E+02  0.7816164E-02  0.1312668E+00
        -11   -1    0    0    0    0  0.00000000000E+00  0.00000000000E+00  0.45593999997E+02  0.45594000000E+02  0.51100000000E-03 0.  1.
         11   -1    0    0    0    0 -0.00000000000E+00 -0.00000000000E+00 -0.45593999997E+02  0.45594000000E+02  0.51100000000E-03 0. -1.
    9900012    2    1    2    0    0  0.37241605622E+02 -0.22044197665E+02  0.32771348347E+01  0.47787268984E+02  0.19999990605E+02 0.  0.
        -12    1    1    2    0    0 -0.37241605622E+02  0.22044197665E+02 -0.32771348347E+01  0.43400731016E+02  0.00000000000E+00 0.  1.
         11    1    3    3    0    0  0.32579515717E+02 -0.10228514401E+02  0.45192336531E+01  0.34445185793E+02  0.51100000000E-03 0. -1.
        -11    1    3    3    0    0  0.53553660063E+01 -0.10114086812E+02 -0.98408407005E+00  0.11486649591E+02  0.51100000000E-03 0.  1.
        -12    1    3    3    0    0 -0.69327610103E+00 -0.17015964512E+01 -0.25801474837E+00  0.18554336004E+01  0.00000000000E+00 0.  1.
</event>
<event>
 7    1  0.1542786E-009  0.4778728E+02  0.7816164E-02  0.1312668E+00
        -11   -1    0    0    0    0  0.00000000000E+00  0.00000000000E+00  0.45593999997E+02  0.45594000000E+02  0.51100000000E-03 0.  1.
         11   -1    0    0    0    0 -0.00000000000E+00 -0.00000000000E+00 -0.45593999997E+02  0.45594000000E+02  0.51100000000E-03 0. -1.
    9900012    2    1    2    0    0  0.30519415297E+02  0.18427474561E+02 -0.24751083403E+02  0.47787278135E+02  0.20000032329E+02 0.  0.
        -12    1    1    2    0    0 -0.30519415297E+02 -0.18427474561E+02  0.24751083403E+02  0.43400721865E+02  0.00000000000E+00 0.  1.
         11    1    3    3    0    0  0.17778709063E+02  0.15350587532E+02 -0.18778707343E+02  0.30072626810E+02  0.51100000000E-03 0. -1.
        -11    1    3    3    0    0 -0.33894195232E+00  0.30785794643E+01  0.47310491798E+00  0.31331073537E+01  0.51100000000E-03 0.  1.
         12    1    3    3    0    0  0.13079648187E+02 -0.16924353792E-02 -0.64454809788E+01  0.14581543972E+02  0.00000000000E+00 0. -1.
</event>
<event>
 7    1  0.1542786E-009  0.4778728E+02  0.7816164E-02  0.1312668E+00
        -11   -1    0    0    0    0  0.00000000000E+00  0.00000000000E+00  0.45593999997E+02  0.45594000000E+02  0.51100000000E-03 0. -1.
         11   -1    0    0    0    0 -0.00000000000E+00 -0.00000000000E+00 -0.45593999997E+02  0.45594000000E+02  0.51100000000E-03 0.  1.
    9900012    2    1    2    0    0 -0.26992194212E+02  0.17496238743E+02  0.29136330482E+02  0.47787277973E+02  0.20000031589E+02 0.  0.
        -12    1    1    2    0    0  0.26992194212E+02 -0.17496238743E+02 -0.29136330482E+02  0.43400722027E+02  0.00000000000E+00 0.  1.
         11    1    3    3    0    0 -0.24249231783E+02  0.16284142293E+02  0.29518192407E+02  0.41527367068E+02  0.51100000000E-03 0. -1.
        -11    1    3    3    0    0 -0.18595838540E+01 -0.20715446238E+01  0.27270908475E+00  0.27970913007E+01  0.51100000000E-03 0.  1.
        -12    1    3    3    0    0 -0.88337857518E+00  0.32836410734E+01 -0.65457101046E+00  0.34628196046E+01  0.00000000000E+00 0.  1.
</event>
<event>
 7    1  0.1542786E-009  0.4778727E+02  0.7816164E-02  0.1312668E+00
        -11   -1    0    0    0    0  0.00000000000E+00  0.00000000000E+00  0.45593999997E+02  0.45594000000E+02  0.51100000000E-03 0. -1.
         11   -1    0    0    0    0 -0.00000000000E+00 -0.00000000000E+00 -0.45593999997E+02  0.45594000000E+02  0.51100000000E-03 0.  1.
    9900012    2    1    2    0    0  0.92589115084E+01  0.24335928961E+02  0.34722591937E+02  0.47787271072E+02  0.20000000124E+02 0.  0.
        -12    1    1    2    0    0 -0.92589115084E+01 -0.24335928961E+02 -0.34722591937E+02  0.43400728928E+02  0.00000000000E+00 0.  1.
         11    1    3    3    0    0  0.52616571290E+00  0.50875406640E+01  0.19553146353E+02  0.20211023055E+02  0.51100000000E-03 0.  1.
        -11    1    3    3    0    0  0.55905213976E+01  0.12782978462E+02  0.14856751365E+02  0.20380910903E+02  0.51100000000E-03 0. -1.
        -12    1    3    3    0    0  0.31422243978E+01  0.64654098349E+01  0.31269421828E+00  0.71953371133E+01  0.00000000000E+00 0.  1.
</event>
<event>
 7    1  0.1542786E-009  0.4778727E+02  0.7816164E-02  0.1312668E+00
        -11   -1    0    0    0    0  0.00000000000E+00  0.00000000000E+00  0.45593999997E+02  0.45594000000E+02  0.51100000000E-03 0.  1.
         11   -1    0    0    0    0 -0.00000000000E+00 -0.00000000000E+00 -0.45593999997E+02  0.45594000000E+02  0.51100000000E-03 0. -1.
    9900012    2    1    2    0    0  0.40349090262E+02  0.32305346420E+01 -0.15656873154E+02  0.47787272863E+02  0.20000008292E+02 0.  0.
        -12    1    1    2    0    0 -0.40349090262E+02 -0.32305346420E+01  0.15656873154E+02  0.43400727137E+02  0.00000000000E+00 0.  1.
         11    1    3    3    0    0  0.58307638533E+01 -0.22826555609E+01 -0.35270217366E+01  0.71866686381E+01  0.51100000000E-03 0. -1.
        -11    1    3    3    0    0  0.11328885698E+02  0.16367398695E+01 -0.12680859304E+02  0.17082937731E+02  0.51100000000E-03 0.  1.
         12    1    3    3    0    0  0.23189440710E+02  0.38764503333E+01  0.55100788656E+00  0.23517666494E+02  0.00000000000E+00 0. -1.
</event>
<event>
 7    1  0.1542786E-009  0.4778727E+02  0.7816164E-02  0.1312668E+00
        -11   -1    0    0    0    0  0.00000000000E+00  0.00000000000E+00  0.45593999997E+02  0.45594000000E+02  0.51100000000E-03 0. -1.
         11   -1    0    0    0    0 -0.00000000000E+00 -0.00000000000E+00 -0.45593999997E+02  0.45594000000E+02  0.51100000000E-03 0.  1.
    9900012    2    1    2    0    0  0.42443614800E+02 -0.75709181133E+01 -0.49843502484E+01  0.47787274364E+02  0.20000015133E+02 0.  0.
        -12    1    1    2    0    0 -0.42443614800E+02  0.75709181133E+01  0.49843502484E+01  0.43400725636E+02  0.00000000000E+00 0.  1.
         11    1    3    3    0    0  0.20054685692E+02  0.31202084104E+01  0.24696043651E+00  0.20297465567E+02  0.51100000000E-03 0. -1.
        -11    1    3    3    0    0  0.86556877615E+01  0.12991958394E+01 -0.14811367680E+01  0.88770832394E+01  0.51100000000E-03 0.  1.
        -12    1    3    3    0    0  0.13733241347E+02 -0.11990322363E+02 -0.37501739170E+01  0.18612725557E+02  0.00000000000E+00 0.  1.
</event>
<event>
 7    1  0.1542786E-009  0.4778727E+02  0.7816164E-02  0.1312668E+00
        -11   -1    0    0    0    0  0.00000000000E+00  0.00000000000E+00  0.45593999997E+02  0.45594000000E+02  0.51100000000E-03 0.  1.
         11   -1    0    0    0    0 -0.00000000000E+00 -0.00000000000E+00 -0.45593999997E+02  0.45594000000E+02  0.51100000000E-03 0. -1.
    9900012    2    1    2    0    0  0.16758941831E+02  0.34454532292E+02 -0.20387409488E+02  0.47787269679E+02  0.19999993774E+02 0.  0.
        -12    1    1    2    0    0 -0.16758941831E+02 -0.34454532292E+02  0.20387409488E+02  0.43400730321E+02  0.00000000000E+00 0.  1.
         11    1    3    3    0    0  0.97589770826E+00  0.67088137515E+01  0.50458989894E+00  0.67981739840E+01  0.51100000000E-03 0. -1.
        -11    1    3    3    0    0  0.15353874159E+02  0.12182204370E+02 -0.13138093210E+02  0.23595699787E+02  0.51100000000E-03 0.  1.
         12    1    3    3    0    0  0.42916996383E+00  0.15563514170E+02 -0.77539061770E+01  0.17393395907E+02  0.00000000000E+00 0. -1.
</event>
<event>
 7    1  0.1542786E-009  0.4778727E+02  0.7816164E-02  0.1312668E+00
        -11   -1    0    0    0    0  0.00000000000E+00  0.00000000000E+00  0.45593999997E+02  0.45594000000E+02  0.51100000000E-03 0.  1.
         11   -1    0    0    0    0 -0.00000000000E+00 -0.00000000000E+00 -0.45593999997E+02  0.45594000000E+02  0.51100000000E-03 0. -1.
    9900012    2    1    2    0    0 -0.97839156442E+00  0.73860216910E+01 -0.42756433215E+02  0.47787272497E+02  0.20000006624E+02 0.  0.
        -12    1    1    2    0    0  0.97839156442E+00 -0.73860216910E+01  0.42756433215E+02  0.43400727503E+02  0.00000000000E+00 0.  1.
         11    1    3    3    0    0 -0.54741015374E+01  0.53449351009E+00 -0.23326978152E+02  0.23966630570E+02  0.51100000000E-03 0. -1.
        -11    1    3    3    0    0 -0.34212267820E+01  0.42311222559E+01 -0.75686500800E+01  0.93215692098E+01  0.51100000000E-03 0.  1.
         12    1    3    3    0    0  0.79169367550E+01  0.26204059250E+01 -0.11860804984E+02  0.14499072717E+02  0.00000000000E+00 0. -1.
</event>
<event>
 7    1  0.1542786E-009  0.4778727E+02  0.7816164E-02  0.1312668E+00
        -11   -1    0    0    0    0  0.00000000000E+00  0.00000000000E+00  0.45593999997E+02  0.45594000000E+02  0.51100000000E-03 0. -1.
         11   -1    0    0    0    0 -0.00000000000E+00 -0.00000000000E+00 -0.45593999997E+02  0.45594000000E+02  0.51100000000E-03 0.  1.
    9900012    2    1    2    0    0  0.19079825879E+02  0.16749557401E+02  0.35199943698E+02  0.47787268842E+02  0.19999989956E+02 0.  0.
        -12    1    1    2    0    0 -0.19079825879E+02 -0.16749557401E+02 -0.35199943698E+02  0.43400731158E+02  0.00000000000E+00 0.  1.
         11    1    3    3    0    0  0.40118428571E+01  0.29941535182E+01  0.14472071175E+02  0.15313415124E+02  0.51100000000E-03 0.  1.
        -11    1    3    3    0    0  0.92426410926E+01  0.54448397952E+01  0.19493521335E+02  0.22250170091E+02  0.51100000000E-03 0. -1.
        -12    1    3    3    0    0  0.58253419298E+01  0.83105640876E+01  0.12343511884E+01  0.10223683627E+02  0.00000000000E+00 0.  1.
</event>
<event>
 7    1  0.1542786E-009  0.4778727E+02  0.7816164E-02  0.1312668E+00
        -11   -1    0    0    0    0  0.00000000000E+00  0.00000000000E+00  0.45593999997E+02  0.45594000000E+02  0.51100000000E-03 0.  1.
         11   -1    0    0    0    0 -0.00000000000E+00 -0.00000000000E+00 -0.45593999997E+02  0.45594000000E+02  0.51100000000E-03 0. -1.
    9900012    2    1    2    0    0 -0.11774072796E+02  0.47963329701E+01 -0.41496860585E+02  0.47787273755E+02  0.20000012361E+02 0.  0.
        -12    1    1    2    0    0  0.11774072796E+02 -0.47963329701E+01  0.41496860585E+02  0.43400726245E+02  0.00000000000E+00 0.  1.
         11    1    3    3    0    0  0.23137518736E+01  0.11692640107E+01 -0.18340440825E+01  0.31755856180E+01  0.51100000000E-03 0. -1.
        -11    1    3    3    0    0 -0.39343393812E+01 -0.62734405101E+00 -0.60211758966E+00  0.40292844002E+01  0.51100000000E-03 0.  1.
         12    1    3    3    0    0 -0.10153485289E+02  0.42544130105E+01 -0.39060698913E+02  0.40582403737E+02  0.00000000000E+00 0. -1.
</event>
<event>
 7    1  0.1542786E-009  0.4778724E+02  0.7816164E-02  0.1312668E+00
        -11   -1    0    0    0    0  0.00000000000E+00  0.00000000000E+00  0.45593999997E+02  0.45594000000E+02  0.51100000000E-03 0.  1.
         11   -1    0    0    0    0 -0.00000000000E+00 -0.00000000000E+00 -0.45593999997E+02  0.45594000000E+02  0.51100000000E-03 0. -1.
    9900012    2    1    2    0    0 -0.42108344058E+02 -0.10512332495E+02  0.65492261096E-01  0.47787238912E+02  0.19999853496E+02 0.  0.
        -12    1    1    2    0    0  0.42108344058E+02  0.10512332495E+02 -0.65492261096E-01  0.43400761088E+02  0.00000000000E+00 0.  1.
         11    1    3    3    0    0 -0.91227440857E+01 -0.69054216445E+01 -0.73376721003E+01  0.13592304435E+02  0.51100000000E-03 0.  1.
        -11    1    3    3    0    0 -0.16820434094E+02 -0.20012984313E-01  0.34303780250E+01  0.17166679856E+02  0.51100000000E-03 0. -1.
        -12    1    3    3    0    0 -0.16165165878E+02 -0.35868978665E+01  0.39727863364E+01  0.17028254621E+02  0.00000000000E+00 0.  1.
</event>
<event>
 7    1  0.1542786E-009  0.4778726E+02  0.7816164E-02  0.1312668E+00
        -11   -1    0    0    0    0  0.00000000000E+00  0.00000000000E+00  0.45593999997E+02  0.45594000000E+02  0.51100000000E-03 0. -1.
         11   -1    0    0    0    0 -0.00000000000E+00 -0.00000000000E+00 -0.45593999997E+02  0.45594000000E+02  0.51100000000E-03 0.  1.
    9900012    2    1    2    0    0  0.65096741954E+01 -0.31777972193E+02  0.28834166165E+02  0.47787256766E+02  0.19999934900E+02 0.  0.
        -12    1    1    2    0    0 -0.65096741954E+01  0.31777972193E+02 -0.28834166165E+02  0.43400743234E+02  0.00000000000E+00 0.  1.
         11    1    3    3    0    0  0.59985939602E+00 -0.11186514514E+02  0.39389242528E+01  0.11874892118E+02  0.51100000000E-03 0.  1.
        -11    1    3    3    0    0  0.41297099085E+01 -0.22651222026E+02  0.21020203438E+02  0.31176614891E+02  0.51100000000E-03 0. -1.
        -12    1    3    3    0    0  0.17801048910E+01  0.20597643480E+01  0.38750384744E+01  0.47357497580E+01  0.00000000000E+00 0.  1.
</event>
<event>
 7    1  0.1542786E-009  0.4778727E+02  0.7816164E-02  0.1312668E+00
        -11   -1    0    0    0    0  0.00000000000E+00  0.00000000000E+00  0.45593999997E+02  0.45594000000E+02  0.51100000000E-03 0. -1.
         11   -1    0    0    0    0 -0.00000000000E+00 -0.00000000000E+00 -0.45593999997E+02  0.45594000000E+02  0.51100000000E-03 0.  1.
    9900012    2    1    2    0    0 -0.16245500309E+02 -0.28069680214E+02  0.28840944099E+02  0.47787270926E+02  0.19999999462E+02 0.  0.
        -12    1    1    2    0    0  0.16245500309E+02  0.28069680214E+02 -0.28840944099E+02  0.43400729074E+02  0.00000000000E+00 0.  1.
         11    1    3    3    0    0 -0.68654663575E+01 -0.85058819995E+01  0.32976515980E+01  0.11417493736E+02  0.51100000000E-03 0. -1.
        -11    1    3    3    0    0 -0.65126851174E+01 -0.75453363379E+00  0.42447329106E+01  0.78103870702E+01  0.51100000000E-03 0.  1.
         12    1    3    3    0    0 -0.28673488345E+01 -0.18809264581E+02  0.21298559590E+02  0.28559390120E+02  0.00000000000E+00 0. -1.
</event>
<event>
 7    1  0.1542786E-009  0.4778727E+02  0.7816164E-02  0.1312668E+00
        -11   -1    0    0    0    0  0.00000000000E+00  0.00000000000E+00  0.45593999997E+02  0.45594000000E+02  0.51100000000E-03 0. -1.
         11   -1    0    0    0    0 -0.00000000000E+00 -0.00000000000E+00 -0.45593999997E+02  0.45594000000E+02  0.51100000000E-03 0.  1.
    9900012    2    1    2    0    0 -0.11745231621E+02  0.41263705052E+02 -0.65558964117E+01  0.47787267308E+02  0.19999982965E+02 0.  0.
        -12    1    1    2    0    0  0.11745231621E+02 -0.41263705052E+02  0.65558964117E+01  0.43400732692E+02  0.00000000000E+00 0.  1.
         11    1    3    3    0    0  0.20660415313E+01  0.16792282362E+02  0.16473032260E+00  0.16919704810E+02  0.51100000000E-03 0. -1.
        -11    1    3    3    0    0  0.17433505802E+01  0.11332952343E+01 -0.53016909895E+00  0.21458585387E+01  0.51100000000E-03 0.  1.
        -12    1    3    3    0    0 -0.15554623732E+02  0.23338127455E+02 -0.61904576353E+01  0.28721703959E+02  0.00000000000E+00 0.  1.
</event>
<event>
 7    1  0.1542786E-009  0.4778727E+02  0.7816164E-02  0.1312668E+00
        -11   -1    0    0    0    0  0.00000000000E+00  0.00000000000E+00  0.45593999997E+02  0.45594000000E+02  0.51100000000E-03 0.  1.
         11   -1    0    0    0    0 -0.00000000000E+00 -0.00000000000E+00 -0.45593999997E+02  0.45594000000E+02  0.51100000000E-03 0. -1.
    9900012    2    1    2    0    0 -0.15424080171E+02 -0.27885597937E+02 -0.29463781212E+02  0.47787271610E+02  0.20000002580E+02 0.  0.
        -12    1    1    2    0    0  0.15424080171E+02  0.27885597937E+02  0.29463781212E+02  0.43400728390E+02  0.00000000000E+00 0.  1.
         11    1    3    3    0    0 -0.15031008293E+02 -0.23273264173E+02 -0.29566344717E+02  0.40518449819E+02  0.51100000000E-03 0. -1.
        -11    1    3    3    0    0  0.11371820712E+01 -0.52311352859E+01 -0.75902228957E+00  0.54068544034E+01  0.51100000000E-03 0.  1.
         12    1    3    3    0    0 -0.15302539496E+01  0.61880152122E+00  0.86158579430E+00  0.18619673880E+01  0.00000000000E+00 0. -1.
</event>
<event>
 7    1  0.1542786E-009  0.4778727E+02  0.7816164E-02  0.1312668E+00
        -11   -1    0    0    0    0  0.00000000000E+00  0.00000000000E+00  0.45593999997E+02  0.45594000000E+02  0.51100000000E-03 0.  1.
         11   -1    0    0    0    0 -0.00000000000E+00 -0.00000000000E+00 -0.45593999997E+02  0.45594000000E+02  0.51100000000E-03 0. -1.
    9900012    2    1    2    0    0  0.16706913562E+01 -0.25725799719E+01 -0.43292189536E+02  0.47787273599E+02  0.20000011648E+02 0.  0.
        -12    1    1    2    0    0 -0.16706913562E+01  0.25725799719E+01  0.43292189536E+02  0.43400726401E+02  0.00000000000E+00 0.  1.
         11    1    3    3    0    0 -0.51847309161E+01 -0.24633525792E+01 -0.17118830319E+02  0.18055577874E+02  0.51100000000E-03 0. -1.
        -11    1    3    3    0    0  0.41509559467E+01 -0.50316117219E+01 -0.62573720894E+01  0.90389301092E+01  0.51100000000E-03 0.  1.
        -12    1    3    3    0    0  0.27044663256E+01  0.49223843292E+01 -0.19915987127E+02  0.20692765616E+02  0.00000000000E+00 0.  1.
</event>
<event>
 7    1  0.1542786E-009  0.4778728E+02  0.7816164E-02  0.1312668E+00
        -11   -1    0    0    0    0  0.00000000000E+00  0.00000000000E+00  0.45593999997E+02  0.45594000000E+02  0.51100000000E-03 0.  1.
         11   -1    0    0    0    0 -0.00000000000E+00 -0.00000000000E+00 -0.45593999997E+02  0.45594000000E+02  0.51100000000E-03 0. -1.
    9900012    2    1    2    0    0 -0.21163213591E+02 -0.93149865748E+00 -0.37879720713E+02  0.47787279493E+02  0.20000038518E+02 0.  0.
        -12    1    1    2    0    0  0.21163213591E+02  0.93149865748E+00  0.37879720713E+02  0.43400720507E+02  0.00000000000E+00 0.  1.
         11    1    3    3    0    0 -0.14712653711E+01 -0.17267095675E+00 -0.30199341204E+01  0.33636943089E+01  0.51100000000E-03 0. -1.
        -11    1    3    3    0    0 -0.89831877313E+01  0.14803973955E+01 -0.31779409098E+02  0.33057829347E+02  0.51100000000E-03 0.  1.
        -12    1    3    3    0    0 -0.10708760488E+02 -0.22392250962E+01 -0.30803774955E+01  0.11365755837E+02  0.00000000000E+00 0.  1.
</event>
<event>
 7    1  0.1542786E-009  0.4778727E+02  0.7816164E-02  0.1312668E+00
        -11   -1    0    0    0    0  0.00000000000E+00  0.00000000000E+00  0.45593999997E+02  0.45594000000E+02  0.51100000000E-03 0.  1.
         11   -1    0    0    0    0 -0.00000000000E+00 -0.00000000000E+00 -0.45593999997E+02  0.45594000000E+02  0.51100000000E-03 0. -1.
    9900012    2    1    2    0    0  0.20906081364E+02  0.29231742480E+02 -0.24332377538E+02  0.47787267252E+02  0.19999982710E+02 0.  0.
        -12    1    1    2    0    0 -0.20906081364E+02 -0.29231742480E+02  0.24332377538E+02  0.43400732748E+02  0.00000000000E+00 0.  1.
         11    1    3    3    0    0  0.16007966876E+02  0.96733551834E+01 -0.77513719814E+01  0.20246297732E+02  0.51100000000E-03 0. -1.
        -11    1    3    3    0    0  0.10039570803E+01  0.71193584514E+01 -0.10513598639E+01  0.72662612397E+01  0.51100000000E-03 0.  1.
        -12    1    3    3    0    0  0.38941574071E+01  0.12439028845E+02 -0.15529645692E+02  0.20274708280E+02  0.00000000000E+00 0.  1.
</event>
<event>
 7    1  0.1542786E-009  0.4778727E+02  0.7816164E-02  0.1312668E+00
        -11   -1    0    0    0    0  0.00000000000E+00  0.00000000000E+00  0.45593999997E+02  0.45594000000E+02  0.51100000000E-03 0.  1.
         11   -1    0    0    0    0 -0.00000000000E+00 -0.00000000000E+00 -0.45593999997E+02  0.45594000000E+02  0.51100000000E-03 0. -1.
    9900012    2    1    2    0    0 -0.29333470140E+02  0.11423129515E+02 -0.29877802935E+02  0.47787268824E+02  0.19999989875E+02 0.  0.
        -12    1    1    2    0    0  0.29333470140E+02 -0.11423129515E+02  0.29877802935E+02  0.43400731176E+02  0.00000000000E+00 0.  1.
         11    1    3    3    0    0 -0.17241997711E+02  0.89127283875E+00 -0.12584894976E+02  0.21364934687E+02  0.51100000000E-03 0. -1.
        -11    1    3    3    0    0 -0.12971175277E+02  0.43155923410E+01 -0.11181110482E+02  0.17660491420E+02  0.51100000000E-03 0.  1.
        -12    1    3    3    0    0  0.87970284853E+00  0.62162643357E+01 -0.61117974767E+01  0.87618427166E+01  0.00000000000E+00 0.  1.
</event>
<event>
 7    1  0.1542786E-009  0.4778727E+02  0.7816164E-02  0.1312668E+00
        -11   -1    0    0    0    0  0.00000000000E+00  0.00000000000E+00  0.45593999997E+02  0.45594000000E+02  0.51100000000E-03 0.  1.
         11   -1    0    0    0    0 -0.00000000000E+00 -0.00000000000E+00 -0.45593999997E+02  0.45594000000E+02  0.51100000000E-03 0. -1.
    9900012    2    1    2    0    0 -0.41200477708E+02 -0.12321568881E+02 -0.58585759443E+01  0.47787270338E+02  0.19999996781E+02 0.  0.
        -12    1    1    2    0    0  0.41200477708E+02  0.12321568881E+02  0.58585759443E+01  0.43400729662E+02  0.00000000000E+00 0.  1.
         11    1    3    3    0    0 -0.13102169500E+02 -0.29072760116E+01  0.34744266553E+01  0.13863287499E+02  0.51100000000E-03 0. -1.
        -11    1    3    3    0    0 -0.27577390414E+02 -0.48708205913E+01 -0.85802101605E+01  0.29289202139E+02  0.51100000000E-03 0.  1.
         12    1    3    3    0    0 -0.52091779331E+00 -0.45434722776E+01 -0.75279243914E+00  0.46347807005E+01  0.00000000000E+00 0. -1.
</event>
<event>
 7    1  0.1542786E-009  0.4778727E+02  0.7816164E-02  0.1312668E+00
        -11   -1    0    0    0    0  0.00000000000E+00  0.00000000000E+00  0.45593999997E+02  0.45594000000E+02  0.51100000000E-03 0.  1.
         11   -1    0    0    0    0 -0.00000000000E+00 -0.00000000000E+00 -0.45593999997E+02  0.45594000000E+02  0.51100000000E-03 0. -1.
    9900012    2    1    2    0    0  0.32150831619E+02 -0.27914807060E+02 -0.84089994766E+01  0.47787266145E+02  0.19999977660E+02 0.  0.
        -12    1    1    2    0    0 -0.32150831619E+02  0.27914807060E+02  0.84089994766E+01  0.43400733855E+02  0.00000000000E+00 0.  1.
         11    1    3    3    0    0  0.78453209072E+00 -0.70658708364E+01 -0.26058406770E+01  0.75718179570E+01  0.51100000000E-03 0. -1.
        -11    1    3    3    0    0  0.27809062056E+02 -0.21657691082E+02 -0.25706244399E+01  0.35341301981E+02  0.51100000000E-03 0.  1.
         12    1    3    3    0    0  0.35572374722E+01  0.80875485865E+00 -0.32325343597E+01  0.48741462064E+01  0.00000000000E+00 0. -1.
</event>
<event>
 7    1  0.1542786E-009  0.4778727E+02  0.7816164E-02  0.1312668E+00
        -11   -1    0    0    0    0  0.00000000000E+00  0.00000000000E+00  0.45593999997E+02  0.45594000000E+02  0.51100000000E-03 0.  1.
         11   -1    0    0    0    0 -0.00000000000E+00 -0.00000000000E+00 -0.45593999997E+02  0.45594000000E+02  0.51100000000E-03 0. -1.
    9900012    2    1    2    0    0  0.25282017363E+02  0.40376156832E+01 -0.35044836332E+02  0.47787270791E+02  0.19999998844E+02 0.  0.
        -12    1    1    2    0    0 -0.25282017363E+02 -0.40376156832E+01  0.35044836332E+02  0.43400729209E+02  0.00000000000E+00 0.  1.
         11    1    3    3    0    0  0.59832745789E+01 -0.39478145265E+00 -0.12230745780E+02  0.13621547991E+02  0.51100000000E-03 0. -1.
        -11    1    3    3    0    0  0.14790918915E+02  0.38089028785E+01 -0.54523665603E+01  0.16217500574E+02  0.51100000000E-03 0.  1.
        -12    1    3    3    0    0  0.45078238696E+01  0.62349425732E+00 -0.17361723991E+02  0.17948222226E+02  0.00000000000E+00 0.  1.
</event>
<event>
 7    1  0.1542786E-009  0.4778725E+02  0.7816164E-02  0.1312668E+00
        -11   -1    0    0    0    0  0.00000000000E+00  0.00000000000E+00  0.45593999997E+02  0.45594000000E+02  0.51100000000E-03 0.  1.
         11   -1    0    0    0    0 -0.00000000000E+00 -0.00000000000E+00 -0.45593999997E+02  0.45594000000E+02  0.51100000000E-03 0. -1.
    9900012    2    1    2    0    0  0.27470278928E+02 -0.25009597046E+02 -0.22439451051E+02  0.47787249635E+02  0.19999902386E+02 0.  0.
        -12    1    1    2    0    0 -0.27470278928E+02  0.25009597046E+02  0.22439451051E+02  0.43400750365E+02  0.00000000000E+00 0.  1.
         11    1    3    3    0    0  0.94811184502E+01 -0.11387837679E+02 -0.17311872161E+02  0.22787614444E+02  0.51100000000E-03 0. -1.
        -11    1    3    3    0    0  0.13160170574E+02 -0.50705911976E+01 -0.55842642703E+01  0.15168552744E+02  0.51100000000E-03 0.  1.
         12    1    3    3    0    0  0.48289899041E+01 -0.85511681688E+01  0.45668538118E+00  0.98310824471E+01  0.00000000000E+00 0. -1.
</event>
<event>
 7    1  0.1542786E-009  0.4778727E+02  0.7816164E-02  0.1312668E+00
        -11   -1    0    0    0    0  0.00000000000E+00  0.00000000000E+00  0.45593999997E+02  0.45594000000E+02  0.51100000000E-03 0.  1.
         11   -1    0    0    0    0 -0.00000000000E+00 -0.00000000000E+00 -0.45593999997E+02  0.45594000000E+02  0.51100000000E-03 0. -1.
    9900012    2    1    2    0    0  0.29256002703E+01 -0.10241806339E+02 -0.42073383706E+02  0.47787270161E+02  0.19999995973E+02 0.  0.
        -12    1    1    2    0    0 -0.29256002703E+01  0.10241806339E+02  0.42073383706E+02  0.43400729839E+02  0.00000000000E+00 0.  1.
         11    1    3    3    0    0 -0.36851810071E+01 -0.21134896291E+01 -0.61840587288E+01  0.75026648659E+01  0.51100000000E-03 0.  1.
        -11    1    3    3    0    0  0.46967414321E+01  0.24876098804E+01 -0.22351264987E+02  0.22974477791E+02  0.51100000000E-03 0. -1.
         12    1    3    3    0    0  0.19140398453E+01 -0.10615926591E+02 -0.13538059991E+02  0.17310127505E+02  0.00000000000E+00 0. -1.
</event>
<event>
 7    1  0.1542786E-009  0.4778727E+02  0.7816164E-02  0.1312668E+00
        -11   -1    0    0    0    0  0.00000000000E+00  0.00000000000E+00  0.45593999997E+02  0.45594000000E+02  0.51100000000E-03 0.  1.
         11   -1    0    0    0    0 -0.00000000000E+00 -0.00000000000E+00 -0.45593999997E+02  0.45594000000E+02  0.51100000000E-03 0. -1.
    9900012    2    1    2    0    0 -0.60281869933E+01 -0.14049531667E+02 -0.40618897287E+02  0.47787271950E+02  0.20000004128E+02 0.  0.
        -12    1    1    2    0    0  0.60281869933E+01  0.14049531667E+02  0.40618897287E+02  0.43400728050E+02  0.00000000000E+00 0.  1.
         11    1    3    3    0    0  0.39644995379E+00 -0.18505051328E+01 -0.57983475029E+00  0.19793307988E+01  0.51100000000E-03 0. -1.
        -11    1    3    3    0    0 -0.54472874235E+01 -0.15556016369E+02 -0.22313570250E+02  0.27740908476E+02  0.51100000000E-03 0.  1.
         12    1    3    3    0    0 -0.97734952362E+00  0.33569898350E+01 -0.17725492287E+02  0.18067032675E+02  0.00000000000E+00 0. -1.
</event>
<event>
 7    1  0.1542786E-009  0.4778727E+02  0.7816164E-02  0.1312668E+00
        -11   -1    0    0    0    0  0.00000000000E+00  0.00000000000E+00  0.45593999997E+02  0.45594000000E+02  0.51100000000E-03 0. -1.
         11   -1    0    0    0    0 -0.00000000000E+00 -0.00000000000E+00 -0.45593999997E+02  0.45594000000E+02  0.51100000000E-03 0.  1.
    9900012    2    1    2    0    0  0.22358413531E+02  0.18871372885E+02  0.32056135178E+02  0.47787272209E+02  0.20000005311E+02 0.  0.
        -12    1    1    2    0    0 -0.22358413531E+02 -0.18871372885E+02 -0.32056135178E+02  0.43400727791E+02  0.00000000000E+00 0.  1.
         11    1    3    3    0    0  0.32912758650E+01  0.89981396764E+01  0.17002172699E+02  0.19515965034E+02  0.51100000000E-03 0.  1.
        -11    1    3    3    0    0  0.14817435268E+02  0.11405521906E+02  0.14614678401E+02  0.23732491292E+02  0.51100000000E-03 0. -1.
        -12    1    3    3    0    0  0.42497023982E+01 -0.15322886975E+01  0.43928407786E+00  0.45388158838E+01  0.00000000000E+00 0.  1.
</event>
<event>
 7    1  0.1542786E-009  0.4778727E+02  0.7816164E-02  0.1312668E+00
        -11   -1    0    0    0    0  0.00000000000E+00  0.00000000000E+00  0.45593999997E+02  0.45594000000E+02  0.51100000000E-03 0. -1.
         11   -1    0    0    0    0 -0.00000000000E+00 -0.00000000000E+00 -0.45593999997E+02  0.45594000000E+02  0.51100000000E-03 0.  1.
    9900012    2    1    2    0    0  0.32246009524E+02  0.98418133084E+01  0.27330511615E+02  0.47787270921E+02  0.19999999439E+02 0.  0.
        -12    1    1    2    0    0 -0.32246009524E+02 -0.98418133084E+01 -0.27330511615E+02  0.43400729079E+02  0.00000000000E+00 0.  1.
         11    1    3    3    0    0  0.16815567079E+01  0.45897323193E+01  0.50750549777E+01  0.70462372236E+01  0.51100000000E-03 0. -1.
        -11    1    3    3    0    0  0.29528880244E+02  0.76826140768E+01  0.22741678354E+02  0.38054714059E+02  0.51100000000E-03 0.  1.
        -12    1    3    3    0    0  0.10355725723E+01 -0.24305330877E+01 -0.48622171678E+00  0.26863196386E+01  0.00000000000E+00 0.  1.
</event>
<event>
 7    1  0.1542786E-009  0.4778727E+02  0.7816164E-02  0.1312668E+00
        -11   -1    0    0    0    0  0.00000000000E+00  0.00000000000E+00  0.45593999997E+02  0.45594000000E+02  0.51100000000E-03 0. -1.
         11   -1    0    0    0    0 -0.00000000000E+00 -0.00000000000E+00 -0.45593999997E+02  0.45594000000E+02  0.51100000000E-03 0.  1.
    9900012    2    1    2    0    0  0.24492449801E+02  0.32030091878E+02  0.16056656129E+02  0.47787273174E+02  0.20000009709E+02 0.  0.
        -12    1    1    2    0    0 -0.24492449801E+02 -0.32030091878E+02 -0.16056656129E+02  0.43400726826E+02  0.00000000000E+00 0.  1.
         11    1    3    3    0    0  0.43116750794E+01  0.15307004208E+02  0.30258579262E+01  0.16187981229E+02  0.51100000000E-03 0. -1.
        -11    1    3    3    0    0  0.85371850306E+01  0.37214431268E+01 -0.77587338513E+00  0.93453007958E+01  0.51100000000E-03 0.  1.
         12    1    3    3    0    0  0.11643589691E+02  0.13001644543E+02  0.13806671588E+02  0.22253991149E+02  0.00000000000E+00 0. -1.
</event>
<event>
 7    1  0.1542786E-009  0.4778727E+02  0.7816164E-02  0.1312668E+00
        -11   -1    0    0    0    0  0.00000000000E+00  0.00000000000E+00  0.45593999997E+02  0.45594000000E+02  0.51100000000E-03 0.  1.
         11   -1    0    0    0    0 -0.00000000000E+00 -0.00000000000E+00 -0.45593999997E+02  0.45594000000E+02  0.51100000000E-03 0. -1.
    9900012    2    1    2    0    0 -0.42709852100E+02  0.66099119506E+01 -0.39750601446E+01  0.47787268375E+02  0.19999987829E+02 0.  0.
        -12    1    1    2    0    0  0.42709852100E+02 -0.66099119506E+01  0.39750601446E+01  0.43400731625E+02  0.00000000000E+00 0.  1.
         11    1    3    3    0    0 -0.15689751564E+02  0.84310284104E+00 -0.28028549974E+01  0.15960423645E+02  0.51100000000E-03 0. -1.
        -11    1    3    3    0    0 -0.60826432182E+01  0.80934870718E+01 -0.33114395930E+01  0.10652169448E+02  0.51100000000E-03 0.  1.
        -12    1    3    3    0    0 -0.20937457318E+02 -0.23266779623E+01  0.21392344459E+01  0.21174675282E+02  0.00000000000E+00 0.  1.
</event>
<event>
 7    1  0.1542786E-009  0.4778727E+02  0.7816164E-02  0.1312668E+00
        -11   -1    0    0    0    0  0.00000000000E+00  0.00000000000E+00  0.45593999997E+02  0.45594000000E+02  0.51100000000E-03 0.  1.
         11   -1    0    0    0    0 -0.00000000000E+00 -0.00000000000E+00 -0.45593999997E+02  0.45594000000E+02  0.51100000000E-03 0. -1.
    9900012    2    1    2    0    0 -0.12540297851E+02 -0.39401704416E+02 -0.13185978207E+02  0.47787269564E+02  0.19999993251E+02 0.  0.
        -12    1    1    2    0    0  0.12540297851E+02  0.39401704416E+02  0.13185978207E+02  0.43400730436E+02  0.00000000000E+00 0.  1.
         11    1    3    3    0    0  0.18962863187E+01 -0.15576921698E+02 -0.26938776462E+01  0.15921475071E+02  0.51100000000E-03 0. -1.
        -11    1    3    3    0    0 -0.11844291806E+02 -0.24086760766E+02 -0.74412033849E+01  0.27853739437E+02  0.51100000000E-03 0.  1.
         12    1    3    3    0    0 -0.25922923641E+01  0.26197804741E+00 -0.30508971756E+01  0.40120550562E+01  0.00000000000E+00 0. -1.
</event>
<event>
 7    1  0.1542786E-009  0.4778727E+02  0.7816164E-02  0.1312668E+00
        -11   -1    0    0    0    0  0.00000000000E+00  0.00000000000E+00  0.45593999997E+02  0.45594000000E+02  0.51100000000E-03 0.  1.
         11   -1    0    0    0    0 -0.00000000000E+00 -0.00000000000E+00 -0.45593999997E+02  0.45594000000E+02  0.51100000000E-03 0. -1.
    9900012    2    1    2    0    0  0.24076943494E+02 -0.14602437015E+02 -0.33025638090E+02  0.47787272517E+02  0.20000006715E+02 0.  0.
        -12    1    1    2    0    0 -0.24076943494E+02  0.14602437015E+02  0.33025638090E+02  0.43400727483E+02  0.00000000000E+00 0.  1.
         11    1    3    3    0    0  0.14466701181E+02 -0.21854422517E+01 -0.13637275552E+02  0.20000922120E+02  0.51100000000E-03 0. -1.
        -11    1    3    3    0    0  0.11186622578E+00 -0.18041645724E+01 -0.11226081139E+02  0.11370682559E+02  0.51100000000E-03 0.  1.
        -12    1    3    3    0    0  0.94983760876E+01 -0.10612830191E+02 -0.81622813992E+01  0.16415667839E+02  0.00000000000E+00 0.  1.
</event>
<event>
 7    1  0.1542786E-009  0.4778727E+02  0.7816164E-02  0.1312668E+00
        -11   -1    0    0    0    0  0.00000000000E+00  0.00000000000E+00  0.45593999997E+02  0.45594000000E+02  0.51100000000E-03 0. -1.
         11   -1    0    0    0    0 -0.00000000000E+00 -0.00000000000E+00 -0.45593999997E+02  0.45594000000E+02  0.51100000000E-03 0.  1.
    9900012    2    1    2    0    0  0.20317787405E+02  0.35632756115E+02 -0.14181601579E+02  0.47787267094E+02  0.19999981990E+02 0.  0.
        -12    1    1    2    0    0 -0.20317787405E+02 -0.35632756115E+02  0.14181601579E+02  0.43400732906E+02  0.00000000000E+00 0.  1.
         11    1    3    3    0    0  0.81670526161E+01  0.33196151995E+01 -0.13850379576E+01  0.89240643158E+01  0.51100000000E-03 0. -1.
        -11    1    3    3    0    0 -0.34760745475E+00  0.93059434041E+01  0.82521683740E+00  0.93489248940E+01  0.51100000000E-03 0.  1.
        -12    1    3    3    0    0  0.12498342243E+02  0.23007197512E+02 -0.13621780459E+02  0.29514277885E+02  0.00000000000E+00 0.  1.
</event>
<event>
 7    1  0.1542786E-009  0.4778727E+02  0.7816164E-02  0.1312668E+00
        -11   -1    0    0    0    0  0.00000000000E+00  0.00000000000E+00  0.45593999997E+02  0.45594000000E+02  0.51100000000E-03 0. -1.
         11   -1    0    0    0    0 -0.00000000000E+00 -0.00000000000E+00 -0.45593999997E+02  0.45594000000E+02  0.51100000000E-03 0.  1.
    9900012    2    1    2    0    0 -0.17880602251E+02 -0.11920846894E+02  0.37706775157E+02  0.47787269358E+02  0.19999992310E+02 0.  0.
        -12    1    1    2    0    0  0.17880602251E+02  0.11920846894E+02 -0.37706775157E+02  0.43400730642E+02  0.00000000000E+00 0.  1.
         11    1    3    3    0    0 -0.41331282448E+01 -0.10679747034E+02  0.60780679862E+01  0.12964669548E+02  0.51100000000E-03 0. -1.
        -11    1    3    3    0    0 -0.59213417446E+01  0.11327643416E+01  0.97267233331E+01  0.11443539233E+02  0.51100000000E-03 0.  1.
         12    1    3    3    0    0 -0.78261322618E+01 -0.23738642018E+01  0.21901983838E+02  0.23379060577E+02  0.00000000000E+00 0. -1.
</event>
<event>
 7    1  0.1542786E-009  0.4778727E+02  0.7816164E-02  0.1312668E+00
        -11   -1    0    0    0    0  0.00000000000E+00  0.00000000000E+00  0.45593999997E+02  0.45594000000E+02  0.51100000000E-03 0.  1.
         11   -1    0    0    0    0 -0.00000000000E+00 -0.00000000000E+00 -0.45593999997E+02  0.45594000000E+02  0.51100000000E-03 0. -1.
    9900012    2    1    2    0    0 -0.19412611071E+02  0.17939243845E+02 -0.34423207562E+02  0.47787272389E+02  0.20000006131E+02 0.  0.
        -12    1    1    2    0    0  0.19412611071E+02 -0.17939243845E+02  0.34423207562E+02  0.43400727611E+02  0.00000000000E+00 0.  1.
         11    1    3    3    0    0 -0.19535536796E+01  0.39701826125E+01 -0.15518712820E+02  0.16137198326E+02  0.51100000000E-03 0. -1.
        -11    1    3    3    0    0 -0.97686848381E+01  0.44782389744E+00 -0.63406931524E+01  0.11654704613E+02  0.51100000000E-03 0.  1.
         12    1    3    3    0    0 -0.76903725533E+01  0.13521237335E+02 -0.12563801589E+02  0.19995369450E+02  0.00000000000E+00 0. -1.
</event>
<event>
 7    1  0.1542786E-009  0.4778727E+02  0.7816164E-02  0.1312668E+00
        -11   -1    0    0    0    0  0.00000000000E+00  0.00000000000E+00  0.45593999997E+02  0.45594000000E+02  0.51100000000E-03 0.  1.
         11   -1    0    0    0    0 -0.00000000000E+00 -0.00000000000E+00 -0.45593999997E+02  0.45594000000E+02  0.51100000000E-03 0. -1.
    9900012    2    1    2    0    0 -0.10683419712E+02  0.55454148068E+01 -0.41698156147E+02  0.47787270649E+02  0.19999998195E+02 0.  0.
        -12    1    1    2    0    0  0.10683419712E+02 -0.55454148068E+01  0.41698156147E+02  0.43400729351E+02  0.00000000000E+00 0.  1.
         11    1    3    3    0    0 -0.45348593838E+01  0.29705617476E+01 -0.23537284320E+02  0.24153528524E+02  0.51100000000E-03 0. -1.
        -11    1    3    3    0    0  0.97760745379E+00 -0.65358715225E+00 -0.15236284099E+02  0.15281598278E+02  0.51100000000E-03 0.  1.
         12    1    3    3    0    0 -0.71261677824E+01  0.32284402114E+01 -0.29245877277E+01  0.83521438469E+01  0.00000000000E+00 0. -1.
</event>
<event>
 7    1  0.1542786E-009  0.4778727E+02  0.7816164E-02  0.1312668E+00
        -11   -1    0    0    0    0  0.00000000000E+00  0.00000000000E+00  0.45593999997E+02  0.45594000000E+02  0.51100000000E-03 0.  1.
         11   -1    0    0    0    0 -0.00000000000E+00 -0.00000000000E+00 -0.45593999997E+02  0.45594000000E+02  0.51100000000E-03 0. -1.
    9900012    2    1    2    0    0  0.15187911272E+01 -0.80329674580E+00 -0.43366706909E+02  0.47787270971E+02  0.19999999664E+02 0.  0.
        -12    1    1    2    0    0 -0.15187911272E+01  0.80329674580E+00  0.43366706909E+02  0.43400729029E+02  0.00000000000E+00 0.  1.
         11    1    3    3    0    0 -0.13169062586E+01  0.58806436805E+01 -0.34586067151E+02  0.35107153878E+02  0.51100000000E-03 0. -1.
        -11    1    3    3    0    0  0.27711172620E+01 -0.41972039472E+00 -0.19657134338E+01  0.34233442209E+01  0.51100000000E-03 0.  1.
        -12    1    3    3    0    0  0.64580123684E-01 -0.62642200316E+01 -0.68149263245E+01  0.92567728721E+01  0.00000000000E+00 0.  1.
</event>
<event>
 7    1  0.1542786E-009  0.4778727E+02  0.7816164E-02  0.1312668E+00
        -11   -1    0    0    0    0  0.00000000000E+00  0.00000000000E+00  0.45593999997E+02  0.45594000000E+02  0.51100000000E-03 0.  1.
         11   -1    0    0    0    0 -0.00000000000E+00 -0.00000000000E+00 -0.45593999997E+02  0.45594000000E+02  0.51100000000E-03 0. -1.
    9900012    2    1    2    0    0  0.95773942022E+01 -0.23693262166E+02 -0.35078855723E+02  0.47787271082E+02  0.20000000172E+02 0.  0.
        -12    1    1    2    0    0 -0.95773942022E+01  0.23693262166E+02  0.35078855723E+02  0.43400728918E+02  0.00000000000E+00 0.  1.
         11    1    3    3    0    0  0.28551225674E+01  0.10581902332E+01 -0.14005867784E+01  0.33515869419E+01  0.51100000000E-03 0. -1.
        -11    1    3    3    0    0  0.61815954225E+01 -0.45114333939E+01 -0.15228564857E+02  0.17043307810E+02  0.51100000000E-03 0.  1.
         12    1    3    3    0    0  0.54067621228E+00 -0.20240019005E+02 -0.18449704088E+02  0.27392376330E+02  0.00000000000E+00 0. -1.
</event>
<event>
 7    1  0.1542786E-009  0.4778727E+02  0.7816164E-02  0.1312668E+00
        -11   -1    0    0    0    0  0.00000000000E+00  0.00000000000E+00  0.45593999997E+02  0.45594000000E+02  0.51100000000E-03 0.  1.
         11   -1    0    0    0    0 -0.00000000000E+00 -0.00000000000E+00 -0.45593999997E+02  0.45594000000E+02  0.51100000000E-03 0. -1.
    9900012    2    1    2    0    0  0.27999250072E+02  0.19939890466E+02 -0.26496531901E+02  0.47787269140E+02  0.19999991318E+02 0.  0.
        -12    1    1    2    0    0 -0.27999250072E+02 -0.19939890466E+02  0.26496531901E+02  0.43400730860E+02  0.00000000000E+00 0.  1.
         11    1    3    3    0    0  0.12108433008E+02  0.13956995436E+02 -0.21460691429E+02  0.28319130431E+02  0.51100000000E-03 0. -1.
        -11    1    3    3    0    0  0.84067676381E+00 -0.16363288254E+01  0.77548197141E-01  0.18412830934E+01  0.51100000000E-03 0.  1.
        -12    1    3    3    0    0  0.15050140300E+02  0.76192238560E+01 -0.51133886692E+01  0.17626855616E+02  0.00000000000E+00 0.  1.
</event>
<event>
 7    1  0.1542786E-009  0.4778728E+02  0.7816164E-02  0.1312668E+00
        -11   -1    0    0    0    0  0.00000000000E+00  0.00000000000E+00  0.45593999997E+02  0.45594000000E+02  0.51100000000E-03 0.  1.
         11   -1    0    0    0    0 -0.00000000000E+00 -0.00000000000E+00 -0.45593999997E+02  0.45594000000E+02  0.51100000000E-03 0. -1.
    9900012    2    1    2    0    0  0.37929317701E+02 -0.27188212790E+01  0.20918836183E+02  0.47787276070E+02  0.20000022915E+02 0.  0.
        -12    1    1    2    0    0 -0.37929317701E+02  0.27188212790E+01 -0.20918836183E+02  0.43400723930E+02  0.00000000000E+00 0.  1.
         11    1    3    3    0    0  0.38599928015E+01 -0.14789074476E+01 -0.30239139672E+01  0.51215981499E+01  0.51100000000E-03 0. -1.
        -11    1    3    3    0    0  0.68599651029E+01 -0.98100811670E+00  0.97904936682E+01  0.11994801568E+02  0.51100000000E-03 0.  1.
         12    1    3    3    0    0  0.27209359796E+02 -0.25890571460E+00  0.14152256481E+02  0.30670876352E+02  0.00000000000E+00 0. -1.
</event>
<event>
 7    1  0.1542786E-009  0.4778727E+02  0.7816164E-02  0.1312668E+00
        -11   -1    0    0    0    0  0.00000000000E+00  0.00000000000E+00  0.45593999997E+02  0.45594000000E+02  0.51100000000E-03 0.  1.
         11   -1    0    0    0    0 -0.00000000000E+00 -0.00000000000E+00 -0.45593999997E+02  0.45594000000E+02  0.51100000000E-03 0. -1.
    9900012    2    1    2    0    0  0.24861516707E+02  0.96915192253E+00 -0.35561057070E+02  0.47787273642E+02  0.20000011844E+02 0.  0.
        -12    1    1    2    0    0 -0.24861516707E+02 -0.96915192253E+00  0.35561057070E+02  0.43400726358E+02  0.00000000000E+00 0.  1.
         11    1    3    3    0    0  0.23281104509E+01  0.17730639311E+01 -0.90405118831E+01  0.95023528321E+01  0.51100000000E-03 0. -1.
        -11    1    3    3    0    0  0.22529572462E+02  0.48827018298E+00 -0.15884309872E+02  0.27570479565E+02  0.51100000000E-03 0.  1.
        -12    1    3    3    0    0  0.38337943607E-02 -0.12921821915E+01 -0.10636235315E+02  0.10714441245E+02  0.00000000000E+00 0.  1.
</event>
<event>
 7    1  0.1542786E-009  0.4778727E+02  0.7816164E-02  0.1312668E+00
        -11   -1    0    0    0    0  0.00000000000E+00  0.00000000000E+00  0.45593999997E+02  0.45594000000E+02  0.51100000000E-03 0. -1.
         11   -1    0    0    0    0 -0.00000000000E+00 -0.00000000000E+00 -0.45593999997E+02  0.45594000000E+02  0.51100000000E-03 0.  1.
    9900012    2    1    2    0    0  0.18169472609E+02 -0.38890224990E+02  0.64065738582E+01  0.47787268172E+02  0.19999986901E+02 0.  0.
        -12    1    1    2    0    0 -0.18169472609E+02  0.38890224990E+02 -0.64065738582E+01  0.43400731828E+02  0.00000000000E+00 0.  1.
         11    1    3    3    0    0  0.10628760179E+02 -0.18104104818E+02  0.32619304699E+01  0.21245454687E+02  0.51100000000E-03 0. -1.
        -11    1    3    3    0    0  0.19312609587E+01 -0.51694722308E+01 -0.55344358684E+01  0.78155737267E+01  0.51100000000E-03 0.  1.
         12    1    3    3    0    0  0.56094514708E+01 -0.15616647941E+02  0.86790792566E+01  0.18726239758E+02  0.00000000000E+00 0. -1.
</event>
<event>
 7    1  0.1542786E-009  0.4778726E+02  0.7816164E-02  0.1312668E+00
        -11   -1    0    0    0    0  0.00000000000E+00  0.00000000000E+00  0.45593999997E+02  0.45594000000E+02  0.51100000000E-03 0.  1.
         11   -1    0    0    0    0 -0.00000000000E+00 -0.00000000000E+00 -0.45593999997E+02  0.45594000000E+02  0.51100000000E-03 0. -1.
    9900012    2    1    2    0    0 -0.72907336425E+01  0.22770585934E+02 -0.36221120155E+02  0.47787263530E+02  0.19999965739E+02 0.  0.
        -12    1    1    2    0    0  0.72907336425E+01 -0.22770585934E+02  0.36221120155E+02  0.43400736470E+02  0.00000000000E+00 0.  1.
         11    1    3    3    0    0 -0.34047611912E+01 -0.23298291616E+01 -0.59580376514E+01  0.72469797577E+01  0.51100000000E-03 0. -1.
        -11    1    3    3    0    0 -0.18581105240E+01  0.10553422506E+02 -0.62895434473E+01  0.12425202547E+02  0.51100000000E-03 0.  1.
        -12    1    3    3    0    0 -0.20278619273E+01  0.14546992590E+02 -0.23973539056E+02  0.28115081225E+02  0.00000000000E+00 0.  1.
</event>
<event>
 7    1  0.1542786E-009  0.4778726E+02  0.7816164E-02  0.1312668E+00
        -11   -1    0    0    0    0  0.00000000000E+00  0.00000000000E+00  0.45593999997E+02  0.45594000000E+02  0.51100000000E-03 0.  1.
         11   -1    0    0    0    0 -0.00000000000E+00 -0.00000000000E+00 -0.45593999997E+02  0.45594000000E+02  0.51100000000E-03 0. -1.
    9900012    2    1    2    0    0  0.20313668360E+02  0.29170346639E+02 -0.24901205342E+02  0.47787259537E+02  0.19999947533E+02 0.  0.
        -12    1    1    2    0    0 -0.20313668360E+02 -0.29170346639E+02  0.24901205342E+02  0.43400740463E+02  0.00000000000E+00 0.  1.
         11    1    3    3    0    0  0.12385939995E+02  0.17132850247E+02 -0.24405037473E+02  0.32288572615E+02  0.51100000000E-03 0. -1.
        -11    1    3    3    0    0  0.17284545965E+01  0.15124238524E+00  0.10115890162E+01  0.20084178226E+01  0.51100000000E-03 0.  1.
         12    1    3    3    0    0  0.61992737684E+01  0.11886254006E+02 -0.15077568847E+01  0.13490269100E+02  0.00000000000E+00 0. -1.
</event>
<event>
 7    1  0.1542786E-009  0.4778727E+02  0.7816164E-02  0.1312668E+00
        -11   -1    0    0    0    0  0.00000000000E+00  0.00000000000E+00  0.45593999997E+02  0.45594000000E+02  0.51100000000E-03 0. -1.
         11   -1    0    0    0    0 -0.00000000000E+00 -0.00000000000E+00 -0.45593999997E+02  0.45594000000E+02  0.51100000000E-03 0.  1.
    9900012    2    1    2    0    0 -0.36191906738E+02  0.20243011404E+02  0.12805848273E+02  0.47787269890E+02  0.19999994738E+02 0.  0.
        -12    1    1    2    0    0  0.36191906738E+02 -0.20243011404E+02 -0.12805848273E+02  0.43400730110E+02  0.00000000000E+00 0.  1.
         11    1    3    3    0    0 -0.32758507229E+01  0.62761718306E+01  0.19699844488E+01  0.73486304707E+01  0.51100000000E-03 0.  1.
        -11    1    3    3    0    0 -0.32171642429E+02  0.83286817854E+01  0.85927151115E+01  0.34325155063E+02  0.51100000000E-03 0. -1.
         12    1    3    3    0    0 -0.74441358686E+00  0.56381577882E+01  0.22431487126E+01  0.61134843568E+01  0.00000000000E+00 0. -1.
</event>
<event>
 7    1  0.1542786E-009  0.4778727E+02  0.7816164E-02  0.1312668E+00
        -11   -1    0    0    0    0  0.00000000000E+00  0.00000000000E+00  0.45593999997E+02  0.45594000000E+02  0.51100000000E-03 0. -1.
         11   -1    0    0    0    0 -0.00000000000E+00 -0.00000000000E+00 -0.45593999997E+02  0.45594000000E+02  0.51100000000E-03 0.  1.
    9900012    2    1    2    0    0 -0.24882819867E+02 -0.32293224753E+02  0.14886770879E+02  0.47787273777E+02  0.20000012461E+02 0.  0.
        -12    1    1    2    0    0  0.24882819867E+02  0.32293224753E+02 -0.14886770879E+02  0.43400726223E+02  0.00000000000E+00 0.  1.
         11    1    3    3    0    0  0.15090368680E+01 -0.66704694745E+01  0.17650584230E+01  0.70631286819E+01  0.51100000000E-03 0. -1.
        -11    1    3    3    0    0 -0.11175174104E+02 -0.62366884888E+01 -0.12961633827E-01  0.12797693848E+02  0.51100000000E-03 0.  1.
         12    1    3    3    0    0 -0.15216682631E+02 -0.19386066789E+02  0.13134674090E+02  0.27926451248E+02  0.00000000000E+00 0. -1.
</event>
<event>
 7    1  0.1542786E-009  0.4778726E+02  0.7816164E-02  0.1312668E+00
        -11   -1    0    0    0    0  0.00000000000E+00  0.00000000000E+00  0.45593999997E+02  0.45594000000E+02  0.51100000000E-03 0.  1.
         11   -1    0    0    0    0 -0.00000000000E+00 -0.00000000000E+00 -0.45593999997E+02  0.45594000000E+02  0.51100000000E-03 0. -1.
    9900012    2    1    2    0    0 -0.30798288868E+02  0.32388399905E+01 -0.30407228057E+02  0.47787260377E+02  0.19999951363E+02 0.  0.
        -12    1    1    2    0    0  0.30798288868E+02 -0.32388399905E+01  0.30407228057E+02  0.43400739623E+02  0.00000000000E+00 0.  1.
         11    1    3    3    0    0 -0.16815908985E+02  0.10609060533E+01 -0.26745122839E+02  0.31610155213E+02  0.51100000000E-03 0. -1.
        -11    1    3    3    0    0 -0.62243676916E+01  0.44722962416E+01 -0.16374974364E+01  0.78374476042E+01  0.51100000000E-03 0.  1.
        -12    1    3    3    0    0 -0.77580121916E+01 -0.22943623045E+01 -0.20246077818E+01  0.83396575601E+01  0.00000000000E+00 0.  1.
</event>
<event>
 7    1  0.1542786E-009  0.4778727E+02  0.7816164E-02  0.1312668E+00
        -11   -1    0    0    0    0  0.00000000000E+00  0.00000000000E+00  0.45593999997E+02  0.45594000000E+02  0.51100000000E-03 0.  1.
         11   -1    0    0    0    0 -0.00000000000E+00 -0.00000000000E+00 -0.45593999997E+02  0.45594000000E+02  0.51100000000E-03 0. -1.
    9900012    2    1    2    0    0  0.91403680955E+01 -0.22931431805E+02 -0.35696306299E+02  0.47787272161E+02  0.20000005090E+02 0.  0.
        -12    1    1    2    0    0 -0.91403680955E+01  0.22931431805E+02  0.35696306299E+02  0.43400727839E+02  0.00000000000E+00 0.  1.
         11    1    3    3    0    0  0.34466400537E+01 -0.10760227294E+02 -0.27171223031E+02  0.29426810570E+02  0.51100000000E-03 0. -1.
        -11    1    3    3    0    0  0.60154198013E+01 -0.10462308103E+02 -0.10306974465E+02  0.15870692774E+02  0.51100000000E-03 0.  1.
        -12    1    3    3    0    0 -0.32169175960E+00 -0.17088964089E+01  0.17818911970E+01  0.24897688170E+01  0.00000000000E+00 0.  1.
</event>
<event>
 7    1  0.1542786E-009  0.4778728E+02  0.7816164E-02  0.1312668E+00
        -11   -1    0    0    0    0  0.00000000000E+00  0.00000000000E+00  0.45593999997E+02  0.45594000000E+02  0.51100000000E-03 0.  1.
         11   -1    0    0    0    0 -0.00000000000E+00 -0.00000000000E+00 -0.45593999997E+02  0.45594000000E+02  0.51100000000E-03 0. -1.
    9900012    2    1    2    0    0 -0.19771583530E+02 -0.17273170779E+02 -0.34559295309E+02  0.47787276086E+02  0.20000022984E+02 0.  0.
        -12    1    1    2    0    0  0.19771583530E+02  0.17273170779E+02  0.34559295309E+02  0.43400723914E+02  0.00000000000E+00 0.  1.
         11    1    3    3    0    0  0.35064820952E+00 -0.47835985653E+01 -0.13474056718E+01  0.49820951122E+01  0.51100000000E-03 0. -1.
        -11    1    3    3    0    0 -0.13748303930E+01  0.16127488524E+00  0.10599223086E+01  0.17434459440E+01  0.51100000000E-03 0.  1.
         12    1    3    3    0    0 -0.18747401347E+02 -0.12650847099E+02 -0.34271811946E+02  0.41061735029E+02  0.00000000000E+00 0. -1.
</event>
<event>
 7    1  0.1542786E-009  0.4778727E+02  0.7816164E-02  0.1312668E+00
        -11   -1    0    0    0    0  0.00000000000E+00  0.00000000000E+00  0.45593999997E+02  0.45594000000E+02  0.51100000000E-03 0.  1.
         11   -1    0    0    0    0 -0.00000000000E+00 -0.00000000000E+00 -0.45593999997E+02  0.45594000000E+02  0.51100000000E-03 0. -1.
    9900012    2    1    2    0    0 -0.33596272591E+01 -0.32792761208E+02 -0.28230675322E+02  0.47787270604E+02  0.19999997992E+02 0.  0.
        -12    1    1    2    0    0  0.33596272591E+01  0.32792761208E+02  0.28230675322E+02  0.43400729396E+02  0.00000000000E+00 0.  1.
         11    1    3    3    0    0 -0.75517053320E+01 -0.20439473763E+02 -0.25501698976E+02  0.33543061757E+02  0.51100000000E-03 0. -1.
        -11    1    3    3    0    0  0.29817162853E+00 -0.42143929610E+00  0.10216182072E+01  0.11446490391E+01  0.51100000000E-03 0.  1.
         12    1    3    3    0    0  0.38939064444E+01 -0.11931848150E+02 -0.37505945532E+01  0.13099559808E+02  0.00000000000E+00 0. -1.
</event>
<event>
 7    1  0.1542786E-009  0.4778727E+02  0.7816164E-02  0.1312668E+00
        -11   -1    0    0    0    0  0.00000000000E+00  0.00000000000E+00  0.45593999997E+02  0.45594000000E+02  0.51100000000E-03 0.  1.
         11   -1    0    0    0    0 -0.00000000000E+00 -0.00000000000E+00 -0.45593999997E+02  0.45594000000E+02  0.51100000000E-03 0. -1.
    9900012    2    1    2    0    0 -0.13997322462E+01 -0.39860310145E+02 -0.17111974168E+02  0.47787271490E+02  0.20000002034E+02 0.  0.
        -12    1    1    2    0    0  0.13997322462E+01  0.39860310145E+02  0.17111974168E+02  0.43400728510E+02  0.00000000000E+00 0.  1.
         11    1    3    3    0    0 -0.17958052071E+01 -0.23520706648E+02 -0.14929238246E+02  0.27916495346E+02  0.51100000000E-03 0. -1.
        -11    1    3    3    0    0 -0.52816059551E+01 -0.69274715232E+01 -0.28298462394E+00  0.87158076923E+01  0.51100000000E-03 0.  1.
        -12    1    3    3    0    0  0.56776789160E+01 -0.94121319736E+01 -0.18997512988E+01  0.11154968452E+02  0.00000000000E+00 0.  1.
</event>
<event>
 7    1  0.1542786E-009  0.4778727E+02  0.7816164E-02  0.1312668E+00
        -11   -1    0    0    0    0  0.00000000000E+00  0.00000000000E+00  0.45593999997E+02  0.45594000000E+02  0.51100000000E-03 0.  1.
         11   -1    0    0    0    0 -0.00000000000E+00 -0.00000000000E+00 -0.45593999997E+02  0.45594000000E+02  0.51100000000E-03 0. -1.
    9900012    2    1    2    0    0  0.30694706546E+02 -0.15504259566E+02  0.26477843688E+02  0.47787270962E+02  0.19999999626E+02 0.  0.
        -12    1    1    2    0    0 -0.30694706546E+02  0.15504259566E+02 -0.26477843688E+02  0.43400729038E+02  0.00000000000E+00 0.  1.
         11    1    3    3    0    0  0.81268012352E+01 -0.83502447394E+01  0.42128829015E+01  0.12390313480E+02  0.51100000000E-03 0. -1.
        -11    1    3    3    0    0  0.79493070862E+01 -0.66514966720E+01  0.16883345616E+02  0.19811139558E+02  0.51100000000E-03 0.  1.
         12    1    3    3    0    0  0.14618598224E+02 -0.50251815476E+00  0.53816151704E+01  0.15585817925E+02  0.00000000000E+00 0. -1.
</event>
<event>
 7    1  0.1542786E-009  0.4778727E+02  0.7816164E-02  0.1312668E+00
        -11   -1    0    0    0    0  0.00000000000E+00  0.00000000000E+00  0.45593999997E+02  0.45594000000E+02  0.51100000000E-03 0.  1.
         11   -1    0    0    0    0 -0.00000000000E+00 -0.00000000000E+00 -0.45593999997E+02  0.45594000000E+02  0.51100000000E-03 0. -1.
    9900012    2    1    2    0    0  0.32374615547E+02 -0.26823626248E+02  0.10770358096E+02  0.47787271085E+02  0.20000000183E+02 0.  0.
        -12    1    1    2    0    0 -0.32374615547E+02  0.26823626248E+02 -0.10770358096E+02  0.43400728915E+02  0.00000000000E+00 0.  1.
         11    1    3    3    0    0  0.21300896476E+02 -0.15679101428E+02  0.15357706558E+02  0.30584662222E+02  0.51100000000E-03 0. -1.
        -11    1    3    3    0    0  0.24427566609E+01 -0.54982830464E+01 -0.27252864614E+00  0.60226612628E+01  0.51100000000E-03 0.  1.
        -12    1    3    3    0    0  0.86309624098E+01 -0.56462417734E+01 -0.43148198160E+01  0.11179947599E+02  0.00000000000E+00 0.  1.
</event>
<event>
 7    1  0.1542786E-009  0.4778727E+02  0.7816164E-02  0.1312668E+00
        -11   -1    0    0    0    0  0.00000000000E+00  0.00000000000E+00  0.45593999997E+02  0.45594000000E+02  0.51100000000E-03 0.  1.
         11   -1    0    0    0    0 -0.00000000000E+00 -0.00000000000E+00 -0.45593999997E+02  0.45594000000E+02  0.51100000000E-03 0. -1.
    9900012    2    1    2    0    0 -0.39823853132E+02 -0.84842084839E+01 -0.15023386256E+02  0.47787271820E+02  0.20000003538E+02 0.  0.
        -12    1    1    2    0    0  0.39823853132E+02  0.84842084839E+01  0.15023386256E+02  0.43400728180E+02  0.00000000000E+00 0.  1.
         11    1    3    3    0    0 -0.19598838001E+02 -0.18926660593E+01 -0.38205225298E+01  0.20057243791E+02  0.51100000000E-03 0. -1.
        -11    1    3    3    0    0 -0.21663723350E+02 -0.77878443213E+01 -0.87112764216E+01  0.24614096890E+02  0.51100000000E-03 0.  1.
        -12    1    3    3    0    0  0.14387082194E+01  0.11963018968E+01 -0.24915873046E+01  0.31159311393E+01  0.00000000000E+00 0.  1.
</event>
<event>
 7    1  0.1542786E-009  0.4778727E+02  0.7816164E-02  0.1312668E+00
        -11   -1    0    0    0    0  0.00000000000E+00  0.00000000000E+00  0.45593999997E+02  0.45594000000E+02  0.51100000000E-03 0. -1.
         11   -1    0    0    0    0 -0.00000000000E+00 -0.00000000000E+00 -0.45593999997E+02  0.45594000000E+02  0.51100000000E-03 0.  1.
    9900012    2    1    2    0    0  0.19663808142E+02  0.35233509879E+02 -0.15986170524E+02  0.47787271699E+02  0.20000002984E+02 0.  0.
        -12    1    1    2    0    0 -0.19663808142E+02 -0.35233509879E+02  0.15986170524E+02  0.43400728301E+02  0.00000000000E+00 0.  1.
         11    1    3    3    0    0  0.24890102748E+01 -0.11379427084E+01 -0.14329616411E+01  0.30892499222E+01  0.51100000000E-03 0. -1.
        -11    1    3    3    0    0  0.25545068449E+01  0.20592624230E+02 -0.69926909561E+01  0.21897018175E+02  0.51100000000E-03 0.  1.
         12    1    3    3    0    0  0.14620291022E+02  0.15778828358E+02 -0.75605179271E+01  0.22801003602E+02  0.00000000000E+00 0. -1.
</event>
<event>
 7    1  0.1542786E-009  0.4778727E+02  0.7816164E-02  0.1312668E+00
        -11   -1    0    0    0    0  0.00000000000E+00  0.00000000000E+00  0.45593999997E+02  0.45594000000E+02  0.51100000000E-03 0. -1.
         11   -1    0    0    0    0 -0.00000000000E+00 -0.00000000000E+00 -0.45593999997E+02  0.45594000000E+02  0.51100000000E-03 0.  1.
    9900012    2    1    2    0    0  0.38207064473E+02 -0.20546017106E+02 -0.13056492858E+01  0.47787270575E+02  0.19999997861E+02 0.  0.
        -12    1    1    2    0    0 -0.38207064473E+02  0.20546017106E+02  0.13056492858E+01  0.43400729425E+02  0.00000000000E+00 0.  1.
         11    1    3    3    0    0  0.25323787485E+02 -0.64083871364E+01 -0.21535843833E+01  0.26210676532E+02  0.51100000000E-03 0. -1.
        -11    1    3    3    0    0  0.10151606473E+02 -0.10755633295E+02 -0.37407151831E+01  0.15255546922E+02  0.51100000000E-03 0.  1.
         12    1    3    3    0    0  0.27316705139E+01 -0.33819966750E+01  0.45886502806E+01  0.63210471209E+01  0.00000000000E+00 0. -1.
</event>
<event>
 7    1  0.1542786E-009  0.4778722E+02  0.7816164E-02  0.1312668E+00
        -11   -1    0    0    0    0  0.00000000000E+00  0.00000000000E+00  0.45593999997E+02  0.45594000000E+02  0.51100000000E-03 0.  1.
         11   -1    0    0    0    0 -0.00000000000E+00 -0.00000000000E+00 -0.45593999997E+02  0.45594000000E+02  0.51100000000E-03 0. -1.
    9900012    2    1    2    0    0 -0.21852329238E+01 -0.40970632621E+02 -0.14151328830E+02  0.47787215584E+02  0.19999747131E+02 0.  0.
        -12    1    1    2    0    0  0.21852329238E+01  0.40970632621E+02  0.14151328830E+02  0.43400784416E+02  0.00000000000E+00 0.  1.
         11    1    3    3    0    0  0.64496545744E+01 -0.23064802623E+02 -0.72742086099E+01  0.25029927594E+02  0.51100000000E-03 0. -1.
        -11    1    3    3    0    0 -0.41224882375E+01 -0.13432152921E+02 -0.97408572422E+00  0.14084263723E+02  0.51100000000E-03 0.  1.
         12    1    3    3    0    0 -0.45123992608E+01 -0.44736770759E+01 -0.59030344960E+01  0.86730242666E+01  0.00000000000E+00 0. -1.
</event>
<event>
 7    1  0.1542786E-009  0.4778729E+02  0.7816164E-02  0.1312668E+00
        -11   -1    0    0    0    0  0.00000000000E+00  0.00000000000E+00  0.45593999997E+02  0.45594000000E+02  0.51100000000E-03 0. -1.
         11   -1    0    0    0    0 -0.00000000000E+00 -0.00000000000E+00 -0.45593999997E+02  0.45594000000E+02  0.51100000000E-03 0.  1.
    9900012    2    1    2    0    0 -0.17962286552E+02  0.12148898422E+02  0.37594976187E+02  0.47787289113E+02  0.20000082380E+02 0.  0.
        -12    1    1    2    0    0  0.17962286552E+02 -0.12148898422E+02 -0.37594976187E+02  0.43400710887E+02  0.00000000000E+00 0.  1.
         11    1    3    3    0    0 -0.56569475219E+01  0.11872184451E+02  0.15250812428E+02  0.20137951705E+02  0.51100000000E-03 0. -1.
        -11    1    3    3    0    0  0.58551160255E+00 -0.11655754134E+01  0.87983657492E+01  0.88945280931E+01  0.51100000000E-03 0.  1.
        -12    1    3    3    0    0 -0.12890850632E+02  0.14422893843E+01  0.13545798010E+02  0.18754809315E+02  0.00000000000E+00 0.  1.
</event>
<event>
 7    1  0.1542786E-009  0.4778727E+02  0.7816164E-02  0.1312668E+00
        -11   -1    0    0    0    0  0.00000000000E+00  0.00000000000E+00  0.45593999997E+02  0.45594000000E+02  0.51100000000E-03 0.  1.
         11   -1    0    0    0    0 -0.00000000000E+00 -0.00000000000E+00 -0.45593999997E+02  0.45594000000E+02  0.51100000000E-03 0. -1.
    9900012    2    1    2    0    0 -0.38614171720E+02 -0.14606692256E+02  0.13387072625E+02  0.47787269249E+02  0.19999991813E+02 0.  0.
        -12    1    1    2    0    0  0.38614171720E+02  0.14606692256E+02 -0.13387072625E+02  0.43400730751E+02  0.00000000000E+00 0.  1.
         11    1    3    3    0    0 -0.22810293922E+02 -0.22592778382E+01  0.64931719019E+01  0.23823835266E+02  0.51100000000E-03 0. -1.
        -11    1    3    3    0    0  0.74898643995E+00  0.10558155352E+01 -0.54259653510E+00  0.14036161842E+01  0.51100000000E-03 0.  1.
        -12    1    3    3    0    0 -0.16552864237E+02 -0.13403229953E+02  0.74364972587E+01  0.22559817799E+02  0.00000000000E+00 0.  1.
</event>
<event>
 7    1  0.1542786E-009  0.4778727E+02  0.7816164E-02  0.1312668E+00
        -11   -1    0    0    0    0  0.00000000000E+00  0.00000000000E+00  0.45593999997E+02  0.45594000000E+02  0.51100000000E-03 0.  1.
         11   -1    0    0    0    0 -0.00000000000E+00 -0.00000000000E+00 -0.45593999997E+02  0.45594000000E+02  0.51100000000E-03 0. -1.
    9900012    2    1    2    0    0 -0.17496660959E+02  0.11528620321E+01 -0.39700895655E+02  0.47787270151E+02  0.19999995929E+02 0.  0.
        -12    1    1    2    0    0  0.17496660959E+02 -0.11528620321E+01  0.39700895655E+02  0.43400729849E+02  0.00000000000E+00 0.  1.
         11    1    3    3    0    0 -0.71082674828E+01  0.62513518557E+00 -0.44647763620E+01  0.84173920445E+01  0.51100000000E-03 0. -1.
        -11    1    3    3    0    0  0.30872713295E+01  0.19949244163E+01 -0.11035029996E+02  0.11631115809E+02  0.51100000000E-03 0.  1.
        -12    1    3    3    0    0 -0.13475664806E+02 -0.14671975697E+01 -0.24201089297E+02  0.27738762298E+02  0.00000000000E+00 0.  1.
</event>
<event>
 7    1  0.1542786E-009  0.4778727E+02  0.7816164E-02  0.1312668E+00
        -11   -1    0    0    0    0  0.00000000000E+00  0.00000000000E+00  0.45593999997E+02  0.45594000000E+02  0.51100000000E-03 0.  1.
         11   -1    0    0    0    0 -0.00000000000E+00 -0.00000000000E+00 -0.45593999997E+02  0.45594000000E+02  0.51100000000E-03 0. -1.
    9900012    2    1    2    0    0 -0.15980794039E+02 -0.22201138857E+02 -0.33694908940E+02  0.47787271514E+02  0.20000002140E+02 0.  0.
        -12    1    1    2    0    0  0.15980794039E+02  0.22201138857E+02  0.33694908940E+02  0.43400728486E+02  0.00000000000E+00 0.  1.
         11    1    3    3    0    0 -0.76691529175E+01 -0.11049994046E+02 -0.14906312341E+02  0.20077759406E+02  0.51100000000E-03 0. -1.
        -11    1    3    3    0    0 -0.18299950376E+01 -0.13277211043E+02 -0.10859776244E+02  0.17250158122E+02  0.51100000000E-03 0.  1.
         12    1    3    3    0    0 -0.64816460837E+01  0.21260662317E+01 -0.79288203549E+01  0.10459353986E+02  0.00000000000E+00 0. -1.
</event>
<event>
 7    1  0.1542786E-009  0.4778727E+02  0.7816164E-02  0.1312668E+00
        -11   -1    0    0    0    0  0.00000000000E+00  0.00000000000E+00  0.45593999997E+02  0.45594000000E+02  0.51100000000E-03 0.  1.
         11   -1    0    0    0    0 -0.00000000000E+00 -0.00000000000E+00 -0.45593999997E+02  0.45594000000E+02  0.51100000000E-03 0. -1.
    9900012    2    1    2    0    0 -0.10934897254E+02  0.19976427003E+02 -0.36945820708E+02  0.47787270956E+02  0.19999999596E+02 0.  0.
        -12    1    1    2    0    0  0.10934897254E+02 -0.19976427003E+02  0.36945820708E+02  0.43400729044E+02  0.00000000000E+00 0.  1.
         11    1    3    3    0    0  0.33795333020E+01  0.39548234169E+01 -0.56081271636E+01  0.76493767159E+01  0.51100000000E-03 0. -1.
        -11    1    3    3    0    0 -0.81883964882E+01  0.31657316933E+01 -0.20310919740E+02  0.22127023187E+02  0.51100000000E-03 0.  1.
         12    1    3    3    0    0 -0.61260340673E+01  0.12855871893E+02 -0.11026773805E+02  0.18010871053E+02  0.00000000000E+00 0. -1.
</event>
<event>
 7    1  0.1542786E-009  0.4778727E+02  0.7816164E-02  0.1312668E+00
        -11   -1    0    0    0    0  0.00000000000E+00  0.00000000000E+00  0.45593999997E+02  0.45594000000E+02  0.51100000000E-03 0. -1.
         11   -1    0    0    0    0 -0.00000000000E+00 -0.00000000000E+00 -0.45593999997E+02  0.45594000000E+02  0.51100000000E-03 0.  1.
    9900012    2    1    2    0    0  0.40223793418E+02  0.13194167027E+02  0.95699499317E+01  0.47787267953E+02  0.19999985906E+02 0.  0.
        -12    1    1    2    0    0 -0.40223793418E+02 -0.13194167027E+02 -0.95699499317E+01  0.43400732047E+02  0.00000000000E+00 0.  1.
         11    1    3    3    0    0  0.40678282596E+02  0.10406126483E+02  0.91430130602E+01  0.42972140177E+02  0.51100000000E-03 0. -1.
        -11    1    3    3    0    0 -0.63155264067E+00 -0.43401602883E+00 -0.10223743947E+01  0.12776847480E+01  0.51100000000E-03 0.  1.
        -12    1    3    3    0    0  0.17706346321E+00  0.32220565731E+01  0.14493112663E+01  0.35374430281E+01  0.00000000000E+00 0.  1.
</event>
<event>
 7    1  0.1542786E-009  0.4778727E+02  0.7816164E-02  0.1312668E+00
        -11   -1    0    0    0    0  0.00000000000E+00  0.00000000000E+00  0.45593999997E+02  0.45594000000E+02  0.51100000000E-03 0.  1.
         11   -1    0    0    0    0 -0.00000000000E+00 -0.00000000000E+00 -0.45593999997E+02  0.45594000000E+02  0.51100000000E-03 0. -1.
    9900012    2    1    2    0    0 -0.11270923775E+02  0.19413132695E+02 -0.37144577850E+02  0.47787272962E+02  0.20000008742E+02 0.  0.
        -12    1    1    2    0    0  0.11270923775E+02 -0.19413132695E+02  0.37144577850E+02  0.43400727038E+02  0.00000000000E+00 0.  1.
         11    1    3    3    0    0 -0.38372743736E+01  0.42450094683E+01 -0.18927176663E+02  0.19773284924E+02  0.51100000000E-03 0.  1.
        -11    1    3    3    0    0 -0.37227736990E+01  0.22275553029E+01  0.10933132790E+01  0.44739670125E+01  0.51100000000E-03 0. -1.
         12    1    3    3    0    0 -0.37108757028E+01  0.12940567924E+02 -0.19310714466E+02  0.23540021025E+02  0.00000000000E+00 0. -1.
</event>
<event>
 7    1  0.1592167E-009  0.4778727E+02  0.7816164E-02  0.1312668E+00
        -11   -1    0    0    0    0  0.00000000000E+00  0.00000000000E+00  0.45593999997E+02  0.45594000000E+02  0.51100000000E-03 0. -1.
         11   -1    0    0    0    0 -0.00000000000E+00 -0.00000000000E+00 -0.45593999997E+02  0.45594000000E+02  0.51100000000E-03 0.  1.
    9900012    2    1    2    0    0 -0.27629703112E+02  0.25261494037E+02  0.21956318414E+02  0.47787268516E+02  0.19999988472E+02 0.  0.
        -12    1    1    2    0    0  0.27629703112E+02 -0.25261494037E+02 -0.21956318414E+02  0.43400731484E+02  0.00000000000E+00 0.  1.
         11    1    3    3    0    0 -0.81794981852E+01  0.16483206435E+02  0.96704598408E+01  0.20787450030E+02  0.51100000000E-03 0. -1.
        -11    1    3    3    0    0 -0.74019801017E+01  0.29335137438E+01 -0.11330262786E+01  0.80422982487E+01  0.51100000000E-03 0.  1.
         12    1    3    3    0    0 -0.12048224825E+02  0.58447738581E+01  0.13418884852E+02  0.18957520237E+02  0.00000000000E+00 0. -1.
</event>
<event>
 7    1  0.1542786E-009  0.4778728E+02  0.7816164E-02  0.1312668E+00
        -11   -1    0    0    0    0  0.00000000000E+00  0.00000000000E+00  0.45593999997E+02  0.45594000000E+02  0.51100000000E-03 0.  1.
         11   -1    0    0    0    0 -0.00000000000E+00 -0.00000000000E+00 -0.45593999997E+02  0.45594000000E+02  0.51100000000E-03 0. -1.
    9900012    2    1    2    0    0 -0.13227955603E+02  0.10697112322E+02 -0.39927627853E+02  0.47787280104E+02  0.20000041308E+02 0.  0.
        -12    1    1    2    0    0  0.13227955603E+02 -0.10697112322E+02  0.39927627853E+02  0.43400719896E+02  0.00000000000E+00 0.  1.
         11    1    3    3    0    0 -0.10116855865E+02  0.97595746090E+01 -0.29545928776E+02  0.32719443403E+02  0.51100000000E-03 0. -1.
        -11    1    3    3    0    0 -0.24587186000E+00  0.32859845342E+01 -0.10844752132E+02  0.11334319406E+02  0.51100000000E-03 0.  1.
        -12    1    3    3    0    0 -0.28652278785E+01 -0.23484468208E+01  0.46305305431E+00  0.37335172957E+01  0.00000000000E+00 0.  1.
</event>
<event>
 7    1  0.1542786E-009  0.4778730E+02  0.7816164E-02  0.1312668E+00
        -11   -1    0    0    0    0  0.00000000000E+00  0.00000000000E+00  0.45593999997E+02  0.45594000000E+02  0.51100000000E-03 0.  1.
         11   -1    0    0    0    0 -0.00000000000E+00 -0.00000000000E+00 -0.45593999997E+02  0.45594000000E+02  0.51100000000E-03 0. -1.
    9900012    2    1    2    0    0 -0.10419581242E+00  0.33096509114E+02 -0.28075444113E+02  0.47787304908E+02  0.20000154397E+02 0.  0.
        -12    1    1    2    0    0  0.10419581242E+00 -0.33096509114E+02  0.28075444113E+02  0.43400695092E+02  0.00000000000E+00 0.  1.
         11    1    3    3    0    0  0.25396337112E+01  0.26922431161E+02 -0.19064995409E+02  0.33086871856E+02  0.51100000000E-03 0. -1.
        -11    1    3    3    0    0 -0.38825864068E+01  0.53995890702E+01 -0.12042686628E+01  0.67587204859E+01  0.51100000000E-03 0.  1.
         12    1    3    3    0    0  0.12387568832E+01  0.77448888297E+00 -0.78061800412E+01  0.79417125660E+01  0.00000000000E+00 0. -1.
</event>
<event>
 7    1  0.1542786E-009  0.4778727E+02  0.7816164E-02  0.1312668E+00
        -11   -1    0    0    0    0  0.00000000000E+00  0.00000000000E+00  0.45593999997E+02  0.45594000000E+02  0.51100000000E-03 0. -1.
         11   -1    0    0    0    0 -0.00000000000E+00 -0.00000000000E+00 -0.45593999997E+02  0.45594000000E+02  0.51100000000E-03 0.  1.
    9900012    2    1    2    0    0  0.18160381502E+02  0.37705922941E+02  0.11492925444E+02  0.47787269402E+02  0.19999992511E+02 0.  0.
        -12    1    1    2    0    0 -0.18160381502E+02 -0.37705922941E+02 -0.11492925444E+02  0.43400730598E+02  0.00000000000E+00 0.  1.
         11    1    3    3    0    0  0.31570455303E+01  0.19442254016E+02  0.71286621759E+01  0.20947219443E+02  0.51100000000E-03 0. -1.
        -11    1    3    3    0    0  0.30310064725E+01  0.12503158262E+02  0.31553576541E-01  0.12865339585E+02  0.51100000000E-03 0.  1.
         12    1    3    3    0    0  0.11972329500E+02  0.57605106632E+01  0.43327096920E+01  0.13974710374E+02  0.00000000000E+00 0. -1.
</event>
<event>
 7    1  0.1542786E-009  0.4778727E+02  0.7816164E-02  0.1312668E+00
        -11   -1    0    0    0    0  0.00000000000E+00  0.00000000000E+00  0.45593999997E+02  0.45594000000E+02  0.51100000000E-03 0. -1.
         11   -1    0    0    0    0 -0.00000000000E+00 -0.00000000000E+00 -0.45593999997E+02  0.45594000000E+02  0.51100000000E-03 0.  1.
    9900012    2    1    2    0    0  0.39861335130E+02 -0.13143382990E+01 -0.17116365147E+02  0.47787268677E+02  0.19999989206E+02 0.  0.
        -12    1    1    2    0    0 -0.39861335130E+02  0.13143382990E+01  0.17116365147E+02  0.43400731323E+02  0.00000000000E+00 0.  1.
         11    1    3    3    0    0  0.21090758201E+02  0.66158039642E+01 -0.14275585430E+02  0.26313138984E+02  0.51100000000E-03 0. -1.
        -11    1    3    3    0    0  0.12039739849E+02 -0.58673812647E+01 -0.46980651522E+01  0.14193425061E+02  0.51100000000E-03 0.  1.
         12    1    3    3    0    0  0.67308370805E+01 -0.20627609985E+01  0.18572854355E+01  0.72807046315E+01  0.00000000000E+00 0. -1.
</event>
<event>
 7    1  0.1542786E-009  0.4778723E+02  0.7816164E-02  0.1312668E+00
        -11   -1    0    0    0    0  0.00000000000E+00  0.00000000000E+00  0.45593999997E+02  0.45594000000E+02  0.51100000000E-03 0.  1.
         11   -1    0    0    0    0 -0.00000000000E+00 -0.00000000000E+00 -0.45593999997E+02  0.45594000000E+02  0.51100000000E-03 0. -1.
    9900012    2    1    2    0    0 -0.31096979508E+02 -0.30120019466E+02 -0.30641506610E+01  0.47787231270E+02  0.19999818649E+02 0.  0.
        -12    1    1    2    0    0  0.31096979508E+02  0.30120019466E+02  0.30641506610E+01  0.43400768730E+02  0.00000000000E+00 0.  1.
         11    1    3    3    0    0 -0.15466616400E+02 -0.11024023479E+02 -0.70010578160E+01  0.20242532631E+02  0.51100000000E-03 0.  1.
        -11    1    3    3    0    0  0.16081846446E+01 -0.41308414150E+01  0.55636772957E+00  0.44676228532E+01  0.51100000000E-03 0. -1.
        -12    1    3    3    0    0 -0.17238547753E+02 -0.14965154572E+02  0.33805394254E+01  0.23077075785E+02  0.00000000000E+00 0.  1.
</event>
<event>
 7    1  0.1542786E-009  0.4778728E+02  0.7816164E-02  0.1312668E+00
        -11   -1    0    0    0    0  0.00000000000E+00  0.00000000000E+00  0.45593999997E+02  0.45594000000E+02  0.51100000000E-03 0.  1.
         11   -1    0    0    0    0 -0.00000000000E+00 -0.00000000000E+00 -0.45593999997E+02  0.45594000000E+02  0.51100000000E-03 0. -1.
    9900012    2    1    2    0    0 -0.12116669510E+02  0.25414142002E+02 -0.33029236041E+02  0.47787277343E+02  0.20000028718E+02 0.  0.
        -12    1    1    2    0    0  0.12116669510E+02 -0.25414142002E+02  0.33029236041E+02  0.43400722657E+02  0.00000000000E+00 0.  1.
         11    1    3    3    0    0  0.32492275513E+01  0.33673886274E+01 -0.74128424732E+01  0.87662431886E+01  0.51100000000E-03 0. -1.
        -11    1    3    3    0    0 -0.50969014892E+01  0.38924122621E+01 -0.58655527987E+00  0.64399786774E+01  0.51100000000E-03 0.  1.
         12    1    3    3    0    0 -0.10268995572E+02  0.18154341112E+02 -0.25029838288E+02  0.32581055477E+02  0.00000000000E+00 0. -1.
</event>
<event>
 7    1  0.1542786E-009  0.4778727E+02  0.7816164E-02  0.1312668E+00
        -11   -1    0    0    0    0  0.00000000000E+00  0.00000000000E+00  0.45593999997E+02  0.45594000000E+02  0.51100000000E-03 0.  1.
         11   -1    0    0    0    0 -0.00000000000E+00 -0.00000000000E+00 -0.45593999997E+02  0.45594000000E+02  0.51100000000E-03 0. -1.
    9900012    2    1    2    0    0  0.24001059181E+02  0.25985326045E+00 -0.36159434286E+02  0.47787273584E+02  0.20000011578E+02 0.  0.
        -12    1    1    2    0    0 -0.24001059181E+02 -0.25985326045E+00  0.36159434286E+02  0.43400726416E+02  0.00000000000E+00 0.  1.
         11    1    3    3    0    0  0.76649835954E+01 -0.35778684231E+01 -0.10892324188E+02  0.13791150874E+02  0.51100000000E-03 0. -1.
        -11    1    3    3    0    0 -0.22793609628E+01  0.19446082544E+01 -0.63454416035E+00  0.30626188490E+01  0.51100000000E-03 0.  1.
        -12    1    3    3    0    0  0.18615436549E+02  0.18931134291E+01 -0.24632565938E+02  0.30933503860E+02  0.00000000000E+00 0.  1.
</event>
<event>
 7    1  0.1542786E-009  0.4778727E+02  0.7816164E-02  0.1312668E+00
        -11   -1    0    0    0    0  0.00000000000E+00  0.00000000000E+00  0.45593999997E+02  0.45594000000E+02  0.51100000000E-03 0.  1.
         11   -1    0    0    0    0 -0.00000000000E+00 -0.00000000000E+00 -0.45593999997E+02  0.45594000000E+02  0.51100000000E-03 0. -1.
    9900012    2    1    2    0    0 -0.32032552056E+02  0.23714282777E+02 -0.17180564981E+02  0.47787269454E+02  0.19999992748E+02 0.  0.
        -12    1    1    2    0    0  0.32032552056E+02 -0.23714282777E+02  0.17180564981E+02  0.43400730546E+02  0.00000000000E+00 0.  1.
         11    1    3    3    0    0 -0.19173300108E+02  0.74416137958E+01 -0.13670694000E+02  0.24695767403E+02  0.51100000000E-03 0. -1.
        -11    1    3    3    0    0 -0.11989600665E+02  0.14115704376E+02 -0.62045210646E+01  0.19532017716E+02  0.51100000000E-03 0.  1.
        -12    1    3    3    0    0 -0.86965128234E+00  0.21569646053E+01  0.26946500830E+01  0.35594843351E+01  0.00000000000E+00 0.  1.
</event>
<event>
 7    1  0.1542786E-009  0.4778727E+02  0.7816164E-02  0.1312668E+00
        -11   -1    0    0    0    0  0.00000000000E+00  0.00000000000E+00  0.45593999997E+02  0.45594000000E+02  0.51100000000E-03 0.  1.
         11   -1    0    0    0    0 -0.00000000000E+00 -0.00000000000E+00 -0.45593999997E+02  0.45594000000E+02  0.51100000000E-03 0. -1.
    9900012    2    1    2    0    0  0.48588516428E+01 -0.10216691646E+02 -0.41900288470E+02  0.47787269576E+02  0.19999993304E+02 0.  0.
        -12    1    1    2    0    0 -0.48588516428E+01  0.10216691646E+02  0.41900288470E+02  0.43400730424E+02  0.00000000000E+00 0.  1.
         11    1    3    3    0    0 -0.49430032182E+01 -0.28600631755E+01 -0.80297132719E+01  0.98534023400E+01  0.51100000000E-03 0. -1.
        -11    1    3    3    0    0  0.58270688688E+01  0.24732173934E+01 -0.10325073114E+02  0.12111097017E+02  0.51100000000E-03 0.  1.
         12    1    3    3    0    0  0.39747859923E+01 -0.98298458636E+01 -0.23545502084E+02  0.25822770219E+02  0.00000000000E+00 0. -1.
</event>
<event>
 7    1  0.1542786E-009  0.4778727E+02  0.7816164E-02  0.1312668E+00
        -11   -1    0    0    0    0  0.00000000000E+00  0.00000000000E+00  0.45593999997E+02  0.45594000000E+02  0.51100000000E-03 0. -1.
         11   -1    0    0    0    0 -0.00000000000E+00 -0.00000000000E+00 -0.45593999997E+02  0.45594000000E+02  0.51100000000E-03 0.  1.
    9900012    2    1    2    0    0  0.16250573474E+02 -0.38563107837E+02 -0.11507773286E+02  0.47787271086E+02  0.20000000188E+02 0.  0.
        -12    1    1    2    0    0 -0.16250573474E+02  0.38563107837E+02  0.11507773286E+02  0.43400728914E+02  0.00000000000E+00 0.  1.
         11    1    3    3    0    0  0.29037179180E+01 -0.29780824047E+00  0.10627940499E+01  0.31064125530E+01  0.51100000000E-03 0. -1.
        -11    1    3    3    0    0  0.49976882368E+01 -0.17752989785E+02 -0.12942755974E+02  0.22531321898E+02  0.51100000000E-03 0.  1.
         12    1    3    3    0    0  0.83491673189E+01 -0.20512309812E+02  0.37218863821E+00  0.22149536635E+02  0.00000000000E+00 0. -1.
</event>
<event>
 7    1  0.1542786E-009  0.4778727E+02  0.7816164E-02  0.1312668E+00
        -11   -1    0    0    0    0  0.00000000000E+00  0.00000000000E+00  0.45593999997E+02  0.45594000000E+02  0.51100000000E-03 0.  1.
         11   -1    0    0    0    0 -0.00000000000E+00 -0.00000000000E+00 -0.45593999997E+02  0.45594000000E+02  0.51100000000E-03 0. -1.
    9900012    2    1    2    0    0 -0.32943611485E+02 -0.17887830118E+01 -0.28198261218E+02  0.47787271688E+02  0.20000002932E+02 0.  0.
        -12    1    1    2    0    0  0.32943611485E+02  0.17887830118E+01  0.28198261218E+02  0.43400728312E+02  0.00000000000E+00 0.  1.
         11    1    3    3    0    0 -0.18832268315E+02  0.45178919023E+01 -0.13258269323E+02  0.23470138109E+02  0.51100000000E-03 0. -1.
        -11    1    3    3    0    0 -0.16208568019E+01 -0.87412505626E+00 -0.94563182068E+01  0.96339620964E+01  0.51100000000E-03 0.  1.
         12    1    3    3    0    0 -0.12490486368E+02 -0.54325498579E+01 -0.54836736879E+01  0.14683171482E+02  0.00000000000E+00 0. -1.
</event>
<event>
 7    1  0.1542786E-009  0.4778727E+02  0.7816164E-02  0.1312668E+00
        -11   -1    0    0    0    0  0.00000000000E+00  0.00000000000E+00  0.45593999997E+02  0.45594000000E+02  0.51100000000E-03 0. -1.
         11   -1    0    0    0    0 -0.00000000000E+00 -0.00000000000E+00 -0.45593999997E+02  0.45594000000E+02  0.51100000000E-03 0.  1.
    9900012    2    1    2    0    0 -0.26380661760E+02 -0.17391567561E+02  0.29752602736E+02  0.47787270666E+02  0.19999998276E+02 0.  0.
        -12    1    1    2    0    0  0.26380661760E+02  0.17391567561E+02 -0.29752602736E+02  0.43400729334E+02  0.00000000000E+00 0.  1.
         11    1    3    3    0    0 -0.28675821758E+01  0.12581817553E+01 -0.14043938814E+01  0.34319631845E+01  0.51100000000E-03 0.  1.
        -11    1    3    3    0    0 -0.10072503831E+02 -0.43395635710E+01  0.16678745551E+02  0.19961655714E+02  0.51100000000E-03 0. -1.
         12    1    3    3    0    0 -0.13440575753E+02 -0.14310185746E+02  0.14478251066E+02  0.24393651768E+02  0.00000000000E+00 0. -1.
</event>
<event>
 7    1  0.1542786E-009  0.4778727E+02  0.7816164E-02  0.1312668E+00
        -11   -1    0    0    0    0  0.00000000000E+00  0.00000000000E+00  0.45593999997E+02  0.45594000000E+02  0.51100000000E-03 0.  1.
         11   -1    0    0    0    0 -0.00000000000E+00 -0.00000000000E+00 -0.45593999997E+02  0.45594000000E+02  0.51100000000E-03 0. -1.
    9900012    2    1    2    0    0 -0.21558033548E+02  0.37290446586E+02  0.53194912229E+01  0.47787271851E+02  0.20000003677E+02 0.  0.
        -12    1    1    2    0    0  0.21558033548E+02 -0.37290446586E+02 -0.53194912229E+01  0.43400728149E+02  0.00000000000E+00 0.  1.
         11    1    3    3    0    0 -0.12242245549E+02  0.16712561713E+02  0.33419557604E+01  0.20984541064E+02  0.51100000000E-03 0. -1.
        -11    1    3    3    0    0 -0.79638359980E+00  0.58315004396E+01 -0.56350766938E+01  0.81482951482E+01  0.51100000000E-03 0.  1.
         12    1    3    3    0    0 -0.85194043991E+01  0.14746384433E+02  0.76126121564E+01  0.18654435639E+02  0.00000000000E+00 0. -1.
</event>
<event>
 7    1  0.1542786E-009  0.4778727E+02  0.7816164E-02  0.1312668E+00
        -11   -1    0    0    0    0  0.00000000000E+00  0.00000000000E+00  0.45593999997E+02  0.45594000000E+02  0.51100000000E-03 0.  1.
         11   -1    0    0    0    0 -0.00000000000E+00 -0.00000000000E+00 -0.45593999997E+02  0.45594000000E+02  0.51100000000E-03 0. -1.
    9900012    2    1    2    0    0  0.11644967897E+01 -0.32952250958E+02 -0.28220854514E+02  0.47787268146E+02  0.19999986784E+02 0.  0.
        -12    1    1    2    0    0 -0.11644967897E+01  0.32952250958E+02  0.28220854514E+02  0.43400731854E+02  0.00000000000E+00 0.  1.
         11    1    3    3    0    0  0.73707952572E+01 -0.24212879136E+02 -0.13226936356E+02  0.28557730729E+02  0.51100000000E-03 0. -1.
        -11    1    3    3    0    0 -0.46004446992E+00 -0.22544886728E+01 -0.72584862109E+01  0.76144587743E+01  0.51100000000E-03 0.  1.
        -12    1    3    3    0    0 -0.57462539975E+01 -0.64848831497E+01 -0.77354319472E+01  0.11615078643E+02  0.00000000000E+00 0.  1.
</event>
<event>
 7    1  0.1542786E-009  0.4778727E+02  0.7816164E-02  0.1312668E+00
        -11   -1    0    0    0    0  0.00000000000E+00  0.00000000000E+00  0.45593999997E+02  0.45594000000E+02  0.51100000000E-03 0.  1.
         11   -1    0    0    0    0 -0.00000000000E+00 -0.00000000000E+00 -0.45593999997E+02  0.45594000000E+02  0.51100000000E-03 0. -1.
    9900012    2    1    2    0    0  0.37485033533E+02  0.72564249381E+01 -0.20635889544E+02  0.47787269832E+02  0.19999994470E+02 0.  0.
        -12    1    1    2    0    0 -0.37485033533E+02 -0.72564249381E+01  0.20635889544E+02  0.43400730168E+02  0.00000000000E+00 0.  1.
         11    1    3    3    0    0  0.25433739496E+02  0.82187188933E+01 -0.16576917169E+02  0.31451814385E+02  0.51100000000E-03 0. -1.
        -11    1    3    3    0    0  0.11150697541E+02  0.16410549284E+01  0.18909637450E+00  0.11272394361E+02  0.51100000000E-03 0.  1.
         12    1    3    3    0    0  0.90059649617E+00 -0.26033488836E+01 -0.42480687496E+01  0.50630610860E+01  0.00000000000E+00 0. -1.
</event>
<event>
 7    1  0.1542786E-009  0.4778727E+02  0.7816164E-02  0.1312668E+00
        -11   -1    0    0    0    0  0.00000000000E+00  0.00000000000E+00  0.45593999997E+02  0.45594000000E+02  0.51100000000E-03 0.  1.
         11   -1    0    0    0    0 -0.00000000000E+00 -0.00000000000E+00 -0.45593999997E+02  0.45594000000E+02  0.51100000000E-03 0. -1.
    9900012    2    1    2    0    0 -0.21863035001E+02 -0.35732031302E+02 -0.11351338674E+02  0.47787271319E+02  0.20000001250E+02 0.  0.
        -12    1    1    2    0    0  0.21863035001E+02  0.35732031302E+02  0.11351338674E+02  0.43400728681E+02  0.00000000000E+00 0.  1.
         11    1    3    3    0    0 -0.12681900879E+02 -0.11657734829E+02 -0.11956563287E+01  0.17267396606E+02  0.51100000000E-03 0. -1.
        -11    1    3    3    0    0  0.14543540335E+01  0.68299330592E-01 -0.27615450769E+01  0.31218491197E+01  0.51100000000E-03 0.  1.
         12    1    3    3    0    0 -0.10635488155E+02 -0.24142595804E+02 -0.73941372682E+01  0.27398025593E+02  0.00000000000E+00 0. -1.
</event>
<event>
 7    1  0.1542786E-009  0.4778727E+02  0.7816164E-02  0.1312668E+00
        -11   -1    0    0    0    0  0.00000000000E+00  0.00000000000E+00  0.45593999997E+02  0.45594000000E+02  0.51100000000E-03 0.  1.
         11   -1    0    0    0    0 -0.00000000000E+00 -0.00000000000E+00 -0.45593999997E+02  0.45594000000E+02  0.51100000000E-03 0. -1.
    9900012    2    1    2    0    0  0.25720705475E+02  0.34433507918E+02 -0.60334162398E+01  0.47787271098E+02  0.20000000246E+02 0.  0.
        -12    1    1    2    0    0 -0.25720705475E+02 -0.34433507918E+02  0.60334162398E+01  0.43400728902E+02  0.00000000000E+00 0.  1.
         11    1    3    3    0    0  0.13260013809E+02  0.29671601297E+02 -0.67721169952E+01  0.33197792978E+02  0.51100000000E-03 0. -1.
        -11    1    3    3    0    0  0.68619450962E+01  0.26138011562E+01  0.33227736407E+01  0.80597190966E+01  0.51100000000E-03 0.  1.
        -12    1    3    3    0    0  0.55987465690E+01  0.21481054648E+01 -0.25840728853E+01  0.65297590237E+01  0.00000000000E+00 0.  1.
</event>
<event>
 7    1  0.1542786E-009  0.4778727E+02  0.7816164E-02  0.1312668E+00
        -11   -1    0    0    0    0  0.00000000000E+00  0.00000000000E+00  0.45593999997E+02  0.45594000000E+02  0.51100000000E-03 0. -1.
         11   -1    0    0    0    0 -0.00000000000E+00 -0.00000000000E+00 -0.45593999997E+02  0.45594000000E+02  0.51100000000E-03 0.  1.
    9900012    2    1    2    0    0 -0.26558453924E+02  0.13626890734E+02  0.31505232059E+02  0.47787271054E+02  0.20000000046E+02 0.  0.
        -12    1    1    2    0    0  0.26558453924E+02 -0.13626890734E+02 -0.31505232059E+02  0.43400728946E+02  0.00000000000E+00 0.  1.
         11    1    3    3    0    0 -0.57250272417E+01 -0.91618481997E+00 -0.92731441783E+00  0.58715622992E+01  0.51100000000E-03 0. -1.
        -11    1    3    3    0    0 -0.14096984563E+02  0.79590029926E+01  0.14845693440E+02  0.21965093134E+02  0.51100000000E-03 0.  1.
        -12    1    3    3    0    0 -0.67364421186E+01  0.65840725615E+01  0.17586853037E+02  0.19950615621E+02  0.00000000000E+00 0.  1.
</event>
<event>
 7    1  0.1542786E-009  0.4778727E+02  0.7816164E-02  0.1312668E+00
        -11   -1    0    0    0    0  0.00000000000E+00  0.00000000000E+00  0.45593999997E+02  0.45594000000E+02  0.51100000000E-03 0.  1.
         11   -1    0    0    0    0 -0.00000000000E+00 -0.00000000000E+00 -0.45593999997E+02  0.45594000000E+02  0.51100000000E-03 0. -1.
    9900012    2    1    2    0    0  0.89809150252E+01  0.40035908952E+02  0.14145397027E+02  0.47787273078E+02  0.20000009273E+02 0.  0.
        -12    1    1    2    0    0 -0.89809150252E+01 -0.40035908952E+02 -0.14145397027E+02  0.43400726922E+02  0.00000000000E+00 0.  1.
         11    1    3    3    0    0  0.46891448516E+01  0.60397090699E+01  0.38500996309E+00  0.76560040505E+01  0.51100000000E-03 0. -1.
        -11    1    3    3    0    0  0.56177956094E+01  0.44441739828E+01  0.64974704536E+01  0.96709581973E+01  0.51100000000E-03 0.  1.
        -12    1    3    3    0    0 -0.13260254357E+01  0.29552025899E+02  0.72629166101E+01  0.30460310830E+02  0.00000000000E+00 0.  1.
</event>
<event>
 7    1  0.1542786E-009  0.4778727E+02  0.7816164E-02  0.1312668E+00
        -11   -1    0    0    0    0  0.00000000000E+00  0.00000000000E+00  0.45593999997E+02  0.45594000000E+02  0.51100000000E-03 0. -1.
         11   -1    0    0    0    0 -0.00000000000E+00 -0.00000000000E+00 -0.45593999997E+02  0.45594000000E+02  0.51100000000E-03 0.  1.
    9900012    2    1    2    0    0  0.38181730776E+02 -0.15205973091E+02  0.13948365221E+02  0.47787273336E+02  0.20000010446E+02 0.  0.
        -12    1    1    2    0    0 -0.38181730776E+02  0.15205973091E+02 -0.13948365221E+02  0.43400726664E+02  0.00000000000E+00 0.  1.
         11    1    3    3    0    0  0.14794993926E+02 -0.94894634136E+01  0.59952438263E+01  0.18571071858E+02  0.51100000000E-03 0. -1.
        -11    1    3    3    0    0  0.22905525955E+02 -0.53828079489E+00  0.64144795792E+01  0.23792822741E+02  0.51100000000E-03 0.  1.
         12    1    3    3    0    0  0.48121089495E+00 -0.51782288821E+01  0.15386418159E+01  0.54233787364E+01  0.00000000000E+00 0. -1.
</event>
<event>
 7    1  0.1542786E-009  0.4778727E+02  0.7816164E-02  0.1312668E+00
        -11   -1    0    0    0    0  0.00000000000E+00  0.00000000000E+00  0.45593999997E+02  0.45594000000E+02  0.51100000000E-03 0.  1.
         11   -1    0    0    0    0 -0.00000000000E+00 -0.00000000000E+00 -0.45593999997E+02  0.45594000000E+02  0.51100000000E-03 0. -1.
    9900012    2    1    2    0    0 -0.58764063507E+01 -0.82099236461E+01 -0.42210049287E+02  0.47787271219E+02  0.20000000797E+02 0.  0.
        -12    1    1    2    0    0  0.58764063507E+01  0.82099236461E+01  0.42210049287E+02  0.43400728781E+02  0.00000000000E+00 0.  1.
         11    1    3    3    0    0  0.12970258819E+01  0.30209991021E+01 -0.12784376454E+01  0.35274799485E+01  0.51100000000E-03 0. -1.
        -11    1    3    3    0    0  0.16560823072E+01 -0.65322173923E+01 -0.14188320685E+02  0.15707352316E+02  0.51100000000E-03 0.  1.
        -12    1    3    3    0    0 -0.88295145397E+01 -0.46987053559E+01 -0.26743290957E+02  0.28552438955E+02  0.00000000000E+00 0.  1.
</event>
<event>
 7    1  0.1542786E-009  0.4778728E+02  0.7816164E-02  0.1312668E+00
        -11   -1    0    0    0    0  0.00000000000E+00  0.00000000000E+00  0.45593999997E+02  0.45594000000E+02  0.51100000000E-03 0. -1.
         11   -1    0    0    0    0 -0.00000000000E+00 -0.00000000000E+00 -0.45593999997E+02  0.45594000000E+02  0.51100000000E-03 0.  1.
    9900012    2    1    2    0    0  0.34448503933E+02 -0.26399068603E+02 -0.11245705101E+00  0.47787275434E+02  0.20000020013E+02 0.  0.
        -12    1    1    2    0    0 -0.34448503933E+02  0.26399068603E+02  0.11245705101E+00  0.43400724566E+02  0.00000000000E+00 0.  1.
         11    1    3    3    0    0 -0.42312419015E+00 -0.13679894148E+01  0.18907781209E+01  0.23718075982E+01  0.51100000000E-03 0. -1.
        -11    1    3    3    0    0  0.20442134722E+02 -0.22802257704E+02 -0.30614581604E+01  0.30776555277E+02  0.51100000000E-03 0.  1.
         12    1    3    3    0    0  0.14429493400E+02 -0.22288214842E+01  0.10582229886E+01  0.14638912558E+02  0.00000000000E+00 0. -1.
</event>
<event>
 7    1  0.1542786E-009  0.4778727E+02  0.7816164E-02  0.1312668E+00
        -11   -1    0    0    0    0  0.00000000000E+00  0.00000000000E+00  0.45593999997E+02  0.45594000000E+02  0.51100000000E-03 0.  1.
         11   -1    0    0    0    0 -0.00000000000E+00 -0.00000000000E+00 -0.45593999997E+02  0.45594000000E+02  0.51100000000E-03 0. -1.
    9900012    2    1    2    0    0 -0.19773118726E+02  0.20768702852E+02 -0.32577724099E+02  0.47787270170E+02  0.19999996013E+02 0.  0.
        -12    1    1    2    0    0  0.19773118726E+02 -0.20768702852E+02  0.32577724099E+02  0.43400729830E+02  0.00000000000E+00 0.  1.
         11    1    3    3    0    0 -0.13399010846E+02  0.11329250886E+02 -0.24271594642E+02  0.29949886878E+02  0.51100000000E-03 0. -1.
        -11    1    3    3    0    0 -0.22873592924E+01 -0.23667548034E+01 -0.17896065395E+01  0.37464960509E+01  0.51100000000E-03 0.  1.
         12    1    3    3    0    0 -0.40867485873E+01  0.11806206770E+02 -0.65165229181E+01  0.14090887241E+02  0.00000000000E+00 0. -1.
</event>
<event>
 7    1  0.1542786E-009  0.4778727E+02  0.7816164E-02  0.1312668E+00
        -11   -1    0    0    0    0  0.00000000000E+00  0.00000000000E+00  0.45593999997E+02  0.45594000000E+02  0.51100000000E-03 0.  1.
         11   -1    0    0    0    0 -0.00000000000E+00 -0.00000000000E+00 -0.45593999997E+02  0.45594000000E+02  0.51100000000E-03 0. -1.
    9900012    2    1    2    0    0  0.28704098606E+02  0.27365686587E+02 -0.17630008927E+02  0.47787270813E+02  0.19999998947E+02 0.  0.
        -12    1    1    2    0    0 -0.28704098606E+02 -0.27365686587E+02  0.17630008927E+02  0.43400729187E+02  0.00000000000E+00 0.  1.
         11    1    3    3    0    0  0.16597930855E+02  0.75828927314E+01 -0.99443409023E+01  0.20781758517E+02  0.51100000000E-03 0. -1.
        -11    1    3    3    0    0  0.10802953823E+02  0.18495202832E+02 -0.10336867598E+02  0.23782917632E+02  0.51100000000E-03 0.  1.
        -12    1    3    3    0    0  0.13032139285E+01  0.12875910234E+01  0.26511995737E+01  0.32225946637E+01  0.00000000000E+00 0.  1.
</event>
<event>
 7    1  0.1542786E-009  0.4778727E+02  0.7816164E-02  0.1312668E+00
        -11   -1    0    0    0    0  0.00000000000E+00  0.00000000000E+00  0.45593999997E+02  0.45594000000E+02  0.51100000000E-03 0.  1.
         11   -1    0    0    0    0 -0.00000000000E+00 -0.00000000000E+00 -0.45593999997E+02  0.45594000000E+02  0.51100000000E-03 0. -1.
    9900012    2    1    2    0    0  0.82922558516E+01  0.42490793202E+02 -0.30650087737E+01  0.47787270826E+02  0.19999999005E+02 0.  0.
        -12    1    1    2    0    0 -0.82922558516E+01 -0.42490793202E+02  0.30650087737E+01  0.43400729174E+02  0.00000000000E+00 0.  1.
         11    1    3    3    0    0 -0.37428282563E+01  0.11563234169E+02 -0.57396529986E+01  0.13441010551E+02  0.51100000000E-03 0. -1.
        -11    1    3    3    0    0  0.40678858998E+01  0.21353022503E+02  0.81463258122E+00  0.21752307744E+02  0.51100000000E-03 0.  1.
         12    1    3    3    0    0  0.79671982081E+01  0.95745365297E+01  0.18600116438E+01  0.12593952531E+02  0.00000000000E+00 0. -1.
</event>
<event>
 7    1  0.1542786E-009  0.4778727E+02  0.7816164E-02  0.1312668E+00
        -11   -1    0    0    0    0  0.00000000000E+00  0.00000000000E+00  0.45593999997E+02  0.45594000000E+02  0.51100000000E-03 0.  1.
         11   -1    0    0    0    0 -0.00000000000E+00 -0.00000000000E+00 -0.45593999997E+02  0.45594000000E+02  0.51100000000E-03 0. -1.
    9900012    2    1    2    0    0 -0.27288452539E+02 -0.25917803266E+02 -0.21615538277E+02  0.47787266560E+02  0.19999979555E+02 0.  0.
        -12    1    1    2    0    0  0.27288452539E+02  0.25917803266E+02  0.21615538277E+02  0.43400733440E+02  0.00000000000E+00 0.  1.
         11    1    3    3    0    0 -0.14208730413E+02 -0.20759687731E+02 -0.15499203966E+02  0.29547892961E+02  0.51100000000E-03 0. -1.
        -11    1    3    3    0    0  0.22429044479E+00 -0.13369764224E+01  0.18309960792E+01  0.22782359537E+01  0.51100000000E-03 0.  1.
        -12    1    3    3    0    0 -0.13304012570E+02 -0.38211391135E+01 -0.79473303903E+01  0.15961137645E+02  0.00000000000E+00 0.  1.
</event>
<event>
 7    1  0.1542786E-009  0.4778732E+02  0.7816164E-02  0.1312668E+00
        -11   -1    0    0    0    0  0.00000000000E+00  0.00000000000E+00  0.45593999997E+02  0.45594000000E+02  0.51100000000E-03 0.  1.
         11   -1    0    0    0    0 -0.00000000000E+00 -0.00000000000E+00 -0.45593999997E+02  0.45594000000E+02  0.51100000000E-03 0. -1.
    9900012    2    1    2    0    0 -0.37913949320E+02  0.10801782074E+02 -0.18151384164E+02  0.47787322631E+02  0.20000235200E+02 0.  0.
        -12    1    1    2    0    0  0.37913949320E+02 -0.10801782074E+02  0.18151384164E+02  0.43400677369E+02  0.00000000000E+00 0.  1.
         11    1    3    3    0    0 -0.72487500605E+01  0.36317232189E+01 -0.95540654992E+01  0.12530521091E+02  0.51100000000E-03 0. -1.
        -11    1    3    3    0    0 -0.17491996106E+02  0.10271742156E+02 -0.25886447124E+01  0.20449442447E+02  0.51100000000E-03 0.  1.
         12    1    3    3    0    0 -0.13173203154E+02 -0.31016833006E+01 -0.60086739526E+01  0.14807359093E+02  0.00000000000E+00 0. -1.
</event>
<event>
 7    1  0.1542786E-009  0.4778728E+02  0.7816164E-02  0.1312668E+00
        -11   -1    0    0    0    0  0.00000000000E+00  0.00000000000E+00  0.45593999997E+02  0.45594000000E+02  0.51100000000E-03 0.  1.
         11   -1    0    0    0    0 -0.00000000000E+00 -0.00000000000E+00 -0.45593999997E+02  0.45594000000E+02  0.51100000000E-03 0. -1.
    9900012    2    1    2    0    0  0.29987949466E+02  0.31137611884E+02 -0.38464054936E+01  0.47787276248E+02  0.20000023724E+02 0.  0.
        -12    1    1    2    0    0 -0.29987949466E+02 -0.31137611884E+02  0.38464054936E+01  0.43400723752E+02  0.00000000000E+00 0.  1.
         11    1    3    3    0    0  0.10914249841E+01  0.72574317384E+01  0.15062227406E+01  0.74920111545E+01  0.51100000000E-03 0. -1.
        -11    1    3    3    0    0  0.26326648470E+02  0.16977580751E+02 -0.23617852779E+00  0.31327088093E+02  0.51100000000E-03 0.  1.
         12    1    3    3    0    0  0.25698760122E+01  0.69025993940E+01 -0.51164497064E+01  0.89681770004E+01  0.00000000000E+00 0. -1.
</event>
<event>
 7    1  0.1542786E-009  0.4778727E+02  0.7816164E-02  0.1312668E+00
        -11   -1    0    0    0    0  0.00000000000E+00  0.00000000000E+00  0.45593999997E+02  0.45594000000E+02  0.51100000000E-03 0. -1.
         11   -1    0    0    0    0 -0.00000000000E+00 -0.00000000000E+00 -0.45593999997E+02  0.45594000000E+02  0.51100000000E-03 0.  1.
    9900012    2    1    2    0    0  0.38694813448E+02 -0.16174742852E+02  0.11167477175E+02  0.47787269124E+02  0.19999991244E+02 0.  0.
        -12    1    1    2    0    0 -0.38694813448E+02  0.16174742852E+02 -0.11167477175E+02  0.43400730876E+02  0.00000000000E+00 0.  1.
         11    1    3    3    0    0  0.31066271489E+02 -0.19961214621E+02  0.77569487184E+01  0.37732394134E+02  0.51100000000E-03 0. -1.
        -11    1    3    3    0    0  0.44263688082E+01  0.12559265281E+01 -0.20036856900E+00  0.46054576423E+01  0.51100000000E-03 0.  1.
        -12    1    3    3    0    0  0.32021731505E+01  0.25305452409E+01  0.36108970253E+01  0.54494173477E+01  0.00000000000E+00 0.  1.
</event>
<event>
 7    1  0.1542786E-009  0.4778727E+02  0.7816164E-02  0.1312668E+00
        -11   -1    0    0    0    0  0.00000000000E+00  0.00000000000E+00  0.45593999997E+02  0.45594000000E+02  0.51100000000E-03 0. -1.
         11   -1    0    0    0    0 -0.00000000000E+00 -0.00000000000E+00 -0.45593999997E+02  0.45594000000E+02  0.51100000000E-03 0.  1.
    9900012    2    1    2    0    0 -0.37128489281E+02 -0.20462854463E+02  0.92935461718E+01  0.47787272708E+02  0.20000007584E+02 0.  0.
        -12    1    1    2    0    0  0.37128489281E+02  0.20462854463E+02 -0.92935461718E+01  0.43400727292E+02  0.00000000000E+00 0.  1.
         11    1    3    3    0    0 -0.30717480563E+02 -0.13502661721E+02  0.50261492410E+01  0.33928567051E+02  0.51100000000E-03 0. -1.
        -11    1    3    3    0    0 -0.43239364384E+01  0.81255221987E+00  0.37722988475E+01  0.57954211485E+01  0.51100000000E-03 0.  1.
        -12    1    3    3    0    0 -0.20870722796E+01 -0.77727449624E+01  0.49509808330E+00  0.80632845083E+01  0.00000000000E+00 0.  1.
</event>
<event>
 7    1  0.1542786E-009  0.4778722E+02  0.7816164E-02  0.1312668E+00
        -11   -1    0    0    0    0  0.00000000000E+00  0.00000000000E+00  0.45593999997E+02  0.45594000000E+02  0.51100000000E-03 0. -1.
         11   -1    0    0    0    0 -0.00000000000E+00 -0.00000000000E+00 -0.45593999997E+02  0.45594000000E+02  0.51100000000E-03 0.  1.
    9900012    2    1    2    0    0 -0.29483306028E+00 -0.42190605327E+02  0.10173183114E+02  0.47787219373E+02  0.19999764407E+02 0.  0.
        -12    1    1    2    0    0  0.29483306028E+00  0.42190605327E+02 -0.10173183114E+02  0.43400780627E+02  0.00000000000E+00 0.  1.
         11    1    3    3    0    0 -0.39685921045E+01 -0.61217130445E+01 -0.28148493225E+01  0.78197487722E+01  0.51100000000E-03 0. -1.
        -11    1    3    3    0    0  0.48070960973E+01 -0.59115989030E+01  0.26821288996E+01  0.80776847038E+01  0.51100000000E-03 0.  1.
         12    1    3    3    0    0 -0.11333370531E+01 -0.30157293379E+02  0.10305903537E+02  0.31889785897E+02  0.00000000000E+00 0. -1.
</event>
<event>
 7    1  0.1542786E-009  0.4778727E+02  0.7816164E-02  0.1312668E+00
        -11   -1    0    0    0    0  0.00000000000E+00  0.00000000000E+00  0.45593999997E+02  0.45594000000E+02  0.51100000000E-03 0.  1.
         11   -1    0    0    0    0 -0.00000000000E+00 -0.00000000000E+00 -0.45593999997E+02  0.45594000000E+02  0.51100000000E-03 0. -1.
    9900012    2    1    2    0    0  0.86742257633E+00  0.27230419849E+02 -0.33784244096E+02  0.47787270327E+02  0.19999996727E+02 0.  0.
        -12    1    1    2    0    0 -0.86742257633E+00 -0.27230419849E+02  0.33784244096E+02  0.43400729673E+02  0.00000000000E+00 0.  1.
         11    1    3    3    0    0 -0.88306289775E+00  0.51962462086E+00  0.62551669489E+00  0.12004504257E+01  0.51100000000E-03 0. -1.
        -11    1    3    3    0    0 -0.51313711366E+00 -0.13785628885E+01  0.64769898303E+00  0.16072521795E+01  0.51100000000E-03 0.  1.
         12    1    3    3    0    0  0.22636225877E+01  0.28089358116E+02 -0.35057459774E+02  0.44979567721E+02  0.00000000000E+00 0. -1.
</event>
<event>
 7    1  0.1542786E-009  0.4778727E+02  0.7816164E-02  0.1312668E+00
        -11   -1    0    0    0    0  0.00000000000E+00  0.00000000000E+00  0.45593999997E+02  0.45594000000E+02  0.51100000000E-03 0.  1.
         11   -1    0    0    0    0 -0.00000000000E+00 -0.00000000000E+00 -0.45593999997E+02  0.45594000000E+02  0.51100000000E-03 0. -1.
    9900012    2    1    2    0    0  0.39260959041E+02 -0.14207745239E+01 -0.18444024992E+02  0.47787267714E+02  0.19999984814E+02 0.  0.
        -12    1    1    2    0    0 -0.39260959041E+02  0.14207745239E+01  0.18444024992E+02  0.43400732286E+02  0.00000000000E+00 0.  1.
         11    1    3    3    0    0  0.23438317944E+02  0.46717291802E+01 -0.14515001984E+02  0.27961850519E+02  0.51100000000E-03 0. -1.
        -11    1    3    3    0    0  0.18555984905E+01 -0.32826430699E+01 -0.41095407743E+01  0.55773933803E+01  0.51100000000E-03 0.  1.
        -12    1    3    3    0    0  0.13967042607E+02 -0.28098606342E+01  0.18051776602E+00  0.14248023815E+02  0.00000000000E+00 0.  1.
</event>
<event>
 7    1  0.1542786E-009  0.4778728E+02  0.7816164E-02  0.1312668E+00
        -11   -1    0    0    0    0  0.00000000000E+00  0.00000000000E+00  0.45593999997E+02  0.45594000000E+02  0.51100000000E-03 0. -1.
         11   -1    0    0    0    0 -0.00000000000E+00 -0.00000000000E+00 -0.45593999997E+02  0.45594000000E+02  0.51100000000E-03 0.  1.
    9900012    2    1    2    0    0 -0.37465115141E+02 -0.17517252623E+02  0.13158033684E+02  0.47787276015E+02  0.20000022663E+02 0.  0.
        -12    1    1    2    0    0  0.37465115141E+02  0.17517252623E+02 -0.13158033684E+02  0.43400723985E+02  0.00000000000E+00 0.  1.
         11    1    3    3    0    0 -0.27142702032E+01 -0.10415347153E+00  0.36876920233E+00  0.27411861789E+01  0.51100000000E-03 0. -1.
        -11    1    3    3    0    0 -0.23547019477E+01  0.29070558146E+01  0.46145857724E+01  0.59405384338E+01  0.51100000000E-03 0.  1.
         12    1    3    3    0    0 -0.32396142990E+02 -0.20320154966E+02  0.81746787096E+01  0.39105551402E+02  0.00000000000E+00 0. -1.
</event>
<event>
 7    1  0.1542786E-009  0.4778727E+02  0.7816164E-02  0.1312668E+00
        -11   -1    0    0    0    0  0.00000000000E+00  0.00000000000E+00  0.45593999997E+02  0.45594000000E+02  0.51100000000E-03 0. -1.
         11   -1    0    0    0    0 -0.00000000000E+00 -0.00000000000E+00 -0.45593999997E+02  0.45594000000E+02  0.51100000000E-03 0.  1.
    9900012    2    1    2    0    0 -0.20338823733E+01  0.35938706882E+00  0.43351554894E+02  0.47787272491E+02  0.20000006595E+02 0.  0.
        -12    1    1    2    0    0  0.20338823733E+01 -0.35938706882E+00 -0.43351554894E+02  0.43400727509E+02  0.00000000000E+00 0.  1.
         11    1    3    3    0    0 -0.11824513850E+01  0.68517410380E+01  0.19239301147E+02  0.20457156582E+02  0.51100000000E-03 0. -1.
        -11    1    3    3    0    0  0.50453036418E+01 -0.20089180588E+01  0.93193635312E+01  0.10786166024E+02  0.51100000000E-03 0.  1.
         12    1    3    3    0    0 -0.58967346301E+01 -0.44834359104E+01  0.14792890216E+02  0.16543949885E+02  0.00000000000E+00 0. -1.
</event>
<event>
 7    1  0.1542786E-009  0.4778727E+02  0.7816164E-02  0.1312668E+00
        -11   -1    0    0    0    0  0.00000000000E+00  0.00000000000E+00  0.45593999997E+02  0.45594000000E+02  0.51100000000E-03 0.  1.
         11   -1    0    0    0    0 -0.00000000000E+00 -0.00000000000E+00 -0.45593999997E+02  0.45594000000E+02  0.51100000000E-03 0. -1.
    9900012    2    1    2    0    0 -0.35786707797E+02  0.55718829765E+01 -0.23914198409E+02  0.47787271660E+02  0.20000002807E+02 0.  0.
        -12    1    1    2    0    0  0.35786707797E+02 -0.55718829765E+01  0.23914198409E+02  0.43400728340E+02  0.00000000000E+00 0.  1.
         11    1    3    3    0    0 -0.13915975987E+02  0.73751721294E+00 -0.13810038195E+02  0.19619262844E+02  0.51100000000E-03 0. -1.
        -11    1    3    3    0    0 -0.33509824297E+01  0.13759425382E+01  0.34158185726E+01  0.49789675531E+01  0.51100000000E-03 0.  1.
         12    1    3    3    0    0 -0.18519749380E+02  0.34584232254E+01 -0.13519978787E+02  0.23189041263E+02  0.00000000000E+00 0. -1.
</event>
<event>
 7    1  0.1542786E-009  0.4778727E+02  0.7816164E-02  0.1312668E+00
        -11   -1    0    0    0    0  0.00000000000E+00  0.00000000000E+00  0.45593999997E+02  0.45594000000E+02  0.51100000000E-03 0. -1.
         11   -1    0    0    0    0 -0.00000000000E+00 -0.00000000000E+00 -0.45593999997E+02  0.45594000000E+02  0.51100000000E-03 0.  1.
    9900012    2    1    2    0    0 -0.40309207622E+02 -0.13876651203E+02  0.81381514493E+01  0.47787272163E+02  0.20000005101E+02 0.  0.
        -12    1    1    2    0    0  0.40309207622E+02  0.13876651203E+02 -0.81381514493E+01  0.43400727837E+02  0.00000000000E+00 0.  1.
         11    1    3    3    0    0 -0.20473535853E+02  0.16881343612E+01  0.56662237659E+01  0.21310128108E+02  0.51100000000E-03 0. -1.
        -11    1    3    3    0    0 -0.17385585060E+02 -0.11250133529E+02  0.43710262454E+01  0.21164355483E+02  0.51100000000E-03 0.  1.
        -12    1    3    3    0    0 -0.24500867094E+01 -0.43146520354E+01 -0.18990985620E+01  0.53127885727E+01  0.00000000000E+00 0.  1.
</event>
<event>
 7    1  0.1542786E-009  0.4778725E+02  0.7816164E-02  0.1312668E+00
        -11   -1    0    0    0    0  0.00000000000E+00  0.00000000000E+00  0.45593999997E+02  0.45594000000E+02  0.51100000000E-03 0.  1.
         11   -1    0    0    0    0 -0.00000000000E+00 -0.00000000000E+00 -0.45593999997E+02  0.45594000000E+02  0.51100000000E-03 0. -1.
    9900012    2    1    2    0    0  0.16879470259E+02  0.26267377161E+02 -0.30145208186E+02  0.47787248904E+02  0.19999899052E+02 0.  0.
        -12    1    1    2    0    0 -0.16879470259E+02 -0.26267377161E+02  0.30145208186E+02  0.43400751096E+02  0.00000000000E+00 0.  1.
         11    1    3    3    0    0  0.11931185610E+02  0.12376281926E+02 -0.70155595126E+01  0.18567272818E+02  0.51100000000E-03 0. -1.
        -11    1    3    3    0    0  0.29316814911E+01  0.54072837127E+01 -0.21763826147E+01  0.65245777688E+01  0.51100000000E-03 0.  1.
         12    1    3    3    0    0  0.20166031585E+01  0.84838115220E+01 -0.20953266058E+02  0.22695398317E+02  0.00000000000E+00 0. -1.
</event>
<event>
 7    1  0.1542786E-009  0.4778728E+02  0.7816164E-02  0.1312668E+00
        -11   -1    0    0    0    0  0.00000000000E+00  0.00000000000E+00  0.45593999997E+02  0.45594000000E+02  0.51100000000E-03 0. -1.
         11   -1    0    0    0    0 -0.00000000000E+00 -0.00000000000E+00 -0.45593999997E+02  0.45594000000E+02  0.51100000000E-03 0.  1.
    9900012    2    1    2    0    0 -0.32860117848E+02  0.22780222325E+02  0.16878893650E+02  0.47787275063E+02  0.20000018324E+02 0.  0.
        -12    1    1    2    0    0  0.32860117848E+02 -0.22780222325E+02 -0.16878893650E+02  0.43400724937E+02  0.00000000000E+00 0.  1.
         11    1    3    3    0    0 -0.88114375615E+01  0.74962331282E+01  0.32277379232E+01  0.12010546839E+02  0.51100000000E-03 0. -1.
        -11    1    3    3    0    0 -0.40837013043E+00  0.59984973837E+01 -0.15075590029E+01  0.61985055807E+01  0.51100000000E-03 0.  1.
         12    1    3    3    0    0 -0.23640310156E+02  0.92854918134E+01  0.15158714730E+02  0.29578222644E+02  0.00000000000E+00 0. -1.
</event>
<event>
 7    1  0.1542786E-009  0.4778726E+02  0.7816164E-02  0.1312668E+00
        -11   -1    0    0    0    0  0.00000000000E+00  0.00000000000E+00  0.45593999997E+02  0.45594000000E+02  0.51100000000E-03 0. -1.
         11   -1    0    0    0    0 -0.00000000000E+00 -0.00000000000E+00 -0.45593999997E+02  0.45594000000E+02  0.51100000000E-03 0.  1.
    9900012    2    1    2    0    0 -0.33786075412E+01  0.41655655822E+02 -0.11705382511E+02  0.47787255414E+02  0.19999928734E+02 0.  0.
        -12    1    1    2    0    0  0.33786075412E+01 -0.41655655822E+02  0.11705382511E+02  0.43400744586E+02  0.00000000000E+00 0.  1.
         11    1    3    3    0    0  0.17839304312E+01  0.18185191945E+02 -0.66548516862E+01  0.19446610632E+02  0.51100000000E-03 0. -1.
        -11    1    3    3    0    0  0.37048547158E+01  0.57336577066E+01 -0.50824751956E+01  0.85107187438E+01  0.51100000000E-03 0.  1.
        -12    1    3    3    0    0 -0.88673926882E+01  0.17736806171E+02  0.31944370496E-01  0.19829926038E+02  0.00000000000E+00 0.  1.
</event>
<event>
 7    1  0.1542786E-009  0.4778728E+02  0.7816164E-02  0.1312668E+00
        -11   -1    0    0    0    0  0.00000000000E+00  0.00000000000E+00  0.45593999997E+02  0.45594000000E+02  0.51100000000E-03 0.  1.
         11   -1    0    0    0    0 -0.00000000000E+00 -0.00000000000E+00 -0.45593999997E+02  0.45594000000E+02  0.51100000000E-03 0. -1.
    9900012    2    1    2    0    0  0.15808811301E+01 -0.71425968725E+01 -0.42779749963E+02  0.47787275558E+02  0.20000020579E+02 0.  0.
        -12    1    1    2    0    0 -0.15808811301E+01  0.71425968725E+01  0.42779749963E+02  0.43400724442E+02  0.00000000000E+00 0.  1.
         11    1    3    3    0    0  0.31327720094E+01 -0.10301607685E+02 -0.26162229162E+02  0.28291334652E+02  0.51100000000E-03 0. -1.
        -11    1    3    3    0    0  0.12561227573E+01 -0.50186776843E+00  0.73573684017E+00  0.15398131696E+01  0.51100000000E-03 0.  1.
         12    1    3    3    0    0 -0.28080136366E+01  0.36608785809E+01 -0.17353257640E+02  0.17956127737E+02  0.00000000000E+00 0. -1.
</event>
<event>
 7    1  0.1542786E-009  0.4778727E+02  0.7816164E-02  0.1312668E+00
        -11   -1    0    0    0    0  0.00000000000E+00  0.00000000000E+00  0.45593999997E+02  0.45594000000E+02  0.51100000000E-03 0.  1.
         11   -1    0    0    0    0 -0.00000000000E+00 -0.00000000000E+00 -0.45593999997E+02  0.45594000000E+02  0.51100000000E-03 0. -1.
    9900012    2    1    2    0    0  0.19457087984E+02 -0.14492663989E+02 -0.35986216091E+02  0.47787270388E+02  0.19999997006E+02 0.  0.
        -12    1    1    2    0    0 -0.19457087984E+02  0.14492663989E+02  0.35986216091E+02  0.43400729612E+02  0.00000000000E+00 0.  1.
         11    1    3    3    0    0  0.86145382316E+01 -0.16963202972E+02 -0.25860469395E+02  0.32104896847E+02  0.51100000000E-03 0. -1.
        -11    1    3    3    0    0  0.98844582210E+01  0.26195844760E+01 -0.10487374024E+02  0.14647516900E+02  0.51100000000E-03 0.  1.
         12    1    3    3    0    0  0.95809153176E+00 -0.14904549372E+00  0.36162732803E+00  0.10348566407E+01  0.00000000000E+00 0. -1.
</event>
<event>
 7    1  0.1542786E-009  0.4778727E+02  0.7816164E-02  0.1312668E+00
        -11   -1    0    0    0    0  0.00000000000E+00  0.00000000000E+00  0.45593999997E+02  0.45594000000E+02  0.51100000000E-03 0. -1.
         11   -1    0    0    0    0 -0.00000000000E+00 -0.00000000000E+00 -0.45593999997E+02  0.45594000000E+02  0.51100000000E-03 0.  1.
    9900012    2    1    2    0    0 -0.17853415199E+02 -0.38771669381E+02  0.78509003700E+01  0.47787269390E+02  0.19999992458E+02 0.  0.
        -12    1    1    2    0    0  0.17853415199E+02  0.38771669381E+02 -0.78509003700E+01  0.43400730610E+02  0.00000000000E+00 0.  1.
         11    1    3    3    0    0 -0.45906164318E+01 -0.22596257261E+02  0.62338724304E+01  0.23885681216E+02  0.51100000000E-03 0. -1.
        -11    1    3    3    0    0 -0.94164903309E+01 -0.14693913394E+02 -0.30045703853E+01  0.17709004050E+02  0.51100000000E-03 0.  1.
         12    1    3    3    0    0 -0.38463084361E+01 -0.14814987267E+01  0.46215983249E+01  0.61925841246E+01  0.00000000000E+00 0. -1.
</event>
<event>
 7    1  0.1542786E-009  0.4778727E+02  0.7816164E-02  0.1312668E+00
        -11   -1    0    0    0    0  0.00000000000E+00  0.00000000000E+00  0.45593999997E+02  0.45594000000E+02  0.51100000000E-03 0.  1.
         11   -1    0    0    0    0 -0.00000000000E+00 -0.00000000000E+00 -0.45593999997E+02  0.45594000000E+02  0.51100000000E-03 0. -1.
    9900012    2    1    2    0    0 -0.24071952332E+02  0.21648800833E+02 -0.28904910811E+02  0.47787270333E+02  0.19999996757E+02 0.  0.
        -12    1    1    2    0    0  0.24071952332E+02 -0.21648800833E+02  0.28904910811E+02  0.43400729667E+02  0.00000000000E+00 0.  1.
         11    1    3    3    0    0 -0.20991231867E+02  0.14635990979E+02 -0.21728459437E+02  0.33570373799E+02  0.51100000000E-03 0. -1.
        -11    1    3    3    0    0 -0.38175446006E+01  0.16062342217E+01  0.11167422407E+01  0.42896093815E+01  0.51100000000E-03 0.  1.
         12    1    3    3    0    0  0.73682413513E+00  0.54065756329E+01 -0.82931936147E+01  0.99272871526E+01  0.00000000000E+00 0. -1.
</event>
<event>
 7    1  0.1542786E-009  0.4778726E+02  0.7816164E-02  0.1312668E+00
        -11   -1    0    0    0    0  0.00000000000E+00  0.00000000000E+00  0.45593999997E+02  0.45594000000E+02  0.51100000000E-03 0.  1.
         11   -1    0    0    0    0 -0.00000000000E+00 -0.00000000000E+00 -0.45593999997E+02  0.45594000000E+02  0.51100000000E-03 0. -1.
    9900012    2    1    2    0    0 -0.34197430530E+02  0.92611962662E+01 -0.25067705957E+02  0.47787263911E+02  0.19999967475E+02 0.  0.
        -12    1    1    2    0    0  0.34197430530E+02 -0.92611962662E+01  0.25067705957E+02  0.43400736089E+02  0.00000000000E+00 0.  1.
         11    1    3    3    0    0 -0.78228360973E+01  0.26214978955E+01 -0.10601866893E+02  0.13433860119E+02  0.51100000000E-03 0. -1.
        -11    1    3    3    0    0 -0.55751881809E+01  0.46630433695E+01 -0.10985728176E+02  0.13172430320E+02  0.51100000000E-03 0.  1.
        -12    1    3    3    0    0 -0.20799406252E+02  0.19766550012E+01 -0.34801108883E+01  0.21180973472E+02  0.00000000000E+00 0.  1.
</event>
<event>
 7    1  0.1542786E-009  0.4778728E+02  0.7816164E-02  0.1312668E+00
        -11   -1    0    0    0    0  0.00000000000E+00  0.00000000000E+00  0.45593999997E+02  0.45594000000E+02  0.51100000000E-03 0.  1.
         11   -1    0    0    0    0 -0.00000000000E+00 -0.00000000000E+00 -0.45593999997E+02  0.45594000000E+02  0.51100000000E-03 0. -1.
    9900012    2    1    2    0    0  0.30064961447E+02  0.54179091181E+01 -0.30828022041E+02  0.47787278935E+02  0.20000035974E+02 0.  0.
        -12    1    1    2    0    0 -0.30064961447E+02 -0.54179091181E+01  0.30828022041E+02  0.43400721065E+02  0.00000000000E+00 0.  1.
         11    1    3    3    0    0  0.36849606152E+01 -0.36849311924E+01 -0.11381379144E+02  0.12517725197E+02  0.51100000000E-03 0. -1.
        -11    1    3    3    0    0  0.17342180190E+02  0.13334966930E+01 -0.13038261734E+02  0.21737656186E+02  0.51100000000E-03 0.  1.
        -12    1    3    3    0    0  0.90378206426E+01  0.77693436175E+01 -0.64083811626E+01  0.13531897551E+02  0.00000000000E+00 0.  1.
</event>
<event>
 7    1  0.1542786E-009  0.4778724E+02  0.7816164E-02  0.1312668E+00
        -11   -1    0    0    0    0  0.00000000000E+00  0.00000000000E+00  0.45593999997E+02  0.45594000000E+02  0.51100000000E-03 0.  1.
         11   -1    0    0    0    0 -0.00000000000E+00 -0.00000000000E+00 -0.45593999997E+02  0.45594000000E+02  0.51100000000E-03 0. -1.
    9900012    2    1    2    0    0  0.35687578113E+02  0.23096175786E+02 -0.87515267206E+01  0.47787242087E+02  0.19999867969E+02 0.  0.
        -12    1    1    2    0    0 -0.35687578113E+02 -0.23096175786E+02  0.87515267206E+01  0.43400757913E+02  0.00000000000E+00 0.  1.
         11    1    3    3    0    0  0.36227538517E+01  0.91028206518E+01 -0.26615122707E+01  0.10152306985E+02  0.51100000000E-03 0. -1.
        -11    1    3    3    0    0  0.52076183937E+01 -0.23011407159E+01 -0.37586911142E+00  0.57057703930E+01  0.51100000000E-03 0.  1.
         12    1    3    3    0    0  0.26857205868E+02  0.16294495850E+02 -0.57141453385E+01  0.31929164708E+02  0.00000000000E+00 0. -1.
</event>
<event>
 7    1  0.1542786E-009  0.4778727E+02  0.7816164E-02  0.1312668E+00
        -11   -1    0    0    0    0  0.00000000000E+00  0.00000000000E+00  0.45593999997E+02  0.45594000000E+02  0.51100000000E-03 0. -1.
         11   -1    0    0    0    0 -0.00000000000E+00 -0.00000000000E+00 -0.45593999997E+02  0.45594000000E+02  0.51100000000E-03 0.  1.
    9900012    2    1    2    0    0  0.45669904197E+01 -0.29818875665E+02  0.31202570776E+02  0.47787272236E+02  0.20000005433E+02 0.  0.
        -12    1    1    2    0    0 -0.45669904197E+01  0.29818875665E+02 -0.31202570776E+02  0.43400727764E+02  0.00000000000E+00 0.  1.
         11    1    3    3    0    0 -0.48589739905E+01 -0.84567815071E+01  0.88393247896E+01  0.13162843336E+02  0.51100000000E-03 0.  1.
        -11    1    3    3    0    0  0.69059048519E+01 -0.10899018090E+02  0.19680193368E+02  0.23532745875E+02  0.51100000000E-03 0. -1.
        -12    1    3    3    0    0  0.25200595583E+01 -0.10463076067E+02  0.26830526187E+01  0.11091683025E+02  0.00000000000E+00 0.  1.
</event>
<event>
 7    1  0.1542786E-009  0.4778727E+02  0.7816164E-02  0.1312668E+00
        -11   -1    0    0    0    0  0.00000000000E+00  0.00000000000E+00  0.45593999997E+02  0.45594000000E+02  0.51100000000E-03 0. -1.
         11   -1    0    0    0    0 -0.00000000000E+00 -0.00000000000E+00 -0.45593999997E+02  0.45594000000E+02  0.51100000000E-03 0.  1.
    9900012    2    1    2    0    0  0.22628520884E+02 -0.18845821232E+02  0.31881160196E+02  0.47787270620E+02  0.19999998063E+02 0.  0.
        -12    1    1    2    0    0 -0.22628520884E+02  0.18845821232E+02 -0.31881160196E+02  0.43400729380E+02  0.00000000000E+00 0.  1.
         11    1    3    3    0    0  0.13203986464E+02 -0.41913124973E-01  0.11362698744E+02  0.17420044152E+02  0.51100000000E-03 0. -1.
        -11    1    3    3    0    0  0.98910925113E+01 -0.12019493571E+02  0.14865188646E+02  0.21523841909E+02  0.51100000000E-03 0.  1.
        -12    1    3    3    0    0 -0.46655809049E+00 -0.67844145358E+01  0.56532728058E+01  0.88433845592E+01  0.00000000000E+00 0.  1.
</event>
<event>
 7    1  0.1542786E-009  0.4778728E+02  0.7816164E-02  0.1312668E+00
        -11   -1    0    0    0    0  0.00000000000E+00  0.00000000000E+00  0.45593999997E+02  0.45594000000E+02  0.51100000000E-03 0.  1.
         11   -1    0    0    0    0 -0.00000000000E+00 -0.00000000000E+00 -0.45593999997E+02  0.45594000000E+02  0.51100000000E-03 0. -1.
    9900012    2    1    2    0    0  0.35926262821E+01  0.12412663469E+02 -0.41432370451E+02  0.47787279969E+02  0.20000040689E+02 0.  0.
        -12    1    1    2    0    0 -0.35926262821E+01 -0.12412663469E+02  0.41432370451E+02  0.43400720031E+02  0.00000000000E+00 0.  1.
         11    1    3    3    0    0 -0.98308088158E+00  0.88480452121E+01 -0.31662941070E+02  0.32890670251E+02  0.51100000000E-03 0. -1.
        -11    1    3    3    0    0 -0.53848199092E+00  0.52470980020E+01 -0.24643903275E+01  0.58219601720E+01  0.51100000000E-03 0.  1.
        -12    1    3    3    0    0  0.51141891546E+01 -0.16824797447E+01 -0.73050390543E+01  0.90746495462E+01  0.00000000000E+00 0.  1.
</event>
<event>
 7    1  0.1542786E-009  0.4778727E+02  0.7816164E-02  0.1312668E+00
        -11   -1    0    0    0    0  0.00000000000E+00  0.00000000000E+00  0.45593999997E+02  0.45594000000E+02  0.51100000000E-03 0.  1.
         11   -1    0    0    0    0 -0.00000000000E+00 -0.00000000000E+00 -0.45593999997E+02  0.45594000000E+02  0.51100000000E-03 0. -1.
    9900012    2    1    2    0    0  0.21929879375E+02  0.35220322519E+02 -0.12737059590E+02  0.47787269421E+02  0.19999992600E+02 0.  0.
        -12    1    1    2    0    0 -0.21929879375E+02 -0.35220322519E+02  0.12737059590E+02  0.43400730579E+02  0.00000000000E+00 0.  1.
         11    1    3    3    0    0  0.11916863779E+02  0.29390560661E+02 -0.95921486676E+01  0.33133457631E+02  0.51100000000E-03 0. -1.
        -11    1    3    3    0    0  0.62274266294E+01  0.70191784912E+01  0.31559440052E+00  0.93887863541E+01  0.51100000000E-03 0.  1.
        -12    1    3    3    0    0  0.37855889670E+01 -0.11894166330E+01 -0.34605053228E+01  0.52650254362E+01  0.00000000000E+00 0.  1.
</event>
<event>
 7    1  0.1542786E-009  0.4778727E+02  0.7816164E-02  0.1312668E+00
        -11   -1    0    0    0    0  0.00000000000E+00  0.00000000000E+00  0.45593999997E+02  0.45594000000E+02  0.51100000000E-03 0. -1.
         11   -1    0    0    0    0 -0.00000000000E+00 -0.00000000000E+00 -0.45593999997E+02  0.45594000000E+02  0.51100000000E-03 0.  1.
    9900012    2    1    2    0    0 -0.76793989026E+01 -0.27684582763E+02 -0.32530203636E+02  0.47787269143E+02  0.19999991333E+02 0.  0.
        -12    1    1    2    0    0  0.76793989026E+01  0.27684582763E+02  0.32530203636E+02  0.43400730857E+02  0.00000000000E+00 0.  1.
         11    1    3    3    0    0 -0.71909836683E+00  0.62527435046E+00 -0.27291675967E+00  0.99123876708E+00  0.51100000000E-03 0. -1.
        -11    1    3    3    0    0 -0.71175913759E+01 -0.19118998036E+01 -0.88285857940E+01  0.11500408481E+02  0.51100000000E-03 0.  1.
         12    1    3    3    0    0  0.15729084009E+00 -0.26397957310E+02 -0.23428701083E+02  0.35295621895E+02  0.00000000000E+00 0. -1.
</event>
<event>
 7    1  0.1542786E-009  0.4778727E+02  0.7816164E-02  0.1312668E+00
        -11   -1    0    0    0    0  0.00000000000E+00  0.00000000000E+00  0.45593999997E+02  0.45594000000E+02  0.51100000000E-03 0.  1.
         11   -1    0    0    0    0 -0.00000000000E+00 -0.00000000000E+00 -0.45593999997E+02  0.45594000000E+02  0.51100000000E-03 0. -1.
    9900012    2    1    2    0    0  0.17311760618E+02 -0.29579062250E+02 -0.26627148423E+02  0.47787274056E+02  0.20000013732E+02 0.  0.
        -12    1    1    2    0    0 -0.17311760618E+02  0.29579062250E+02  0.26627148423E+02  0.43400725944E+02  0.00000000000E+00 0.  1.
         11    1    3    3    0    0  0.10685257111E+02 -0.25651846273E+02 -0.25396705800E+02  0.37645512382E+02  0.51100000000E-03 0. -1.
        -11    1    3    3    0    0  0.31973947784E+01  0.76949373944E+00 -0.25704630743E+01  0.41740549423E+01  0.51100000000E-03 0.  1.
        -12    1    3    3    0    0  0.34291087288E+01 -0.46967097164E+01  0.13400204508E+01  0.59677067323E+01  0.00000000000E+00 0.  1.
</event>
<event>
 7    1  0.1542786E-009  0.4778727E+02  0.7816164E-02  0.1312668E+00
        -11   -1    0    0    0    0  0.00000000000E+00  0.00000000000E+00  0.45593999997E+02  0.45594000000E+02  0.51100000000E-03 0. -1.
         11   -1    0    0    0    0 -0.00000000000E+00 -0.00000000000E+00 -0.45593999997E+02  0.45594000000E+02  0.51100000000E-03 0.  1.
    9900012    2    1    2    0    0 -0.11260177053E+01 -0.35463010496E+01  0.43240943124E+02  0.47787270406E+02  0.19999997090E+02 0.  0.
        -12    1    1    2    0    0  0.11260177053E+01  0.35463010496E+01 -0.43240943124E+02  0.43400729594E+02  0.00000000000E+00 0.  1.
         11    1    3    3    0    0  0.26027562700E+01 -0.59689363718E+01  0.56874067037E+01  0.86457583176E+01  0.51100000000E-03 0. -1.
        -11    1    3    3    0    0  0.26404737130E+01  0.34060233166E+01  0.19545689850E+02  0.20015171452E+02  0.51100000000E-03 0.  1.
        -12    1    3    3    0    0 -0.63692476884E+01 -0.98338799440E+00  0.18007846570E+02  0.19126340637E+02  0.00000000000E+00 0.  1.
</event>
<event>
 7    1  0.1542786E-009  0.4778727E+02  0.7816164E-02  0.1312668E+00
        -11   -1    0    0    0    0  0.00000000000E+00  0.00000000000E+00  0.45593999997E+02  0.45594000000E+02  0.51100000000E-03 0. -1.
         11   -1    0    0    0    0 -0.00000000000E+00 -0.00000000000E+00 -0.45593999997E+02  0.45594000000E+02  0.51100000000E-03 0.  1.
    9900012    2    1    2    0    0 -0.15808272686E+02 -0.19188091734E+02  0.35574416891E+02  0.47787268591E+02  0.19999988814E+02 0.  0.
        -12    1    1    2    0    0  0.15808272686E+02  0.19188091734E+02 -0.35574416891E+02  0.43400731409E+02  0.00000000000E+00 0.  1.
         11    1    3    3    0    0 -0.12103316801E+02 -0.20315983253E+02  0.32023194779E+02  0.39808472179E+02  0.51100000000E-03 0. -1.
        -11    1    3    3    0    0  0.15053000405E+00 -0.14684486695E+01 -0.74123437219E+00  0.16517958205E+01  0.51100000000E-03 0.  1.
         12    1    3    3    0    0 -0.38554858889E+01  0.25963401886E+01  0.42924564844E+01  0.63270005916E+01  0.00000000000E+00 0. -1.
</event>
<event>
 7    1  0.1542786E-009  0.4778727E+02  0.7816164E-02  0.1312668E+00
        -11   -1    0    0    0    0  0.00000000000E+00  0.00000000000E+00  0.45593999997E+02  0.45594000000E+02  0.51100000000E-03 0.  1.
         11   -1    0    0    0    0 -0.00000000000E+00 -0.00000000000E+00 -0.45593999997E+02  0.45594000000E+02  0.51100000000E-03 0. -1.
    9900012    2    1    2    0    0  0.20145628039E+01 -0.60166928929E+01 -0.42934415640E+02  0.47787273013E+02  0.20000008976E+02 0.  0.
        -12    1    1    2    0    0 -0.20145628039E+01  0.60166928929E+01  0.42934415640E+02  0.43400726987E+02  0.00000000000E+00 0.  1.
         11    1    3    3    0    0  0.59805398094E+01 -0.64791164943E+01 -0.21525264104E+02  0.23261186598E+02  0.51100000000E-03 0. -1.
        -11    1    3    3    0    0 -0.49868728452E+01 -0.45885601686E+01 -0.11213119205E+02  0.13101825360E+02  0.51100000000E-03 0.  1.
        -12    1    3    3    0    0  0.10208958396E+01  0.50509837700E+01 -0.10196032331E+02  0.11424261055E+02  0.00000000000E+00 0.  1.
</event>
<event>
 7    1  0.1542786E-009  0.4778728E+02  0.7816164E-02  0.1312668E+00
        -11   -1    0    0    0    0  0.00000000000E+00  0.00000000000E+00  0.45593999997E+02  0.45594000000E+02  0.51100000000E-03 0.  1.
         11   -1    0    0    0    0 -0.00000000000E+00 -0.00000000000E+00 -0.45593999997E+02  0.45594000000E+02  0.51100000000E-03 0. -1.
    9900012    2    1    2    0    0 -0.34419541733E+02 -0.23088017875E+02 -0.12878720586E+02  0.47787275738E+02  0.20000021402E+02 0.  0.
        -12    1    1    2    0    0  0.34419541733E+02  0.23088017875E+02  0.12878720586E+02  0.43400724262E+02  0.00000000000E+00 0.  1.
         11    1    3    3    0    0 -0.41369399666E+01  0.31904467034E+00 -0.43490193269E+01  0.60108261625E+01  0.51100000000E-03 0. -1.
        -11    1    3    3    0    0 -0.20607994852E+02 -0.13873247437E+02  0.15062115575E+01  0.24888252646E+02  0.51100000000E-03 0.  1.
         12    1    3    3    0    0 -0.96746069144E+01 -0.95338151084E+01 -0.10035912817E+02  0.16888196930E+02  0.00000000000E+00 0. -1.
</event>
<event>
 7    1  0.1542786E-009  0.4778727E+02  0.7816164E-02  0.1312668E+00
        -11   -1    0    0    0    0  0.00000000000E+00  0.00000000000E+00  0.45593999997E+02  0.45594000000E+02  0.51100000000E-03 0.  1.
         11   -1    0    0    0    0 -0.00000000000E+00 -0.00000000000E+00 -0.45593999997E+02  0.45594000000E+02  0.51100000000E-03 0. -1.
    9900012    2    1    2    0    0 -0.33915805937E+02  0.67157428442E+01 -0.26234333616E+02  0.47787270114E+02  0.19999995760E+02 0.  0.
        -12    1    1    2    0    0  0.33915805937E+02 -0.67157428442E+01  0.26234333616E+02  0.43400729886E+02  0.00000000000E+00 0.  1.
         11    1    3    3    0    0 -0.22207572774E+02 -0.22092538435E+01 -0.14347359631E+02  0.26531185795E+02  0.51100000000E-03 0. -1.
        -11    1    3    3    0    0 -0.94988860850E+01  0.12413993364E+01 -0.72492686593E+01  0.12013401081E+02  0.51100000000E-03 0.  1.
        -12    1    3    3    0    0 -0.22093470788E+01  0.76835973513E+01 -0.46377053259E+01  0.92426832392E+01  0.00000000000E+00 0.  1.
</event>
<event>
 7    1  0.1542786E-009  0.4778727E+02  0.7816164E-02  0.1312668E+00
        -11   -1    0    0    0    0  0.00000000000E+00  0.00000000000E+00  0.45593999997E+02  0.45594000000E+02  0.51100000000E-03 0. -1.
         11   -1    0    0    0    0 -0.00000000000E+00 -0.00000000000E+00 -0.45593999997E+02  0.45594000000E+02  0.51100000000E-03 0.  1.
    9900012    2    1    2    0    0  0.11894008414E+02  0.39580514364E+02  0.13249112848E+02  0.47787267924E+02  0.19999985774E+02 0.  0.
        -12    1    1    2    0    0 -0.11894008414E+02 -0.39580514364E+02 -0.13249112848E+02  0.43400732076E+02  0.00000000000E+00 0.  1.
         11    1    3    3    0    0  0.40191028103E+01  0.31713823734E+02  0.98960401914E+01  0.33464181074E+02  0.51100000000E-03 0. -1.
        -11    1    3    3    0    0  0.50721038501E+01  0.48868720881E+01  0.61639659855E+01  0.93596064662E+01  0.51100000000E-03 0.  1.
        -12    1    3    3    0    0  0.28028017539E+01  0.29798185413E+01 -0.28108933291E+01  0.49634803836E+01  0.00000000000E+00 0.  1.
</event>
<event>
 7    1  0.1542786E-009  0.4778727E+02  0.7816164E-02  0.1312668E+00
        -11   -1    0    0    0    0  0.00000000000E+00  0.00000000000E+00  0.45593999997E+02  0.45594000000E+02  0.51100000000E-03 0.  1.
         11   -1    0    0    0    0 -0.00000000000E+00 -0.00000000000E+00 -0.45593999997E+02  0.45594000000E+02  0.51100000000E-03 0. -1.
    9900012    2    1    2    0    0  0.40817069462E+02  0.14651368195E+02  0.17109772933E+01  0.47787271978E+02  0.20000004259E+02 0.  0.
        -12    1    1    2    0    0 -0.40817069462E+02 -0.14651368195E+02 -0.17109772933E+01  0.43400728022E+02  0.00000000000E+00 0.  1.
         11    1    3    3    0    0  0.14823328963E+02  0.40525702445E+01 -0.70673215332E+01  0.16914533427E+02  0.51100000000E-03 0. -1.
        -11    1    3    3    0    0  0.31207334925E+01  0.52154963718E+01  0.22956111338E+01  0.64969385617E+01  0.51100000000E-03 0.  1.
         12    1    3    3    0    0  0.22873007007E+02  0.53833015790E+01  0.64826876927E+01  0.24375799990E+02  0.00000000000E+00 0. -1.
</event>
<event>
 7    1  0.1542786E-009  0.4778727E+02  0.7816164E-02  0.1312668E+00
        -11   -1    0    0    0    0  0.00000000000E+00  0.00000000000E+00  0.45593999997E+02  0.45594000000E+02  0.51100000000E-03 0. -1.
         11   -1    0    0    0    0 -0.00000000000E+00 -0.00000000000E+00 -0.45593999997E+02  0.45594000000E+02  0.51100000000E-03 0.  1.
    9900012    2    1    2    0    0  0.17860245426E+02  0.38038665610E+02  0.10848730932E+02  0.47787269466E+02  0.19999992804E+02 0.  0.
        -12    1    1    2    0    0 -0.17860245426E+02 -0.38038665610E+02 -0.10848730932E+02  0.43400730534E+02  0.00000000000E+00 0.  1.
         11    1    3    3    0    0  0.52197042643E+01  0.63988766695E+01  0.38982277107E+01  0.91316545480E+01  0.51100000000E-03 0. -1.
        -11    1    3    3    0    0  0.16677098431E+02  0.22967608089E+02  0.41283470597E+01  0.28682396746E+02  0.51100000000E-03 0.  1.
         12    1    3    3    0    0 -0.40365572694E+01  0.86721808511E+01  0.28221561619E+01  0.99732181720E+01  0.00000000000E+00 0. -1.
</event>
<event>
 7    1  0.1542786E-009  0.4778727E+02  0.7816164E-02  0.1312668E+00
        -11   -1    0    0    0    0  0.00000000000E+00  0.00000000000E+00  0.45593999997E+02  0.45594000000E+02  0.51100000000E-03 0.  1.
         11   -1    0    0    0    0 -0.00000000000E+00 -0.00000000000E+00 -0.45593999997E+02  0.45594000000E+02  0.51100000000E-03 0. -1.
    9900012    2    1    2    0    0  0.12773657871E+02  0.31152488793E+02  0.27385753919E+02  0.47787269463E+02  0.19999992792E+02 0.  0.
        -12    1    1    2    0    0 -0.12773657871E+02 -0.31152488793E+02 -0.27385753919E+02  0.43400730537E+02  0.00000000000E+00 0.  1.
         11    1    3    3    0    0  0.91870694511E+01  0.12672262049E+02  0.16513375655E+02  0.22752583289E+02  0.51100000000E-03 0. -1.
        -11    1    3    3    0    0  0.79239205033E+01  0.86558683105E+01  0.67028681959E+01  0.13514474265E+02  0.51100000000E-03 0.  1.
         12    1    3    3    0    0 -0.43373320833E+01  0.98243584336E+01  0.41695100684E+01  0.11520211910E+02  0.00000000000E+00 0. -1.
</event>
<event>
 7    1  0.1542786E-009  0.4778727E+02  0.7816164E-02  0.1312668E+00
        -11   -1    0    0    0    0  0.00000000000E+00  0.00000000000E+00  0.45593999997E+02  0.45594000000E+02  0.51100000000E-03 0.  1.
         11   -1    0    0    0    0 -0.00000000000E+00 -0.00000000000E+00 -0.45593999997E+02  0.45594000000E+02  0.51100000000E-03 0. -1.
    9900012    2    1    2    0    0 -0.19503769979E+02 -0.38128845728E+02 -0.70297484502E+01  0.47787270937E+02  0.19999999509E+02 0.  0.
        -12    1    1    2    0    0  0.19503769979E+02  0.38128845728E+02  0.70297484502E+01  0.43400729063E+02  0.00000000000E+00 0.  1.
         11    1    3    3    0    0 -0.10414624127E+02 -0.24033602737E+02 -0.11629693288E+02  0.28658824513E+02  0.51100000000E-03 0. -1.
        -11    1    3    3    0    0 -0.48708476050E+01 -0.12889063930E+02  0.17326398228E+01  0.13887230336E+02  0.51100000000E-03 0.  1.
        -12    1    3    3    0    0 -0.42182982469E+01 -0.12061790604E+01  0.28673050151E+01  0.52412160874E+01  0.00000000000E+00 0.  1.
</event>
<event>
 7    1  0.1542786E-009  0.4778727E+02  0.7816164E-02  0.1312668E+00
        -11   -1    0    0    0    0  0.00000000000E+00  0.00000000000E+00  0.45593999997E+02  0.45594000000E+02  0.51100000000E-03 0.  1.
         11   -1    0    0    0    0 -0.00000000000E+00 -0.00000000000E+00 -0.45593999997E+02  0.45594000000E+02  0.51100000000E-03 0. -1.
    9900012    2    1    2    0    0 -0.17473838528E+02 -0.39718031959E+02 -0.87518963063E+00  0.47787273595E+02  0.20000011630E+02 0.  0.
        -12    1    1    2    0    0  0.17473838528E+02  0.39718031959E+02  0.87518963063E+00  0.43400726405E+02  0.00000000000E+00 0.  1.
         11    1    3    3    0    0 -0.31563099715E+01 -0.19768074184E+02 -0.90649416636E+00  0.20038981549E+02  0.51100000000E-03 0. -1.
        -11    1    3    3    0    0 -0.36801116062E+00 -0.10826321627E+02  0.18198717236E+01  0.10984380071E+02  0.51100000000E-03 0.  1.
        -12    1    3    3    0    0 -0.13949517396E+02 -0.91236361470E+01 -0.17885671879E+01  0.16763911975E+02  0.00000000000E+00 0.  1.
</event>
<event>
 7    1  0.1542786E-009  0.4778727E+02  0.7816164E-02  0.1312668E+00
        -11   -1    0    0    0    0  0.00000000000E+00  0.00000000000E+00  0.45593999997E+02  0.45594000000E+02  0.51100000000E-03 0.  1.
         11   -1    0    0    0    0 -0.00000000000E+00 -0.00000000000E+00 -0.45593999997E+02  0.45594000000E+02  0.51100000000E-03 0. -1.
    9900012    2    1    2    0    0  0.15748547442E+02  0.30563862120E+02 -0.26485034760E+02  0.47787268665E+02  0.19999989150E+02 0.  0.
        -12    1    1    2    0    0 -0.15748547442E+02 -0.30563862120E+02  0.26485034760E+02  0.43400731335E+02  0.00000000000E+00 0.  1.
         11    1    3    3    0    0  0.76260386349E+01  0.15037176751E+02 -0.14070474230E+02  0.21960223023E+02  0.51100000000E-03 0. -1.
        -11    1    3    3    0    0 -0.33548034937E+01  0.84806230581E+01 -0.59405896503E+01  0.10884221589E+02  0.51100000000E-03 0.  1.
         12    1    3    3    0    0  0.11477312301E+02  0.70460623108E+01 -0.64739708793E+01  0.14942824053E+02  0.00000000000E+00 0. -1.
</event>
<event>
 7    1  0.1542786E-009  0.4778727E+02  0.7816164E-02  0.1312668E+00
        -11   -1    0    0    0    0  0.00000000000E+00  0.00000000000E+00  0.45593999997E+02  0.45594000000E+02  0.51100000000E-03 0.  1.
         11   -1    0    0    0    0 -0.00000000000E+00 -0.00000000000E+00 -0.45593999997E+02  0.45594000000E+02  0.51100000000E-03 0. -1.
    9900012    2    1    2    0    0  0.13981758386E+02 -0.50591281165E+01 -0.40774243239E+02  0.47787271244E+02  0.20000000911E+02 0.  0.
        -12    1    1    2    0    0 -0.13981758386E+02  0.50591281165E+01  0.40774243239E+02  0.43400728756E+02  0.00000000000E+00 0.  1.
         11    1    3    3    0    0  0.23156757142E+01 -0.17590156985E+01  0.11152211429E+01  0.31145158050E+01  0.51100000000E-03 0.  1.
        -11    1    3    3    0    0  0.10766228753E+02 -0.10815139830E+01 -0.20784106394E+02  0.23432038599E+02  0.51100000000E-03 0. -1.
        -12    1    3    3    0    0  0.89985391822E+00 -0.22185984350E+01 -0.21105357988E+02  0.21240716840E+02  0.00000000000E+00 0.  1.
</event>
<event>
 7    1  0.1542786E-009  0.4778727E+02  0.7816164E-02  0.1312668E+00
        -11   -1    0    0    0    0  0.00000000000E+00  0.00000000000E+00  0.45593999997E+02  0.45594000000E+02  0.51100000000E-03 0.  1.
         11   -1    0    0    0    0 -0.00000000000E+00 -0.00000000000E+00 -0.45593999997E+02  0.45594000000E+02  0.51100000000E-03 0. -1.
    9900012    2    1    2    0    0  0.19550733416E+02 -0.22045781232E+02 -0.31864961361E+02  0.47787269479E+02  0.19999992861E+02 0.  0.
        -12    1    1    2    0    0 -0.19550733416E+02  0.22045781232E+02  0.31864961361E+02  0.43400730521E+02  0.00000000000E+00 0.  1.
         11    1    3    3    0    0  0.15523490513E+02 -0.15417923091E+02 -0.17866900994E+02  0.28247429290E+02  0.51100000000E-03 0. -1.
        -11    1    3    3    0    0  0.28493555054E+01 -0.98158430473E+01 -0.10872672149E+02  0.14922620462E+02  0.51100000000E-03 0.  1.
        -12    1    3    3    0    0  0.11778873974E+01  0.31879849063E+01 -0.31253882188E+01  0.46172197264E+01  0.00000000000E+00 0.  1.
</event>
<event>
 7    1  0.1542786E-009  0.4778727E+02  0.7816164E-02  0.1312668E+00
        -11   -1    0    0    0    0  0.00000000000E+00  0.00000000000E+00  0.45593999997E+02  0.45594000000E+02  0.51100000000E-03 0.  1.
         11   -1    0    0    0    0 -0.00000000000E+00 -0.00000000000E+00 -0.45593999997E+02  0.45594000000E+02  0.51100000000E-03 0. -1.
    9900012    2    1    2    0    0  0.31886804658E+02 -0.17354741249E+02 -0.23783775995E+02  0.47787270102E+02  0.19999995702E+02 0.  0.
        -12    1    1    2    0    0 -0.31886804658E+02  0.17354741249E+02  0.23783775995E+02  0.43400729898E+02  0.00000000000E+00 0.  1.
         11    1    3    3    0    0  0.25071815193E+02 -0.48853960803E+01 -0.12207253154E+02  0.28310422847E+02  0.51100000000E-03 0. -1.
        -11    1    3    3    0    0  0.80373628498E+01 -0.99992743846E+01 -0.87487601078E+01  0.15528216043E+02  0.51100000000E-03 0.  1.
        -12    1    3    3    0    0 -0.12223733851E+01 -0.24700707842E+01 -0.28277627330E+01  0.39486312116E+01  0.00000000000E+00 0.  1.
</event>
<event>
 7    1  0.1542786E-009  0.4778728E+02  0.7816164E-02  0.1312668E+00
        -11   -1    0    0    0    0  0.00000000000E+00  0.00000000000E+00  0.45593999997E+02  0.45594000000E+02  0.51100000000E-03 0. -1.
         11   -1    0    0    0    0 -0.00000000000E+00 -0.00000000000E+00 -0.45593999997E+02  0.45594000000E+02  0.51100000000E-03 0.  1.
    9900012    2    1    2    0    0  0.41708845422E+02 -0.11837313850E+02 -0.19679526218E+01  0.47787278542E+02  0.20000034182E+02 0.  0.
        -12    1    1    2    0    0 -0.41708845422E+02  0.11837313850E+02  0.19679526218E+01  0.43400721458E+02  0.00000000000E+00 0.  1.
         11    1    3    3    0    0  0.32241964749E+01 -0.30407382362E+01  0.14256410624E+01  0.46555326902E+01  0.51100000000E-03 0. -1.
        -11    1    3    3    0    0  0.17201734921E+01 -0.48407406618E+01 -0.33901321757E+01  0.61550599857E+01  0.51100000000E-03 0.  1.
         12    1    3    3    0    0  0.36764475455E+02 -0.39558349517E+01 -0.34615084528E-02  0.36976685866E+02  0.00000000000E+00 0. -1.
</event>
<event>
 7    1  0.1542786E-009  0.4778727E+02  0.7816164E-02  0.1312668E+00
        -11   -1    0    0    0    0  0.00000000000E+00  0.00000000000E+00  0.45593999997E+02  0.45594000000E+02  0.51100000000E-03 0.  1.
         11   -1    0    0    0    0 -0.00000000000E+00 -0.00000000000E+00 -0.45593999997E+02  0.45594000000E+02  0.51100000000E-03 0. -1.
    9900012    2    1    2    0    0  0.42049448542E+02  0.26852822493E+01 -0.10404646858E+02  0.47787267982E+02  0.19999986036E+02 0.  0.
        -12    1    1    2    0    0 -0.42049448542E+02 -0.26852822493E+01  0.10404646858E+02  0.43400732018E+02  0.00000000000E+00 0.  1.
         11    1    3    3    0    0  0.23578641405E+02  0.10811485918E+01 -0.63014467889E+01  0.24430093014E+02  0.51100000000E-03 0. -1.
        -11    1    3    3    0    0  0.17087921343E+02  0.54807708431E+01 -0.58658364008E+01  0.18879723033E+02  0.51100000000E-03 0.  1.
        -12    1    3    3    0    0  0.13828857944E+01 -0.38766371857E+01  0.17626363321E+01  0.44774519348E+01  0.00000000000E+00 0.  1.
</event>
<event>
 7    1  0.1542786E-009  0.4778728E+02  0.7816164E-02  0.1312668E+00
        -11   -1    0    0    0    0  0.00000000000E+00  0.00000000000E+00  0.45593999997E+02  0.45594000000E+02  0.51100000000E-03 0.  1.
         11   -1    0    0    0    0 -0.00000000000E+00 -0.00000000000E+00 -0.45593999997E+02  0.45594000000E+02  0.51100000000E-03 0. -1.
    9900012    2    1    2    0    0  0.38046528102E+02 -0.77995618607E+01 -0.19371399642E+02  0.47787278924E+02  0.20000035926E+02 0.  0.
        -12    1    1    2    0    0 -0.38046528102E+02  0.77995618607E+01  0.19371399642E+02  0.43400721076E+02  0.00000000000E+00 0.  1.
         11    1    3    3    0    0  0.58421932056E+01 -0.54725168589E+01  0.14348887133E+01  0.81325622102E+01  0.51100000000E-03 0.  1.
        -11    1    3    3    0    0  0.59451932188E+01  0.31608211859E+01 -0.59713909095E+01  0.89996456949E+01  0.51100000000E-03 0. -1.
        -12    1    3    3    0    0  0.26259141677E+02 -0.54878661877E+01 -0.14834897446E+02  0.30655071019E+02  0.00000000000E+00 0.  1.
</event>
<event>
 7    1  0.1542786E-009  0.4778727E+02  0.7816164E-02  0.1312668E+00
        -11   -1    0    0    0    0  0.00000000000E+00  0.00000000000E+00  0.45593999997E+02  0.45594000000E+02  0.51100000000E-03 0.  1.
         11   -1    0    0    0    0 -0.00000000000E+00 -0.00000000000E+00 -0.45593999997E+02  0.45594000000E+02  0.51100000000E-03 0. -1.
    9900012    2    1    2    0    0  0.41546742647E+02 -0.43293330406E+01 -0.11779161489E+02  0.47787267350E+02  0.19999983156E+02 0.  0.
        -12    1    1    2    0    0 -0.41546742647E+02  0.43293330406E+01  0.11779161489E+02  0.43400732650E+02  0.00000000000E+00 0.  1.
         11    1    3    3    0    0  0.16057241536E+02 -0.46737087877E+01  0.11651771822E+01  0.16764134266E+02  0.51100000000E-03 0. -1.
        -11    1    3    3    0    0  0.23749666868E+02  0.31931550497E+01 -0.84177459020E+01  0.25398845680E+02  0.51100000000E-03 0.  1.
        -12    1    3    3    0    0  0.17398342431E+01 -0.28487793026E+01 -0.45265927691E+01  0.56242874043E+01  0.00000000000E+00 0.  1.
</event>
<event>
 7    1  0.1542786E-009  0.4778724E+02  0.7816164E-02  0.1312668E+00
        -11   -1    0    0    0    0  0.00000000000E+00  0.00000000000E+00  0.45593999997E+02  0.45594000000E+02  0.51100000000E-03 0.  1.
         11   -1    0    0    0    0 -0.00000000000E+00 -0.00000000000E+00 -0.45593999997E+02  0.45594000000E+02  0.51100000000E-03 0. -1.
    9900012    2    1    2    0    0 -0.20076859444E+02 -0.30241567187E+02 -0.23790621401E+02  0.47787235748E+02  0.19999839068E+02 0.  0.
        -12    1    1    2    0    0  0.20076859444E+02  0.30241567187E+02  0.23790621401E+02  0.43400764252E+02  0.00000000000E+00 0.  1.
         11    1    3    3    0    0 -0.12668776971E+02 -0.96517570496E+01 -0.15071563465E+02  0.21927296907E+02  0.51100000000E-03 0. -1.
        -11    1    3    3    0    0  0.27081585874E+01 -0.54514863604E+01 -0.14662728252E+01  0.62612125607E+01  0.51100000000E-03 0.  1.
         12    1    3    3    0    0 -0.10116241060E+02 -0.15138323777E+02 -0.72527851102E+01  0.19598726280E+02  0.00000000000E+00 0. -1.
</event>
<event>
 7    1  0.1542786E-009  0.4778727E+02  0.7816164E-02  0.1312668E+00
        -11   -1    0    0    0    0  0.00000000000E+00  0.00000000000E+00  0.45593999997E+02  0.45594000000E+02  0.51100000000E-03 0. -1.
         11   -1    0    0    0    0 -0.00000000000E+00 -0.00000000000E+00 -0.45593999997E+02  0.45594000000E+02  0.51100000000E-03 0.  1.
    9900012    2    1    2    0    0 -0.40483085131E+01 -0.39511878165E+02 -0.17494173274E+02  0.47787269402E+02  0.19999992512E+02 0.  0.
        -12    1    1    2    0    0  0.40483085131E+01  0.39511878165E+02  0.17494173274E+02  0.43400730598E+02  0.00000000000E+00 0.  1.
         11    1    3    3    0    0  0.46287362976E+01 -0.25160903050E+02 -0.99119597280E+01  0.27436165692E+02  0.51100000000E-03 0.  1.
        -11    1    3    3    0    0 -0.56322307078E+01 -0.14444267630E+02 -0.76837955548E+01  0.17303167470E+02  0.51100000000E-03 0. -1.
        -12    1    3    3    0    0 -0.30448141029E+01  0.93292515334E-01  0.10158200921E+00  0.30479362394E+01  0.00000000000E+00 0.  1.
</event>
<event>
 7    1  0.1542786E-009  0.4778728E+02  0.7816164E-02  0.1312668E+00
        -11   -1    0    0    0    0  0.00000000000E+00  0.00000000000E+00  0.45593999997E+02  0.45594000000E+02  0.51100000000E-03 0.  1.
         11   -1    0    0    0    0 -0.00000000000E+00 -0.00000000000E+00 -0.45593999997E+02  0.45594000000E+02  0.51100000000E-03 0. -1.
    9900012    2    1    2    0    0  0.34635856486E+02  0.51413045546E+01 -0.25642680724E+02  0.47787278327E+02  0.20000033204E+02 0.  0.
        -12    1    1    2    0    0 -0.34635856486E+02 -0.51413045546E+01  0.25642680724E+02  0.43400721673E+02  0.00000000000E+00 0.  1.
         11    1    3    3    0    0  0.24598008492E+02  0.11051207438E+02 -0.23506322229E+02  0.35773431379E+02  0.51100000000E-03 0. -1.
        -11    1    3    3    0    0  0.58852078147E+01 -0.23508168321E+01 -0.14569174272E+01  0.65026624894E+01  0.51100000000E-03 0.  1.
         12    1    3    3    0    0  0.41526401791E+01 -0.35590860512E+01 -0.67944106792E+00  0.55111844590E+01  0.00000000000E+00 0. -1.
</event>
<event>
 7    1  0.1542786E-009  0.4778727E+02  0.7816164E-02  0.1312668E+00
        -11   -1    0    0    0    0  0.00000000000E+00  0.00000000000E+00  0.45593999997E+02  0.45594000000E+02  0.51100000000E-03 0. -1.
         11   -1    0    0    0    0 -0.00000000000E+00 -0.00000000000E+00 -0.45593999997E+02  0.45594000000E+02  0.51100000000E-03 0.  1.
    9900012    2    1    2    0    0 -0.32955166853E+02  0.11434749031E+02  0.25822991546E+02  0.47787269590E+02  0.19999993370E+02 0.  0.
        -12    1    1    2    0    0  0.32955166853E+02 -0.11434749031E+02 -0.25822991546E+02  0.43400730410E+02  0.00000000000E+00 0.  1.
         11    1    3    3    0    0 -0.98754716927E+01  0.70222068749E+01  0.16382996230E+02  0.20377411422E+02  0.51100000000E-03 0. -1.
        -11    1    3    3    0    0  0.11044213068E+01 -0.11787907310E+00  0.61973343407E+00  0.12718929551E+01  0.51100000000E-03 0.  1.
        -12    1    3    3    0    0 -0.24184116467E+02  0.45304212293E+01  0.88202618818E+01  0.26137965213E+02  0.00000000000E+00 0.  1.
</event>
<event>
 7    1  0.1542786E-009  0.4778727E+02  0.7816164E-02  0.1312668E+00
        -11   -1    0    0    0    0  0.00000000000E+00  0.00000000000E+00  0.45593999997E+02  0.45594000000E+02  0.51100000000E-03 0. -1.
         11   -1    0    0    0    0 -0.00000000000E+00 -0.00000000000E+00 -0.45593999997E+02  0.45594000000E+02  0.51100000000E-03 0.  1.
    9900012    2    1    2    0    0 -0.17007647345E+02  0.31822737352E+02  0.24117974018E+02  0.47787270149E+02  0.19999995919E+02 0.  0.
        -12    1    1    2    0    0  0.17007647345E+02 -0.31822737352E+02 -0.24117974018E+02  0.43400729851E+02  0.00000000000E+00 0.  1.
         11    1    3    3    0    0 -0.13799692790E+02  0.12356307856E+02  0.15358626729E+02  0.24062362316E+02  0.51100000000E-03 0.  1.
        -11    1    3    3    0    0  0.17378480309E+01  0.90805768958E+01  0.79494984014E+01  0.12193093030E+02  0.51100000000E-03 0. -1.
        -12    1    3    3    0    0 -0.49458025860E+01  0.10385852600E+02  0.80984888796E+00  0.11531814804E+02  0.00000000000E+00 0.  1.
</event>
<event>
 7    1  0.1542786E-009  0.4778728E+02  0.7816164E-02  0.1312668E+00
        -11   -1    0    0    0    0  0.00000000000E+00  0.00000000000E+00  0.45593999997E+02  0.45594000000E+02  0.51100000000E-03 0.  1.
         11   -1    0    0    0    0 -0.00000000000E+00 -0.00000000000E+00 -0.45593999997E+02  0.45594000000E+02  0.51100000000E-03 0. -1.
    9900012    2    1    2    0    0 -0.26490902683E+02  0.16898284109E+02 -0.29938310146E+02  0.47787281743E+02  0.20000048780E+02 0.  0.
        -12    1    1    2    0    0  0.26490902683E+02 -0.16898284109E+02  0.29938310146E+02  0.43400718257E+02  0.00000000000E+00 0.  1.
         11    1    3    3    0    0 -0.38456528366E+01  0.49569843924E+01 -0.83970037098E+01  0.10481908775E+02  0.51100000000E-03 0. -1.
        -11    1    3    3    0    0 -0.14215350860E+02  0.17765956565E+01 -0.31567025859E+01  0.14669603392E+02  0.51100000000E-03 0.  1.
        -12    1    3    3    0    0 -0.84298989862E+01  0.10164704060E+02 -0.18384603851E+02  0.22635769576E+02  0.00000000000E+00 0.  1.
</event>
<event>
 7    1  0.1542786E-009  0.4778727E+02  0.7816164E-02  0.1312668E+00
        -11   -1    0    0    0    0  0.00000000000E+00  0.00000000000E+00  0.45593999997E+02  0.45594000000E+02  0.51100000000E-03 0.  1.
         11   -1    0    0    0    0 -0.00000000000E+00 -0.00000000000E+00 -0.45593999997E+02  0.45594000000E+02  0.51100000000E-03 0. -1.
    9900012    2    1    2    0    0  0.37923944711E+02 -0.62004246320E+01 -0.20173055787E+02  0.47787273879E+02  0.20000012924E+02 0.  0.
        -12    1    1    2    0    0 -0.37923944711E+02  0.62004246320E+01  0.20173055787E+02  0.43400726121E+02  0.00000000000E+00 0.  1.
         11    1    3    3    0    0  0.29250372819E+02 -0.79190209576E-01 -0.20026958397E+02  0.35449536584E+02  0.51100000000E-03 0. -1.
        -11    1    3    3    0    0  0.27181496726E+01  0.30815977646E+00  0.19095017830E+01  0.33360901383E+01  0.51100000000E-03 0.  1.
        -12    1    3    3    0    0  0.59554222194E+01 -0.64293941989E+01 -0.20555991731E+01  0.90016471568E+01  0.00000000000E+00 0.  1.
</event>
<event>
 7    1  0.1542786E-009  0.4778727E+02  0.7816164E-02  0.1312668E+00
        -11   -1    0    0    0    0  0.00000000000E+00  0.00000000000E+00  0.45593999997E+02  0.45594000000E+02  0.51100000000E-03 0. -1.
         11   -1    0    0    0    0 -0.00000000000E+00 -0.00000000000E+00 -0.45593999997E+02  0.45594000000E+02  0.51100000000E-03 0.  1.
    9900012    2    1    2    0    0 -0.30520351684E+02  0.25490830945E+02 -0.17388186067E+02  0.47787270238E+02  0.19999996322E+02 0.  0.
        -12    1    1    2    0    0  0.30520351684E+02 -0.25490830945E+02  0.17388186067E+02  0.43400729762E+02  0.00000000000E+00 0.  1.
         11    1    3    3    0    0 -0.39676550017E+01  0.13740551937E+02 -0.68403577800E+01  0.15853565800E+02  0.51100000000E-03 0. -1.
        -11    1    3    3    0    0 -0.70710929229E+01  0.13915805149E+01 -0.60636139472E+01  0.94182942095E+01  0.51100000000E-03 0.  1.
         12    1    3    3    0    0 -0.19481603760E+02  0.10358698492E+02 -0.44842143402E+01  0.22515410228E+02  0.00000000000E+00 0. -1.
</event>
<event>
 7    1  0.1542786E-009  0.4778727E+02  0.7816164E-02  0.1312668E+00
        -11   -1    0    0    0    0  0.00000000000E+00  0.00000000000E+00  0.45593999997E+02  0.45594000000E+02  0.51100000000E-03 0. -1.
         11   -1    0    0    0    0 -0.00000000000E+00 -0.00000000000E+00 -0.45593999997E+02  0.45594000000E+02  0.51100000000E-03 0.  1.
    9900012    2    1    2    0    0 -0.48071386036E+01  0.37503947307E+02  0.21306544723E+02  0.47787268517E+02  0.19999988478E+02 0.  0.
        -12    1    1    2    0    0  0.48071386036E+01 -0.37503947307E+02 -0.21306544723E+02  0.43400731483E+02  0.00000000000E+00 0.  1.
         11    1    3    3    0    0 -0.19201095533E+01  0.36883889573E+01 -0.79547926860E+00  0.42336534252E+01  0.51100000000E-03 0. -1.
        -11    1    3    3    0    0 -0.23762173426E+00  0.19572778987E+02  0.21468768956E+02  0.29052679431E+02  0.51100000000E-03 0.  1.
        -12    1    3    3    0    0 -0.26494073161E+01  0.14242779363E+02  0.63325503575E+00  0.14500935661E+02  0.00000000000E+00 0.  1.
</event>
<event>
 7    1  0.1542786E-009  0.4778727E+02  0.7816164E-02  0.1312668E+00
        -11   -1    0    0    0    0  0.00000000000E+00  0.00000000000E+00  0.45593999997E+02  0.45594000000E+02  0.51100000000E-03 0. -1.
         11   -1    0    0    0    0 -0.00000000000E+00 -0.00000000000E+00 -0.45593999997E+02  0.45594000000E+02  0.51100000000E-03 0.  1.
    9900012    2    1    2    0    0 -0.15840798372E+02  0.16257915293E+02  0.36991522076E+02  0.47787269496E+02  0.19999992942E+02 0.  0.
        -12    1    1    2    0    0  0.15840798372E+02 -0.16257915293E+02 -0.36991522076E+02  0.43400730504E+02  0.00000000000E+00 0.  1.
         11    1    3    3    0    0 -0.11832660686E+02  0.11635712059E+02  0.23155155120E+02  0.28487942413E+02  0.51100000000E-03 0. -1.
        -11    1    3    3    0    0 -0.30677506742E+01  0.86877819555E+01  0.10394718013E+02  0.13890241623E+02  0.51100000000E-03 0.  1.
        -12    1    3    3    0    0 -0.94038701109E+00 -0.40655787216E+01  0.34416489435E+01  0.54090854608E+01  0.00000000000E+00 0.  1.
</event>
<event>
 7    1  0.1542786E-009  0.4778727E+02  0.7816164E-02  0.1312668E+00
        -11   -1    0    0    0    0  0.00000000000E+00  0.00000000000E+00  0.45593999997E+02  0.45594000000E+02  0.51100000000E-03 0.  1.
         11   -1    0    0    0    0 -0.00000000000E+00 -0.00000000000E+00 -0.45593999997E+02  0.45594000000E+02  0.51100000000E-03 0. -1.
    9900012    2    1    2    0    0 -0.31625577234E+02  0.28696967650E+00  0.29721436172E+02  0.47787271260E+02  0.20000000984E+02 0.  0.
        -12    1    1    2    0    0  0.31625577234E+02 -0.28696967650E+00 -0.29721436172E+02  0.43400728740E+02  0.00000000000E+00 0.  1.
         11    1    3    3    0    0 -0.11440997696E+02 -0.31580786859E+01  0.21292509249E+02  0.24377055598E+02  0.51100000000E-03 0. -1.
        -11    1    3    3    0    0 -0.90691140606E+01  0.46222283001E+01  0.64725886427E+01  0.12062679151E+02  0.51100000000E-03 0.  1.
         12    1    3    3    0    0 -0.11115465478E+02 -0.11771799377E+01  0.19563382803E+01  0.11347536511E+02  0.00000000000E+00 0. -1.
</event>
<event>
 7    1  0.1542786E-009  0.4778727E+02  0.7816164E-02  0.1312668E+00
        -11   -1    0    0    0    0  0.00000000000E+00  0.00000000000E+00  0.45593999997E+02  0.45594000000E+02  0.51100000000E-03 0.  1.
         11   -1    0    0    0    0 -0.00000000000E+00 -0.00000000000E+00 -0.45593999997E+02  0.45594000000E+02  0.51100000000E-03 0. -1.
    9900012    2    1    2    0    0  0.25848452502E+02  0.21518540765E+02 -0.27430517090E+02  0.47787270038E+02  0.19999995413E+02 0.  0.
        -12    1    1    2    0    0 -0.25848452502E+02 -0.21518540765E+02  0.27430517090E+02  0.43400729962E+02  0.00000000000E+00 0.  1.
         11    1    3    3    0    0  0.10279135785E+02  0.14682062700E+02 -0.19648487045E+02  0.26594861178E+02  0.51100000000E-03 0. -1.
        -11    1    3    3    0    0  0.50963376262E+01  0.74722106942E+01 -0.50125178921E+01  0.10340789416E+02  0.51100000000E-03 0.  1.
        -12    1    3    3    0    0  0.10472979091E+02 -0.63573263006E+00 -0.27695121521E+01  0.10851619445E+02  0.00000000000E+00 0.  1.
</event>
<event>
 7    1  0.1542786E-009  0.4778727E+02  0.7816164E-02  0.1312668E+00
        -11   -1    0    0    0    0  0.00000000000E+00  0.00000000000E+00  0.45593999997E+02  0.45594000000E+02  0.51100000000E-03 0.  1.
         11   -1    0    0    0    0 -0.00000000000E+00 -0.00000000000E+00 -0.45593999997E+02  0.45594000000E+02  0.51100000000E-03 0. -1.
    9900012    2    1    2    0    0  0.13966826768E+02 -0.30693526485E+02 -0.27321388464E+02  0.47787273213E+02  0.20000009887E+02 0.  0.
        -12    1    1    2    0    0 -0.13966826768E+02  0.30693526485E+02  0.27321388464E+02  0.43400726787E+02  0.00000000000E+00 0.  1.
         11    1    3    3    0    0  0.69581999429E+01 -0.95192812252E+01 -0.52021200359E+01  0.12887797120E+02  0.51100000000E-03 0.  1.
        -11    1    3    3    0    0 -0.23325103309E+01 -0.16082503337E+02 -0.11844855813E+02  0.20109403958E+02  0.51100000000E-03 0. -1.
        -12    1    3    3    0    0  0.93411371560E+01 -0.50917419224E+01 -0.10274412615E+02  0.14790072135E+02  0.00000000000E+00 0.  1.
</event>
<event>
 7    1  0.1542786E-009  0.4778727E+02  0.7816164E-02  0.1312668E+00
        -11   -1    0    0    0    0  0.00000000000E+00  0.00000000000E+00  0.45593999997E+02  0.45594000000E+02  0.51100000000E-03 0. -1.
         11   -1    0    0    0    0 -0.00000000000E+00 -0.00000000000E+00 -0.45593999997E+02  0.45594000000E+02  0.51100000000E-03 0.  1.
    9900012    2    1    2    0    0 -0.24924225876E+02 -0.10190461124E+02  0.34037641834E+02  0.47787267344E+02  0.19999983128E+02 0.  0.
        -12    1    1    2    0    0  0.24924225876E+02  0.10190461124E+02 -0.34037641834E+02  0.43400732656E+02  0.00000000000E+00 0.  1.
         11    1    3    3    0    0 -0.39519739090E+01 -0.59221400469E+01  0.19084187025E+02  0.20368996911E+02  0.51100000000E-03 0. -1.
        -11    1    3    3    0    0 -0.76644261223E+01  0.24862768881E+01  0.51983760853E+01  0.95889579587E+01  0.51100000000E-03 0.  1.
        -12    1    3    3    0    0 -0.13307825845E+02 -0.67545979651E+01  0.97550787241E+01  0.17829312474E+02  0.00000000000E+00 0.  1.
</event>
<event>
 7    1  0.1542786E-009  0.4778728E+02  0.7816164E-02  0.1312668E+00
        -11   -1    0    0    0    0  0.00000000000E+00  0.00000000000E+00  0.45593999997E+02  0.45594000000E+02  0.51100000000E-03 0. -1.
         11   -1    0    0    0    0 -0.00000000000E+00 -0.00000000000E+00 -0.45593999997E+02  0.45594000000E+02  0.51100000000E-03 0.  1.
    9900012    2    1    2    0    0  0.20905188443E+02  0.37392395422E+02  0.69573491249E+01  0.47787275972E+02  0.20000022469E+02 0.  0.
        -12    1    1    2    0    0 -0.20905188443E+02 -0.37392395422E+02 -0.69573491249E+01  0.43400724028E+02  0.00000000000E+00 0.  1.
         11    1    3    3    0    0 -0.71096851212E+00  0.19345823694E+01  0.14458665984E+01  0.25176607497E+01  0.51100000000E-03 0. -1.
        -11    1    3    3    0    0 -0.13605995266E+00  0.10962787834E+02  0.60175952915E+01  0.12506505617E+02  0.51100000000E-03 0.  1.
         12    1    3    3    0    0  0.21752216908E+02  0.24495025220E+02 -0.50611276496E+00  0.32763109606E+02  0.00000000000E+00 0. -1.
</event>
<event>
 7    1  0.1542786E-009  0.4778728E+02  0.7816164E-02  0.1312668E+00
        -11   -1    0    0    0    0  0.00000000000E+00  0.00000000000E+00  0.45593999997E+02  0.45594000000E+02  0.51100000000E-03 0.  1.
         11   -1    0    0    0    0 -0.00000000000E+00 -0.00000000000E+00 -0.45593999997E+02  0.45594000000E+02  0.51100000000E-03 0. -1.
    9900012    2    1    2    0    0 -0.22970150405E+02  0.54044760861E+01 -0.36425083274E+02  0.47787275779E+02  0.20000021588E+02 0.  0.
        -12    1    1    2    0    0  0.22970150405E+02 -0.54044760861E+01  0.36425083274E+02  0.43400724221E+02  0.00000000000E+00 0.  1.
         11    1    3    3    0    0 -0.10740872443E+02  0.10206604834E+01 -0.74134403017E+01  0.13090729011E+02  0.51100000000E-03 0. -1.
        -11    1    3    3    0    0 -0.62208040039E+01  0.86087937107E+01 -0.22498522358E+02  0.24879574758E+02  0.51100000000E-03 0.  1.
        -12    1    3    3    0    0 -0.60084739575E+01 -0.42249781080E+01 -0.65131206143E+01  0.98169720101E+01  0.00000000000E+00 0.  1.
</event>
<event>
 7    1  0.1542786E-009  0.4778727E+02  0.7816164E-02  0.1312668E+00
        -11   -1    0    0    0    0  0.00000000000E+00  0.00000000000E+00  0.45593999997E+02  0.45594000000E+02  0.51100000000E-03 0.  1.
         11   -1    0    0    0    0 -0.00000000000E+00 -0.00000000000E+00 -0.45593999997E+02  0.45594000000E+02  0.51100000000E-03 0. -1.
    9900012    2    1    2    0    0 -0.42577442188E+02 -0.83736683177E+01 -0.81658070675E+00  0.47787266039E+02  0.19999977176E+02 0.  0.
        -12    1    1    2    0    0  0.42577442188E+02  0.83736683177E+01  0.81658070675E+00  0.43400733961E+02  0.00000000000E+00 0.  1.
         11    1    3    3    0    0 -0.24752809975E+02 -0.72229764805E+01  0.21838321448E+00  0.25786055968E+02  0.51100000000E-03 0. -1.
        -11    1    3    3    0    0 -0.15932085774E+02 -0.57136713355E+01  0.12861048503E+00  0.16926131813E+02  0.51100000000E-03 0.  1.
        -12    1    3    3    0    0 -0.18925464394E+01  0.45629794983E+01 -0.11635744063E+01  0.50750782581E+01  0.00000000000E+00 0.  1.
</event>
<event>
 7    1  0.1542786E-009  0.4778726E+02  0.7816164E-02  0.1312668E+00
        -11   -1    0    0    0    0  0.00000000000E+00  0.00000000000E+00  0.45593999997E+02  0.45594000000E+02  0.51100000000E-03 0.  1.
         11   -1    0    0    0    0 -0.00000000000E+00 -0.00000000000E+00 -0.45593999997E+02  0.45594000000E+02  0.51100000000E-03 0. -1.
    9900012    2    1    2    0    0 -0.32352780441E+02 -0.15218484464E+02 -0.24603247384E+02  0.47787257455E+02  0.19999938040E+02 0.  0.
        -12    1    1    2    0    0  0.32352780441E+02  0.15218484464E+02  0.24603247384E+02  0.43400742545E+02  0.00000000000E+00 0.  1.
         11    1    3    3    0    0 -0.17931164150E+02 -0.10756245026E+02 -0.93715213498E+01  0.22913944826E+02  0.51100000000E-03 0. -1.
        -11    1    3    3    0    0 -0.86761535806E+01 -0.68068604655E+01 -0.15059583077E+02  0.18665477039E+02  0.51100000000E-03 0.  1.
         12    1    3    3    0    0 -0.57454627101E+01  0.23446210276E+01 -0.17214295718E+00  0.62078355901E+01  0.00000000000E+00 0. -1.
</event>
<event>
 7    1  0.1542786E-009  0.4778727E+02  0.7816164E-02  0.1312668E+00
        -11   -1    0    0    0    0  0.00000000000E+00  0.00000000000E+00  0.45593999997E+02  0.45594000000E+02  0.51100000000E-03 0. -1.
         11   -1    0    0    0    0 -0.00000000000E+00 -0.00000000000E+00 -0.45593999997E+02  0.45594000000E+02  0.51100000000E-03 0.  1.
    9900012    2    1    2    0    0  0.43193001405E+02  0.41641698486E+01  0.80481199758E+00  0.47787269554E+02  0.19999993206E+02 0.  0.
        -12    1    1    2    0    0 -0.43193001405E+02 -0.41641698486E+01 -0.80481199758E+00  0.43400730446E+02  0.00000000000E+00 0.  1.
         11    1    3    3    0    0  0.37120732749E+02 -0.36727487830E+00  0.16260398584E+01  0.37158144417E+02  0.51100000000E-03 0. -1.
        -11    1    3    3    0    0  0.46103577446E+01 -0.38437853162E+00 -0.24668906133E+01  0.52429662356E+01  0.51100000000E-03 0.  1.
         12    1    3    3    0    0  0.14619109114E+01  0.49158232585E+01  0.16456627524E+01  0.53861589019E+01  0.00000000000E+00 0. -1.
</event>
<event>
 7    1  0.1542786E-009  0.4778727E+02  0.7816164E-02  0.1312668E+00
        -11   -1    0    0    0    0  0.00000000000E+00  0.00000000000E+00  0.45593999997E+02  0.45594000000E+02  0.51100000000E-03 0. -1.
         11   -1    0    0    0    0 -0.00000000000E+00 -0.00000000000E+00 -0.45593999997E+02  0.45594000000E+02  0.51100000000E-03 0.  1.
    9900012    2    1    2    0    0 -0.38155221918E+02  0.20496320753E+02 -0.27754860579E+01  0.47787269052E+02  0.19999990914E+02 0.  0.
        -12    1    1    2    0    0  0.38155221918E+02 -0.20496320753E+02  0.27754860579E+01  0.43400730948E+02  0.00000000000E+00 0.  1.
         11    1    3    3    0    0 -0.71228700388E+01 -0.29370893724E+01 -0.86104963338E+00  0.77526239625E+01  0.51100000000E-03 0.  1.
        -11    1    3    3    0    0 -0.17755635789E+02  0.10102669775E+02 -0.48402524421E+01  0.20994155921E+02  0.51100000000E-03 0. -1.
         12    1    3    3    0    0 -0.13276716090E+02  0.13330740350E+02  0.29258160176E+01  0.19040489169E+02  0.00000000000E+00 0. -1.
</event>
<event>
 7    1  0.1542786E-009  0.4778727E+02  0.7816164E-02  0.1312668E+00
        -11   -1    0    0    0    0  0.00000000000E+00  0.00000000000E+00  0.45593999997E+02  0.45594000000E+02  0.51100000000E-03 0. -1.
         11   -1    0    0    0    0 -0.00000000000E+00 -0.00000000000E+00 -0.45593999997E+02  0.45594000000E+02  0.51100000000E-03 0.  1.
    9900012    2    1    2    0    0 -0.11515602804E+02 -0.40008811749E+02  0.12260068406E+02  0.47787269558E+02  0.19999993225E+02 0.  0.
        -12    1    1    2    0    0  0.11515602804E+02  0.40008811749E+02 -0.12260068406E+02  0.43400730442E+02  0.00000000000E+00 0.  1.
         11    1    3    3    0    0 -0.30939639639E+01 -0.50376245051E+01 -0.19625966261E+01  0.62291299105E+01  0.51100000000E-03 0.  1.
        -11    1    3    3    0    0 -0.82488803680E+01 -0.20392224730E+02  0.15518846097E+02  0.26920650832E+02  0.51100000000E-03 0. -1.
         12    1    3    3    0    0 -0.17275847238E+00 -0.14578962514E+02 -0.12961810652E+01  0.14637488816E+02  0.00000000000E+00 0. -1.
</event>
<event>
 7    1  0.1542786E-009  0.4778726E+02  0.7816164E-02  0.1312668E+00
        -11   -1    0    0    0    0  0.00000000000E+00  0.00000000000E+00  0.45593999997E+02  0.45594000000E+02  0.51100000000E-03 0. -1.
         11   -1    0    0    0    0 -0.00000000000E+00 -0.00000000000E+00 -0.45593999997E+02  0.45594000000E+02  0.51100000000E-03 0.  1.
    9900012    2    1    2    0    0 -0.34993602101E+02  0.16968916646E+02  0.19264678129E+02  0.47787261025E+02  0.19999954318E+02 0.  0.
        -12    1    1    2    0    0  0.34993602101E+02 -0.16968916646E+02 -0.19264678129E+02  0.43400738975E+02  0.00000000000E+00 0.  1.
         11    1    3    3    0    0 -0.24000997919E+02  0.43560156355E+01  0.86241389741E+01  0.25872737517E+02  0.51100000000E-03 0. -1.
        -11    1    3    3    0    0 -0.38648609978E+01  0.51890213246E+01 -0.80764330888E+00  0.65203819532E+01  0.51100000000E-03 0.  1.
        -12    1    3    3    0    0 -0.71277431846E+01  0.74238796858E+01  0.11448182464E+02  0.15394141555E+02  0.00000000000E+00 0.  1.
</event>
<event>
 7    1  0.1542786E-009  0.4778727E+02  0.7816164E-02  0.1312668E+00
        -11   -1    0    0    0    0  0.00000000000E+00  0.00000000000E+00  0.45593999997E+02  0.45594000000E+02  0.51100000000E-03 0.  1.
         11   -1    0    0    0    0 -0.00000000000E+00 -0.00000000000E+00 -0.45593999997E+02  0.45594000000E+02  0.51100000000E-03 0. -1.
    9900012    2    1    2    0    0 -0.33830833245E+02  0.26789237324E+02 -0.46297547643E+01  0.47787272545E+02  0.20000006841E+02 0.  0.
        -12    1    1    2    0    0  0.33830833245E+02 -0.26789237324E+02  0.46297547643E+01  0.43400727455E+02  0.00000000000E+00 0.  1.
         11    1    3    3    0    0 -0.19796043066E+02  0.18792091235E+02  0.12163842288E+01  0.27322254755E+02  0.51100000000E-03 0.  1.
        -11    1    3    3    0    0 -0.68482465540E+00  0.49852649330E+01 -0.44339529242E+01  0.67068465061E+01  0.51100000000E-03 0. -1.
        -12    1    3    3    0    0 -0.13349965524E+02  0.30118811565E+01 -0.14121860690E+01  0.13758171284E+02  0.00000000000E+00 0.  1.
</event>
<event>
 7    1  0.1542786E-009  0.4778722E+02  0.7816164E-02  0.1312668E+00
        -11   -1    0    0    0    0  0.00000000000E+00  0.00000000000E+00  0.45593999997E+02  0.45594000000E+02  0.51100000000E-03 0. -1.
         11   -1    0    0    0    0 -0.00000000000E+00 -0.00000000000E+00 -0.45593999997E+02  0.45594000000E+02  0.51100000000E-03 0.  1.
    9900012    2    1    2    0    0 -0.23714234888E+00  0.22982491903E+02  0.36815438730E+02  0.47787220060E+02  0.19999767540E+02 0.  0.
        -12    1    1    2    0    0  0.23714234888E+00 -0.22982491903E+02 -0.36815438730E+02  0.43400779940E+02  0.00000000000E+00 0.  1.
         11    1    3    3    0    0  0.67717897124E+01  0.15844407139E+02  0.27215278899E+02  0.32211392073E+02  0.51100000000E-03 0. -1.
        -11    1    3    3    0    0 -0.40500293290E+01  0.97743977836E+00  0.72255697691E+01  0.83406825162E+01  0.51100000000E-03 0.  1.
         12    1    3    3    0    0 -0.29589027322E+01  0.61606449857E+01  0.23745900615E+01  0.72351454704E+01  0.00000000000E+00 0. -1.
</event>
<event>
 7    1  0.1813693E-009  0.4778727E+02  0.7816164E-02  0.1312668E+00
        -11   -1    0    0    0    0  0.00000000000E+00  0.00000000000E+00  0.45593999997E+02  0.45594000000E+02  0.51100000000E-03 0.  1.
         11   -1    0    0    0    0 -0.00000000000E+00 -0.00000000000E+00 -0.45593999997E+02  0.45594000000E+02  0.51100000000E-03 0. -1.
    9900012    2    1    2    0    0 -0.15314937791E+02  0.37352423115E+02  0.15933380510E+02  0.47787269054E+02  0.19999990927E+02 0.  0.
        -12    1    1    2    0    0  0.15314937791E+02 -0.37352423115E+02 -0.15933380510E+02  0.43400730946E+02  0.00000000000E+00 0.  1.
         11    1    3    3    0    0 -0.19409865040E+02  0.29173070978E+02  0.90597208086E+01  0.36192395231E+02  0.51100000000E-03 0. -1.
        -11    1    3    3    0    0  0.10321342994E+01  0.25950147921E+01  0.31799514152E+01  0.42321973309E+01  0.51100000000E-03 0.  1.
         12    1    3    3    0    0  0.30627929492E+01  0.55843373452E+01  0.36937082860E+01  0.73626764928E+01  0.00000000000E+00 0. -1.
</event>
<event>
 7    1  0.1542786E-009  0.4778727E+02  0.7816164E-02  0.1312668E+00
        -11   -1    0    0    0    0  0.00000000000E+00  0.00000000000E+00  0.45593999997E+02  0.45594000000E+02  0.51100000000E-03 0. -1.
         11   -1    0    0    0    0 -0.00000000000E+00 -0.00000000000E+00 -0.45593999997E+02  0.45594000000E+02  0.51100000000E-03 0.  1.
    9900012    2    1    2    0    0 -0.67616992306E+01 -0.26440831878E+02  0.33745892905E+02  0.47787268960E+02  0.19999990496E+02 0.  0.
        -12    1    1    2    0    0  0.67616992306E+01  0.26440831878E+02 -0.33745892905E+02  0.43400731040E+02  0.00000000000E+00 0.  1.
         11    1    3    3    0    0 -0.65287108352E+00  0.71796751612E-01 -0.20656767060E+01  0.21675829719E+01  0.51100000000E-03 0.  1.
        -11    1    3    3    0    0 -0.53509860682E+01 -0.73996742795E+01  0.11782409753E+02  0.14906824316E+02  0.51100000000E-03 0. -1.
        -12    1    3    3    0    0 -0.75784207886E+00 -0.19112954350E+02  0.24029159858E+02  0.30712861672E+02  0.00000000000E+00 0.  1.
</event>
<event>
 7    1  0.1542786E-009  0.4778727E+02  0.7816164E-02  0.1312668E+00
        -11   -1    0    0    0    0  0.00000000000E+00  0.00000000000E+00  0.45593999997E+02  0.45594000000E+02  0.51100000000E-03 0. -1.
         11   -1    0    0    0    0 -0.00000000000E+00 -0.00000000000E+00 -0.45593999997E+02  0.45594000000E+02  0.51100000000E-03 0.  1.
    9900012    2    1    2    0    0  0.49843770850E+01  0.38984919722E+02  0.18410733595E+02  0.47787273137E+02  0.20000009542E+02 0.  0.
        -12    1    1    2    0    0 -0.49843770850E+01 -0.38984919722E+02 -0.18410733595E+02  0.43400726863E+02  0.00000000000E+00 0.  1.
         11    1    3    3    0    0 -0.32775990171E+01  0.12202774209E+02  0.57016925299E+01  0.13862166197E+02  0.51100000000E-03 0. -1.
        -11    1    3    3    0    0  0.15879568832E+01  0.24208741882E+02  0.10531712897E+02  0.26448095723E+02  0.51100000000E-03 0.  1.
        -12    1    3    3    0    0  0.66740192190E+01  0.25734036315E+01  0.21773281684E+01  0.74770112170E+01  0.00000000000E+00 0.  1.
</event>
<event>
 7    1  0.1542786E-009  0.4778727E+02  0.7816164E-02  0.1312668E+00
        -11   -1    0    0    0    0  0.00000000000E+00  0.00000000000E+00  0.45593999997E+02  0.45594000000E+02  0.51100000000E-03 0.  1.
         11   -1    0    0    0    0 -0.00000000000E+00 -0.00000000000E+00 -0.45593999997E+02  0.45594000000E+02  0.51100000000E-03 0. -1.
    9900012    2    1    2    0    0 -0.16914610180E+02 -0.35816305395E+02 -0.17740108699E+02  0.47787271592E+02  0.20000002496E+02 0.  0.
        -12    1    1    2    0    0  0.16914610180E+02  0.35816305395E+02  0.17740108699E+02  0.43400728408E+02  0.00000000000E+00 0.  1.
         11    1    3    3    0    0  0.22435271485E+01 -0.16140872569E+01  0.20761028474E+01  0.34567173782E+01  0.51100000000E-03 0. -1.
        -11    1    3    3    0    0 -0.82451304687E+01 -0.92553644022E+01 -0.54016611919E+01  0.13521164541E+02  0.51100000000E-03 0.  1.
         12    1    3    3    0    0 -0.10913006860E+02 -0.24946853736E+02 -0.14414550354E+02  0.30809389672E+02  0.00000000000E+00 0. -1.
</event>
<event>
 7    1  0.1542786E-009  0.4778728E+02  0.7816164E-02  0.1312668E+00
        -11   -1    0    0    0    0  0.00000000000E+00  0.00000000000E+00  0.45593999997E+02  0.45594000000E+02  0.51100000000E-03 0. -1.
         11   -1    0    0    0    0 -0.00000000000E+00 -0.00000000000E+00 -0.45593999997E+02  0.45594000000E+02  0.51100000000E-03 0.  1.
    9900012    2    1    2    0    0 -0.41947093572E+02 -0.80959082451E+01  0.76498573578E+01  0.47787277575E+02  0.20000029775E+02 0.  0.
        -12    1    1    2    0    0  0.41947093572E+02  0.80959082451E+01 -0.76498573578E+01  0.43400722425E+02  0.00000000000E+00 0.  1.
         11    1    3    3    0    0 -0.38088271072E+02 -0.29359265976E+01  0.11179091276E+02  0.39803368453E+02  0.51100000000E-03 0. -1.
        -11    1    3    3    0    0 -0.25120971669E+00 -0.20828757952E+01 -0.42730378482E-01  0.20984051197E+01  0.51100000000E-03 0.  1.
         12    1    3    3    0    0 -0.36076127836E+01 -0.30771058522E+01 -0.34865035399E+01  0.58855040018E+01  0.00000000000E+00 0. -1.
</event>
<event>
 7    1  0.1542786E-009  0.4778727E+02  0.7816164E-02  0.1312668E+00
        -11   -1    0    0    0    0  0.00000000000E+00  0.00000000000E+00  0.45593999997E+02  0.45594000000E+02  0.51100000000E-03 0.  1.
         11   -1    0    0    0    0 -0.00000000000E+00 -0.00000000000E+00 -0.45593999997E+02  0.45594000000E+02  0.51100000000E-03 0. -1.
    9900012    2    1    2    0    0  0.31468952267E+02 -0.22134131727E+02 -0.20085036354E+02  0.47787269252E+02  0.19999991827E+02 0.  0.
        -12    1    1    2    0    0 -0.31468952267E+02  0.22134131727E+02  0.20085036354E+02  0.43400730748E+02  0.00000000000E+00 0.  1.
         11    1    3    3    0    0  0.39261547694E+01 -0.37952025929E+01  0.11689715609E+01  0.55843306462E+01  0.51100000000E-03 0. -1.
        -11    1    3    3    0    0  0.30234746734E+01 -0.93811452059E+01 -0.28396378469E+01  0.10257232952E+02  0.51100000000E-03 0.  1.
         12    1    3    3    0    0  0.24519322825E+02 -0.89577839286E+01 -0.18414370068E+02  0.31945705653E+02  0.00000000000E+00 0. -1.
</event>
<event>
 7    1  0.1542786E-009  0.4778727E+02  0.7816164E-02  0.1312668E+00
        -11   -1    0    0    0    0  0.00000000000E+00  0.00000000000E+00  0.45593999997E+02  0.45594000000E+02  0.51100000000E-03 0. -1.
         11   -1    0    0    0    0 -0.00000000000E+00 -0.00000000000E+00 -0.45593999997E+02  0.45594000000E+02  0.51100000000E-03 0.  1.
    9900012    2    1    2    0    0 -0.14679867294E+02  0.33871412253E+02 -0.22822188380E+02  0.47787270119E+02  0.19999995779E+02 0.  0.
        -12    1    1    2    0    0  0.14679867294E+02 -0.33871412253E+02  0.22822188380E+02  0.43400729881E+02  0.00000000000E+00 0.  1.
         11    1    3    3    0    0 -0.68072458620E+01  0.20557914627E+02 -0.12722632404E+02  0.25116365692E+02  0.51100000000E-03 0. -1.
        -11    1    3    3    0    0 -0.43615023448E+01  0.46730141886E+01  0.26116433321E+01  0.69051028570E+01  0.51100000000E-03 0.  1.
         12    1    3    3    0    0 -0.35111190869E+01  0.86404834369E+01 -0.12711199308E+02  0.15765801569E+02  0.00000000000E+00 0. -1.
</event>
<event>
 7    1  0.1542786E-009  0.4778724E+02  0.7816164E-02  0.1312668E+00
        -11   -1    0    0    0    0  0.00000000000E+00  0.00000000000E+00  0.45593999997E+02  0.45594000000E+02  0.51100000000E-03 0.  1.
         11   -1    0    0    0    0 -0.00000000000E+00 -0.00000000000E+00 -0.45593999997E+02  0.45594000000E+02  0.51100000000E-03 0. -1.
    9900012    2    1    2    0    0  0.20645536956E+02 -0.34270363190E+02 -0.16820514213E+02  0.47787243235E+02  0.19999873206E+02 0.  0.
        -12    1    1    2    0    0 -0.20645536956E+02  0.34270363190E+02  0.16820514213E+02  0.43400756765E+02  0.00000000000E+00 0.  1.
         11    1    3    3    0    0  0.12746553305E+02 -0.17353794504E+02 -0.45926534665E+01  0.22016386420E+02  0.51100000000E-03 0. -1.
        -11    1    3    3    0    0  0.55196722374E+01 -0.91783296781E+00 -0.65823304839E+01  0.86392287750E+01  0.51100000000E-03 0.  1.
         12    1    3    3    0    0  0.23793114132E+01 -0.15998735718E+02 -0.56455302625E+01  0.17131628041E+02  0.00000000000E+00 0. -1.
</event>
<event>
 7    1  0.1542786E-009  0.4778727E+02  0.7816164E-02  0.1312668E+00
        -11   -1    0    0    0    0  0.00000000000E+00  0.00000000000E+00  0.45593999997E+02  0.45594000000E+02  0.51100000000E-03 0.  1.
         11   -1    0    0    0    0 -0.00000000000E+00 -0.00000000000E+00 -0.45593999997E+02  0.45594000000E+02  0.51100000000E-03 0. -1.
    9900012    2    1    2    0    0  0.13472646929E+02 -0.26349142913E+02 -0.31746398281E+02  0.47787270152E+02  0.19999995933E+02 0.  0.
        -12    1    1    2    0    0 -0.13472646929E+02  0.26349142913E+02  0.31746398281E+02  0.43400729848E+02  0.00000000000E+00 0.  1.
         11    1    3    3    0    0  0.11601086844E+02 -0.13401827299E+02 -0.19193442240E+02  0.26126278269E+02  0.51100000000E-03 0. -1.
        -11    1    3    3    0    0  0.34473223414E+01 -0.35109363624E+01  0.10494294047E+01  0.50311040341E+01  0.51100000000E-03 0.  1.
         12    1    3    3    0    0 -0.15757622566E+01 -0.94363792516E+01 -0.13602385446E+02  0.16629887849E+02  0.00000000000E+00 0. -1.
</event>
<event>
 7    1  0.1542786E-009  0.4778727E+02  0.7816164E-02  0.1312668E+00
        -11   -1    0    0    0    0  0.00000000000E+00  0.00000000000E+00  0.45593999997E+02  0.45594000000E+02  0.51100000000E-03 0. -1.
         11   -1    0    0    0    0 -0.00000000000E+00 -0.00000000000E+00 -0.45593999997E+02  0.45594000000E+02  0.51100000000E-03 0.  1.
    9900012    2    1    2    0    0 -0.28132608635E+02  0.32808800741E+02 -0.39701583098E+01  0.47787271531E+02  0.20000002216E+02 0.  0.
        -12    1    1    2    0    0  0.28132608635E+02 -0.32808800741E+02  0.39701583098E+01  0.43400728469E+02  0.00000000000E+00 0.  1.
         11    1    3    3    0    0 -0.11726197368E+02  0.78411485524E+01 -0.27347237956E+01  0.14368925841E+02  0.51100000000E-03 0.  1.
        -11    1    3    3    0    0 -0.50351466082E+01  0.20380665133E+02 -0.22563911409E+01  0.21114343794E+02  0.51100000000E-03 0. -1.
         12    1    3    3    0    0 -0.11371264659E+02  0.45869870555E+01  0.10209566266E+01  0.12304001895E+02  0.00000000000E+00 0. -1.
</event>
<event>
 7    1  0.1542786E-009  0.4778728E+02  0.7816164E-02  0.1312668E+00
        -11   -1    0    0    0    0  0.00000000000E+00  0.00000000000E+00  0.45593999997E+02  0.45594000000E+02  0.51100000000E-03 0.  1.
         11   -1    0    0    0    0 -0.00000000000E+00 -0.00000000000E+00 -0.45593999997E+02  0.45594000000E+02  0.51100000000E-03 0. -1.
    9900012    2    1    2    0    0 -0.39042248913E+01  0.36774700229E+02 -0.22715663420E+02  0.47787275196E+02  0.20000018930E+02 0.  0.
        -12    1    1    2    0    0  0.39042248913E+01 -0.36774700229E+02  0.22715663420E+02  0.43400724804E+02  0.00000000000E+00 0.  1.
         11    1    3    3    0    0 -0.26224462543E+01  0.35193099238E+01 -0.43771769501E+00  0.44107101172E+01  0.51100000000E-03 0.  1.
        -11    1    3    3    0    0  0.53490790291E+01  0.27737233586E+02 -0.19455777710E+02  0.34300059184E+02  0.51100000000E-03 0. -1.
         12    1    3    3    0    0 -0.66308576662E+01  0.55181567190E+01 -0.28221680149E+01  0.90765058954E+01  0.00000000000E+00 0. -1.
</event>
<event>
 7    1  0.1542786E-009  0.4778727E+02  0.7816164E-02  0.1312668E+00
        -11   -1    0    0    0    0  0.00000000000E+00  0.00000000000E+00  0.45593999997E+02  0.45594000000E+02  0.51100000000E-03 0. -1.
         11   -1    0    0    0    0 -0.00000000000E+00 -0.00000000000E+00 -0.45593999997E+02  0.45594000000E+02  0.51100000000E-03 0.  1.
    9900012    2    1    2    0    0  0.27200207853E+02 -0.25635400832E+02  0.22058968558E+02  0.47787272162E+02  0.20000005095E+02 0.  0.
        -12    1    1    2    0    0 -0.27200207853E+02  0.25635400832E+02 -0.22058968558E+02  0.43400727838E+02  0.00000000000E+00 0.  1.
         11    1    3    3    0    0  0.15978710625E+02 -0.35806061339E+01  0.11062703878E+02  0.19761663667E+02  0.51100000000E-03 0. -1.
        -11    1    3    3    0    0  0.24845923607E+01 -0.81674743259E+01  0.72409235697E+01  0.11194275790E+02  0.51100000000E-03 0.  1.
        -12    1    3    3    0    0  0.87369048668E+01 -0.13887320372E+02  0.37553411103E+01  0.16831332705E+02  0.00000000000E+00 0.  1.
</event>
<event>
 7    1  0.2184521E-009  0.4778726E+02  0.7816164E-02  0.1312668E+00
        -11   -1    0    0    0    0  0.00000000000E+00  0.00000000000E+00  0.45593999997E+02  0.45594000000E+02  0.51100000000E-03 0. -1.
         11   -1    0    0    0    0 -0.00000000000E+00 -0.00000000000E+00 -0.45593999997E+02  0.45594000000E+02  0.51100000000E-03 0.  1.
    9900012    2    1    2    0    0  0.15580166800E+02  0.33911884869E+02  0.22155503548E+02  0.47787264173E+02  0.19999968669E+02 0.  0.
        -12    1    1    2    0    0 -0.15580166800E+02 -0.33911884869E+02 -0.22155503548E+02  0.43400735827E+02  0.00000000000E+00 0.  1.
         11    1    3    3    0    0  0.76244244272E+01  0.19562320745E+02  0.16427291070E+02  0.26658434556E+02  0.51100000000E-03 0. -1.
        -11    1    3    3    0    0  0.91340971251E+01  0.44836075449E+01  0.44687660767E+01  0.11113250533E+02  0.51100000000E-03 0.  1.
        -12    1    3    3    0    0 -0.11783547527E+01  0.98659565792E+01  0.12594464004E+01  0.10015579084E+02  0.00000000000E+00 0.  1.
</event>
<event>
 7    1  0.1776608E-009  0.4778727E+02  0.7816164E-02  0.1312668E+00
        -11   -1    0    0    0    0  0.00000000000E+00  0.00000000000E+00  0.45593999997E+02  0.45594000000E+02  0.51100000000E-03 0. -1.
         11   -1    0    0    0    0 -0.00000000000E+00 -0.00000000000E+00 -0.45593999997E+02  0.45594000000E+02  0.51100000000E-03 0.  1.
    9900012    2    1    2    0    0 -0.50450402089E+00  0.31869957633E+02  0.29456319169E+02  0.47787268868E+02  0.19999990076E+02 0.  0.
        -12    1    1    2    0    0  0.50450402089E+00 -0.31869957633E+02 -0.29456319169E+02  0.43400731132E+02  0.00000000000E+00 0.  1.
         11    1    3    3    0    0  0.52786712506E+01  0.18451847106E+02  0.19907335805E+02  0.27652071367E+02  0.51100000000E-03 0. -1.
        -11    1    3    3    0    0 -0.15573246930E+01  0.94806883748E+01  0.78590182432E+00  0.96398316478E+01  0.51100000000E-03 0.  1.
        -12    1    3    3    0    0 -0.42258505785E+01  0.39374221525E+01  0.87630815397E+01  0.10495365853E+02  0.00000000000E+00 0.  1.
</event>
<event>
 7    1  0.1542786E-009  0.4778727E+02  0.7816164E-02  0.1312668E+00
        -11   -1    0    0    0    0  0.00000000000E+00  0.00000000000E+00  0.45593999997E+02  0.45594000000E+02  0.51100000000E-03 0.  1.
         11   -1    0    0    0    0 -0.00000000000E+00 -0.00000000000E+00 -0.45593999997E+02  0.45594000000E+02  0.51100000000E-03 0. -1.
    9900012    2    1    2    0    0  0.57866586582E+01 -0.23506186141E+02 -0.36022176056E+02  0.47787269901E+02  0.19999994785E+02 0.  0.
        -12    1    1    2    0    0 -0.57866586582E+01  0.23506186141E+02  0.36022176056E+02  0.43400730099E+02  0.00000000000E+00 0.  1.
         11    1    3    3    0    0 -0.28626413260E+01 -0.75377848927E+00 -0.76276134061E+01  0.81818936626E+01  0.51100000000E-03 0.  1.
        -11    1    3    3    0    0  0.78780269632E+01 -0.18300453348E+02 -0.13566866480E+02  0.24104559069E+02  0.51100000000E-03 0. -1.
         12    1    3    3    0    0  0.77127302102E+00 -0.44519543042E+01 -0.14827696170E+02  0.15500817169E+02  0.00000000000E+00 0. -1.
</event>
<event>
 7    1  0.1542786E-009  0.4778727E+02  0.7816164E-02  0.1312668E+00
        -11   -1    0    0    0    0  0.00000000000E+00  0.00000000000E+00  0.45593999997E+02  0.45594000000E+02  0.51100000000E-03 0. -1.
         11   -1    0    0    0    0 -0.00000000000E+00 -0.00000000000E+00 -0.45593999997E+02  0.45594000000E+02  0.51100000000E-03 0.  1.
    9900012    2    1    2    0    0 -0.17062241246E+02  0.31451595937E+00  0.39904946949E+02  0.47787265125E+02  0.19999973012E+02 0.  0.
        -12    1    1    2    0    0  0.17062241246E+02 -0.31451595937E+00 -0.39904946949E+02  0.43400734875E+02  0.00000000000E+00 0.  1.
         11    1    3    3    0    0 -0.56594602321E+01  0.27690707595E+01  0.16113895177E+02  0.17301874495E+02  0.51100000000E-03 0. -1.
        -11    1    3    3    0    0 -0.16379077198E+01  0.45974079201E+01  0.14422498792E+02  0.15225878397E+02  0.51100000000E-03 0.  1.
        -12    1    3    3    0    0 -0.97648732945E+01 -0.70519627202E+01  0.93685529800E+01  0.15259512234E+02  0.00000000000E+00 0.  1.
</event>
<event>
 7    1  0.1542786E-009  0.4778729E+02  0.7816164E-02  0.1312668E+00
        -11   -1    0    0    0    0  0.00000000000E+00  0.00000000000E+00  0.45593999997E+02  0.45594000000E+02  0.51100000000E-03 0.  1.
         11   -1    0    0    0    0 -0.00000000000E+00 -0.00000000000E+00 -0.45593999997E+02  0.45594000000E+02  0.51100000000E-03 0. -1.
    9900012    2    1    2    0    0 -0.31291662993E+02 -0.28877756110E+02 -0.83981581977E+01  0.47787285353E+02  0.20000065238E+02 0.  0.
        -12    1    1    2    0    0  0.31291662993E+02  0.28877756110E+02  0.83981581977E+01  0.43400714647E+02  0.00000000000E+00 0.  1.
         11    1    3    3    0    0 -0.11980512405E+02 -0.12688273309E+02  0.26018701990E+01  0.17643545161E+02  0.51100000000E-03 0. -1.
        -11    1    3    3    0    0 -0.91211389268E+01 -0.39087372925E+01  0.12831291861E+01  0.10005989372E+02  0.51100000000E-03 0.  1.
         12    1    3    3    0    0 -0.10190011661E+02 -0.12280745508E+02 -0.12283157583E+02  0.20137750820E+02  0.00000000000E+00 0. -1.
</event>
<event>
 7    1  0.1542786E-009  0.4778727E+02  0.7816164E-02  0.1312668E+00
        -11   -1    0    0    0    0  0.00000000000E+00  0.00000000000E+00  0.45593999997E+02  0.45594000000E+02  0.51100000000E-03 0. -1.
         11   -1    0    0    0    0 -0.00000000000E+00 -0.00000000000E+00 -0.45593999997E+02  0.45594000000E+02  0.51100000000E-03 0.  1.
    9900012    2    1    2    0    0 -0.13489509037E+02 -0.41124385484E+02  0.32313042374E+01  0.47787271175E+02  0.20000000594E+02 0.  0.
        -12    1    1    2    0    0  0.13489509037E+02  0.41124385484E+02 -0.32313042374E+01  0.43400728825E+02  0.00000000000E+00 0.  1.
         11    1    3    3    0    0 -0.51636018698E+01 -0.10405436535E+02 -0.31478886711E+01  0.12035160867E+02  0.51100000000E-03 0.  1.
        -11    1    3    3    0    0 -0.65010173628E+01 -0.30979961086E+02  0.86614656197E+01  0.32818321142E+02  0.51100000000E-03 0. -1.
         12    1    3    3    0    0 -0.18248898048E+01  0.26101213785E+00 -0.22822727112E+01  0.29337891649E+01  0.00000000000E+00 0. -1.
</event>
<event>
 7    1  0.1542786E-009  0.4778728E+02  0.7816164E-02  0.1312668E+00
        -11   -1    0    0    0    0  0.00000000000E+00  0.00000000000E+00  0.45593999997E+02  0.45594000000E+02  0.51100000000E-03 0. -1.
         11   -1    0    0    0    0 -0.00000000000E+00 -0.00000000000E+00 -0.45593999997E+02  0.45594000000E+02  0.51100000000E-03 0.  1.
    9900012    2    1    2    0    0  0.42991523237E+02 -0.59448769375E+01  0.10084712919E+00  0.47787276478E+02  0.20000024776E+02 0.  0.
        -12    1    1    2    0    0 -0.42991523237E+02  0.59448769375E+01 -0.10084712919E+00  0.43400723522E+02  0.00000000000E+00 0.  1.
         11    1    3    3    0    0  0.23977304706E+01  0.48075319562E+00  0.22228553788E+01  0.33047422503E+01  0.51100000000E-03 0. -1.
        -11    1    3    3    0    0  0.24985225491E+02 -0.11739821640E+02  0.13249703238E+01  0.27637663642E+02  0.51100000000E-03 0.  1.
        -12    1    3    3    0    0  0.15608567276E+02  0.53141915072E+01 -0.34469785734E+01  0.16844870586E+02  0.00000000000E+00 0.  1.
</event>
<event>
 7    1  0.1542786E-009  0.4778727E+02  0.7816164E-02  0.1312668E+00
        -11   -1    0    0    0    0  0.00000000000E+00  0.00000000000E+00  0.45593999997E+02  0.45594000000E+02  0.51100000000E-03 0. -1.
         11   -1    0    0    0    0 -0.00000000000E+00 -0.00000000000E+00 -0.45593999997E+02  0.45594000000E+02  0.51100000000E-03 0.  1.
    9900012    2    1    2    0    0 -0.10450102683E+02 -0.11840472893E+02  0.40425508436E+02  0.47787272164E+02  0.20000005105E+02 0.  0.
        -12    1    1    2    0    0  0.10450102683E+02  0.11840472893E+02 -0.40425508436E+02  0.43400727836E+02  0.00000000000E+00 0.  1.
         11    1    3    3    0    0 -0.41886038563E+01 -0.66250599215E+01  0.11599134710E+02  0.13999133813E+02  0.51100000000E-03 0.  1.
        -11    1    3    3    0    0 -0.76898307558E+01  0.26257767170E+01  0.21413903384E+02  0.22903786998E+02  0.51100000000E-03 0. -1.
         12    1    3    3    0    0  0.14283319296E+01 -0.78411896882E+01  0.74124703412E+01  0.10884351353E+02  0.00000000000E+00 0. -1.
</event>
<event>
 7    1  0.1542786E-009  0.4778727E+02  0.7816164E-02  0.1312668E+00
        -11   -1    0    0    0    0  0.00000000000E+00  0.00000000000E+00  0.45593999997E+02  0.45594000000E+02  0.51100000000E-03 0. -1.
         11   -1    0    0    0    0 -0.00000000000E+00 -0.00000000000E+00 -0.45593999997E+02  0.45594000000E+02  0.51100000000E-03 0.  1.
    9900012    2    1    2    0    0  0.20660637450E+02  0.37566418178E+02 -0.67472734064E+01  0.47787269442E+02  0.19999992692E+02 0.  0.
        -12    1    1    2    0    0 -0.20660637450E+02 -0.37566418178E+02  0.67472734064E+01  0.43400730558E+02  0.00000000000E+00 0.  1.
         11    1    3    3    0    0 -0.30649206189E+00 -0.16149691530E+00 -0.24809611881E+01  0.25050323981E+01  0.51100000000E-03 0. -1.
        -11    1    3    3    0    0  0.97592687266E+01  0.11210881100E+02 -0.68737028939E+01  0.16376048756E+02  0.51100000000E-03 0.  1.
         12    1    3    3    0    0  0.11207860785E+02  0.26517033993E+02  0.26073906755E+01  0.28906188288E+02  0.00000000000E+00 0. -1.
</event>
<event>
 7    1  0.1542786E-009  0.4778726E+02  0.7816164E-02  0.1312668E+00
        -11   -1    0    0    0    0  0.00000000000E+00  0.00000000000E+00  0.45593999997E+02  0.45594000000E+02  0.51100000000E-03 0.  1.
         11   -1    0    0    0    0 -0.00000000000E+00 -0.00000000000E+00 -0.45593999997E+02  0.45594000000E+02  0.51100000000E-03 0. -1.
    9900012    2    1    2    0    0 -0.26706713418E+02  0.32331767317E+02  0.11181788260E+02  0.47787261433E+02  0.19999956179E+02 0.  0.
        -12    1    1    2    0    0  0.26706713418E+02 -0.32331767317E+02 -0.11181788260E+02  0.43400738567E+02  0.00000000000E+00 0.  1.
         11    1    3    3    0    0 -0.63321771810E+01  0.78526177512E+01 -0.52262811504E+01  0.11361077780E+02  0.51100000000E-03 0. -1.
        -11    1    3    3    0    0 -0.37308478118E+01  0.49930542704E+01  0.63459471362E+01  0.88949908184E+01  0.51100000000E-03 0.  1.
         12    1    3    3    0    0 -0.16643688425E+02  0.19486095295E+02  0.10062122275E+02  0.27531192835E+02  0.00000000000E+00 0. -1.
</event>
<event>
 7    1  0.1542786E-009  0.4778727E+02  0.7816164E-02  0.1312668E+00
        -11   -1    0    0    0    0  0.00000000000E+00  0.00000000000E+00  0.45593999997E+02  0.45594000000E+02  0.51100000000E-03 0.  1.
         11   -1    0    0    0    0 -0.00000000000E+00 -0.00000000000E+00 -0.45593999997E+02  0.45594000000E+02  0.51100000000E-03 0. -1.
    9900012    2    1    2    0    0 -0.38303598312E+01  0.39692832190E+02 -0.17129820228E+02  0.47787270458E+02  0.19999997328E+02 0.  0.
        -12    1    1    2    0    0  0.38303598312E+01 -0.39692832190E+02  0.17129820228E+02  0.43400729542E+02  0.00000000000E+00 0.  1.
         11    1    3    3    0    0  0.79775153245E-01 -0.32427225078E+00  0.10758172406E+01  0.11264544217E+01  0.51100000000E-03 0. -1.
        -11    1    3    3    0    0 -0.70020615438E+01  0.89957326094E+01 -0.77275809365E+01  0.13771985276E+02  0.51100000000E-03 0.  1.
         12    1    3    3    0    0  0.30919265593E+01  0.31021371831E+02 -0.10478056532E+02  0.32888830761E+02  0.00000000000E+00 0. -1.
</event>
<event>
 7    1  0.1542786E-009  0.4778727E+02  0.7816164E-02  0.1312668E+00
        -11   -1    0    0    0    0  0.00000000000E+00  0.00000000000E+00  0.45593999997E+02  0.45594000000E+02  0.51100000000E-03 0.  1.
         11   -1    0    0    0    0 -0.00000000000E+00 -0.00000000000E+00 -0.45593999997E+02  0.45594000000E+02  0.51100000000E-03 0. -1.
    9900012    2    1    2    0    0  0.41198850496E+02 -0.43624508398E+01 -0.12932394295E+02  0.47787273258E+02  0.20000010094E+02 0.  0.
        -12    1    1    2    0    0 -0.41198850496E+02  0.43624508398E+01  0.12932394295E+02  0.43400726742E+02  0.00000000000E+00 0.  1.
         11    1    3    3    0    0  0.93935823006E+01 -0.31388708173E+01 -0.45246795028E+01  0.10888738371E+02  0.51100000000E-03 0. -1.
        -11    1    3    3    0    0  0.16599672364E+02  0.53711273353E+01  0.16281362746E+01  0.17522812543E+02  0.51100000000E-03 0.  1.
         12    1    3    3    0    0  0.15205595831E+02 -0.65947073578E+01 -0.10035851067E+02  0.19375722344E+02  0.00000000000E+00 0. -1.
</event>
<event>
 7    1  0.1542786E-009  0.4778727E+02  0.7816164E-02  0.1312668E+00
        -11   -1    0    0    0    0  0.00000000000E+00  0.00000000000E+00  0.45593999997E+02  0.45594000000E+02  0.51100000000E-03 0. -1.
         11   -1    0    0    0    0 -0.00000000000E+00 -0.00000000000E+00 -0.45593999997E+02  0.45594000000E+02  0.51100000000E-03 0.  1.
    9900012    2    1    2    0    0  0.40433988446E+02  0.15260209882E+02  0.39801684999E+01  0.47787272257E+02  0.20000005530E+02 0.  0.
        -12    1    1    2    0    0 -0.40433988446E+02 -0.15260209882E+02 -0.39801684999E+01  0.43400727743E+02  0.00000000000E+00 0.  1.
         11    1    3    3    0    0  0.22317137293E+02  0.76009543750E+01 -0.27612017636E+01  0.23737172532E+02  0.51100000000E-03 0. -1.
        -11    1    3    3    0    0  0.63920491326E+01 -0.31445021069E+01  0.16342721336E+01  0.73086955937E+01  0.51100000000E-03 0.  1.
         12    1    3    3    0    0  0.11724802021E+02  0.10803757613E+02  0.51070981299E+01  0.16741404132E+02  0.00000000000E+00 0. -1.
</event>
<event>
 7    1  0.1542786E-009  0.4778727E+02  0.7816164E-02  0.1312668E+00
        -11   -1    0    0    0    0  0.00000000000E+00  0.00000000000E+00  0.45593999997E+02  0.45594000000E+02  0.51100000000E-03 0.  1.
         11   -1    0    0    0    0 -0.00000000000E+00 -0.00000000000E+00 -0.45593999997E+02  0.45594000000E+02  0.51100000000E-03 0. -1.
    9900012    2    1    2    0    0 -0.32612599634E+01 -0.41459245646E+02  0.12414440116E+02  0.47787272017E+02  0.20000004432E+02 0.  0.
        -12    1    1    2    0    0  0.32612599634E+01  0.41459245646E+02 -0.12414440116E+02  0.43400727983E+02  0.00000000000E+00 0.  1.
         11    1    3    3    0    0 -0.43046720863E+01 -0.89171935259E+01  0.82962189012E+01  0.12917963867E+02  0.51100000000E-03 0. -1.
        -11    1    3    3    0    0 -0.49547782942E+01 -0.17578039898E+02  0.13671487583E+00  0.18263515703E+02  0.51100000000E-03 0.  1.
         12    1    3    3    0    0  0.59981904171E+01 -0.14964012222E+02  0.39815063391E+01  0.16605792447E+02  0.00000000000E+00 0. -1.
</event>
<event>
 7    1  0.1542786E-009  0.4778727E+02  0.7816164E-02  0.1312668E+00
        -11   -1    0    0    0    0  0.00000000000E+00  0.00000000000E+00  0.45593999997E+02  0.45594000000E+02  0.51100000000E-03 0.  1.
         11   -1    0    0    0    0 -0.00000000000E+00 -0.00000000000E+00 -0.45593999997E+02  0.45594000000E+02  0.51100000000E-03 0. -1.
    9900012    2    1    2    0    0 -0.96809263932E+01  0.63250592233E+01 -0.41831764813E+02  0.47787271235E+02  0.20000000867E+02 0.  0.
        -12    1    1    2    0    0  0.96809263932E+01 -0.63250592233E+01  0.41831764813E+02  0.43400728765E+02  0.00000000000E+00 0.  1.
         11    1    3    3    0    0  0.23838639729E+01  0.66693990712E+01 -0.91639993385E+01  0.11581993591E+02  0.51100000000E-03 0. -1.
        -11    1    3    3    0    0 -0.34982057585E+01  0.24499896612E+01 -0.30525336840E+01  0.52495576025E+01  0.51100000000E-03 0.  1.
         12    1    3    3    0    0 -0.85665846077E+01 -0.27943295091E+01 -0.29615231790E+02  0.30955720041E+02  0.00000000000E+00 0. -1.
</event>
<event>
 7    1  0.1542786E-009  0.4778727E+02  0.7816164E-02  0.1312668E+00
        -11   -1    0    0    0    0  0.00000000000E+00  0.00000000000E+00  0.45593999997E+02  0.45594000000E+02  0.51100000000E-03 0.  1.
         11   -1    0    0    0    0 -0.00000000000E+00 -0.00000000000E+00 -0.45593999997E+02  0.45594000000E+02  0.51100000000E-03 0. -1.
    9900012    2    1    2    0    0  0.29370280667E+01  0.27405430348E+02 -0.33525208226E+02  0.47787270363E+02  0.19999996891E+02 0.  0.
        -12    1    1    2    0    0 -0.29370280667E+01 -0.27405430348E+02  0.33525208226E+02  0.43400729637E+02  0.00000000000E+00 0.  1.
         11    1    3    3    0    0  0.23031309827E+00  0.21718695139E+01 -0.84139549625E+01  0.86927958495E+01  0.51100000000E-03 0. -1.
        -11    1    3    3    0    0 -0.33550304871E+01 -0.41391907950E+00 -0.14546019792E+01  0.36801393659E+01  0.51100000000E-03 0.  1.
         12    1    3    3    0    0  0.60617454555E+01  0.25647479914E+02 -0.23656651285E+02  0.35414335147E+02  0.00000000000E+00 0. -1.
</event>
<event>
 7    1  0.1542786E-009  0.4778727E+02  0.7816164E-02  0.1312668E+00
        -11   -1    0    0    0    0  0.00000000000E+00  0.00000000000E+00  0.45593999997E+02  0.45594000000E+02  0.51100000000E-03 0.  1.
         11   -1    0    0    0    0 -0.00000000000E+00 -0.00000000000E+00 -0.45593999997E+02  0.45594000000E+02  0.51100000000E-03 0. -1.
    9900012    2    1    2    0    0 -0.28822063460E+02 -0.30427732553E+02 -0.11272311784E+02  0.47787271166E+02  0.20000000553E+02 0.  0.
        -12    1    1    2    0    0  0.28822063460E+02  0.30427732553E+02  0.11272311784E+02  0.43400728834E+02  0.00000000000E+00 0.  1.
         11    1    3    3    0    0 -0.77390972678E+01 -0.75836735531E+01 -0.18191415292E+01  0.10987038147E+02  0.51100000000E-03 0. -1.
        -11    1    3    3    0    0 -0.99780159916E+01 -0.21568389922E+02 -0.31636083656E+01  0.23974250043E+02  0.51100000000E-03 0.  1.
         12    1    3    3    0    0 -0.11104950200E+02 -0.12756690779E+01 -0.62895618891E+01  0.12825982976E+02  0.00000000000E+00 0. -1.
</event>
<event>
 7    1  0.1542786E-009  0.4778727E+02  0.7816164E-02  0.1312668E+00
        -11   -1    0    0    0    0  0.00000000000E+00  0.00000000000E+00  0.45593999997E+02  0.45594000000E+02  0.51100000000E-03 0.  1.
         11   -1    0    0    0    0 -0.00000000000E+00 -0.00000000000E+00 -0.45593999997E+02  0.45594000000E+02  0.51100000000E-03 0. -1.
    9900012    2    1    2    0    0 -0.19796350017E+02 -0.29004906901E+02 -0.25503790908E+02  0.47787269027E+02  0.19999990801E+02 0.  0.
        -12    1    1    2    0    0  0.19796350017E+02  0.29004906901E+02  0.25503790908E+02  0.43400730973E+02  0.00000000000E+00 0.  1.
         11    1    3    3    0    0 -0.23532607976E+01 -0.12241032651E+02 -0.51731329624E+01  0.13496000209E+02  0.51100000000E-03 0. -1.
        -11    1    3    3    0    0 -0.21413565180E+01 -0.94974161155E+01 -0.33237889911E+01  0.10287560164E+02  0.51100000000E-03 0.  1.
        -12    1    3    3    0    0 -0.15301732701E+02 -0.72664581344E+01 -0.17006868955E+02  0.24003708654E+02  0.00000000000E+00 0.  1.
</event>
<event>
 7    1  0.1542786E-009  0.4778727E+02  0.7816164E-02  0.1312668E+00
        -11   -1    0    0    0    0  0.00000000000E+00  0.00000000000E+00  0.45593999997E+02  0.45594000000E+02  0.51100000000E-03 0. -1.
         11   -1    0    0    0    0 -0.00000000000E+00 -0.00000000000E+00 -0.45593999997E+02  0.45594000000E+02  0.51100000000E-03 0.  1.
    9900012    2    1    2    0    0  0.21716951056E+02 -0.21980693699E+02  0.30476980172E+02  0.47787272137E+02  0.20000004982E+02 0.  0.
        -12    1    1    2    0    0 -0.21716951056E+02  0.21980693699E+02 -0.30476980172E+02  0.43400727863E+02  0.00000000000E+00 0.  1.
         11    1    3    3    0    0 -0.23002554674E+01 -0.28048897114E+01  0.82070508341E+01  0.89729741537E+01  0.51100000000E-03 0.  1.
        -11    1    3    3    0    0  0.14210107272E+02 -0.99599029447E+01  0.17200818213E+02  0.24433480366E+02  0.51100000000E-03 0. -1.
        -12    1    3    3    0    0  0.98070992506E+01 -0.92159010425E+01  0.50691111255E+01  0.14380817617E+02  0.00000000000E+00 0.  1.
</event>
<event>
 7    1  0.1542786E-009  0.4778726E+02  0.7816164E-02  0.1312668E+00
        -11   -1    0    0    0    0  0.00000000000E+00  0.00000000000E+00  0.45593999997E+02  0.45594000000E+02  0.51100000000E-03 0.  1.
         11   -1    0    0    0    0 -0.00000000000E+00 -0.00000000000E+00 -0.45593999997E+02  0.45594000000E+02  0.51100000000E-03 0. -1.
    9900012    2    1    2    0    0  0.80025270761E+01 -0.29238287158E+02 -0.31059717745E+02  0.47787263348E+02  0.19999964910E+02 0.  0.
        -12    1    1    2    0    0 -0.80025270761E+01  0.29238287158E+02  0.31059717745E+02  0.43400736652E+02  0.00000000000E+00 0.  1.
         11    1    3    3    0    0 -0.25158054514E+01 -0.37381834577E+01 -0.88379811774E+01  0.99203429469E+01  0.51100000000E-03 0. -1.
        -11    1    3    3    0    0  0.41732744204E-01 -0.14242626113E+01  0.17890337300E+01  0.22871177399E+01  0.51100000000E-03 0.  1.
         12    1    3    3    0    0  0.10476599783E+02 -0.24075841089E+02 -0.24010770297E+02  0.35579802661E+02  0.00000000000E+00 0. -1.
</event>
<event>
 7    1  0.1542786E-009  0.4778727E+02  0.7816164E-02  0.1312668E+00
        -11   -1    0    0    0    0  0.00000000000E+00  0.00000000000E+00  0.45593999997E+02  0.45594000000E+02  0.51100000000E-03 0.  1.
         11   -1    0    0    0    0 -0.00000000000E+00 -0.00000000000E+00 -0.45593999997E+02  0.45594000000E+02  0.51100000000E-03 0. -1.
    9900012    2    1    2    0    0  0.15235515192E+01 -0.37080033576E+02 -0.22502733436E+02  0.47787272917E+02  0.20000008537E+02 0.  0.
        -12    1    1    2    0    0 -0.15235515192E+01  0.37080033576E+02  0.22502733436E+02  0.43400727083E+02  0.00000000000E+00 0.  1.
         11    1    3    3    0    0  0.46952404315E+01 -0.58522868476E+01 -0.72297824608E+01  0.10419419310E+02  0.51100000000E-03 0.  1.
        -11    1    3    3    0    0 -0.12461458065E+01 -0.29585980838E+02 -0.17147511557E+02  0.34218712634E+02  0.51100000000E-03 0. -1.
        -12    1    3    3    0    0 -0.19255431057E+01 -0.16417658913E+01  0.18745605816E+01  0.31491409730E+01  0.00000000000E+00 0.  1.
</event>
<event>
 7    1  0.1542786E-009  0.4778727E+02  0.7816164E-02  0.1312668E+00
        -11   -1    0    0    0    0  0.00000000000E+00  0.00000000000E+00  0.45593999997E+02  0.45594000000E+02  0.51100000000E-03 0.  1.
         11   -1    0    0    0    0 -0.00000000000E+00 -0.00000000000E+00 -0.45593999997E+02  0.45594000000E+02  0.51100000000E-03 0. -1.
    9900012    2    1    2    0    0 -0.31906354225E+02 -0.18949384027E+02 -0.22506199023E+02  0.47787267409E+02  0.19999983425E+02 0.  0.
        -12    1    1    2    0    0  0.31906354225E+02  0.18949384027E+02  0.22506199023E+02  0.43400732591E+02  0.00000000000E+00 0.  1.
         11    1    3    3    0    0 -0.18305046514E+02 -0.62001130149E+01 -0.52331653141E+01  0.20022541016E+02  0.51100000000E-03 0. -1.
        -11    1    3    3    0    0 -0.65734507514E+01  0.57456400355E+00 -0.42211311581E+01  0.78331556278E+01  0.51100000000E-03 0.  1.
        -12    1    3    3    0    0 -0.70278569601E+01 -0.13323835016E+02 -0.13051902551E+02  0.19931570765E+02  0.00000000000E+00 0.  1.
</event>
<event>
 7    1  0.1542786E-009  0.4778728E+02  0.7816164E-02  0.1312668E+00
        -11   -1    0    0    0    0  0.00000000000E+00  0.00000000000E+00  0.45593999997E+02  0.45594000000E+02  0.51100000000E-03 0.  1.
         11   -1    0    0    0    0 -0.00000000000E+00 -0.00000000000E+00 -0.45593999997E+02  0.45594000000E+02  0.51100000000E-03 0. -1.
    9900012    2    1    2    0    0  0.40481345146E+02  0.12715703426E+02 -0.91210685792E+01  0.47787282144E+02  0.20000050606E+02 0.  0.
        -12    1    1    2    0    0 -0.40481345146E+02 -0.12715703426E+02  0.91210685792E+01  0.43400717856E+02  0.00000000000E+00 0.  1.
         11    1    3    3    0    0  0.93771561923E+01  0.84232454742E+01 -0.55883659499E+01  0.13788109255E+02  0.51100000000E-03 0. -1.
        -11    1    3    3    0    0  0.28719270011E+02  0.76269650189E+01 -0.30293224846E+01  0.29868777349E+02  0.51100000000E-03 0.  1.
         12    1    3    3    0    0  0.23849189425E+01 -0.33345070672E+01 -0.50338014468E+00  0.41303955396E+01  0.00000000000E+00 0. -1.
</event>
<event>
 7    1  0.1542786E-009  0.4778727E+02  0.7816164E-02  0.1312668E+00
        -11   -1    0    0    0    0  0.00000000000E+00  0.00000000000E+00  0.45593999997E+02  0.45594000000E+02  0.51100000000E-03 0.  1.
         11   -1    0    0    0    0 -0.00000000000E+00 -0.00000000000E+00 -0.45593999997E+02  0.45594000000E+02  0.51100000000E-03 0. -1.
    9900012    2    1    2    0    0 -0.14691453843E+02  0.19723268410E+02 -0.35759991456E+02  0.47787272797E+02  0.20000007990E+02 0.  0.
        -12    1    1    2    0    0  0.14691453843E+02 -0.19723268410E+02  0.35759991456E+02  0.43400727203E+02  0.00000000000E+00 0.  1.
         11    1    3    3    0    0  0.39086807682E+01  0.27961169705E+01 -0.12343466079E+02  0.13246026218E+02  0.51100000000E-03 0. -1.
        -11    1    3    3    0    0 -0.59871510224E+01  0.34074666705E+01 -0.58591307201E+01  0.90435733829E+01  0.51100000000E-03 0.  1.
         12    1    3    3    0    0 -0.12612983589E+02  0.13519684769E+02 -0.17557394657E+02  0.25497673196E+02  0.00000000000E+00 0. -1.
</event>
<event>
 7    1  0.1542786E-009  0.4778727E+02  0.7816164E-02  0.1312668E+00
        -11   -1    0    0    0    0  0.00000000000E+00  0.00000000000E+00  0.45593999997E+02  0.45594000000E+02  0.51100000000E-03 0.  1.
         11   -1    0    0    0    0 -0.00000000000E+00 -0.00000000000E+00 -0.45593999997E+02  0.45594000000E+02  0.51100000000E-03 0. -1.
    9900012    2    1    2    0    0  0.35845766755E+02  0.52469224914E+01 -0.23899246399E+02  0.47787272260E+02  0.20000005544E+02 0.  0.
        -12    1    1    2    0    0 -0.35845766755E+02 -0.52469224914E+01  0.23899246399E+02  0.43400727740E+02  0.00000000000E+00 0.  1.
         11    1    3    3    0    0  0.23244304319E+02  0.81631585581E+01 -0.12363254388E+02  0.27564195984E+02  0.51100000000E-03 0. -1.
        -11    1    3    3    0    0  0.97382611363E+01  0.19716119184E+01 -0.38064325080E+01  0.10640014672E+02  0.51100000000E-03 0.  1.
        -12    1    3    3    0    0  0.28632012994E+01 -0.48878479851E+01 -0.77295595028E+01  0.95830616044E+01  0.00000000000E+00 0.  1.
</event>
<event>
 7    1  0.1542786E-009  0.4778728E+02  0.7816164E-02  0.1312668E+00
        -11   -1    0    0    0    0  0.00000000000E+00  0.00000000000E+00  0.45593999997E+02  0.45594000000E+02  0.51100000000E-03 0.  1.
         11   -1    0    0    0    0 -0.00000000000E+00 -0.00000000000E+00 -0.45593999997E+02  0.45594000000E+02  0.51100000000E-03 0. -1.
    9900012    2    1    2    0    0  0.91646589629E+01  0.29952926069E+02 -0.30040872256E+02  0.47787276966E+02  0.20000026997E+02 0.  0.
        -12    1    1    2    0    0 -0.91646589629E+01 -0.29952926069E+02  0.30040872256E+02  0.43400723034E+02  0.00000000000E+00 0.  1.
         11    1    3    3    0    0 -0.25299856732E+00  0.10324250092E+02 -0.15183399265E+02  0.18362727513E+02  0.51100000000E-03 0. -1.
        -11    1    3    3    0    0  0.11269427210E+01  0.10133786944E+02 -0.34492199619E+00  0.10202088470E+02  0.51100000000E-03 0.  1.
         12    1    3    3    0    0  0.82907148092E+01  0.94948890334E+01 -0.14512550995E+02  0.19222460982E+02  0.00000000000E+00 0. -1.
</event>
<event>
 7    1  0.1542786E-009  0.4778727E+02  0.7816164E-02  0.1312668E+00
        -11   -1    0    0    0    0  0.00000000000E+00  0.00000000000E+00  0.45593999997E+02  0.45594000000E+02  0.51100000000E-03 0. -1.
         11   -1    0    0    0    0 -0.00000000000E+00 -0.00000000000E+00 -0.45593999997E+02  0.45594000000E+02  0.51100000000E-03 0.  1.
    9900012    2    1    2    0    0 -0.18499118942E+02 -0.24651893271E+02  0.30556338384E+02  0.47787273521E+02  0.20000011291E+02 0.  0.
        -12    1    1    2    0    0  0.18499118942E+02  0.24651893271E+02 -0.30556338384E+02  0.43400726479E+02  0.00000000000E+00 0.  1.
         11    1    3    3    0    0 -0.77326157354E+00  0.38389238934E+00  0.60876803159E+01  0.61485899780E+01  0.51100000000E-03 0. -1.
        -11    1    3    3    0    0  0.46988434962E+00 -0.16723356092E+01 -0.14670965672E+01  0.22737348769E+01  0.51100000000E-03 0.  1.
        -12    1    3    3    0    0 -0.18195741718E+02 -0.23363450051E+02  0.25935754635E+02  0.39364948666E+02  0.00000000000E+00 0.  1.
</event>
<event>
 7    1  0.1542786E-009  0.4778727E+02  0.7816164E-02  0.1312668E+00
        -11   -1    0    0    0    0  0.00000000000E+00  0.00000000000E+00  0.45593999997E+02  0.45594000000E+02  0.51100000000E-03 0.  1.
         11   -1    0    0    0    0 -0.00000000000E+00 -0.00000000000E+00 -0.45593999997E+02  0.45594000000E+02  0.51100000000E-03 0. -1.
    9900012    2    1    2    0    0  0.39993769507E+02 -0.49327588777E+01 -0.16117987703E+02  0.47787271468E+02  0.20000001930E+02 0.  0.
        -12    1    1    2    0    0 -0.39993769507E+02  0.49327588777E+01  0.16117987703E+02  0.43400728532E+02  0.00000000000E+00 0.  1.
         11    1    3    3    0    0  0.23524172733E+02  0.36989150241E+01 -0.12739348857E+02  0.27006660006E+02  0.51100000000E-03 0. -1.
        -11    1    3    3    0    0  0.12281608439E+02 -0.25862126915E+01  0.30632246392E+00  0.12554689787E+02  0.51100000000E-03 0.  1.
         12    1    3    3    0    0  0.41879883354E+01 -0.60454612103E+01 -0.36849613101E+01  0.82259216748E+01  0.00000000000E+00 0. -1.
</event>
<event>
 7    1  0.1542786E-009  0.4778727E+02  0.7816164E-02  0.1312668E+00
        -11   -1    0    0    0    0  0.00000000000E+00  0.00000000000E+00  0.45593999997E+02  0.45594000000E+02  0.51100000000E-03 0.  1.
         11   -1    0    0    0    0 -0.00000000000E+00 -0.00000000000E+00 -0.45593999997E+02  0.45594000000E+02  0.51100000000E-03 0. -1.
    9900012    2    1    2    0    0 -0.41320937166E+02  0.12880154815E+01 -0.13211526666E+02  0.47787271100E+02  0.20000000255E+02 0.  0.
        -12    1    1    2    0    0  0.41320937166E+02 -0.12880154815E+01  0.13211526666E+02  0.43400728900E+02  0.00000000000E+00 0.  1.
         11    1    3    3    0    0 -0.73759658412E+01 -0.61704574936E+01  0.17474931165E+01  0.97741061087E+01  0.51100000000E-03 0.  1.
        -11    1    3    3    0    0 -0.16270251284E+02  0.17445240958E+01 -0.66215928921E+01  0.17652476706E+02  0.51100000000E-03 0. -1.
        -12    1    3    3    0    0 -0.17674720041E+02  0.57139488794E+01 -0.83374268901E+01  0.20360688286E+02  0.00000000000E+00 0.  1.
</event>
<event>
 7    1  0.1542786E-009  0.4778727E+02  0.7816164E-02  0.1312668E+00
        -11   -1    0    0    0    0  0.00000000000E+00  0.00000000000E+00  0.45593999997E+02  0.45594000000E+02  0.51100000000E-03 0.  1.
         11   -1    0    0    0    0 -0.00000000000E+00 -0.00000000000E+00 -0.45593999997E+02  0.45594000000E+02  0.51100000000E-03 0. -1.
    9900012    2    1    2    0    0 -0.29963287051E+02  0.22802095640E+01  0.31314934980E+02  0.47787273285E+02  0.20000010218E+02 0.  0.
        -12    1    1    2    0    0  0.29963287051E+02 -0.22802095640E+01 -0.31314934980E+02  0.43400726715E+02  0.00000000000E+00 0.  1.
         11    1    3    3    0    0 -0.92297625393E+01 -0.31669916552E+01  0.44100075282E+01  0.10708245390E+02  0.51100000000E-03 0. -1.
        -11    1    3    3    0    0 -0.20322347482E+02  0.25055963109E+01  0.27253383760E+02  0.34088454742E+02  0.51100000000E-03 0.  1.
         12    1    3    3    0    0 -0.41117702943E+00  0.29416049082E+01 -0.34845630855E+00  0.29905731532E+01  0.00000000000E+00 0. -1.
</event>
<event>
 7    1  0.1542786E-009  0.4778727E+02  0.7816164E-02  0.1312668E+00
        -11   -1    0    0    0    0  0.00000000000E+00  0.00000000000E+00  0.45593999997E+02  0.45594000000E+02  0.51100000000E-03 0.  1.
         11   -1    0    0    0    0 -0.00000000000E+00 -0.00000000000E+00 -0.45593999997E+02  0.45594000000E+02  0.51100000000E-03 0. -1.
    9900012    2    1    2    0    0  0.24212732864E+02  0.73028116300E+01 -0.35270892315E+02  0.47787270339E+02  0.19999996782E+02 0.  0.
        -12    1    1    2    0    0 -0.24212732864E+02 -0.73028116300E+01  0.35270892315E+02  0.43400729661E+02  0.00000000000E+00 0.  1.
         11    1    3    3    0    0  0.12813362330E+02  0.47393743341E+01 -0.32074270309E+02  0.34862626685E+02  0.51100000000E-03 0. -1.
        -11    1    3    3    0    0  0.23522495366E+01 -0.12907807082E+01 -0.52083827919E+00  0.27332152300E+01  0.51100000000E-03 0.  1.
        -12    1    3    3    0    0  0.90471209968E+01  0.38542180042E+01 -0.26757837273E+01  0.10191428423E+02  0.00000000000E+00 0.  1.
</event>
<event>
 7    1  0.1542786E-009  0.4778727E+02  0.7816164E-02  0.1312668E+00
        -11   -1    0    0    0    0  0.00000000000E+00  0.00000000000E+00  0.45593999997E+02  0.45594000000E+02  0.51100000000E-03 0.  1.
         11   -1    0    0    0    0 -0.00000000000E+00 -0.00000000000E+00 -0.45593999997E+02  0.45594000000E+02  0.51100000000E-03 0. -1.
    9900012    2    1    2    0    0  0.24980783685E+02  0.13875237851E+02 -0.32665907380E+02  0.47787270929E+02  0.19999999474E+02 0.  0.
        -12    1    1    2    0    0 -0.24980783685E+02 -0.13875237851E+02  0.32665907380E+02  0.43400729071E+02  0.00000000000E+00 0.  1.
         11    1    3    3    0    0  0.13208175090E+02  0.50062466728E+01 -0.15367521080E+02  0.20872927427E+02  0.51100000000E-03 0. -1.
        -11    1    3    3    0    0  0.12384229668E+02  0.25665187762E+01 -0.16093852456E+02  0.20468713937E+02  0.51100000000E-03 0.  1.
        -12    1    3    3    0    0 -0.61162107290E+00  0.63024724016E+01 -0.12045338439E+01  0.64456295652E+01  0.00000000000E+00 0.  1.
</event>
<event>
 7    1 -0.2549290E-009  0.4778728E+02  0.7816164E-02  0.1312668E+00
        -11   -1    0    0    0    0  0.00000000000E+00  0.00000000000E+00  0.45593999997E+02  0.45594000000E+02  0.51100000000E-03 0.  1.
         11   -1    0    0    0    0 -0.00000000000E+00 -0.00000000000E+00 -0.45593999997E+02  0.45594000000E+02  0.51100000000E-03 0. -1.
    9900012    2    1    2    0    0 -0.38533537109E+02  0.18576511101E+02 -0.73282023486E+01  0.47787276544E+02  0.20000025075E+02 0.  0.
        -12    1    1    2    0    0  0.38533537109E+02 -0.18576511101E+02  0.73282023486E+01  0.43400723456E+02  0.00000000000E+00 0.  1.
         11    1    3    3    0    0 -0.17386530928E+01 -0.20526049089E+01  0.17125562064E+00  0.26954462039E+01  0.51100000000E-03 0. -1.
        -11    1    3    3    0    0 -0.29800157486E+02  0.12703886423E+02 -0.47194509465E+00  0.32398469854E+02  0.51100000000E-03 0.  1.
        -12    1    3    3    0    0 -0.69947265306E+01  0.79252295862E+01 -0.70275128746E+01  0.12693360486E+02  0.00000000000E+00 0.  1.
</event>
<event>
 7    1  0.1542786E-009  0.4778727E+02  0.7816164E-02  0.1312668E+00
        -11   -1    0    0    0    0  0.00000000000E+00  0.00000000000E+00  0.45593999997E+02  0.45594000000E+02  0.51100000000E-03 0.  1.
         11   -1    0    0    0    0 -0.00000000000E+00 -0.00000000000E+00 -0.45593999997E+02  0.45594000000E+02  0.51100000000E-03 0. -1.
    9900012    2    1    2    0    0 -0.34145331691E+02 -0.10992503906E+02 -0.24431223161E+02  0.47787268629E+02  0.19999988987E+02 0.  0.
        -12    1    1    2    0    0  0.34145331691E+02  0.10992503906E+02  0.24431223161E+02  0.43400731371E+02  0.00000000000E+00 0.  1.
         11    1    3    3    0    0 -0.41261693924E+01 -0.81640674563E+01 -0.59909436518E+01  0.10934746334E+02  0.51100000000E-03 0. -1.
        -11    1    3    3    0    0 -0.45825846916E+01  0.30555258252E+01 -0.14253960567E+01  0.56892947457E+01  0.51100000000E-03 0.  1.
         12    1    3    3    0    0 -0.25436577607E+02 -0.58839622747E+01 -0.17014883453E+02  0.31163227549E+02  0.00000000000E+00 0. -1.
</event>
<event>
 7    1  0.1542786E-009  0.4778728E+02  0.7816164E-02  0.1312668E+00
        -11   -1    0    0    0    0  0.00000000000E+00  0.00000000000E+00  0.45593999997E+02  0.45594000000E+02  0.51100000000E-03 0.  1.
         11   -1    0    0    0    0 -0.00000000000E+00 -0.00000000000E+00 -0.45593999997E+02  0.45594000000E+02  0.51100000000E-03 0. -1.
    9900012    2    1    2    0    0 -0.15340237646E+02  0.39274837359E+02 -0.10285266182E+02  0.47787280639E+02  0.20000043744E+02 0.  0.
        -12    1    1    2    0    0  0.15340237646E+02 -0.39274837359E+02  0.10285266182E+02  0.43400719361E+02  0.00000000000E+00 0.  1.
         11    1    3    3    0    0 -0.42237880196E+01  0.43326202057E+01 -0.61048773600E+01  0.85954354702E+01  0.51100000000E-03 0. -1.
        -11    1    3    3    0    0 -0.24181445776E+01 -0.19508845148E+00 -0.15915113121E+01  0.29014464013E+01  0.51100000000E-03 0.  1.
         12    1    3    3    0    0 -0.86983050489E+01  0.35137305605E+02 -0.25888775100E+01  0.36290398767E+02  0.00000000000E+00 0. -1.
</event>
<event>
 7    1  0.1686959E-009  0.4778727E+02  0.7816164E-02  0.1312668E+00
        -11   -1    0    0    0    0  0.00000000000E+00  0.00000000000E+00  0.45593999997E+02  0.45594000000E+02  0.51100000000E-03 0. -1.
         11   -1    0    0    0    0 -0.00000000000E+00 -0.00000000000E+00 -0.45593999997E+02  0.45594000000E+02  0.51100000000E-03 0.  1.
    9900012    2    1    2    0    0  0.43145201616E+02  0.44790212002E+01  0.14329504852E+01  0.47787269586E+02  0.19999993351E+02 0.  0.
        -12    1    1    2    0    0 -0.43145201616E+02 -0.44790212002E+01 -0.14329504852E+01  0.43400730414E+02  0.00000000000E+00 0.  1.
         11    1    3    3    0    0  0.18017609455E+02  0.48512051726E+01  0.69119865992E+01  0.19898341668E+02  0.51100000000E-03 0. -1.
        -11    1    3    3    0    0  0.23349645174E+02  0.29714265169E+01 -0.43429539338E+01  0.23935257559E+02  0.51100000000E-03 0.  1.
        -12    1    3    3    0    0  0.17779469862E+01 -0.33436104893E+01 -0.11360821803E+01  0.39536703593E+01  0.00000000000E+00 0.  1.
</event>
<event>
 7    1  0.1542786E-009  0.4778727E+02  0.7816164E-02  0.1312668E+00
        -11   -1    0    0    0    0  0.00000000000E+00  0.00000000000E+00  0.45593999997E+02  0.45594000000E+02  0.51100000000E-03 0. -1.
         11   -1    0    0    0    0 -0.00000000000E+00 -0.00000000000E+00 -0.45593999997E+02  0.45594000000E+02  0.51100000000E-03 0.  1.
    9900012    2    1    2    0    0  0.22712957202E+01  0.17383207635E+02  0.39702502846E+02  0.47787269312E+02  0.19999992103E+02 0.  0.
        -12    1    1    2    0    0 -0.22712957202E+01 -0.17383207635E+02 -0.39702502846E+02  0.43400730688E+02  0.00000000000E+00 0.  1.
         11    1    3    3    0    0  0.10112324723E+01  0.77694495774E+01  0.17130070697E+02  0.18836832542E+02  0.51100000000E-03 0. -1.
        -11    1    3    3    0    0  0.18015192544E+01  0.13127599112E+02  0.21467069770E+02  0.25227255396E+02  0.51100000000E-03 0.  1.
        -12    1    3    3    0    0 -0.54145600656E+00 -0.35138410536E+01  0.11053623791E+01  0.37231813744E+01  0.00000000000E+00 0.  1.
</event>
<event>
 7    1  0.1542786E-009  0.4778727E+02  0.7816164E-02  0.1312668E+00
        -11   -1    0    0    0    0  0.00000000000E+00  0.00000000000E+00  0.45593999997E+02  0.45594000000E+02  0.51100000000E-03 0. -1.
         11   -1    0    0    0    0 -0.00000000000E+00 -0.00000000000E+00 -0.45593999997E+02  0.45594000000E+02  0.51100000000E-03 0.  1.
    9900012    2    1    2    0    0  0.99981099699E+01  0.41735238405E+02  0.64677098923E+01  0.47787267300E+02  0.19999982927E+02 0.  0.
        -12    1    1    2    0    0 -0.99981099699E+01 -0.41735238405E+02 -0.64677098923E+01  0.43400732700E+02  0.00000000000E+00 0.  1.
         11    1    3    3    0    0  0.87679232473E+00  0.14253096697E+02  0.72259889317E+01  0.16004200902E+02  0.51100000000E-03 0. -1.
        -11    1    3    3    0    0  0.29100812987E+00 -0.12840332019E+01 -0.10604671120E+01  0.16905672870E+01  0.51100000000E-03 0.  1.
         12    1    3    3    0    0  0.88303095153E+01  0.28766174910E+02  0.30218807260E+00  0.30092499111E+02  0.00000000000E+00 0. -1.
</event>
<event>
 7    1  0.1542786E-009  0.4778727E+02  0.7816164E-02  0.1312668E+00
        -11   -1    0    0    0    0  0.00000000000E+00  0.00000000000E+00  0.45593999997E+02  0.45594000000E+02  0.51100000000E-03 0.  1.
         11   -1    0    0    0    0 -0.00000000000E+00 -0.00000000000E+00 -0.45593999997E+02  0.45594000000E+02  0.51100000000E-03 0. -1.
    9900012    2    1    2    0    0 -0.32197481297E+02  0.27306846419E+02 -0.10063872603E+02  0.47787271953E+02  0.20000004141E+02 0.  0.
        -12    1    1    2    0    0  0.32197481297E+02 -0.27306846419E+02  0.10063872603E+02  0.43400728047E+02  0.00000000000E+00 0.  1.
         11    1    3    3    0    0 -0.90293174243E+01  0.11663309674E+02 -0.86444005664E+01  0.17096403923E+02  0.51100000000E-03 0. -1.
        -11    1    3    3    0    0 -0.11588593971E+01 -0.19282878768E+01  0.91973362680E+00  0.24304648616E+01  0.51100000000E-03 0.  1.
         12    1    3    3    0    0 -0.22009304476E+02  0.17571824622E+02 -0.23392056635E+01  0.28260403168E+02  0.00000000000E+00 0. -1.
</event>
<event>
 7    1  0.1542786E-009  0.4778727E+02  0.7816164E-02  0.1312668E+00
        -11   -1    0    0    0    0  0.00000000000E+00  0.00000000000E+00  0.45593999997E+02  0.45594000000E+02  0.51100000000E-03 0. -1.
         11   -1    0    0    0    0 -0.00000000000E+00 -0.00000000000E+00 -0.45593999997E+02  0.45594000000E+02  0.51100000000E-03 0.  1.
    9900012    2    1    2    0    0  0.24168654772E+02 -0.28195492555E+02  0.22461377130E+02  0.47787272628E+02  0.20000007218E+02 0.  0.
        -12    1    1    2    0    0 -0.24168654772E+02  0.28195492555E+02 -0.22461377130E+02  0.43400727372E+02  0.00000000000E+00 0.  1.
         11    1    3    3    0    0  0.10162287554E+02 -0.13712802193E+02  0.35669306905E+01  0.17436628893E+02  0.51100000000E-03 0. -1.
        -11    1    3    3    0    0  0.27503691122E+01  0.22690972576E+01  0.26320192949E+01  0.44318008131E+01  0.51100000000E-03 0.  1.
         12    1    3    3    0    0  0.11255998105E+02 -0.16751787619E+02  0.16262427145E+02  0.25918842922E+02  0.00000000000E+00 0. -1.
</event>
<event>
 7    1  0.1542786E-009  0.4778727E+02  0.7816164E-02  0.1312668E+00
        -11   -1    0    0    0    0  0.00000000000E+00  0.00000000000E+00  0.45593999997E+02  0.45594000000E+02  0.51100000000E-03 0.  1.
         11   -1    0    0    0    0 -0.00000000000E+00 -0.00000000000E+00 -0.45593999997E+02  0.45594000000E+02  0.51100000000E-03 0. -1.
    9900012    2    1    2    0    0 -0.38121609503E+01  0.43231692005E+02 -0.33417261409E+00  0.47787269176E+02  0.19999991479E+02 0.  0.
        -12    1    1    2    0    0  0.38121609503E+01 -0.43231692005E+02  0.33417261409E+00  0.43400730824E+02  0.00000000000E+00 0.  1.
         11    1    3    3    0    0 -0.70558417169E+01  0.15334464481E+02  0.24339629606E+00  0.16881645218E+02  0.51100000000E-03 0. -1.
        -11    1    3    3    0    0 -0.27734235913E+01  0.59868778842E+01 -0.43079097278E+01  0.78798903356E+01  0.51100000000E-03 0.  1.
         12    1    3    3    0    0  0.60171043579E+01  0.21910349640E+02  0.37303408177E+01  0.23025733622E+02  0.00000000000E+00 0. -1.
</event>
<event>
 7    1  0.1542786E-009  0.4778727E+02  0.7816164E-02  0.1312668E+00
        -11   -1    0    0    0    0  0.00000000000E+00  0.00000000000E+00  0.45593999997E+02  0.45594000000E+02  0.51100000000E-03 0.  1.
         11   -1    0    0    0    0 -0.00000000000E+00 -0.00000000000E+00 -0.45593999997E+02  0.45594000000E+02  0.51100000000E-03 0. -1.
    9900012    2    1    2    0    0  0.23284246172E+02  0.52682379374E+01 -0.36245175820E+02  0.47787271654E+02  0.20000002780E+02 0.  0.
        -12    1    1    2    0    0 -0.23284246172E+02 -0.52682379374E+01  0.36245175820E+02  0.43400728346E+02  0.00000000000E+00 0.  1.
         11    1    3    3    0    0  0.18595209509E+02  0.28917258667E+01 -0.15262697139E+02  0.24230018972E+02  0.51100000000E-03 0. -1.
        -11    1    3    3    0    0  0.49124390954E+00 -0.30318843209E+01 -0.29083696916E+01  0.42299240700E+01  0.51100000000E-03 0.  1.
        -12    1    3    3    0    0  0.41977927531E+01  0.54083963917E+01 -0.18074108989E+02  0.19327328612E+02  0.00000000000E+00 0.  1.
</event>
<event>
 7    1  0.1542786E-009  0.4778727E+02  0.7816164E-02  0.1312668E+00
        -11   -1    0    0    0    0  0.00000000000E+00  0.00000000000E+00  0.45593999997E+02  0.45594000000E+02  0.51100000000E-03 0. -1.
         11   -1    0    0    0    0 -0.00000000000E+00 -0.00000000000E+00 -0.45593999997E+02  0.45594000000E+02  0.51100000000E-03 0.  1.
    9900012    2    1    2    0    0  0.36051880430E+02 -0.22732962490E+02 -0.81913225414E+01  0.47787269233E+02  0.19999991741E+02 0.  0.
        -12    1    1    2    0    0 -0.36051880430E+02  0.22732962490E+02  0.81913225414E+01  0.43400730767E+02  0.00000000000E+00 0.  1.
         11    1    3    3    0    0  0.52831180022E+01 -0.43045241584E+00  0.29194777489E+01  0.60514440999E+01  0.51100000000E-03 0.  1.
        -11    1    3    3    0    0  0.17879011709E+02 -0.20519000880E+02 -0.73447769406E+01  0.28189256915E+02  0.51100000000E-03 0. -1.
         12    1    3    3    0    0  0.12889750718E+02 -0.17835091944E+01 -0.37660233497E+01  0.13546568218E+02  0.00000000000E+00 0. -1.
</event>
<event>
 7    1  0.1542786E-009  0.4778727E+02  0.7816164E-02  0.1312668E+00
        -11   -1    0    0    0    0  0.00000000000E+00  0.00000000000E+00  0.45593999997E+02  0.45594000000E+02  0.51100000000E-03 0.  1.
         11   -1    0    0    0    0 -0.00000000000E+00 -0.00000000000E+00 -0.45593999997E+02  0.45594000000E+02  0.51100000000E-03 0. -1.
    9900012    2    1    2    0    0 -0.33020831203E+02 -0.27515851909E+02  0.60104738028E+01  0.47787271954E+02  0.20000004147E+02 0.  0.
        -12    1    1    2    0    0  0.33020831203E+02  0.27515851909E+02 -0.60104738028E+01  0.43400728046E+02  0.00000000000E+00 0.  1.
         11    1    3    3    0    0 -0.22241450770E+02 -0.25582546766E+02  0.37517147083E+01  0.34106072698E+02  0.51100000000E-03 0. -1.
        -11    1    3    3    0    0 -0.11942625180E+02 -0.24743437089E+01  0.18567876361E+01  0.12336787814E+02  0.51100000000E-03 0.  1.
        -12    1    3    3    0    0  0.11632447470E+01  0.54103856609E+00  0.40197145843E+00  0.13444114418E+01  0.00000000000E+00 0.  1.
</event>
<event>
 7    1  0.1542786E-009  0.4778727E+02  0.7816164E-02  0.1312668E+00
        -11   -1    0    0    0    0  0.00000000000E+00  0.00000000000E+00  0.45593999997E+02  0.45594000000E+02  0.51100000000E-03 0.  1.
         11   -1    0    0    0    0 -0.00000000000E+00 -0.00000000000E+00 -0.45593999997E+02  0.45594000000E+02  0.51100000000E-03 0. -1.
    9900012    2    1    2    0    0  0.10015081259E+02  0.22331491290E+02 -0.35841684627E+02  0.47787265988E+02  0.19999976947E+02 0.  0.
        -12    1    1    2    0    0 -0.10015081259E+02 -0.22331491290E+02  0.35841684627E+02  0.43400734012E+02  0.00000000000E+00 0.  1.
         11    1    3    3    0    0  0.13254993646E+01  0.36443814107E+01  0.68111819852E+00  0.39373070358E+01  0.51100000000E-03 0. -1.
        -11    1    3    3    0    0 -0.20587940559E+01  0.59639765683E+01 -0.17303788736E+02  0.18418163708E+02  0.51100000000E-03 0.  1.
         12    1    3    3    0    0  0.10748375950E+02  0.12723133311E+02 -0.19219014089E+02  0.25431795245E+02  0.00000000000E+00 0. -1.
</event>
<event>
 7    1  0.1542786E-009  0.4778728E+02  0.7816164E-02  0.1312668E+00
        -11   -1    0    0    0    0  0.00000000000E+00  0.00000000000E+00  0.45593999997E+02  0.45594000000E+02  0.51100000000E-03 0.  1.
         11   -1    0    0    0    0 -0.00000000000E+00 -0.00000000000E+00 -0.45593999997E+02  0.45594000000E+02  0.51100000000E-03 0. -1.
    9900012    2    1    2    0    0  0.33283882422E+02  0.47776997906E+01 -0.27440473894E+02  0.47787275906E+02  0.20000022166E+02 0.  0.
        -12    1    1    2    0    0 -0.33283882422E+02 -0.47776997906E+01  0.27440473894E+02  0.43400724094E+02  0.00000000000E+00 0.  1.
         11    1    3    3    0    0  0.19755316403E+02  0.11114278150E+02 -0.21034466110E+02  0.30923267450E+02  0.51100000000E-03 0. -1.
        -11    1    3    3    0    0  0.47708351772E+01 -0.44873497903E-01 -0.13789038653E+01  0.49663123190E+01  0.51100000000E-03 0.  1.
        -12    1    3    3    0    0  0.87577308420E+01 -0.62917048617E+01 -0.50271039186E+01  0.11897696137E+02  0.00000000000E+00 0.  1.
</event>
<event>
 7    1  0.1542786E-009  0.4778727E+02  0.7816164E-02  0.1312668E+00
        -11   -1    0    0    0    0  0.00000000000E+00  0.00000000000E+00  0.45593999997E+02  0.45594000000E+02  0.51100000000E-03 0.  1.
         11   -1    0    0    0    0 -0.00000000000E+00 -0.00000000000E+00 -0.45593999997E+02  0.45594000000E+02  0.51100000000E-03 0. -1.
    9900012    2    1    2    0    0 -0.38870412682E+02 -0.18935418103E+02 -0.37635327306E+01  0.47787271672E+02  0.20000002860E+02 0.  0.
        -12    1    1    2    0    0  0.38870412682E+02  0.18935418103E+02  0.37635327306E+01  0.43400728328E+02  0.00000000000E+00 0.  1.
         11    1    3    3    0    0 -0.10295800470E+02 -0.19811400700E+01 -0.23382604936E+01  0.10742247702E+02  0.51100000000E-03 0. -1.
        -11    1    3    3    0    0 -0.16094409653E+02 -0.18321763454E+02  0.18320797379E+00  0.24387509171E+02  0.51100000000E-03 0.  1.
        -12    1    3    3    0    0 -0.12480202559E+02  0.13674854208E+01 -0.16084802108E+01  0.12657514798E+02  0.00000000000E+00 0.  1.
</event>
<event>
 7    1  0.1542786E-009  0.4778726E+02  0.7816164E-02  0.1312668E+00
        -11   -1    0    0    0    0  0.00000000000E+00  0.00000000000E+00  0.45593999997E+02  0.45594000000E+02  0.51100000000E-03 0.  1.
         11   -1    0    0    0    0 -0.00000000000E+00 -0.00000000000E+00 -0.45593999997E+02  0.45594000000E+02  0.51100000000E-03 0. -1.
    9900012    2    1    2    0    0  0.18584995557E+01  0.23783954599E+02 -0.36255946939E+02  0.47787260312E+02  0.19999951069E+02 0.  0.
        -12    1    1    2    0    0 -0.18584995557E+01 -0.23783954599E+02  0.36255946939E+02  0.43400739688E+02  0.00000000000E+00 0.  1.
         11    1    3    3    0    0 -0.47154119452E+00  0.14119267646E+02 -0.30118349401E+02  0.33266966211E+02  0.51100000000E-03 0. -1.
        -11    1    3    3    0    0  0.27245424002E+01  0.20019978263E+01 -0.59519566924E+01  0.68452111229E+01  0.51100000000E-03 0.  1.
        -12    1    3    3    0    0 -0.39450165000E+00  0.76626891270E+01 -0.18564084546E+00  0.76750829788E+01  0.00000000000E+00 0.  1.
</event>
<event>
 7    1  0.1542786E-009  0.4778727E+02  0.7816164E-02  0.1312668E+00
        -11   -1    0    0    0    0  0.00000000000E+00  0.00000000000E+00  0.45593999997E+02  0.45594000000E+02  0.51100000000E-03 0. -1.
         11   -1    0    0    0    0 -0.00000000000E+00 -0.00000000000E+00 -0.45593999997E+02  0.45594000000E+02  0.51100000000E-03 0.  1.
    9900012    2    1    2    0    0  0.32518858728E+02  0.12536621759E+02  0.25864658653E+02  0.47787266996E+02  0.19999981541E+02 0.  0.
        -12    1    1    2    0    0 -0.32518858728E+02 -0.12536621759E+02 -0.25864658653E+02  0.43400733004E+02  0.00000000000E+00 0.  1.
         11    1    3    3    0    0  0.78924602471E+01 -0.33163043387E+00  0.38704475095E+00  0.79089007705E+01  0.51100000000E-03 0. -1.
        -11    1    3    3    0    0  0.47898825776E+01  0.24423720581E+01  0.13362493534E+02  0.14403624199E+02  0.51100000000E-03 0.  1.
         12    1    3    3    0    0  0.19836515903E+02  0.10425880135E+02  0.12115120368E+02  0.25474742026E+02  0.00000000000E+00 0. -1.
</event>
<event>
 7    1  0.1542786E-009  0.4778727E+02  0.7816164E-02  0.1312668E+00
        -11   -1    0    0    0    0  0.00000000000E+00  0.00000000000E+00  0.45593999997E+02  0.45594000000E+02  0.51100000000E-03 0. -1.
         11   -1    0    0    0    0 -0.00000000000E+00 -0.00000000000E+00 -0.45593999997E+02  0.45594000000E+02  0.51100000000E-03 0.  1.
    9900012    2    1    2    0    0  0.16999192341E+02  0.37660070891E+02  0.13280423726E+02  0.47787272655E+02  0.20000007344E+02 0.  0.
        -12    1    1    2    0    0 -0.16999192341E+02 -0.37660070891E+02 -0.13280423726E+02  0.43400727345E+02  0.00000000000E+00 0.  1.
         11    1    3    3    0    0  0.13139349021E+02  0.83140560872E+01  0.60691704992E+01  0.16691340633E+02  0.51100000000E-03 0. -1.
        -11    1    3    3    0    0  0.45898271560E+00  0.74647114281E+01 -0.85724037217E+00  0.75277781021E+01  0.51100000000E-03 0.  1.
         12    1    3    3    0    0  0.34008606042E+01  0.21881303375E+02  0.80684935990E+01  0.23568153920E+02  0.00000000000E+00 0. -1.
</event>
<event>
 7    1  0.1542786E-009  0.4778727E+02  0.7816164E-02  0.1312668E+00
        -11   -1    0    0    0    0  0.00000000000E+00  0.00000000000E+00  0.45593999997E+02  0.45594000000E+02  0.51100000000E-03 0.  1.
         11   -1    0    0    0    0 -0.00000000000E+00 -0.00000000000E+00 -0.45593999997E+02  0.45594000000E+02  0.51100000000E-03 0. -1.
    9900012    2    1    2    0    0  0.92313509019E+01 -0.42111816463E+02 -0.50000335402E+01  0.47787271197E+02  0.20000000694E+02 0.  0.
        -12    1    1    2    0    0 -0.92313509019E+01  0.42111816463E+02  0.50000335402E+01  0.43400728803E+02  0.00000000000E+00 0.  1.
         11    1    3    3    0    0  0.83891481328E+00 -0.24238976215E+02 -0.11294246418E+01  0.24279772369E+02  0.51100000000E-03 0. -1.
        -11    1    3    3    0    0 -0.52675959808E+00 -0.16112045103E+01 -0.46446468580E+01  0.49443098957E+01  0.51100000000E-03 0.  1.
         12    1    3    3    0    0  0.89191956867E+01 -0.16261635737E+02  0.77403795961E+00  0.18563188932E+02  0.00000000000E+00 0. -1.
</event>
<event>
 7    1  0.1542786E-009  0.4778727E+02  0.7816164E-02  0.1312668E+00
        -11   -1    0    0    0    0  0.00000000000E+00  0.00000000000E+00  0.45593999997E+02  0.45594000000E+02  0.51100000000E-03 0.  1.
         11   -1    0    0    0    0 -0.00000000000E+00 -0.00000000000E+00 -0.45593999997E+02  0.45594000000E+02  0.51100000000E-03 0. -1.
    9900012    2    1    2    0    0 -0.56983840121E+01 -0.26044272357E+02 -0.34246867765E+02  0.47787266658E+02  0.19999979999E+02 0.  0.
        -12    1    1    2    0    0  0.56983840121E+01  0.26044272357E+02  0.34246867765E+02  0.43400733342E+02  0.00000000000E+00 0.  1.
         11    1    3    3    0    0  0.48162348272E+01 -0.50767861939E+01 -0.48931007851E+01  0.85388706234E+01  0.51100000000E-03 0. -1.
        -11    1    3    3    0    0 -0.61231684489E+01 -0.43376341676E+01 -0.15284688097E+02  0.17027329576E+02  0.51100000000E-03 0.  1.
         12    1    3    3    0    0 -0.43914503904E+01 -0.16629851995E+02 -0.14069078883E+02  0.22221066458E+02  0.00000000000E+00 0. -1.
</event>
<event>
 7    1  0.1542786E-009  0.4778722E+02  0.7816164E-02  0.1312668E+00
        -11   -1    0    0    0    0  0.00000000000E+00  0.00000000000E+00  0.45593999997E+02  0.45594000000E+02  0.51100000000E-03 0. -1.
         11   -1    0    0    0    0 -0.00000000000E+00 -0.00000000000E+00 -0.45593999997E+02  0.45594000000E+02  0.51100000000E-03 0.  1.
    9900012    2    1    2    0    0  0.20044304138E+02  0.24559630927E+02  0.29642504082E+02  0.47787220653E+02  0.19999770244E+02 0.  0.
        -12    1    1    2    0    0 -0.20044304138E+02 -0.24559630927E+02 -0.29642504082E+02  0.43400779347E+02  0.00000000000E+00 0.  1.
         11    1    3    3    0    0  0.29567636415E+00  0.74172653189E+01  0.11097429146E+02  0.13351261485E+02  0.51100000000E-03 0.  1.
        -11    1    3    3    0    0  0.17983456249E+02  0.95495570549E+01  0.16917343545E+02  0.26472537685E+02  0.51100000000E-03 0. -1.
         12    1    3    3    0    0  0.17651715253E+01  0.75928085531E+01  0.16277313913E+01  0.79634214832E+01  0.00000000000E+00 0. -1.
</event>
<event>
 7    1  0.1542786E-009  0.4778728E+02  0.7816164E-02  0.1312668E+00
        -11   -1    0    0    0    0  0.00000000000E+00  0.00000000000E+00  0.45593999997E+02  0.45594000000E+02  0.51100000000E-03 0. -1.
         11   -1    0    0    0    0 -0.00000000000E+00 -0.00000000000E+00 -0.45593999997E+02  0.45594000000E+02  0.51100000000E-03 0.  1.
    9900012    2    1    2    0    0 -0.33576402443E+02  0.22826199341E+02 -0.15336636949E+02  0.47787278689E+02  0.20000034856E+02 0.  0.
        -12    1    1    2    0    0  0.33576402443E+02 -0.22826199341E+02  0.15336636949E+02  0.43400721311E+02  0.00000000000E+00 0.  1.
         11    1    3    3    0    0 -0.10589568377E+02  0.67597087442E+01  0.83317722340E+00  0.12590742840E+02  0.51100000000E-03 0. -1.
        -11    1    3    3    0    0 -0.99845978621E+01  0.14599141811E+02 -0.12328166432E+02  0.21559471791E+02  0.51100000000E-03 0.  1.
         12    1    3    3    0    0 -0.13002236203E+02  0.14673487859E+01 -0.38416477409E+01  0.13637064058E+02  0.00000000000E+00 0. -1.
</event>
<event>
 7    1  0.1542786E-009  0.4778727E+02  0.7816164E-02  0.1312668E+00
        -11   -1    0    0    0    0  0.00000000000E+00  0.00000000000E+00  0.45593999997E+02  0.45594000000E+02  0.51100000000E-03 0.  1.
         11   -1    0    0    0    0 -0.00000000000E+00 -0.00000000000E+00 -0.45593999997E+02  0.45594000000E+02  0.51100000000E-03 0. -1.
    9900012    2    1    2    0    0 -0.34789770793E+02 -0.24685052481E+02 -0.79964549982E+01  0.47787271200E+02  0.20000000709E+02 0.  0.
        -12    1    1    2    0    0  0.34789770793E+02  0.24685052481E+02  0.79964549982E+01  0.43400728800E+02  0.00000000000E+00 0.  1.
         11    1    3    3    0    0 -0.18837297565E+02 -0.13921148105E+02 -0.79626541464E+01  0.24739563566E+02  0.51100000000E-03 0. -1.
        -11    1    3    3    0    0 -0.10662483040E+02 -0.39354760668E+01  0.56652236886E+01  0.12699262819E+02  0.51100000000E-03 0.  1.
        -12    1    3    3    0    0 -0.52899901878E+01 -0.68284283100E+01 -0.56990245405E+01  0.10348444815E+02  0.00000000000E+00 0.  1.
</event>
<event>
 7    1  0.1542786E-009  0.4778727E+02  0.7816164E-02  0.1312668E+00
        -11   -1    0    0    0    0  0.00000000000E+00  0.00000000000E+00  0.45593999997E+02  0.45594000000E+02  0.51100000000E-03 0. -1.
         11   -1    0    0    0    0 -0.00000000000E+00 -0.00000000000E+00 -0.45593999997E+02  0.45594000000E+02  0.51100000000E-03 0.  1.
    9900012    2    1    2    0    0 -0.17667436516E+02  0.36750156762E+02  0.14863077768E+02  0.47787269409E+02  0.19999992543E+02 0.  0.
        -12    1    1    2    0    0  0.17667436516E+02 -0.36750156762E+02 -0.14863077768E+02  0.43400730591E+02  0.00000000000E+00 0.  1.
         11    1    3    3    0    0 -0.12439389879E+02  0.28656193994E+02  0.35679279134E+01  0.31442741366E+02  0.51100000000E-03 0. -1.
        -11    1    3    3    0    0  0.40806413534E+00  0.56593694637E+01  0.54679619213E+01  0.78799484072E+01  0.51100000000E-03 0.  1.
         12    1    3    3    0    0 -0.56361107717E+01  0.24345933050E+01  0.58271879337E+01  0.84645796355E+01  0.00000000000E+00 0. -1.
</event>
<event>
 7    1  0.1542786E-009  0.4778727E+02  0.7816164E-02  0.1312668E+00
        -11   -1    0    0    0    0  0.00000000000E+00  0.00000000000E+00  0.45593999997E+02  0.45594000000E+02  0.51100000000E-03 0. -1.
         11   -1    0    0    0    0 -0.00000000000E+00 -0.00000000000E+00 -0.45593999997E+02  0.45594000000E+02  0.51100000000E-03 0.  1.
    9900012    2    1    2    0    0 -0.20577757850E+01  0.39672226817E+02  0.17478660409E+02  0.47787267386E+02  0.19999983318E+02 0.  0.
        -12    1    1    2    0    0  0.20577757850E+01 -0.39672226817E+02 -0.17478660409E+02  0.43400732614E+02  0.00000000000E+00 0.  1.
         11    1    3    3    0    0  0.36825286782E+01  0.31735132277E+02  0.16820167558E+02  0.36105369062E+02  0.51100000000E-03 0. -1.
        -11    1    3    3    0    0 -0.17561551185E+01  0.72208461334E+01 -0.56566423275E+00  0.74528300644E+01  0.51100000000E-03 0.  1.
        -12    1    3    3    0    0 -0.39841493447E+01  0.71624840580E+00  0.12241570839E+01  0.42290682597E+01  0.00000000000E+00 0.  1.
</event>
<event>
 7    1  0.1542786E-009  0.4778725E+02  0.7816164E-02  0.1312668E+00
        -11   -1    0    0    0    0  0.00000000000E+00  0.00000000000E+00  0.45593999997E+02  0.45594000000E+02  0.51100000000E-03 0.  1.
         11   -1    0    0    0    0 -0.00000000000E+00 -0.00000000000E+00 -0.45593999997E+02  0.45594000000E+02  0.51100000000E-03 0. -1.
    9900012    2    1    2    0    0 -0.26071408239E+02  0.31901889045E+02 -0.13644654058E+02  0.47787246129E+02  0.19999886399E+02 0.  0.
        -12    1    1    2    0    0  0.26071408239E+02 -0.31901889045E+02  0.13644654058E+02  0.43400753871E+02  0.00000000000E+00 0.  1.
         11    1    3    3    0    0 -0.14449972367E+02  0.27237992312E+02 -0.73367308583E+01  0.31694440310E+02  0.51100000000E-03 0. -1.
        -11    1    3    3    0    0 -0.90748874557E+01  0.35171947748E+01 -0.61537941394E+00  0.97520732925E+01  0.51100000000E-03 0.  1.
        -12    1    3    3    0    0 -0.25465484161E+01  0.11467019587E+01 -0.56925437862E+01  0.63407325267E+01  0.00000000000E+00 0.  1.
</event>
<event>
 7    1  0.1542786E-009  0.4778727E+02  0.7816164E-02  0.1312668E+00
        -11   -1    0    0    0    0  0.00000000000E+00  0.00000000000E+00  0.45593999997E+02  0.45594000000E+02  0.51100000000E-03 0.  1.
         11   -1    0    0    0    0 -0.00000000000E+00 -0.00000000000E+00 -0.45593999997E+02  0.45594000000E+02  0.51100000000E-03 0. -1.
    9900012    2    1    2    0    0 -0.33281174498E+02 -0.14733711058E+02 -0.23641165162E+02  0.47787268351E+02  0.19999987719E+02 0.  0.
        -12    1    1    2    0    0  0.33281174498E+02  0.14733711058E+02  0.23641165162E+02  0.43400731649E+02  0.00000000000E+00 0.  1.
         11    1    3    3    0    0 -0.30207743439E+01 -0.71951230819E+01 -0.41953721770E+01  0.88597980657E+01  0.51100000000E-03 0. -1.
        -11    1    3    3    0    0 -0.23718757187E+02 -0.10664495247E+02 -0.17736795856E+02  0.31478640836E+02  0.51100000000E-03 0.  1.
        -12    1    3    3    0    0 -0.65416429666E+01  0.31259072719E+01 -0.17089971287E+01  0.74488294490E+01  0.00000000000E+00 0.  1.
</event>
<event>
 7    1  0.1542786E-009  0.4778727E+02  0.7816164E-02  0.1312668E+00
        -11   -1    0    0    0    0  0.00000000000E+00  0.00000000000E+00  0.45593999997E+02  0.45594000000E+02  0.51100000000E-03 0. -1.
         11   -1    0    0    0    0 -0.00000000000E+00 -0.00000000000E+00 -0.45593999997E+02  0.45594000000E+02  0.51100000000E-03 0.  1.
    9900012    2    1    2    0    0  0.12371661246E+02  0.15299497989E+01  0.41571917479E+02  0.47787273378E+02  0.20000010641E+02 0.  0.
        -12    1    1    2    0    0 -0.12371661246E+02 -0.15299497989E+01 -0.41571917479E+02  0.43400726622E+02  0.00000000000E+00 0.  1.
         11    1    3    3    0    0  0.17807745379E+00  0.58247835267E+01  0.50431791982E+01  0.77067159931E+01  0.51100000000E-03 0. -1.
        -11    1    3    3    0    0  0.53352574627E+01 -0.35791552596E+01  0.60270085673E+01  0.88090951350E+01  0.51100000000E-03 0.  1.
         12    1    3    3    0    0  0.68583263299E+01 -0.71567846812E+00  0.30501729714E+02  0.31271462250E+02  0.00000000000E+00 0. -1.
</event>
<event>
 7    1  0.1542786E-009  0.4778727E+02  0.7816164E-02  0.1312668E+00
        -11   -1    0    0    0    0  0.00000000000E+00  0.00000000000E+00  0.45593999997E+02  0.45594000000E+02  0.51100000000E-03 0. -1.
         11   -1    0    0    0    0 -0.00000000000E+00 -0.00000000000E+00 -0.45593999997E+02  0.45594000000E+02  0.51100000000E-03 0.  1.
    9900012    2    1    2    0    0 -0.16453801759E+02  0.31357829748E+02  0.25091474395E+02  0.47787272286E+02  0.20000005659E+02 0.  0.
        -12    1    1    2    0    0  0.16453801759E+02 -0.31357829748E+02 -0.25091474395E+02  0.43400727714E+02  0.00000000000E+00 0.  1.
         11    1    3    3    0    0 -0.52715772536E+01  0.45256062522E+01 -0.11600341755E+01  0.70438851666E+01  0.51100000000E-03 0. -1.
        -11    1    3    3    0    0 -0.80710584316E+01  0.59073941736E+01  0.86518690412E+01  0.13224754376E+02  0.51100000000E-03 0.  1.
         12    1    3    3    0    0 -0.31111660736E+01  0.20924829323E+02  0.17599639529E+02  0.27518632743E+02  0.00000000000E+00 0. -1.
</event>
<event>
 7    1  0.1542786E-009  0.4778727E+02  0.7816164E-02  0.1312668E+00
        -11   -1    0    0    0    0  0.00000000000E+00  0.00000000000E+00  0.45593999997E+02  0.45594000000E+02  0.51100000000E-03 0.  1.
         11   -1    0    0    0    0 -0.00000000000E+00 -0.00000000000E+00 -0.45593999997E+02  0.45594000000E+02  0.51100000000E-03 0. -1.
    9900012    2    1    2    0    0 -0.35041390912E+02  0.15726551861E+02 -0.20208902287E+02  0.47787271410E+02  0.20000001667E+02 0.  0.
        -12    1    1    2    0    0  0.35041390912E+02 -0.15726551861E+02  0.20208902287E+02  0.43400728590E+02  0.00000000000E+00 0.  1.
         11    1    3    3    0    0 -0.22254565926E+01  0.40781566541E+01 -0.25902870569E+01  0.53191734357E+01  0.51100000000E-03 0. -1.
        -11    1    3    3    0    0 -0.22785038935E+02 -0.18356581019E+00 -0.76786371527E+01  0.24044815750E+02  0.51100000000E-03 0.  1.
        -12    1    3    3    0    0 -0.10030895384E+02  0.11831961017E+02 -0.99399780779E+01  0.18423282224E+02  0.00000000000E+00 0.  1.
</event>
<event>
 7    1  0.1542786E-009  0.4778725E+02  0.7816164E-02  0.1312668E+00
        -11   -1    0    0    0    0  0.00000000000E+00  0.00000000000E+00  0.45593999997E+02  0.45594000000E+02  0.51100000000E-03 0.  1.
         11   -1    0    0    0    0 -0.00000000000E+00 -0.00000000000E+00 -0.45593999997E+02  0.45594000000E+02  0.51100000000E-03 0. -1.
    9900012    2    1    2    0    0  0.24684975267E+02  0.26401377691E+01 -0.35599255614E+02  0.47787247338E+02  0.19999891913E+02 0.  0.
        -12    1    1    2    0    0 -0.24684975267E+02 -0.26401377691E+01  0.35599255614E+02  0.43400752662E+02  0.00000000000E+00 0.  1.
         11    1    3    3    0    0  0.97383273593E+01  0.40705219365E+01 -0.91992071818E+01  0.14001056447E+02  0.51100000000E-03 0.  1.
        -11    1    3    3    0    0  0.70417368698E+01 -0.54997561045E+01 -0.22244970332E+02  0.23972319051E+02  0.51100000000E-03 0. -1.
         12    1    3    3    0    0  0.79049110381E+01  0.40693719371E+01 -0.41550781001E+01  0.98138718404E+01  0.00000000000E+00 0. -1.
</event>
<event>
 7    1  0.1542786E-009  0.4778728E+02  0.7816164E-02  0.1312668E+00
        -11   -1    0    0    0    0  0.00000000000E+00  0.00000000000E+00  0.45593999997E+02  0.45594000000E+02  0.51100000000E-03 0. -1.
         11   -1    0    0    0    0 -0.00000000000E+00 -0.00000000000E+00 -0.45593999997E+02  0.45594000000E+02  0.51100000000E-03 0.  1.
    9900012    2    1    2    0    0  0.17177588222E+02  0.15601681142E+02  0.36676152864E+02  0.47787283641E+02  0.20000057432E+02 0.  0.
        -12    1    1    2    0    0 -0.17177588222E+02 -0.15601681142E+02 -0.36676152864E+02  0.43400716359E+02  0.00000000000E+00 0.  1.
         11    1    3    3    0    0  0.11253666052E+02  0.15841480589E+02  0.22063869821E+02  0.29400881936E+02  0.51100000000E-03 0. -1.
        -11    1    3    3    0    0 -0.22332973147E+01  0.77414998613E+00  0.11881043682E+01  0.26454711013E+01  0.51100000000E-03 0.  1.
        -12    1    3    3    0    0  0.81572194846E+01 -0.10139494332E+01  0.13424178675E+02  0.15740930604E+02  0.00000000000E+00 0.  1.
</event>
<event>
 7    1  0.1542786E-009  0.4778727E+02  0.7816164E-02  0.1312668E+00
        -11   -1    0    0    0    0  0.00000000000E+00  0.00000000000E+00  0.45593999997E+02  0.45594000000E+02  0.51100000000E-03 0.  1.
         11   -1    0    0    0    0 -0.00000000000E+00 -0.00000000000E+00 -0.45593999997E+02  0.45594000000E+02  0.51100000000E-03 0. -1.
    9900012    2    1    2    0    0 -0.22316735951E+02 -0.35341127634E+01 -0.37055318031E+02  0.47787271309E+02  0.20000001206E+02 0.  0.
        -12    1    1    2    0    0  0.22316735951E+02  0.35341127634E+01  0.37055318031E+02  0.43400728691E+02  0.00000000000E+00 0.  1.
         11    1    3    3    0    0 -0.92795852914E+01 -0.50780217100E+01 -0.12871742413E+02  0.16660695084E+02  0.51100000000E-03 0. -1.
        -11    1    3    3    0    0 -0.81233339791E+01  0.57195892717E+01 -0.54874428819E+01  0.11349638145E+02  0.51100000000E-03 0.  1.
        -12    1    3    3    0    0 -0.49138166807E+01 -0.41756803251E+01 -0.18696132736E+02  0.19776938081E+02  0.00000000000E+00 0.  1.
</event>
<event>
 7    1  0.1542786E-009  0.4778727E+02  0.7816164E-02  0.1312668E+00
        -11   -1    0    0    0    0  0.00000000000E+00  0.00000000000E+00  0.45593999997E+02  0.45594000000E+02  0.51100000000E-03 0. -1.
         11   -1    0    0    0    0 -0.00000000000E+00 -0.00000000000E+00 -0.45593999997E+02  0.45594000000E+02  0.51100000000E-03 0.  1.
    9900012    2    1    2    0    0 -0.41026728352E+02  0.74350928592E+00  0.14137821015E+02  0.47787271569E+02  0.20000002390E+02 0.  0.
        -12    1    1    2    0    0  0.41026728352E+02 -0.74350928592E+00 -0.14137821015E+02  0.43400728431E+02  0.00000000000E+00 0.  1.
         11    1    3    3    0    0 -0.15946237644E+02  0.16625744905E+01  0.15269339323E+02  0.22140446530E+02  0.51100000000E-03 0. -1.
        -11    1    3    3    0    0 -0.13611546129E+02  0.10020866566E+01  0.14801908660E+01  0.13728413272E+02  0.51100000000E-03 0.  1.
        -12    1    3    3    0    0 -0.11468944579E+02 -0.19211518611E+01 -0.26117091746E+01  0.11918411767E+02  0.00000000000E+00 0.  1.
</event>
<event>
 7    1  0.1542786E-009  0.4778727E+02  0.7816164E-02  0.1312668E+00
        -11   -1    0    0    0    0  0.00000000000E+00  0.00000000000E+00  0.45593999997E+02  0.45594000000E+02  0.51100000000E-03 0. -1.
         11   -1    0    0    0    0 -0.00000000000E+00 -0.00000000000E+00 -0.45593999997E+02  0.45594000000E+02  0.51100000000E-03 0.  1.
    9900012    2    1    2    0    0 -0.40058182562E+01 -0.40444078127E+02 -0.15226740523E+02  0.47787266568E+02  0.19999979592E+02 0.  0.
        -12    1    1    2    0    0  0.40058182562E+01  0.40444078127E+02  0.15226740523E+02  0.43400733432E+02  0.00000000000E+00 0.  1.
         11    1    3    3    0    0 -0.26431489493E+01 -0.89201845657E+01 -0.70209379962E+00  0.93299981253E+01  0.51100000000E-03 0. -1.
        -11    1    3    3    0    0  0.20492845221E+01 -0.11225734179E+02  0.25748794322E+01  0.11698148540E+02  0.51100000000E-03 0.  1.
         12    1    3    3    0    0 -0.34119538290E+01 -0.20298159383E+02 -0.17099526156E+02  0.26759119903E+02  0.00000000000E+00 0. -1.
</event>
<event>
 7    1  0.1542786E-009  0.4778725E+02  0.7816164E-02  0.1312668E+00
        -11   -1    0    0    0    0  0.00000000000E+00  0.00000000000E+00  0.45593999997E+02  0.45594000000E+02  0.51100000000E-03 0. -1.
         11   -1    0    0    0    0 -0.00000000000E+00 -0.00000000000E+00 -0.45593999997E+02  0.45594000000E+02  0.51100000000E-03 0.  1.
    9900012    2    1    2    0    0  0.32790572229E+02 -0.16630539280E+02  0.23061407560E+02  0.47787251360E+02  0.19999910251E+02 0.  0.
        -12    1    1    2    0    0 -0.32790572229E+02  0.16630539280E+02 -0.23061407560E+02  0.43400748640E+02  0.00000000000E+00 0.  1.
         11    1    3    3    0    0  0.19850948030E+02 -0.12883691392E+02  0.13321282620E+02  0.27157065608E+02  0.51100000000E-03 0. -1.
        -11    1    3    3    0    0 -0.10866460817E+01 -0.39506661694E+01  0.15126917071E+01  0.43676995490E+01  0.51100000000E-03 0.  1.
        -12    1    3    3    0    0  0.14026270281E+02  0.20381828094E+00  0.82274332335E+01  0.16262486203E+02  0.00000000000E+00 0.  1.
</event>
<event>
 7    1  0.1542786E-009  0.4778728E+02  0.7816164E-02  0.1312668E+00
        -11   -1    0    0    0    0  0.00000000000E+00  0.00000000000E+00  0.45593999997E+02  0.45594000000E+02  0.51100000000E-03 0.  1.
         11   -1    0    0    0    0 -0.00000000000E+00 -0.00000000000E+00 -0.45593999997E+02  0.45594000000E+02  0.51100000000E-03 0. -1.
    9900012    2    1    2    0    0  0.55874229679E+01 -0.24755795090E+02 -0.35207293920E+02  0.47787283057E+02  0.20000054771E+02 0.  0.
        -12    1    1    2    0    0 -0.55874229679E+01  0.24755795090E+02  0.35207293920E+02  0.43400716943E+02  0.00000000000E+00 0.  1.
         11    1    3    3    0    0  0.40925149777E+01 -0.22896951671E+02 -0.33976844759E+02  0.41175782381E+02  0.51100000000E-03 0. -1.
        -11    1    3    3    0    0 -0.22055625321E+01 -0.14490300968E+01 -0.11730927494E+01  0.28879648828E+01  0.51100000000E-03 0.  1.
        -12    1    3    3    0    0  0.37004705223E+01 -0.40981332164E+00 -0.57356411932E-01  0.37235357932E+01  0.00000000000E+00 0.  1.
</event>
<event>
 7    1  0.1542786E-009  0.4778728E+02  0.7816164E-02  0.1312668E+00
        -11   -1    0    0    0    0  0.00000000000E+00  0.00000000000E+00  0.45593999997E+02  0.45594000000E+02  0.51100000000E-03 0.  1.
         11   -1    0    0    0    0 -0.00000000000E+00 -0.00000000000E+00 -0.45593999997E+02  0.45594000000E+02  0.51100000000E-03 0. -1.
    9900012    2    1    2    0    0 -0.24086870597E+02 -0.28047347003E+02  0.22733048920E+02  0.47787279704E+02  0.20000039480E+02 0.  0.
        -12    1    1    2    0    0  0.24086870597E+02  0.28047347003E+02 -0.22733048920E+02  0.43400720296E+02  0.00000000000E+00 0.  1.
         11    1    3    3    0    0 -0.15020595543E+02 -0.90306963927E+01  0.41424406039E+01  0.18009208262E+02  0.51100000000E-03 0. -1.
        -11    1    3    3    0    0 -0.99700733289E+01 -0.17754813973E+02  0.13438678667E+02  0.24397415149E+02  0.51100000000E-03 0.  1.
        -12    1    3    3    0    0  0.90379827492E+00 -0.12618366368E+01  0.51519296498E+01  0.53806562923E+01  0.00000000000E+00 0.  1.
</event>
<event>
 7    1  0.1542786E-009  0.4778727E+02  0.7816164E-02  0.1312668E+00
        -11   -1    0    0    0    0  0.00000000000E+00  0.00000000000E+00  0.45593999997E+02  0.45594000000E+02  0.51100000000E-03 0. -1.
         11   -1    0    0    0    0 -0.00000000000E+00 -0.00000000000E+00 -0.45593999997E+02  0.45594000000E+02  0.51100000000E-03 0.  1.
    9900012    2    1    2    0    0  0.10605108837E+02  0.38904088593E+02  0.16050761190E+02  0.47787269851E+02  0.19999994558E+02 0.  0.
        -12    1    1    2    0    0 -0.10605108837E+02 -0.38904088593E+02 -0.16050761190E+02  0.43400730149E+02  0.00000000000E+00 0.  1.
         11    1    3    3    0    0  0.13353786370E+02  0.13158950465E+02  0.64430015167E+01  0.19824072653E+02  0.51100000000E-03 0. -1.
        -11    1    3    3    0    0 -0.93118098185E+00  0.18654322316E+02  0.86411677247E+01  0.20579616591E+02  0.51100000000E-03 0.  1.
        -12    1    3    3    0    0 -0.18174965512E+01  0.70908158113E+01  0.96659194895E+00  0.73835806070E+01  0.00000000000E+00 0.  1.
</event>
<event>
 7    1  0.1542786E-009  0.4778725E+02  0.7816164E-02  0.1312668E+00
        -11   -1    0    0    0    0  0.00000000000E+00  0.00000000000E+00  0.45593999997E+02  0.45594000000E+02  0.51100000000E-03 0.  1.
         11   -1    0    0    0    0 -0.00000000000E+00 -0.00000000000E+00 -0.45593999997E+02  0.45594000000E+02  0.51100000000E-03 0. -1.
    9900012    2    1    2    0    0  0.13460128091E+02 -0.38760767297E+02 -0.14143994784E+02  0.47787254406E+02  0.19999924137E+02 0.  0.
        -12    1    1    2    0    0 -0.13460128091E+02  0.38760767297E+02  0.14143994784E+02  0.43400745594E+02  0.00000000000E+00 0.  1.
         11    1    3    3    0    0  0.11262279116E+02 -0.22762897346E+02 -0.13024246234E+02  0.28541538443E+02  0.51100000000E-03 0. -1.
        -11    1    3    3    0    0  0.45006776380E+01 -0.20373744473E+01  0.66325122061E+00  0.49846661155E+01  0.51100000000E-03 0.  1.
        -12    1    3    3    0    0 -0.23028286622E+01 -0.13960495504E+02 -0.17829997701E+01  0.14261049847E+02  0.00000000000E+00 0.  1.
</event>
<event>
 7    1  0.1542786E-009  0.4778727E+02  0.7816164E-02  0.1312668E+00
        -11   -1    0    0    0    0  0.00000000000E+00  0.00000000000E+00  0.45593999997E+02  0.45594000000E+02  0.51100000000E-03 0.  1.
         11   -1    0    0    0    0 -0.00000000000E+00 -0.00000000000E+00 -0.45593999997E+02  0.45594000000E+02  0.51100000000E-03 0. -1.
    9900012    2    1    2    0    0  0.39883292717E+02  0.17066663457E+02  0.12943817324E+01  0.47787268859E+02  0.19999990034E+02 0.  0.
        -12    1    1    2    0    0 -0.39883292717E+02 -0.17066663457E+02 -0.12943817324E+01  0.43400731141E+02  0.00000000000E+00 0.  1.
         11    1    3    3    0    0  0.18994837521E+02  0.68840624537E+01 -0.22660099548E+01  0.20330493592E+02  0.51100000000E-03 0. -1.
        -11    1    3    3    0    0  0.62490675407E+01 -0.14705219237E+01 -0.36729011622E+01  0.73961803023E+01  0.51100000000E-03 0.  1.
         12    1    3    3    0    0  0.14639387656E+02  0.11653122927E+02  0.72332928494E+01  0.20060594965E+02  0.00000000000E+00 0. -1.
</event>
<event>
 7    1  0.1542786E-009  0.4778727E+02  0.7816164E-02  0.1312668E+00
        -11   -1    0    0    0    0  0.00000000000E+00  0.00000000000E+00  0.45593999997E+02  0.45594000000E+02  0.51100000000E-03 0.  1.
         11   -1    0    0    0    0 -0.00000000000E+00 -0.00000000000E+00 -0.45593999997E+02  0.45594000000E+02  0.51100000000E-03 0. -1.
    9900012    2    1    2    0    0  0.24090134015E+02  0.86151006285E+01 -0.35058077981E+02  0.47787270198E+02  0.19999996139E+02 0.  0.
        -12    1    1    2    0    0 -0.24090134015E+02 -0.86151006285E+01  0.35058077981E+02  0.43400729802E+02  0.00000000000E+00 0.  1.
         11    1    3    3    0    0  0.14015134955E+01  0.24482776529E+01 -0.15713544116E+02  0.15964766597E+02  0.51100000000E-03 0. -1.
        -11    1    3    3    0    0  0.12987912281E+02  0.17008420141E+00 -0.14398632385E+02  0.19391632445E+02  0.51100000000E-03 0.  1.
        -12    1    3    3    0    0  0.97007082381E+01  0.59967387742E+01 -0.49459014798E+01  0.12430871156E+02  0.00000000000E+00 0.  1.
</event>
<event>
 7    1  0.1542786E-009  0.4778727E+02  0.7816164E-02  0.1312668E+00
        -11   -1    0    0    0    0  0.00000000000E+00  0.00000000000E+00  0.45593999997E+02  0.45594000000E+02  0.51100000000E-03 0.  1.
         11   -1    0    0    0    0 -0.00000000000E+00 -0.00000000000E+00 -0.45593999997E+02  0.45594000000E+02  0.51100000000E-03 0. -1.
    9900012    2    1    2    0    0  0.89432413507E+01  0.34378067532E+02 -0.24935724848E+02  0.47787268822E+02  0.19999989869E+02 0.  0.
        -12    1    1    2    0    0 -0.89432413507E+01 -0.34378067532E+02  0.24935724848E+02  0.43400731178E+02  0.00000000000E+00 0.  1.
         11    1    3    3    0    0  0.41553723088E+01  0.35742325208E+01 -0.76255766123E+01  0.93910423313E+01  0.51100000000E-03 0. -1.
        -11    1    3    3    0    0  0.92154713313E-01 -0.37497544513E+00 -0.42508170842E+01  0.42683187815E+01  0.51100000000E-03 0.  1.
        -12    1    3    3    0    0  0.46957143285E+01  0.31178810456E+02 -0.13059331151E+02  0.34127907710E+02  0.00000000000E+00 0.  1.
</event>
<event>
 7    1  0.1542786E-009  0.4778727E+02  0.7816164E-02  0.1312668E+00
        -11   -1    0    0    0    0  0.00000000000E+00  0.00000000000E+00  0.45593999997E+02  0.45594000000E+02  0.51100000000E-03 0.  1.
         11   -1    0    0    0    0 -0.00000000000E+00 -0.00000000000E+00 -0.45593999997E+02  0.45594000000E+02  0.51100000000E-03 0. -1.
    9900012    2    1    2    0    0 -0.25769536789E+02  0.60081662426E+01 -0.34401399235E+02  0.47787270083E+02  0.19999995618E+02 0.  0.
        -12    1    1    2    0    0  0.25769536789E+02 -0.60081662426E+01  0.34401399235E+02  0.43400729917E+02  0.00000000000E+00 0.  1.
         11    1    3    3    0    0 -0.12830601174E+02  0.41776154057E+01 -0.14209225795E+02  0.19595379428E+02  0.51100000000E-03 0. -1.
        -11    1    3    3    0    0  0.32223122195E+01  0.10832243246E+01 -0.25138826982E+01  0.42280347041E+01  0.51100000000E-03 0.  1.
         12    1    3    3    0    0 -0.16161247835E+02  0.74732651234E+00 -0.17678290742E+02  0.23963855952E+02  0.00000000000E+00 0. -1.
</event>
<event>
 7    1  0.1542786E-009  0.4778727E+02  0.7816164E-02  0.1312668E+00
        -11   -1    0    0    0    0  0.00000000000E+00  0.00000000000E+00  0.45593999997E+02  0.45594000000E+02  0.51100000000E-03 0. -1.
         11   -1    0    0    0    0 -0.00000000000E+00 -0.00000000000E+00 -0.45593999997E+02  0.45594000000E+02  0.51100000000E-03 0.  1.
    9900012    2    1    2    0    0 -0.17661919148E+02  0.13973286338E+01  0.39619784811E+02  0.47787271160E+02  0.20000000529E+02 0.  0.
        -12    1    1    2    0    0  0.17661919148E+02 -0.13973286338E+01 -0.39619784811E+02  0.43400728840E+02  0.00000000000E+00 0.  1.
         11    1    3    3    0    0 -0.97205861621E+00 -0.10462163733E+00 -0.58697411785E+00  0.11403431573E+01  0.51100000000E-03 0.  1.
        -11    1    3    3    0    0 -0.10713093876E+01 -0.29108889873E+01 -0.19422423675E+00  0.31078452045E+01  0.51100000000E-03 0. -1.
         12    1    3    3    0    0 -0.15618551144E+02  0.44128392584E+01  0.40400983166E+02  0.43539082799E+02  0.00000000000E+00 0. -1.
</event>
<event>
 7    1  0.1542786E-009  0.4778727E+02  0.7816164E-02  0.1312668E+00
        -11   -1    0    0    0    0  0.00000000000E+00  0.00000000000E+00  0.45593999997E+02  0.45594000000E+02  0.51100000000E-03 0.  1.
         11   -1    0    0    0    0 -0.00000000000E+00 -0.00000000000E+00 -0.45593999997E+02  0.45594000000E+02  0.51100000000E-03 0. -1.
    9900012    2    1    2    0    0  0.33028238933E+02 -0.64645061387E+01  0.27403813854E+02  0.47787269357E+02  0.19999992305E+02 0.  0.
        -12    1    1    2    0    0 -0.33028238933E+02  0.64645061387E+01 -0.27403813854E+02  0.43400730643E+02  0.00000000000E+00 0.  1.
         11    1    3    3    0    0  0.13117096522E+02 -0.56972739174E+00  0.68746357546E+01  0.14820372043E+02  0.51100000000E-03 0. -1.
        -11    1    3    3    0    0  0.11669853287E+02  0.29408594346E+01  0.43995353194E+01  0.12813666191E+02  0.51100000000E-03 0.  1.
        -12    1    3    3    0    0  0.82412891235E+01 -0.88356381816E+01  0.16129642780E+02  0.20153231123E+02  0.00000000000E+00 0.  1.
</event>
<event>
 7    1  0.1542786E-009  0.4778727E+02  0.7816164E-02  0.1312668E+00
        -11   -1    0    0    0    0  0.00000000000E+00  0.00000000000E+00  0.45593999997E+02  0.45594000000E+02  0.51100000000E-03 0.  1.
         11   -1    0    0    0    0 -0.00000000000E+00 -0.00000000000E+00 -0.45593999997E+02  0.45594000000E+02  0.51100000000E-03 0. -1.
    9900012    2    1    2    0    0 -0.26607052709E+02  0.92185304872E+01 -0.33025847793E+02  0.47787272119E+02  0.20000004898E+02 0.  0.
        -12    1    1    2    0    0  0.26607052709E+02 -0.92185304872E+01  0.33025847793E+02  0.43400727881E+02  0.00000000000E+00 0.  1.
         11    1    3    3    0    0 -0.36000469585E+00 -0.17271972385E+01 -0.12620580585E+01  0.21692405320E+01  0.51100000000E-03 0. -1.
        -11    1    3    3    0    0 -0.28107090042E+02  0.11580526963E+02 -0.31227799037E+02  0.43580873653E+02  0.51100000000E-03 0.  1.
         12    1    3    3    0    0  0.18600420288E+01 -0.63479923726E+00 -0.53599069734E+00  0.20371579340E+01  0.00000000000E+00 0. -1.
</event>
<event>
 7    1  0.1542786E-009  0.4778728E+02  0.7816164E-02  0.1312668E+00
        -11   -1    0    0    0    0  0.00000000000E+00  0.00000000000E+00  0.45593999997E+02  0.45594000000E+02  0.51100000000E-03 0.  1.
         11   -1    0    0    0    0 -0.00000000000E+00 -0.00000000000E+00 -0.45593999997E+02  0.45594000000E+02  0.51100000000E-03 0. -1.
    9900012    2    1    2    0    0  0.19206938204E+02  0.31685274354E+02 -0.22599988367E+02  0.47787279266E+02  0.20000037486E+02 0.  0.
        -12    1    1    2    0    0 -0.19206938204E+02 -0.31685274354E+02  0.22599988367E+02  0.43400720734E+02  0.00000000000E+00 0.  1.
         11    1    3    3    0    0  0.14740670870E+02  0.21548618941E+02 -0.16103444510E+02  0.30674929198E+02  0.51100000000E-03 0. -1.
        -11    1    3    3    0    0  0.14282367865E+01  0.44954799477E+01 -0.90576216893E+01  0.10212233409E+02  0.51100000000E-03 0.  1.
         12    1    3    3    0    0  0.30380305474E+01  0.56411754652E+01  0.25610778328E+01  0.69001166585E+01  0.00000000000E+00 0. -1.
</event>
<event>
 7    1  0.1542786E-009  0.4778726E+02  0.7816164E-02  0.1312668E+00
        -11   -1    0    0    0    0  0.00000000000E+00  0.00000000000E+00  0.45593999997E+02  0.45594000000E+02  0.51100000000E-03 0. -1.
         11   -1    0    0    0    0 -0.00000000000E+00 -0.00000000000E+00 -0.45593999997E+02  0.45594000000E+02  0.51100000000E-03 0.  1.
    9900012    2    1    2    0    0  0.38748286384E+02 -0.18494871209E+02  0.63351332169E+01  0.47787264159E+02  0.19999968605E+02 0.  0.
        -12    1    1    2    0    0 -0.38748286384E+02  0.18494871209E+02 -0.63351332169E+01  0.43400735841E+02  0.00000000000E+00 0.  1.
         11    1    3    3    0    0  0.62125542897E+01 -0.29176178219E+01  0.53739954406E+01  0.87171183205E+01  0.51100000000E-03 0. -1.
        -11    1    3    3    0    0  0.26460236987E+02 -0.63699832978E+01 -0.29286671470E+01  0.27373306708E+02  0.51100000000E-03 0.  1.
         12    1    3    3    0    0  0.60754951069E+01 -0.92072700889E+01  0.38898049234E+01  0.11696839130E+02  0.00000000000E+00 0. -1.
</event>
<event>
 7    1  0.1542786E-009  0.4778727E+02  0.7816164E-02  0.1312668E+00
        -11   -1    0    0    0    0  0.00000000000E+00  0.00000000000E+00  0.45593999997E+02  0.45594000000E+02  0.51100000000E-03 0.  1.
         11   -1    0    0    0    0 -0.00000000000E+00 -0.00000000000E+00 -0.45593999997E+02  0.45594000000E+02  0.51100000000E-03 0. -1.
    9900012    2    1    2    0    0  0.17454007853E+02  0.40768281110E+01 -0.39526706228E+02  0.47787269328E+02  0.19999992175E+02 0.  0.
        -12    1    1    2    0    0 -0.17454007853E+02 -0.40768281110E+01  0.39526706228E+02  0.43400730672E+02  0.00000000000E+00 0.  1.
         11    1    3    3    0    0  0.18616650606E+01 -0.44173101086E+01 -0.10210243732E+02  0.11279516954E+02  0.51100000000E-03 0. -1.
        -11    1    3    3    0    0  0.50710994434E+00  0.65167708826E+01 -0.84166339354E+01  0.10656696969E+02  0.51100000000E-03 0.  1.
         12    1    3    3    0    0  0.15085232848E+02  0.19773673369E+01 -0.20899828561E+02  0.25851055405E+02  0.00000000000E+00 0. -1.
</event>
<event>
 7    1  0.1542786E-009  0.4778726E+02  0.7816164E-02  0.1312668E+00
        -11   -1    0    0    0    0  0.00000000000E+00  0.00000000000E+00  0.45593999997E+02  0.45594000000E+02  0.51100000000E-03 0.  1.
         11   -1    0    0    0    0 -0.00000000000E+00 -0.00000000000E+00 -0.45593999997E+02  0.45594000000E+02  0.51100000000E-03 0. -1.
    9900012    2    1    2    0    0 -0.65331330136E+01 -0.39243144680E+02 -0.17346978237E+02  0.47787264000E+02  0.19999967883E+02 0.  0.
        -12    1    1    2    0    0  0.65331330136E+01  0.39243144680E+02  0.17346978237E+02  0.43400736000E+02  0.00000000000E+00 0.  1.
         11    1    3    3    0    0  0.39814842210E+01 -0.20911562544E+02 -0.11858184225E+02  0.24367236159E+02  0.51100000000E-03 0. -1.
        -11    1    3    3    0    0 -0.38542256304E+01 -0.73818990652E+00 -0.48602197936E+00  0.39542631644E+01  0.51100000000E-03 0.  1.
        -12    1    3    3    0    0 -0.66603916042E+01 -0.17593392230E+02 -0.50027720326E+01  0.19465764677E+02  0.00000000000E+00 0.  1.
</event>
<event>
 7    1  0.1542786E-009  0.4778727E+02  0.7816164E-02  0.1312668E+00
        -11   -1    0    0    0    0  0.00000000000E+00  0.00000000000E+00  0.45593999997E+02  0.45594000000E+02  0.51100000000E-03 0. -1.
         11   -1    0    0    0    0 -0.00000000000E+00 -0.00000000000E+00 -0.45593999997E+02  0.45594000000E+02  0.51100000000E-03 0.  1.
    9900012    2    1    2    0    0 -0.40165827806E+02 -0.11169017556E+02  0.12065764164E+02  0.47787270267E+02  0.19999996456E+02 0.  0.
        -12    1    1    2    0    0  0.40165827806E+02  0.11169017556E+02 -0.12065764164E+02  0.43400729733E+02  0.00000000000E+00 0.  1.
         11    1    3    3    0    0 -0.29757182604E+02 -0.76792310041E+01  0.15660508129E+01  0.30771951851E+02  0.51100000000E-03 0. -1.
        -11    1    3    3    0    0  0.10671509767E-01 -0.28853266486E+01  0.16005826975E+01  0.32995589073E+01  0.51100000000E-03 0.  1.
        -12    1    3    3    0    0 -0.10419316712E+02 -0.60445990329E+00  0.88991306532E+01  0.13715759509E+02  0.00000000000E+00 0.  1.
</event>
<event>
 7    1  0.1542786E-009  0.4778727E+02  0.7816164E-02  0.1312668E+00
        -11   -1    0    0    0    0  0.00000000000E+00  0.00000000000E+00  0.45593999997E+02  0.45594000000E+02  0.51100000000E-03 0. -1.
         11   -1    0    0    0    0 -0.00000000000E+00 -0.00000000000E+00 -0.45593999997E+02  0.45594000000E+02  0.51100000000E-03 0.  1.
    9900012    2    1    2    0    0  0.16536295572E+02  0.29998009121E+02  0.26651334451E+02  0.47787271314E+02  0.20000001230E+02 0.  0.
        -12    1    1    2    0    0 -0.16536295572E+02 -0.29998009121E+02 -0.26651334451E+02  0.43400728686E+02  0.00000000000E+00 0.  1.
         11    1    3    3    0    0  0.73923604124E+01  0.19645817086E+02  0.20455405992E+02  0.29309192347E+02  0.51100000000E-03 0. -1.
        -11    1    3    3    0    0 -0.19527715069E+01 -0.35858064668E+00  0.73977836857E+00  0.21187658988E+01  0.51100000000E-03 0.  1.
         12    1    3    3    0    0  0.11096706667E+02  0.10710772681E+02  0.54561500897E+01  0.16359313069E+02  0.00000000000E+00 0. -1.
</event>
<event>
 7    1  0.1542786E-009  0.4778726E+02  0.7816164E-02  0.1312668E+00
        -11   -1    0    0    0    0  0.00000000000E+00  0.00000000000E+00  0.45593999997E+02  0.45594000000E+02  0.51100000000E-03 0.  1.
         11   -1    0    0    0    0 -0.00000000000E+00 -0.00000000000E+00 -0.45593999997E+02  0.45594000000E+02  0.51100000000E-03 0. -1.
    9900012    2    1    2    0    0  0.70664205794E+01 -0.42510726576E+02 -0.51505063008E+01  0.47787263958E+02  0.19999967689E+02 0.  0.
        -12    1    1    2    0    0 -0.70664205794E+01  0.42510726576E+02  0.51505063008E+01  0.43400736042E+02  0.00000000000E+00 0.  1.
         11    1    3    3    0    0 -0.19545001093E+01 -0.73680964391E+01 -0.42602120244E+00  0.76348156585E+01  0.51100000000E-03 0. -1.
        -11    1    3    3    0    0  0.13419545071E+02 -0.22513871367E+02 -0.82593058156E+00  0.26222905167E+02  0.51100000000E-03 0.  1.
         12    1    3    3    0    0 -0.43986243825E+01 -0.12628758771E+02 -0.38985545168E+01  0.13929543132E+02  0.00000000000E+00 0. -1.
</event>
<event>
 7    1  0.1542786E-009  0.4778727E+02  0.7816164E-02  0.1312668E+00
        -11   -1    0    0    0    0  0.00000000000E+00  0.00000000000E+00  0.45593999997E+02  0.45594000000E+02  0.51100000000E-03 0.  1.
         11   -1    0    0    0    0 -0.00000000000E+00 -0.00000000000E+00 -0.45593999997E+02  0.45594000000E+02  0.51100000000E-03 0. -1.
    9900012    2    1    2    0    0 -0.14260017001E+02 -0.34840438574E+02 -0.21596738688E+02  0.47787269973E+02  0.19999995116E+02 0.  0.
        -12    1    1    2    0    0  0.14260017001E+02  0.34840438574E+02  0.21596738688E+02  0.43400730027E+02  0.00000000000E+00 0.  1.
         11    1    3    3    0    0 -0.80877223091E+01 -0.21874757144E+02 -0.90874269890E+01  0.25029933716E+02  0.51100000000E-03 0. -1.
        -11    1    3    3    0    0  0.12384844659E+00 -0.74485475198E+01  0.29940459381E+00  0.74555913222E+01  0.51100000000E-03 0.  1.
         12    1    3    3    0    0 -0.62961431385E+01 -0.55171339104E+01 -0.12808716292E+02  0.15301744935E+02  0.00000000000E+00 0. -1.
</event>
<event>
 7    1  0.1542786E-009  0.4778727E+02  0.7816164E-02  0.1312668E+00
        -11   -1    0    0    0    0  0.00000000000E+00  0.00000000000E+00  0.45593999997E+02  0.45594000000E+02  0.51100000000E-03 0.  1.
         11   -1    0    0    0    0 -0.00000000000E+00 -0.00000000000E+00 -0.45593999997E+02  0.45594000000E+02  0.51100000000E-03 0. -1.
    9900012    2    1    2    0    0 -0.31691605217E+02  0.22613972708E+02 -0.19180033318E+02  0.47787270963E+02  0.19999999629E+02 0.  0.
        -12    1    1    2    0    0  0.31691605217E+02 -0.22613972708E+02  0.19180033318E+02  0.43400729037E+02  0.00000000000E+00 0.  1.
         11    1    3    3    0    0 -0.29061165045E+00  0.61905831707E+00  0.20908689219E+01  0.21998685054E+01  0.51100000000E-03 0. -1.
        -11    1    3    3    0    0 -0.74888980624E+01 -0.44280922066E+00 -0.46297545579E+01  0.88155715482E+01  0.51100000000E-03 0.  1.
         12    1    3    3    0    0 -0.23912095504E+02  0.22437723611E+02 -0.16641147682E+02  0.36771830909E+02  0.00000000000E+00 0. -1.
</event>
<event>
 7    1  0.1542786E-009  0.4778727E+02  0.7816164E-02  0.1312668E+00
        -11   -1    0    0    0    0  0.00000000000E+00  0.00000000000E+00  0.45593999997E+02  0.45594000000E+02  0.51100000000E-03 0.  1.
         11   -1    0    0    0    0 -0.00000000000E+00 -0.00000000000E+00 -0.45593999997E+02  0.45594000000E+02  0.51100000000E-03 0. -1.
    9900012    2    1    2    0    0 -0.21172577848E+02 -0.13224460899E+02 -0.35502939546E+02  0.47787272642E+02  0.20000007283E+02 0.  0.
        -12    1    1    2    0    0  0.21172577848E+02  0.13224460899E+02  0.35502939546E+02  0.43400727358E+02  0.00000000000E+00 0.  1.
         11    1    3    3    0    0 -0.20562374183E+02 -0.15126678346E+02 -0.24803728838E+02  0.35592872802E+02  0.51100000000E-03 0. -1.
        -11    1    3    3    0    0 -0.76018427542E+00  0.15540455746E+01 -0.26133064049E+00  0.17496376040E+01  0.51100000000E-03 0.  1.
         12    1    3    3    0    0  0.14998060992E+00  0.34817187258E+00 -0.10437880068E+02  0.10444762235E+02  0.00000000000E+00 0. -1.
</event>
<event>
 7    1  0.1566774E-009  0.4778727E+02  0.7816164E-02  0.1312668E+00
        -11   -1    0    0    0    0  0.00000000000E+00  0.00000000000E+00  0.45593999997E+02  0.45594000000E+02  0.51100000000E-03 0.  1.
         11   -1    0    0    0    0 -0.00000000000E+00 -0.00000000000E+00 -0.45593999997E+02  0.45594000000E+02  0.51100000000E-03 0. -1.
    9900012    2    1    2    0    0  0.36221527320E+02 -0.16371267853E+01 -0.23852551365E+02  0.47787269221E+02  0.19999991687E+02 0.  0.
        -12    1    1    2    0    0 -0.36221527320E+02  0.16371267853E+01  0.23852551365E+02  0.43400730779E+02  0.00000000000E+00 0.  1.
         11    1    3    3    0    0  0.15800853843E+02  0.17914043506E+01 -0.18459900203E+02  0.24364811255E+02  0.51100000000E-03 0. -1.
        -11    1    3    3    0    0 -0.43156001122E+00 -0.59474908906E+00  0.11677050704E+01  0.13796760180E+01  0.51100000000E-03 0.  1.
        -12    1    3    3    0    0  0.20852233488E+02 -0.28337820469E+01 -0.65603562328E+01  0.22042781948E+02  0.00000000000E+00 0.  1.
</event>
<event>
 7    1  0.1542786E-009  0.4778727E+02  0.7816164E-02  0.1312668E+00
        -11   -1    0    0    0    0  0.00000000000E+00  0.00000000000E+00  0.45593999997E+02  0.45594000000E+02  0.51100000000E-03 0. -1.
         11   -1    0    0    0    0 -0.00000000000E+00 -0.00000000000E+00 -0.45593999997E+02  0.45594000000E+02  0.51100000000E-03 0.  1.
    9900012    2    1    2    0    0 -0.18690888397E+02 -0.18136790765E+02  0.34717874754E+02  0.47787270562E+02  0.19999997801E+02 0.  0.
        -12    1    1    2    0    0  0.18690888397E+02  0.18136790765E+02 -0.34717874754E+02  0.43400729438E+02  0.00000000000E+00 0.  1.
         11    1    3    3    0    0 -0.11102777996E+01  0.17803775932E+01  0.36279907594E+01  0.41910354781E+01  0.51100000000E-03 0. -1.
        -11    1    3    3    0    0 -0.59823066903E+01 -0.51638486288E+00  0.14082193201E+02  0.15308912838E+02  0.51100000000E-03 0.  1.
         12    1    3    3    0    0 -0.11598303907E+02 -0.19400783495E+02  0.17007690794E+02  0.28287322246E+02  0.00000000000E+00 0. -1.
</event>
<event>
 7    1  0.1542786E-009  0.4778727E+02  0.7816164E-02  0.1312668E+00
        -11   -1    0    0    0    0  0.00000000000E+00  0.00000000000E+00  0.45593999997E+02  0.45594000000E+02  0.51100000000E-03 0. -1.
         11   -1    0    0    0    0 -0.00000000000E+00 -0.00000000000E+00 -0.45593999997E+02  0.45594000000E+02  0.51100000000E-03 0.  1.
    9900012    2    1    2    0    0  0.50467620727E+01 -0.43100276809E+02 -0.72091846518E+00  0.47787269686E+02  0.19999993804E+02 0.  0.
        -12    1    1    2    0    0 -0.50467620727E+01  0.43100276809E+02  0.72091846518E+00  0.43400730314E+02  0.00000000000E+00 0.  1.
         11    1    3    3    0    0 -0.35393346333E+01 -0.68246381664E+01  0.20560736081E+01  0.79580157509E+01  0.51100000000E-03 0. -1.
        -11    1    3    3    0    0  0.80713748288E+01 -0.88018600450E+01  0.14403661694E+01  0.12028902146E+02  0.51100000000E-03 0.  1.
        -12    1    3    3    0    0  0.51472187724E+00 -0.27473778597E+02 -0.42173582427E+01  0.27800351788E+02  0.00000000000E+00 0.  1.
</event>
<event>
 7    1  0.1542786E-009  0.4778727E+02  0.7816164E-02  0.1312668E+00
        -11   -1    0    0    0    0  0.00000000000E+00  0.00000000000E+00  0.45593999997E+02  0.45594000000E+02  0.51100000000E-03 0. -1.
         11   -1    0    0    0    0 -0.00000000000E+00 -0.00000000000E+00 -0.45593999997E+02  0.45594000000E+02  0.51100000000E-03 0.  1.
    9900012    2    1    2    0    0  0.82629415590E+01 -0.32898162763E+02  0.27075046993E+02  0.47787268600E+02  0.19999988856E+02 0.  0.
        -12    1    1    2    0    0 -0.82629415590E+01  0.32898162763E+02 -0.27075046993E+02  0.43400731400E+02  0.00000000000E+00 0.  1.
         11    1    3    3    0    0 -0.20537269379E+01 -0.51981330312E+01 -0.17047458612E+01  0.58433329580E+01  0.51100000000E-03 0.  1.
        -11    1    3    3    0    0  0.90114235989E+01 -0.13827462597E+02  0.14144276842E+02  0.21736261058E+02  0.51100000000E-03 0. -1.
        -12    1    3    3    0    0  0.13052448980E+01 -0.13872567134E+02  0.14635516012E+02  0.20207674584E+02  0.00000000000E+00 0.  1.
</event>
<event>
 7    1  0.1542786E-009  0.4778727E+02  0.7816164E-02  0.1312668E+00
        -11   -1    0    0    0    0  0.00000000000E+00  0.00000000000E+00  0.45593999997E+02  0.45594000000E+02  0.51100000000E-03 0.  1.
         11   -1    0    0    0    0 -0.00000000000E+00 -0.00000000000E+00 -0.45593999997E+02  0.45594000000E+02  0.51100000000E-03 0. -1.
    9900012    2    1    2    0    0 -0.11763035600E+02  0.55602287218E+01 -0.41404567427E+02  0.47787270124E+02  0.19999995802E+02 0.  0.
        -12    1    1    2    0    0  0.11763035600E+02 -0.55602287218E+01  0.41404567427E+02  0.43400729876E+02  0.00000000000E+00 0.  1.
         11    1    3    3    0    0 -0.81637511554E+01 -0.30833472736E+01 -0.16620037825E+02  0.18771774581E+02  0.51100000000E-03 0. -1.
        -11    1    3    3    0    0 -0.45553184495E+01  0.46502329100E+01 -0.36042310454E+01  0.74408382581E+01  0.51100000000E-03 0.  1.
         12    1    3    3    0    0  0.95603400489E+00  0.39933430853E+01 -0.21180298556E+02  0.21574657285E+02  0.00000000000E+00 0. -1.
</event>
<event>
 7    1  0.1542786E-009  0.4778728E+02  0.7816164E-02  0.1312668E+00
        -11   -1    0    0    0    0  0.00000000000E+00  0.00000000000E+00  0.45593999997E+02  0.45594000000E+02  0.51100000000E-03 0. -1.
         11   -1    0    0    0    0 -0.00000000000E+00 -0.00000000000E+00 -0.45593999997E+02  0.45594000000E+02  0.51100000000E-03 0.  1.
    9900012    2    1    2    0    0  0.24252464690E+02  0.18158708956E+02  0.31075745911E+02  0.47787277213E+02  0.20000028124E+02 0.  0.
        -12    1    1    2    0    0 -0.24252464690E+02 -0.18158708956E+02 -0.31075745911E+02  0.43400722787E+02  0.00000000000E+00 0.  1.
         11    1    3    3    0    0  0.15025105214E+02  0.17902099510E+02  0.26266984614E+02  0.35159542581E+02  0.51100000000E-03 0. -1.
        -11    1    3    3    0    0  0.57285571552E+01  0.24206391135E+01 -0.10409685740E+00  0.62198631186E+01  0.51100000000E-03 0.  1.
        -12    1    3    3    0    0  0.34988023218E+01 -0.21640296667E+01  0.49128581539E+01  0.64078715129E+01  0.00000000000E+00 0.  1.
</event>
<event>
 7    1  0.1542786E-009  0.4778727E+02  0.7816164E-02  0.1312668E+00
        -11   -1    0    0    0    0  0.00000000000E+00  0.00000000000E+00  0.45593999997E+02  0.45594000000E+02  0.51100000000E-03 0.  1.
         11   -1    0    0    0    0 -0.00000000000E+00 -0.00000000000E+00 -0.45593999997E+02  0.45594000000E+02  0.51100000000E-03 0. -1.
    9900012    2    1    2    0    0 -0.16835440816E+02  0.35344006401E+02 -0.18734784774E+02  0.47787274010E+02  0.20000013520E+02 0.  0.
        -12    1    1    2    0    0  0.16835440816E+02 -0.35344006401E+02  0.18734784774E+02  0.43400725990E+02  0.00000000000E+00 0.  1.
         11    1    3    3    0    0 -0.60833656208E+01  0.16542464509E+02 -0.24907953705E+01  0.17800689064E+02  0.51100000000E-03 0. -1.
        -11    1    3    3    0    0 -0.42761141074E+01 -0.96471383027E+00 -0.23608876499E+01  0.49789170902E+01  0.51100000000E-03 0.  1.
         12    1    3    3    0    0 -0.64759610881E+01  0.19766255723E+02 -0.13883101753E+02  0.25007667856E+02  0.00000000000E+00 0. -1.
</event>
<event>
 7    1  0.1542786E-009  0.4778727E+02  0.7816164E-02  0.1312668E+00
        -11   -1    0    0    0    0  0.00000000000E+00  0.00000000000E+00  0.45593999997E+02  0.45594000000E+02  0.51100000000E-03 0.  1.
         11   -1    0    0    0    0 -0.00000000000E+00 -0.00000000000E+00 -0.45593999997E+02  0.45594000000E+02  0.51100000000E-03 0. -1.
    9900012    2    1    2    0    0 -0.21014998728E+02  0.21562597208E+02 -0.31257757548E+02  0.47787272163E+02  0.20000005099E+02 0.  0.
        -12    1    1    2    0    0  0.21014998728E+02 -0.21562597208E+02  0.31257757548E+02  0.43400727837E+02  0.00000000000E+00 0.  1.
         11    1    3    3    0    0 -0.19550067298E+02  0.19996559923E+02 -0.22118430088E+02  0.35655188822E+02  0.51100000000E-03 0. -1.
        -11    1    3    3    0    0 -0.39813154996E+01  0.22646336345E+00 -0.82209494783E+01  0.91370766303E+01  0.51100000000E-03 0.  1.
        -12    1    3    3    0    0  0.25163840700E+01  0.13395739220E+01 -0.91837798188E+00  0.29950067108E+01  0.00000000000E+00 0.  1.
</event>
<event>
 7    1  0.2787638E-009  0.4778730E+02  0.7816164E-02  0.1312668E+00
        -11   -1    0    0    0    0  0.00000000000E+00  0.00000000000E+00  0.45593999997E+02  0.45594000000E+02  0.51100000000E-03 0. -1.
         11   -1    0    0    0    0 -0.00000000000E+00 -0.00000000000E+00 -0.45593999997E+02  0.45594000000E+02  0.51100000000E-03 0.  1.
    9900012    2    1    2    0    0 -0.14053715572E+02  0.33667096767E+02  0.23508296793E+02  0.47787304796E+02  0.20000153886E+02 0.  0.
        -12    1    1    2    0    0  0.14053715572E+02 -0.33667096767E+02 -0.23508296793E+02  0.43400695204E+02  0.00000000000E+00 0.  1.
         11    1    3    3    0    0 -0.37045955681E+01  0.18333843398E+02  0.17245366152E+02  0.25441236135E+02  0.51100000000E-03 0. -1.
        -11    1    3    3    0    0 -0.10939121874E+02  0.10907879548E+02  0.81882350373E+01  0.17484090393E+02  0.51100000000E-03 0.  1.
        -12    1    3    3    0    0  0.59000186930E+00  0.44253738209E+01 -0.19253043965E+01  0.48619782681E+01  0.00000000000E+00 0.  1.
</event>
<event>
 7    1  0.1542786E-009  0.4778727E+02  0.7816164E-02  0.1312668E+00
        -11   -1    0    0    0    0  0.00000000000E+00  0.00000000000E+00  0.45593999997E+02  0.45594000000E+02  0.51100000000E-03 0.  1.
         11   -1    0    0    0    0 -0.00000000000E+00 -0.00000000000E+00 -0.45593999997E+02  0.45594000000E+02  0.51100000000E-03 0. -1.
    9900012    2    1    2    0    0  0.17442889035E+01 -0.32261664980E+02 -0.28978716453E+02  0.47787267537E+02  0.19999984009E+02 0.  0.
        -12    1    1    2    0    0 -0.17442889035E+01  0.32261664980E+02  0.28978716453E+02  0.43400732463E+02  0.00000000000E+00 0.  1.
         11    1    3    3    0    0  0.66615983302E+01 -0.22502708876E+02 -0.14481547166E+02  0.27576511883E+02  0.51100000000E-03 0. -1.
        -11    1    3    3    0    0  0.10558256464E+01 -0.23567471446E+01 -0.86920724810E+01  0.90675878367E+01  0.51100000000E-03 0.  1.
         12    1    3    3    0    0 -0.59731350731E+01 -0.74022089590E+01 -0.58050968059E+01  0.11143167817E+02  0.00000000000E+00 0. -1.
</event>
<event>
 7    1  0.1542786E-009  0.4778727E+02  0.7816164E-02  0.1312668E+00
        -11   -1    0    0    0    0  0.00000000000E+00  0.00000000000E+00  0.45593999997E+02  0.45594000000E+02  0.51100000000E-03 0.  1.
         11   -1    0    0    0    0 -0.00000000000E+00 -0.00000000000E+00 -0.45593999997E+02  0.45594000000E+02  0.51100000000E-03 0. -1.
    9900012    2    1    2    0    0 -0.27216724245E+02  0.24710572440E+01 -0.33715976952E+02  0.47787270693E+02  0.19999998399E+02 0.  0.
        -12    1    1    2    0    0  0.27216724245E+02 -0.24710572440E+01  0.33715976952E+02  0.43400729307E+02  0.00000000000E+00 0.  1.
         11    1    3    3    0    0 -0.68644345902E+01 -0.47368314022E+01 -0.35095130951E+01  0.90484648644E+01  0.51100000000E-03 0.  1.
        -11    1    3    3    0    0 -0.18414703217E+02  0.95246971445E+01 -0.28582121027E+02  0.35309471717E+02  0.51100000000E-03 0. -1.
         12    1    3    3    0    0 -0.19375864382E+01 -0.23168084983E+01 -0.16243428295E+01  0.34293341119E+01  0.00000000000E+00 0. -1.
</event>
<event>
 7    1  0.1542786E-009  0.4778728E+02  0.7816164E-02  0.1312668E+00
        -11   -1    0    0    0    0  0.00000000000E+00  0.00000000000E+00  0.45593999997E+02  0.45594000000E+02  0.51100000000E-03 0.  1.
         11   -1    0    0    0    0 -0.00000000000E+00 -0.00000000000E+00 -0.45593999997E+02  0.45594000000E+02  0.51100000000E-03 0. -1.
    9900012    2    1    2    0    0  0.97122210653E+01  0.15573279635E+02 -0.39328978500E+02  0.47787276199E+02  0.20000023500E+02 0.  0.
        -12    1    1    2    0    0 -0.97122210653E+01 -0.15573279635E+02  0.39328978500E+02  0.43400723801E+02  0.00000000000E+00 0.  1.
         11    1    3    3    0    0  0.71141168685E+01  0.53263044702E+01 -0.21349567311E+02  0.23125401678E+02  0.51100000000E-03 0. -1.
        -11    1    3    3    0    0 -0.46612790204E+01  0.19629388713E+01 -0.94959444531E+01  0.10758885278E+02  0.51100000000E-03 0.  1.
         12    1    3    3    0    0  0.72593832172E+01  0.82840362940E+01 -0.84834667359E+01  0.13902989242E+02  0.00000000000E+00 0. -1.
</event>
<event>
 7    1  0.1542786E-009  0.4778726E+02  0.7816164E-02  0.1312668E+00
        -11   -1    0    0    0    0  0.00000000000E+00  0.00000000000E+00  0.45593999997E+02  0.45594000000E+02  0.51100000000E-03 0. -1.
         11   -1    0    0    0    0 -0.00000000000E+00 -0.00000000000E+00 -0.45593999997E+02  0.45594000000E+02  0.51100000000E-03 0.  1.
    9900012    2    1    2    0    0  0.39842717597E+02 -0.38860903373E+01  0.16765460960E+02  0.47787256633E+02  0.19999934290E+02 0.  0.
        -12    1    1    2    0    0 -0.39842717597E+02  0.38860903373E+01 -0.16765460960E+02  0.43400743367E+02  0.00000000000E+00 0.  1.
         11    1    3    3    0    0  0.19491080514E+02 -0.46607306292E+01  0.72247473471E+01  0.21303089074E+02  0.51100000000E-03 0. -1.
        -11    1    3    3    0    0  0.30799444212E+01 -0.13023126988E+01 -0.34257781452E+01  0.47872781582E+01  0.51100000000E-03 0.  1.
         12    1    3    3    0    0  0.17271692662E+02  0.20769529907E+01  0.12966491758E+02  0.21696889400E+02  0.00000000000E+00 0. -1.
</event>
<event>
 7    1  0.1542786E-009  0.4778727E+02  0.7816164E-02  0.1312668E+00
        -11   -1    0    0    0    0  0.00000000000E+00  0.00000000000E+00  0.45593999997E+02  0.45594000000E+02  0.51100000000E-03 0.  1.
         11   -1    0    0    0    0 -0.00000000000E+00 -0.00000000000E+00 -0.45593999997E+02  0.45594000000E+02  0.51100000000E-03 0. -1.
    9900012    2    1    2    0    0 -0.38784016725E+02  0.18738527916E+02 -0.53189295854E+01  0.47787269664E+02  0.19999993705E+02 0.  0.
        -12    1    1    2    0    0  0.38784016725E+02 -0.18738527916E+02  0.53189295854E+01  0.43400730336E+02  0.00000000000E+00 0.  1.
         11    1    3    3    0    0 -0.10466045256E+02  0.83294233053E+01  0.17643958978E+01  0.13491867515E+02  0.51100000000E-03 0.  1.
        -11    1    3    3    0    0 -0.26732931525E+02  0.52254593834E+01 -0.27915698325E+01  0.27381525086E+02  0.51100000000E-03 0. -1.
         12    1    3    3    0    0 -0.15850399440E+01  0.51836452273E+01 -0.42917556506E+01  0.69138770622E+01  0.00000000000E+00 0. -1.
</event>
<event>
 7    1  0.1542786E-009  0.4778727E+02  0.7816164E-02  0.1312668E+00
        -11   -1    0    0    0    0  0.00000000000E+00  0.00000000000E+00  0.45593999997E+02  0.45594000000E+02  0.51100000000E-03 0.  1.
         11   -1    0    0    0    0 -0.00000000000E+00 -0.00000000000E+00 -0.45593999997E+02  0.45594000000E+02  0.51100000000E-03 0. -1.
    9900012    2    1    2    0    0  0.30178220285E+02 -0.97328186321E+01 -0.29633944441E+02  0.47787269577E+02  0.19999993311E+02 0.  0.
        -12    1    1    2    0    0 -0.30178220285E+02  0.97328186321E+01  0.29633944441E+02  0.43400730423E+02  0.00000000000E+00 0.  1.
         11    1    3    3    0    0  0.12439126330E+02 -0.10494142558E+02 -0.97208936432E+01  0.18956652272E+02  0.51100000000E-03 0. -1.
        -11    1    3    3    0    0  0.17395350056E+01  0.33432265544E+01 -0.95176197761E+00  0.38870293223E+01  0.51100000000E-03 0.  1.
         12    1    3    3    0    0  0.15999558950E+02 -0.25819026290E+01 -0.18961288820E+02  0.24943587983E+02  0.00000000000E+00 0. -1.
</event>
<event>
 7    1  0.1542786E-009  0.4778726E+02  0.7816164E-02  0.1312668E+00
        -11   -1    0    0    0    0  0.00000000000E+00  0.00000000000E+00  0.45593999997E+02  0.45594000000E+02  0.51100000000E-03 0. -1.
         11   -1    0    0    0    0 -0.00000000000E+00 -0.00000000000E+00 -0.45593999997E+02  0.45594000000E+02  0.51100000000E-03 0.  1.
    9900012    2    1    2    0    0 -0.13735110395E+02 -0.20722965817E+02  0.35574278034E+02  0.47787264667E+02  0.19999970924E+02 0.  0.
        -12    1    1    2    0    0  0.13735110395E+02  0.20722965817E+02 -0.35574278034E+02  0.43400735333E+02  0.00000000000E+00 0.  1.
         11    1    3    3    0    0 -0.43315790020E+00 -0.10443070600E+02  0.24347164062E+02  0.26495843965E+02  0.51100000000E-03 0. -1.
        -11    1    3    3    0    0 -0.40251967970E+01 -0.64192748586E+01  0.24886179450E+01  0.79751187140E+01  0.51100000000E-03 0.  1.
         12    1    3    3    0    0 -0.92767556974E+01 -0.38606203587E+01  0.87384960266E+01  0.13316301988E+02  0.00000000000E+00 0. -1.
</event>
<event>
 7    1  0.1542786E-009  0.4778728E+02  0.7816164E-02  0.1312668E+00
        -11   -1    0    0    0    0  0.00000000000E+00  0.00000000000E+00  0.45593999997E+02  0.45594000000E+02  0.51100000000E-03 0.  1.
         11   -1    0    0    0    0 -0.00000000000E+00 -0.00000000000E+00 -0.45593999997E+02  0.45594000000E+02  0.51100000000E-03 0. -1.
    9900012    2    1    2    0    0 -0.33057118388E+02  0.43825646511E+01 -0.27778457316E+02  0.47787278348E+02  0.20000033301E+02 0.  0.
        -12    1    1    2    0    0  0.33057118388E+02 -0.43825646511E+01  0.27778457316E+02  0.43400721652E+02  0.00000000000E+00 0.  1.
         11    1    3    3    0    0 -0.33871650877E+01 -0.23366376007E+01 -0.57716433040E+01  0.70883446091E+01  0.51100000000E-03 0.  1.
        -11    1    3    3    0    0 -0.21719577268E+02  0.36293240557E+01 -0.23314137317E+02  0.32069627826E+02  0.51100000000E-03 0. -1.
         12    1    3    3    0    0 -0.79503760326E+01  0.30898781962E+01  0.13073233044E+01  0.86293059135E+01  0.00000000000E+00 0. -1.
</event>
<event>
 7    1  0.1542786E-009  0.4778727E+02  0.7816164E-02  0.1312668E+00
        -11   -1    0    0    0    0  0.00000000000E+00  0.00000000000E+00  0.45593999997E+02  0.45594000000E+02  0.51100000000E-03 0.  1.
         11   -1    0    0    0    0 -0.00000000000E+00 -0.00000000000E+00 -0.45593999997E+02  0.45594000000E+02  0.51100000000E-03 0. -1.
    9900012    2    1    2    0    0  0.18233344854E+02 -0.11578516671E+02 -0.37644472193E+02  0.47787271900E+02  0.20000003903E+02 0.  0.
        -12    1    1    2    0    0 -0.18233344854E+02  0.11578516671E+02  0.37644472193E+02  0.43400728100E+02  0.00000000000E+00 0.  1.
         11    1    3    3    0    0  0.66484504646E+01 -0.48209621070E+01 -0.10074278318E+02  0.12997486415E+02  0.51100000000E-03 0. -1.
        -11    1    3    3    0    0 -0.21919869740E+01  0.27952820316E+01 -0.94902512010E+01  0.10133275712E+02  0.51100000000E-03 0.  1.
        -12    1    3    3    0    0  0.13776881364E+02 -0.95528365951E+01 -0.18079942674E+02  0.24656509773E+02  0.00000000000E+00 0.  1.
</event>
<event>
 7    1  0.1542786E-009  0.4778727E+02  0.7816164E-02  0.1312668E+00
        -11   -1    0    0    0    0  0.00000000000E+00  0.00000000000E+00  0.45593999997E+02  0.45594000000E+02  0.51100000000E-03 0. -1.
         11   -1    0    0    0    0 -0.00000000000E+00 -0.00000000000E+00 -0.45593999997E+02  0.45594000000E+02  0.51100000000E-03 0.  1.
    9900012    2    1    2    0    0 -0.40140928911E+02  0.38716266674E+01  0.16041808646E+02  0.47787270841E+02  0.19999999072E+02 0.  0.
        -12    1    1    2    0    0  0.40140928911E+02 -0.38716266674E+01 -0.16041808646E+02  0.43400729159E+02  0.00000000000E+00 0.  1.
         11    1    3    3    0    0 -0.12586621673E+02 -0.48566695909E+01  0.31429233225E+01  0.13852373512E+02  0.51100000000E-03 0.  1.
        -11    1    3    3    0    0 -0.92965998423E+01  0.23582133366E+01  0.10862745280E+02  0.14490934202E+02  0.51100000000E-03 0. -1.
        -12    1    3    3    0    0 -0.18257707396E+02  0.63700829217E+01  0.20361400435E+01  0.19443963127E+02  0.00000000000E+00 0.  1.
</event>
<event>
 7    1  0.1542786E-009  0.4778725E+02  0.7816164E-02  0.1312668E+00
        -11   -1    0    0    0    0  0.00000000000E+00  0.00000000000E+00  0.45593999997E+02  0.45594000000E+02  0.51100000000E-03 0. -1.
         11   -1    0    0    0    0 -0.00000000000E+00 -0.00000000000E+00 -0.45593999997E+02  0.45594000000E+02  0.51100000000E-03 0.  1.
    9900012    2    1    2    0    0  0.17935689321E+02  0.25007637583E+02  0.30603172034E+02  0.47787250842E+02  0.19999907890E+02 0.  0.
        -12    1    1    2    0    0 -0.17935689321E+02 -0.25007637583E+02 -0.30603172034E+02  0.43400749158E+02  0.00000000000E+00 0.  1.
         11    1    3    3    0    0 -0.13011103143E+00  0.21488033040E+01 -0.47633345960E+00  0.22048080065E+01  0.51100000000E-03 0. -1.
        -11    1    3    3    0    0 -0.18022892501E+01  0.38975576587E+01  0.10249730716E+02  0.11112883616E+02  0.51100000000E-03 0.  1.
         12    1    3    3    0    0  0.19868089602E+02  0.18961276621E+02  0.20829774778E+02  0.34469559220E+02  0.00000000000E+00 0. -1.
</event>
<event>
 7    1  0.1542786E-009  0.4778727E+02  0.7816164E-02  0.1312668E+00
        -11   -1    0    0    0    0  0.00000000000E+00  0.00000000000E+00  0.45593999997E+02  0.45594000000E+02  0.51100000000E-03 0.  1.
         11   -1    0    0    0    0 -0.00000000000E+00 -0.00000000000E+00 -0.45593999997E+02  0.45594000000E+02  0.51100000000E-03 0. -1.
    9900012    2    1    2    0    0  0.38484965147E+02 -0.19982406734E+02  0.17984032858E+01  0.47787269873E+02  0.19999994658E+02 0.  0.
        -12    1    1    2    0    0 -0.38484965147E+02  0.19982406734E+02 -0.17984032858E+01  0.43400730127E+02  0.00000000000E+00 0.  1.
         11    1    3    3    0    0  0.80223621324E+01 -0.22220569747E+01 -0.42375440245E+01  0.93409106088E+01  0.51100000000E-03 0. -1.
        -11    1    3    3    0    0  0.19789932494E+02 -0.76687000484E+01 -0.26395106942E+01  0.21387318801E+02  0.51100000000E-03 0.  1.
        -12    1    3    3    0    0  0.10672670520E+02 -0.10091649711E+02  0.86754580045E+01  0.17059040463E+02  0.00000000000E+00 0.  1.
</event>
<event>
 7    1  0.1542786E-009  0.4778727E+02  0.7816164E-02  0.1312668E+00
        -11   -1    0    0    0    0  0.00000000000E+00  0.00000000000E+00  0.45593999997E+02  0.45594000000E+02  0.51100000000E-03 0. -1.
         11   -1    0    0    0    0 -0.00000000000E+00 -0.00000000000E+00 -0.45593999997E+02  0.45594000000E+02  0.51100000000E-03 0.  1.
    9900012    2    1    2    0    0 -0.16516970797E+02 -0.23763046637E+02  0.32343937221E+02  0.47787274376E+02  0.20000015188E+02 0.  0.
        -12    1    1    2    0    0  0.16516970797E+02  0.23763046637E+02 -0.32343937221E+02  0.43400725624E+02  0.00000000000E+00 0.  1.
         11    1    3    3    0    0 -0.11308410578E+01 -0.12010410576E+02  0.12074310629E+02  0.17068032726E+02  0.51100000000E-03 0. -1.
        -11    1    3    3    0    0 -0.27048187154E+01  0.13798678566E+01 -0.48846456865E+00  0.30754962983E+01  0.51100000000E-03 0.  1.
        -12    1    3    3    0    0 -0.12681311023E+02 -0.13132503918E+02  0.20758091161E+02  0.27643745352E+02  0.00000000000E+00 0.  1.
</event>
<event>
 7    1  0.1542786E-009  0.4778727E+02  0.7816164E-02  0.1312668E+00
        -11   -1    0    0    0    0  0.00000000000E+00  0.00000000000E+00  0.45593999997E+02  0.45594000000E+02  0.51100000000E-03 0.  1.
         11   -1    0    0    0    0 -0.00000000000E+00 -0.00000000000E+00 -0.45593999997E+02  0.45594000000E+02  0.51100000000E-03 0. -1.
    9900012    2    1    2    0    0 -0.21496958773E+02  0.19124835895E+02 -0.32492226237E+02  0.47787270164E+02  0.19999995985E+02 0.  0.
        -12    1    1    2    0    0  0.21496958773E+02 -0.19124835895E+02  0.32492226237E+02  0.43400729836E+02  0.00000000000E+00 0.  1.
         11    1    3    3    0    0 -0.85791783342E+01  0.12832601519E+02 -0.22671913034E+02  0.27427971189E+02  0.51100000000E-03 0. -1.
        -11    1    3    3    0    0  0.62827011425E+00  0.15878235427E+00  0.15240569030E+01  0.16561053340E+01  0.51100000000E-03 0.  1.
        -12    1    3    3    0    0 -0.13546050553E+02  0.61334520217E+01 -0.11344370105E+02  0.18703193641E+02  0.00000000000E+00 0.  1.
</event>
<event>
 7    1  0.1542786E-009  0.4778727E+02  0.7816164E-02  0.1312668E+00
        -11   -1    0    0    0    0  0.00000000000E+00  0.00000000000E+00  0.45593999997E+02  0.45594000000E+02  0.51100000000E-03 0.  1.
         11   -1    0    0    0    0 -0.00000000000E+00 -0.00000000000E+00 -0.45593999997E+02  0.45594000000E+02  0.51100000000E-03 0. -1.
    9900012    2    1    2    0    0  0.10371185463E+02 -0.41944176702E+02 -0.40924500920E+01  0.47787267346E+02  0.19999983138E+02 0.  0.
        -12    1    1    2    0    0 -0.10371185463E+02  0.41944176702E+02  0.40924500920E+01  0.43400732654E+02  0.00000000000E+00 0.  1.
         11    1    3    3    0    0  0.66027245663E+00 -0.15151978245E+02  0.61026022075E+01  0.16348093418E+02  0.51100000000E-03 0.  1.
        -11    1    3    3    0    0  0.10289922957E+02 -0.20462171359E+02 -0.55506925789E+01  0.23566780848E+02  0.51100000000E-03 0. -1.
        -12    1    3    3    0    0 -0.57900995016E+00 -0.63300270985E+01 -0.46443597205E+01  0.78723930799E+01  0.00000000000E+00 0.  1.
</event>
<event>
 7    1  0.1542786E-009  0.4778726E+02  0.7816164E-02  0.1312668E+00
        -11   -1    0    0    0    0  0.00000000000E+00  0.00000000000E+00  0.45593999997E+02  0.45594000000E+02  0.51100000000E-03 0. -1.
         11   -1    0    0    0    0 -0.00000000000E+00 -0.00000000000E+00 -0.45593999997E+02  0.45594000000E+02  0.51100000000E-03 0.  1.
    9900012    2    1    2    0    0  0.35677329771E+02  0.72591764553E+01  0.23623221403E+02  0.47787261621E+02  0.19999957033E+02 0.  0.
        -12    1    1    2    0    0 -0.35677329771E+02 -0.72591764553E+01 -0.23623221403E+02  0.43400738379E+02  0.00000000000E+00 0.  1.
         11    1    3    3    0    0  0.82012030056E+01 -0.13779880678E+01  0.88683992762E+01  0.12157593834E+02  0.51100000000E-03 0. -1.
        -11    1    3    3    0    0  0.79049075062E+00  0.30636681079E+01  0.63622996414E+01  0.71056171365E+01  0.51100000000E-03 0.  1.
        -12    1    3    3    0    0  0.26685636015E+02  0.55734964151E+01  0.83925224857E+01  0.28524050650E+02  0.00000000000E+00 0.  1.
</event>
<event>
 7    1  0.1542786E-009  0.4778728E+02  0.7816164E-02  0.1312668E+00
        -11   -1    0    0    0    0  0.00000000000E+00  0.00000000000E+00  0.45593999997E+02  0.45594000000E+02  0.51100000000E-03 0.  1.
         11   -1    0    0    0    0 -0.00000000000E+00 -0.00000000000E+00 -0.45593999997E+02  0.45594000000E+02  0.51100000000E-03 0. -1.
    9900012    2    1    2    0    0  0.25732294481E+02 -0.28485257208E+01 -0.34833280669E+02  0.47787279727E+02  0.20000039587E+02 0.  0.
        -12    1    1    2    0    0 -0.25732294481E+02  0.28485257208E+01  0.34833280669E+02  0.43400720273E+02  0.00000000000E+00 0.  1.
         11    1    3    3    0    0  0.16478975137E+02  0.22159483262E+01 -0.10423431655E+02  0.19624346518E+02  0.51100000000E-03 0. -1.
        -11    1    3    3    0    0  0.15843664420E+01 -0.45109536501E+01 -0.36203984520E+01  0.59971830944E+01  0.51100000000E-03 0.  1.
         12    1    3    3    0    0  0.76689529025E+01 -0.55352039683E+00 -0.20789450562E+02  0.22165750114E+02  0.00000000000E+00 0. -1.
</event>
<event>
 7    1  0.1542786E-009  0.4778727E+02  0.7816164E-02  0.1312668E+00
        -11   -1    0    0    0    0  0.00000000000E+00  0.00000000000E+00  0.45593999997E+02  0.45594000000E+02  0.51100000000E-03 0.  1.
         11   -1    0    0    0    0 -0.00000000000E+00 -0.00000000000E+00 -0.45593999997E+02  0.45594000000E+02  0.51100000000E-03 0. -1.
    9900012    2    1    2    0    0 -0.24874546521E+01  0.29089824114E+00 -0.43328412483E+02  0.47787269813E+02  0.19999994386E+02 0.  0.
        -12    1    1    2    0    0  0.24874546521E+01 -0.29089824114E+00  0.43328412483E+02  0.43400730187E+02  0.00000000000E+00 0.  1.
         11    1    3    3    0    0 -0.78131870092E+01 -0.48341650671E+01 -0.16502190140E+02  0.18887491173E+02  0.51100000000E-03 0. -1.
        -11    1    3    3    0    0 -0.36380049845E+00  0.45880474922E+01 -0.80465067298E+01  0.92697789297E+01  0.51100000000E-03 0.  1.
         12    1    3    3    0    0  0.56895328555E+01  0.53701581609E+00 -0.18779715613E+02  0.19629999710E+02  0.00000000000E+00 0. -1.
</event>
<event>
 7    1  0.1542786E-009  0.4778731E+02  0.7816164E-02  0.1312668E+00
        -11   -1    0    0    0    0  0.00000000000E+00  0.00000000000E+00  0.45593999997E+02  0.45594000000E+02  0.51100000000E-03 0. -1.
         11   -1    0    0    0    0 -0.00000000000E+00 -0.00000000000E+00 -0.45593999997E+02  0.45594000000E+02  0.51100000000E-03 0.  1.
    9900012    2    1    2    0    0 -0.80121008945E+01  0.42222459614E+02  0.60572004049E+01  0.47787314138E+02  0.20000196479E+02 0.  0.
        -12    1    1    2    0    0  0.80121008945E+01 -0.42222459614E+02 -0.60572004049E+01  0.43400685862E+02  0.00000000000E+00 0.  1.
         11    1    3    3    0    0 -0.46442682343E+00  0.23135365750E+02  0.22014407424E+01  0.23244508648E+02  0.51100000000E-03 0. -1.
        -11    1    3    3    0    0  0.67212542354E+00  0.12748107714E+02  0.57333605358E+01  0.13994192587E+02  0.51100000000E-03 0.  1.
        -12    1    3    3    0    0 -0.82197994946E+01  0.63389861496E+01 -0.18776008733E+01  0.10548612903E+02  0.00000000000E+00 0.  1.
</event>
<event>
 7    1  0.1542786E-009  0.4778726E+02  0.7816164E-02  0.1312668E+00
        -11   -1    0    0    0    0  0.00000000000E+00  0.00000000000E+00  0.45593999997E+02  0.45594000000E+02  0.51100000000E-03 0.  1.
         11   -1    0    0    0    0 -0.00000000000E+00 -0.00000000000E+00 -0.45593999997E+02  0.45594000000E+02  0.51100000000E-03 0. -1.
    9900012    2    1    2    0    0  0.34969796362E+02 -0.24785081757E+02  0.68144747538E+01  0.47787262662E+02  0.19999961782E+02 0.  0.
        -12    1    1    2    0    0 -0.34969796362E+02  0.24785081757E+02 -0.68144747538E+01  0.43400737338E+02  0.00000000000E+00 0.  1.
         11    1    3    3    0    0  0.89069127571E+01 -0.11624610107E+02 -0.22429154768E+01  0.14815374619E+02  0.51100000000E-03 0. -1.
        -11    1    3    3    0    0  0.24569499503E+01 -0.11440450392E+01  0.56484865349E+01  0.62650492821E+01  0.51100000000E-03 0.  1.
        -12    1    3    3    0    0  0.23605933655E+02 -0.12016426610E+02  0.34089036957E+01  0.26706838761E+02  0.00000000000E+00 0.  1.
</event>
<event>
 7    1  0.1542786E-009  0.4778727E+02  0.7816164E-02  0.1312668E+00
        -11   -1    0    0    0    0  0.00000000000E+00  0.00000000000E+00  0.45593999997E+02  0.45594000000E+02  0.51100000000E-03 0.  1.
         11   -1    0    0    0    0 -0.00000000000E+00 -0.00000000000E+00 -0.45593999997E+02  0.45594000000E+02  0.51100000000E-03 0. -1.
    9900012    2    1    2    0    0  0.42846747614E+02 -0.44309175038E+01 -0.53053088853E+01  0.47787272893E+02  0.20000008430E+02 0.  0.
        -12    1    1    2    0    0 -0.42846747614E+02  0.44309175038E+01  0.53053088853E+01  0.43400727107E+02  0.00000000000E+00 0.  1.
         11    1    3    3    0    0  0.88645011657E+01  0.30574358185E+01 -0.65498113661E+01  0.11437977264E+02  0.51100000000E-03 0. -1.
        -11    1    3    3    0    0  0.60645380336E+01 -0.56858108860E+01 -0.42284805922E+00  0.83238132929E+01  0.51100000000E-03 0.  1.
         12    1    3    3    0    0  0.27917708415E+02 -0.18025424363E+01  0.16673505400E+01  0.28025482336E+02  0.00000000000E+00 0. -1.
</event>
<event>
 7    1  0.1542786E-009  0.4778726E+02  0.7816164E-02  0.1312668E+00
        -11   -1    0    0    0    0  0.00000000000E+00  0.00000000000E+00  0.45593999997E+02  0.45594000000E+02  0.51100000000E-03 0.  1.
         11   -1    0    0    0    0 -0.00000000000E+00 -0.00000000000E+00 -0.45593999997E+02  0.45594000000E+02  0.51100000000E-03 0. -1.
    9900012    2    1    2    0    0  0.20845718745E+02  0.10541743068E+02 -0.36578021328E+02  0.47787262896E+02  0.19999962849E+02 0.  0.
        -12    1    1    2    0    0 -0.20845718745E+02 -0.10541743068E+02  0.36578021328E+02  0.43400737104E+02  0.00000000000E+00 0.  1.
         11    1    3    3    0    0  0.45523123467E+01 -0.19588616900E+01 -0.42825835348E+01  0.65499014357E+01  0.51100000000E-03 0. -1.
        -11    1    3    3    0    0 -0.84138657705E+00 -0.41809344599E+00 -0.10879871265E+02  0.10920363204E+02  0.51100000000E-03 0.  1.
        -12    1    3    3    0    0  0.17134792975E+02  0.12918698204E+02 -0.21415566528E+02  0.30316998256E+02  0.00000000000E+00 0.  1.
</event>
<event>
 7    1  0.1542786E-009  0.4778727E+02  0.7816164E-02  0.1312668E+00
        -11   -1    0    0    0    0  0.00000000000E+00  0.00000000000E+00  0.45593999997E+02  0.45594000000E+02  0.51100000000E-03 0. -1.
         11   -1    0    0    0    0 -0.00000000000E+00 -0.00000000000E+00 -0.45593999997E+02  0.45594000000E+02  0.51100000000E-03 0.  1.
    9900012    2    1    2    0    0  0.25597939641E+02 -0.33739585785E+02  0.94873159347E+01  0.47787270438E+02  0.19999997237E+02 0.  0.
        -12    1    1    2    0    0 -0.25597939641E+02  0.33739585785E+02 -0.94873159347E+01  0.43400729562E+02  0.00000000000E+00 0.  1.
         11    1    3    3    0    0  0.13741921353E+01 -0.22129680369E+00  0.27106995701E+01  0.30471738908E+01  0.51100000000E-03 0.  1.
        -11    1    3    3    0    0  0.58706936714E+01 -0.18789051955E+02 -0.16270132407E+01  0.19751979392E+02  0.51100000000E-03 0. -1.
         12    1    3    3    0    0  0.18353053835E+02 -0.14729237026E+02  0.84036296053E+01  0.24988117155E+02  0.00000000000E+00 0. -1.
</event>
<event>
 7    1  0.1542786E-009  0.4778726E+02  0.7816164E-02  0.1312668E+00
        -11   -1    0    0    0    0  0.00000000000E+00  0.00000000000E+00  0.45593999997E+02  0.45594000000E+02  0.51100000000E-03 0.  1.
         11   -1    0    0    0    0 -0.00000000000E+00 -0.00000000000E+00 -0.45593999997E+02  0.45594000000E+02  0.51100000000E-03 0. -1.
    9900012    2    1    2    0    0 -0.41744265035E+02 -0.11362542361E+02 -0.34543870513E+01  0.47787264729E+02  0.19999971204E+02 0.  0.
        -12    1    1    2    0    0  0.41744265035E+02  0.11362542361E+02  0.34543870513E+01  0.43400735271E+02  0.00000000000E+00 0.  1.
         11    1    3    3    0    0 -0.35433281159E+02 -0.89886762846E+01  0.76081073947E+00  0.36563541244E+02  0.51100000000E-03 0. -1.
        -11    1    3    3    0    0 -0.86877167638E+00 -0.44716617228E+01 -0.21412353748E+01  0.50334294453E+01  0.51100000000E-03 0.  1.
         12    1    3    3    0    0 -0.54422121993E+01  0.20977956462E+01 -0.20739624159E+01  0.61902940397E+01  0.00000000000E+00 0. -1.
</event>
<event>
 7    1  0.1542786E-009  0.4778727E+02  0.7816164E-02  0.1312668E+00
        -11   -1    0    0    0    0  0.00000000000E+00  0.00000000000E+00  0.45593999997E+02  0.45594000000E+02  0.51100000000E-03 0.  1.
         11   -1    0    0    0    0 -0.00000000000E+00 -0.00000000000E+00 -0.45593999997E+02  0.45594000000E+02  0.51100000000E-03 0. -1.
    9900012    2    1    2    0    0  0.26787812177E+02  0.25039586321E+02 -0.23217570173E+02  0.47787270408E+02  0.19999997097E+02 0.  0.
        -12    1    1    2    0    0 -0.26787812177E+02 -0.25039586321E+02  0.23217570173E+02  0.43400729592E+02  0.00000000000E+00 0.  1.
         11    1    3    3    0    0  0.16130179522E+02  0.16964811860E+02 -0.22398277995E+02  0.32398617104E+02  0.51100000000E-03 0. -1.
        -11    1    3    3    0    0  0.10452584488E+02  0.71512227656E+01 -0.29968093757E+01  0.13014506376E+02  0.51100000000E-03 0.  1.
         12    1    3    3    0    0  0.20504816720E+00  0.92355169529E+00  0.21775171977E+01  0.23741469270E+01  0.00000000000E+00 0. -1.
</event>
<event>
 7    1  0.1542786E-009  0.4778727E+02  0.7816164E-02  0.1312668E+00
        -11   -1    0    0    0    0  0.00000000000E+00  0.00000000000E+00  0.45593999997E+02  0.45594000000E+02  0.51100000000E-03 0.  1.
         11   -1    0    0    0    0 -0.00000000000E+00 -0.00000000000E+00 -0.45593999997E+02  0.45594000000E+02  0.51100000000E-03 0. -1.
    9900012    2    1    2    0    0  0.27297903305E+02  0.19773007166E+02 -0.27340000012E+02  0.47787274915E+02  0.20000017649E+02 0.  0.
        -12    1    1    2    0    0 -0.27297903305E+02 -0.19773007166E+02  0.27340000012E+02  0.43400725085E+02  0.00000000000E+00 0.  1.
         11    1    3    3    0    0  0.26615878879E+01  0.26356140877E+01 -0.25096879200E+01  0.45087742704E+01  0.51100000000E-03 0. -1.
        -11    1    3    3    0    0  0.23628442045E+02  0.20602516778E+02 -0.24227156534E+02  0.39619718386E+02  0.51100000000E-03 0.  1.
        -12    1    3    3    0    0  0.10078733722E+01 -0.34651236995E+01 -0.60315555793E+00  0.36587822584E+01  0.00000000000E+00 0.  1.
</event>
<event>
 7    1  0.1542786E-009  0.4778727E+02  0.7816164E-02  0.1312668E+00
        -11   -1    0    0    0    0  0.00000000000E+00  0.00000000000E+00  0.45593999997E+02  0.45594000000E+02  0.51100000000E-03 0.  1.
         11   -1    0    0    0    0 -0.00000000000E+00 -0.00000000000E+00 -0.45593999997E+02  0.45594000000E+02  0.51100000000E-03 0. -1.
    9900012    2    1    2    0    0 -0.24978288053E+02  0.12096582550E+02  0.33367362566E+02  0.47787273416E+02  0.20000010813E+02 0.  0.
        -12    1    1    2    0    0  0.24978288053E+02 -0.12096582550E+02 -0.33367362566E+02  0.43400726584E+02  0.00000000000E+00 0.  1.
         11    1    3    3    0    0 -0.96231719171E+00  0.54178095843E+01  0.16408676104E+02  0.17306743391E+02  0.51100000000E-03 0. -1.
        -11    1    3    3    0    0 -0.95757429431E+01  0.10403583488E+01  0.83562530895E+01  0.12751633792E+02  0.51100000000E-03 0.  1.
         12    1    3    3    0    0 -0.14440227918E+02  0.56384146166E+01  0.86024333728E+01  0.17728896233E+02  0.00000000000E+00 0. -1.
</event>
<event>
 7    1  0.1542786E-009  0.4778726E+02  0.7816164E-02  0.1312668E+00
        -11   -1    0    0    0    0  0.00000000000E+00  0.00000000000E+00  0.45593999997E+02  0.45594000000E+02  0.51100000000E-03 0.  1.
         11   -1    0    0    0    0 -0.00000000000E+00 -0.00000000000E+00 -0.45593999997E+02  0.45594000000E+02  0.51100000000E-03 0. -1.
    9900012    2    1    2    0    0 -0.20857745846E+02  0.78488602663E+01 -0.37242095274E+02  0.47787264641E+02  0.19999970805E+02 0.  0.
        -12    1    1    2    0    0  0.20857745846E+02 -0.78488602663E+01  0.37242095274E+02  0.43400735359E+02  0.00000000000E+00 0.  1.
         11    1    3    3    0    0 -0.41030195144E+01 -0.51466789422E+00 -0.16835078966E+02  0.17335499307E+02  0.51100000000E-03 0. -1.
        -11    1    3    3    0    0 -0.47763724957E+01 -0.33217127872E+01 -0.61769677728E+01  0.84854252212E+01  0.51100000000E-03 0.  1.
        -12    1    3    3    0    0 -0.11978353836E+02  0.11685240948E+02 -0.14230048535E+02  0.21966340113E+02  0.00000000000E+00 0.  1.
</event>
<event>
 7    1  0.1542786E-009  0.4778727E+02  0.7816164E-02  0.1312668E+00
        -11   -1    0    0    0    0  0.00000000000E+00  0.00000000000E+00  0.45593999997E+02  0.45594000000E+02  0.51100000000E-03 0.  1.
         11   -1    0    0    0    0 -0.00000000000E+00 -0.00000000000E+00 -0.45593999997E+02  0.45594000000E+02  0.51100000000E-03 0. -1.
    9900012    2    1    2    0    0  0.29336148523E+02 -0.23784028295E+02 -0.21385356690E+02  0.47787273130E+02  0.20000009508E+02 0.  0.
        -12    1    1    2    0    0 -0.29336148523E+02  0.23784028295E+02  0.21385356690E+02  0.43400726870E+02  0.00000000000E+00 0.  1.
         11    1    3    3    0    0  0.72058422942E+00 -0.10125952178E+02 -0.53114528449E+01  0.11457123580E+02  0.51100000000E-03 0. -1.
        -11    1    3    3    0    0  0.12767551427E+02 -0.96000432173E+01 -0.10176899106E+02  0.18940445478E+02  0.51100000000E-03 0.  1.
        -12    1    3    3    0    0  0.15848012867E+02 -0.40580329000E+01 -0.58970047388E+01  0.17389704073E+02  0.00000000000E+00 0.  1.
</event>
<event>
 7    1  0.1542786E-009  0.4778727E+02  0.7816164E-02  0.1312668E+00
        -11   -1    0    0    0    0  0.00000000000E+00  0.00000000000E+00  0.45593999997E+02  0.45594000000E+02  0.51100000000E-03 0.  1.
         11   -1    0    0    0    0 -0.00000000000E+00 -0.00000000000E+00 -0.45593999997E+02  0.45594000000E+02  0.51100000000E-03 0. -1.
    9900012    2    1    2    0    0 -0.13572727283E+02 -0.37547021388E+02 -0.17018393862E+02  0.47787268777E+02  0.19999989663E+02 0.  0.
        -12    1    1    2    0    0  0.13572727283E+02  0.37547021388E+02  0.17018393862E+02  0.43400731223E+02  0.00000000000E+00 0.  1.
         11    1    3    3    0    0 -0.62903972074E+01 -0.21424886969E+02 -0.75898393454E+01  0.23583904262E+02  0.51100000000E-03 0. -1.
        -11    1    3    3    0    0 -0.96208871596E+01 -0.96916911131E+01 -0.10566686171E+02  0.17266881689E+02  0.51100000000E-03 0.  1.
        -12    1    3    3    0    0  0.23385570836E+01 -0.64304433059E+01  0.11381316542E+01  0.69364828267E+01  0.00000000000E+00 0.  1.
</event>
<event>
 7    1  0.1542786E-009  0.4778725E+02  0.7816164E-02  0.1312668E+00
        -11   -1    0    0    0    0  0.00000000000E+00  0.00000000000E+00  0.45593999997E+02  0.45594000000E+02  0.51100000000E-03 0. -1.
         11   -1    0    0    0    0 -0.00000000000E+00 -0.00000000000E+00 -0.45593999997E+02  0.45594000000E+02  0.51100000000E-03 0.  1.
    9900012    2    1    2    0    0  0.25256486001E+02 -0.27845355040E+02  0.21688041228E+02  0.47787250989E+02  0.19999908560E+02 0.  0.
        -12    1    1    2    0    0 -0.25256486001E+02  0.27845355040E+02 -0.21688041228E+02  0.43400749011E+02  0.00000000000E+00 0.  1.
         11    1    3    3    0    0  0.16588090837E+01 -0.68995934099E+01  0.62647540854E+01  0.94658956686E+01  0.51100000000E-03 0. -1.
        -11    1    3    3    0    0  0.67225000478E+01  0.11072562117E+01  0.58868869961E+00  0.68384631210E+01  0.51100000000E-03 0.  1.
        -12    1    3    3    0    0  0.16875176869E+02 -0.22053017842E+02  0.14834598443E+02  0.31482892200E+02  0.00000000000E+00 0.  1.
</event>
<event>
 7    1  0.1542786E-009  0.4778727E+02  0.7816164E-02  0.1312668E+00
        -11   -1    0    0    0    0  0.00000000000E+00  0.00000000000E+00  0.45593999997E+02  0.45594000000E+02  0.51100000000E-03 0. -1.
         11   -1    0    0    0    0 -0.00000000000E+00 -0.00000000000E+00 -0.45593999997E+02  0.45594000000E+02  0.51100000000E-03 0.  1.
    9900012    2    1    2    0    0  0.16901366710E+02  0.27032466918E+02  0.29448474698E+02  0.47787272744E+02  0.20000007748E+02 0.  0.
        -12    1    1    2    0    0 -0.16901366710E+02 -0.27032466918E+02 -0.29448474698E+02  0.43400727256E+02  0.00000000000E+00 0.  1.
         11    1    3    3    0    0  0.12759835667E+02  0.24403722433E+02  0.15834950405E+02  0.31766345862E+02  0.51100000000E-03 0. -1.
        -11    1    3    3    0    0 -0.18272673213E+01  0.13546202535E+01  0.28386788500E+01  0.36375815825E+01  0.51100000000E-03 0.  1.
        -12    1    3    3    0    0  0.59687983644E+01  0.12741242307E+01  0.10774845443E+02  0.12383345299E+02  0.00000000000E+00 0.  1.
</event>
<event>
 7    1  0.1542786E-009  0.4778727E+02  0.7816164E-02  0.1312668E+00
        -11   -1    0    0    0    0  0.00000000000E+00  0.00000000000E+00  0.45593999997E+02  0.45594000000E+02  0.51100000000E-03 0.  1.
         11   -1    0    0    0    0 -0.00000000000E+00 -0.00000000000E+00 -0.45593999997E+02  0.45594000000E+02  0.51100000000E-03 0. -1.
    9900012    2    1    2    0    0  0.37155421759E+01 -0.25680178794E+02 -0.34790030727E+02  0.47787273340E+02  0.20000010468E+02 0.  0.
        -12    1    1    2    0    0 -0.37155421759E+01  0.25680178794E+02  0.34790030727E+02  0.43400726660E+02  0.00000000000E+00 0.  1.
         11    1    3    3    0    0  0.24479062293E+01 -0.76842546615E+01 -0.18564667234E+02  0.20240723416E+02  0.51100000000E-03 0. -1.
        -11    1    3    3    0    0 -0.52620992848E+01 -0.12989178572E+02 -0.96839081695E+01  0.17034862094E+02  0.51100000000E-03 0.  1.
         12    1    3    3    0    0  0.65297352314E+01 -0.50067455609E+01 -0.65414553236E+01  0.10511687831E+02  0.00000000000E+00 0. -1.
</event>
<event>
 7    1  0.1542786E-009  0.4778727E+02  0.7816164E-02  0.1312668E+00
        -11   -1    0    0    0    0  0.00000000000E+00  0.00000000000E+00  0.45593999997E+02  0.45594000000E+02  0.51100000000E-03 0.  1.
         11   -1    0    0    0    0 -0.00000000000E+00 -0.00000000000E+00 -0.45593999997E+02  0.45594000000E+02  0.51100000000E-03 0. -1.
    9900012    2    1    2    0    0  0.29775615273E+02  0.23888439379E+02 -0.20648930719E+02  0.47787272579E+02  0.20000006996E+02 0.  0.
        -12    1    1    2    0    0 -0.29775615273E+02 -0.23888439379E+02  0.20648930719E+02  0.43400727421E+02  0.00000000000E+00 0.  1.
         11    1    3    3    0    0  0.82620558889E+01  0.12595235499E+01 -0.44420746037E+01  0.94646708411E+01  0.51100000000E-03 0. -1.
        -11    1    3    3    0    0  0.17426355591E+01  0.83200940098E+01  0.85636803698E+00  0.85436590229E+01  0.51100000000E-03 0.  1.
         12    1    3    3    0    0  0.19770923825E+02  0.14308821819E+02 -0.17063224152E+02  0.29778942715E+02  0.00000000000E+00 0. -1.
</event>
<event>
 7    1  0.1542786E-009  0.4778727E+02  0.7816164E-02  0.1312668E+00
        -11   -1    0    0    0    0  0.00000000000E+00  0.00000000000E+00  0.45593999997E+02  0.45594000000E+02  0.51100000000E-03 0. -1.
         11   -1    0    0    0    0 -0.00000000000E+00 -0.00000000000E+00 -0.45593999997E+02  0.45594000000E+02  0.51100000000E-03 0.  1.
    9900012    2    1    2    0    0 -0.16815811289E+02  0.19669773240E+02  0.34841808457E+02  0.47787272988E+02  0.20000008861E+02 0.  0.
        -12    1    1    2    0    0  0.16815811289E+02 -0.19669773240E+02 -0.34841808457E+02  0.43400727012E+02  0.00000000000E+00 0.  1.
         11    1    3    3    0    0 -0.73404927807E+01  0.26784589945E+01  0.55211009566E+00  0.78333774751E+01  0.51100000000E-03 0.  1.
        -11    1    3    3    0    0 -0.95730173947E+00  0.66988308013E+01  0.15358748852E+02  0.16783382475E+02  0.51100000000E-03 0. -1.
        -12    1    3    3    0    0 -0.85180167687E+01  0.10292483444E+02  0.18930949509E+02  0.23170513038E+02  0.00000000000E+00 0.  1.
</event>
<event>
 7    1  0.1542786E-009  0.4778727E+02  0.7816164E-02  0.1312668E+00
        -11   -1    0    0    0    0  0.00000000000E+00  0.00000000000E+00  0.45593999997E+02  0.45594000000E+02  0.51100000000E-03 0.  1.
         11   -1    0    0    0    0 -0.00000000000E+00 -0.00000000000E+00 -0.45593999997E+02  0.45594000000E+02  0.51100000000E-03 0. -1.
    9900012    2    1    2    0    0  0.89573614061E+01 -0.29832678388E+01 -0.42361409149E+02  0.47787271948E+02  0.20000004121E+02 0.  0.
        -12    1    1    2    0    0 -0.89573614061E+01  0.29832678388E+01  0.42361409149E+02  0.43400728052E+02  0.00000000000E+00 0.  1.
         11    1    3    3    0    0  0.76575055159E+01  0.28208262627E+01 -0.17135777476E+02  0.18979708151E+02  0.51100000000E-03 0. -1.
        -11    1    3    3    0    0 -0.19727314529E+01  0.96436075527E+00  0.28310525117E+00  0.22140031382E+01  0.51100000000E-03 0.  1.
        -12    1    3    3    0    0  0.32725873431E+01 -0.67684548568E+01 -0.25508736924E+02  0.26593560659E+02  0.00000000000E+00 0.  1.
</event>
<event>
 7    1  0.1542786E-009  0.4778727E+02  0.7816164E-02  0.1312668E+00
        -11   -1    0    0    0    0  0.00000000000E+00  0.00000000000E+00  0.45593999997E+02  0.45594000000E+02  0.51100000000E-03 0. -1.
         11   -1    0    0    0    0 -0.00000000000E+00 -0.00000000000E+00 -0.45593999997E+02  0.45594000000E+02  0.51100000000E-03 0.  1.
    9900012    2    1    2    0    0  0.24797190953E+02  0.33228040504E+01  0.35463807645E+02  0.47787270068E+02  0.19999995549E+02 0.  0.
        -12    1    1    2    0    0 -0.24797190953E+02 -0.33228040504E+01 -0.35463807645E+02  0.43400729932E+02  0.00000000000E+00 0.  1.
         11    1    3    3    0    0  0.21623166533E+02  0.30771029903E+01  0.14292244492E+02  0.26101688578E+02  0.51100000000E-03 0. -1.
        -11    1    3    3    0    0 -0.56637139592E+00 -0.62551208397E+00  0.33180380667E+01  0.34236557652E+01  0.51100000000E-03 0.  1.
         12    1    3    3    0    0  0.37403958163E+01  0.87121314407E+00  0.17853525086E+02  0.18261925726E+02  0.00000000000E+00 0. -1.
</event>
<event>
 7    1  0.2562346E-009  0.4778729E+02  0.7816164E-02  0.1312668E+00
        -11   -1    0    0    0    0  0.00000000000E+00  0.00000000000E+00  0.45593999997E+02  0.45594000000E+02  0.51100000000E-03 0. -1.
         11   -1    0    0    0    0 -0.00000000000E+00 -0.00000000000E+00 -0.45593999997E+02  0.45594000000E+02  0.51100000000E-03 0.  1.
    9900012    2    1    2    0    0 -0.16680859664E+02 -0.37775788766E+02 -0.13355176315E+02  0.47787285370E+02  0.20000065315E+02 0.  0.
        -12    1    1    2    0    0  0.16680859664E+02  0.37775788766E+02  0.13355176315E+02  0.43400714630E+02  0.00000000000E+00 0.  1.
         11    1    3    3    0    0 -0.10515398025E+02 -0.14845239777E+02 -0.76139069018E+01  0.19721214928E+02  0.51100000000E-03 0. -1.
        -11    1    3    3    0    0  0.15674256828E+01 -0.66600357413E+00 -0.41001740177E+01  0.44397985617E+01  0.51100000000E-03 0.  1.
        -12    1    3    3    0    0 -0.77328873218E+01 -0.22264545415E+02 -0.16410953952E+01  0.23626271880E+02  0.00000000000E+00 0.  1.
</event>
<event>
 7    1  0.1542786E-009  0.4778728E+02  0.7816164E-02  0.1312668E+00
        -11   -1    0    0    0    0  0.00000000000E+00  0.00000000000E+00  0.45593999997E+02  0.45594000000E+02  0.51100000000E-03 0.  1.
         11   -1    0    0    0    0 -0.00000000000E+00 -0.00000000000E+00 -0.45593999997E+02  0.45594000000E+02  0.51100000000E-03 0. -1.
    9900012    2    1    2    0    0  0.28242345602E+01 -0.77579233975E+01 -0.42608228324E+02  0.47787276536E+02  0.20000025040E+02 0.  0.
        -12    1    1    2    0    0 -0.28242345602E+01  0.77579233975E+01  0.42608228324E+02  0.43400723464E+02  0.00000000000E+00 0.  1.
         11    1    3    3    0    0 -0.33204332153E+00 -0.39235791140E+01 -0.26971278168E+02  0.27257193034E+02  0.51100000000E-03 0. -1.
        -11    1    3    3    0    0 -0.15768980355E+01 -0.30288372216E+01  0.71417998889E+00  0.34886266133E+01  0.51100000000E-03 0.  1.
        -12    1    3    3    0    0  0.47331759172E+01 -0.80550706194E+00 -0.16351130145E+02  0.17041456889E+02  0.00000000000E+00 0.  1.
</event>
<event>
 7    1  0.1542786E-009  0.4778727E+02  0.7816164E-02  0.1312668E+00
        -11   -1    0    0    0    0  0.00000000000E+00  0.00000000000E+00  0.45593999997E+02  0.45594000000E+02  0.51100000000E-03 0.  1.
         11   -1    0    0    0    0 -0.00000000000E+00 -0.00000000000E+00 -0.45593999997E+02  0.45594000000E+02  0.51100000000E-03 0. -1.
    9900012    2    1    2    0    0 -0.21434206373E+02 -0.16100940318E+02 -0.34131474135E+02  0.47787274101E+02  0.20000013934E+02 0.  0.
        -12    1    1    2    0    0  0.21434206373E+02  0.16100940318E+02  0.34131474135E+02  0.43400725899E+02  0.00000000000E+00 0.  1.
         11    1    3    3    0    0 -0.72129655347E+00  0.18668981033E+01 -0.70551963778E-01  0.20026370332E+01  0.51100000000E-03 0. -1.
        -11    1    3    3    0    0 -0.16461954560E+02 -0.12931141496E+02 -0.15382543424E+02  0.25977548206E+02  0.51100000000E-03 0.  1.
         12    1    3    3    0    0 -0.42509552592E+01 -0.50366969245E+01 -0.18678378747E+02  0.19807088861E+02  0.00000000000E+00 0. -1.
</event>
<event>
 7    1  0.1542786E-009  0.4778727E+02  0.7816164E-02  0.1312668E+00
        -11   -1    0    0    0    0  0.00000000000E+00  0.00000000000E+00  0.45593999997E+02  0.45594000000E+02  0.51100000000E-03 0.  1.
         11   -1    0    0    0    0 -0.00000000000E+00 -0.00000000000E+00 -0.45593999997E+02  0.45594000000E+02  0.51100000000E-03 0. -1.
    9900012    2    1    2    0    0 -0.20614961708E+02 -0.21928722985E+02 -0.31269437168E+02  0.47787271449E+02  0.20000001845E+02 0.  0.
        -12    1    1    2    0    0  0.20614961708E+02  0.21928722985E+02  0.31269437168E+02  0.43400728551E+02  0.00000000000E+00 0.  1.
         11    1    3    3    0    0 -0.19274878691E+02 -0.14632097538E+02 -0.31297438254E+02  0.39561962394E+02  0.51100000000E-03 0. -1.
        -11    1    3    3    0    0 -0.11260725739E+01 -0.51070263255E+01 -0.16218035707E+01  0.54753999318E+01  0.51100000000E-03 0.  1.
         12    1    3    3    0    0 -0.21401044321E+00 -0.21895991207E+01  0.16498046570E+01  0.27499091232E+01  0.00000000000E+00 0. -1.
</event>
<event>
 7    1  0.1542786E-009  0.4778727E+02  0.7816164E-02  0.1312668E+00
        -11   -1    0    0    0    0  0.00000000000E+00  0.00000000000E+00  0.45593999997E+02  0.45594000000E+02  0.51100000000E-03 0.  1.
         11   -1    0    0    0    0 -0.00000000000E+00 -0.00000000000E+00 -0.45593999997E+02  0.45594000000E+02  0.51100000000E-03 0. -1.
    9900012    2    1    2    0    0  0.57851188575E+01 -0.25565647733E+02 -0.34591234715E+02  0.47787268862E+02  0.19999990048E+02 0.  0.
        -12    1    1    2    0    0 -0.57851188575E+01  0.25565647733E+02  0.34591234715E+02  0.43400731138E+02  0.00000000000E+00 0.  1.
         11    1    3    3    0    0  0.74541256408E+01 -0.12716504523E+02 -0.16197203540E+02  0.21900294042E+02  0.51100000000E-03 0. -1.
        -11    1    3    3    0    0 -0.11570122202E+01 -0.61682295896E+01 -0.18125351223E+02  0.19181086798E+02  0.51100000000E-03 0.  1.
        -12    1    3    3    0    0 -0.51199456301E+00 -0.66809136210E+01 -0.26867995264E+00  0.67058880218E+01  0.00000000000E+00 0.  1.
</event>
<event>
 7    1  0.1542786E-009  0.4778726E+02  0.7816164E-02  0.1312668E+00
        -11   -1    0    0    0    0  0.00000000000E+00  0.00000000000E+00  0.45593999997E+02  0.45594000000E+02  0.51100000000E-03 0. -1.
         11   -1    0    0    0    0 -0.00000000000E+00 -0.00000000000E+00 -0.45593999997E+02  0.45594000000E+02  0.51100000000E-03 0.  1.
    9900012    2    1    2    0    0 -0.43068328391E+02 -0.46477285531E+01 -0.26724085039E+01  0.47787262008E+02  0.19999958798E+02 0.  0.
        -12    1    1    2    0    0  0.43068328391E+02  0.46477285531E+01  0.26724085039E+01  0.43400737992E+02  0.00000000000E+00 0.  1.
         11    1    3    3    0    0 -0.12657818951E+02  0.26501554183E+01  0.25702906519E+01  0.13185222737E+02  0.51100000000E-03 0. -1.
        -11    1    3    3    0    0 -0.46694178837E+01 -0.70257122742E+01 -0.18565477445E+01  0.86377581652E+01  0.51100000000E-03 0.  1.
         12    1    3    3    0    0 -0.25741091556E+02 -0.27217169722E+00 -0.33861514114E+01  0.25964281106E+02  0.00000000000E+00 0. -1.
</event>
<event>
 7    1  0.1542786E-009  0.4778728E+02  0.7816164E-02  0.1312668E+00
        -11   -1    0    0    0    0  0.00000000000E+00  0.00000000000E+00  0.45593999997E+02  0.45594000000E+02  0.51100000000E-03 0.  1.
         11   -1    0    0    0    0 -0.00000000000E+00 -0.00000000000E+00 -0.45593999997E+02  0.45594000000E+02  0.51100000000E-03 0. -1.
    9900012    2    1    2    0    0 -0.16662794742E+02 -0.29472141166E+02 -0.27154500371E+02  0.47787277380E+02  0.20000028887E+02 0.  0.
        -12    1    1    2    0    0  0.16662794742E+02  0.29472141166E+02  0.27154500371E+02  0.43400722620E+02  0.00000000000E+00 0.  1.
         11    1    3    3    0    0 -0.10407947592E+02 -0.21761756881E+02 -0.17173384905E+02  0.29611223970E+02  0.51100000000E-03 0. -1.
        -11    1    3    3    0    0 -0.35266565162E+01 -0.31450756236E+01  0.19510661024E+01  0.51122857959E+01  0.51100000000E-03 0.  1.
         12    1    3    3    0    0 -0.27281906340E+01 -0.45653086611E+01 -0.11932181568E+02  0.13063767615E+02  0.00000000000E+00 0. -1.
</event>
<event>
 7    1  0.1542786E-009  0.4778727E+02  0.7816164E-02  0.1312668E+00
        -11   -1    0    0    0    0  0.00000000000E+00  0.00000000000E+00  0.45593999997E+02  0.45594000000E+02  0.51100000000E-03 0. -1.
         11   -1    0    0    0    0 -0.00000000000E+00 -0.00000000000E+00 -0.45593999997E+02  0.45594000000E+02  0.51100000000E-03 0.  1.
    9900012    2    1    2    0    0  0.33659313470E+02 -0.23906956325E+02  0.13383988701E+02  0.47787273076E+02  0.20000009263E+02 0.  0.
        -12    1    1    2    0    0 -0.33659313470E+02  0.23906956325E+02 -0.13383988701E+02  0.43400726924E+02  0.00000000000E+00 0.  1.
         11    1    3    3    0    0  0.79794695119E+00 -0.56620220111E+01  0.29151802684E+00  0.57253991662E+01  0.51100000000E-03 0. -1.
        -11    1    3    3    0    0  0.55238882885E+01 -0.62173019399E+00 -0.23761226838E+01  0.60453163298E+01  0.51100000000E-03 0.  1.
        -12    1    3    3    0    0  0.27337478230E+02 -0.17623204120E+02  0.15468593358E+02  0.36016557580E+02  0.00000000000E+00 0.  1.
</event>
<event>
 7    1  0.1542786E-009  0.4778727E+02  0.7816164E-02  0.1312668E+00
        -11   -1    0    0    0    0  0.00000000000E+00  0.00000000000E+00  0.45593999997E+02  0.45594000000E+02  0.51100000000E-03 0.  1.
         11   -1    0    0    0    0 -0.00000000000E+00 -0.00000000000E+00 -0.45593999997E+02  0.45594000000E+02  0.51100000000E-03 0. -1.
    9900012    2    1    2    0    0  0.15506259967E+02 -0.87070355347E+01 -0.39589981612E+02  0.47787271780E+02  0.20000003353E+02 0.  0.
        -12    1    1    2    0    0 -0.15506259967E+02  0.87070355347E+01  0.39589981612E+02  0.43400728220E+02  0.00000000000E+00 0.  1.
         11    1    3    3    0    0  0.46850760733E+01  0.24241772437E+01 -0.41260508514E+01  0.66970791403E+01  0.51100000000E-03 0. -1.
        -11    1    3    3    0    0  0.85520632596E+01 -0.10740880576E+02 -0.14383517304E+02  0.19884412786E+02  0.51100000000E-03 0.  1.
        -12    1    3    3    0    0  0.22691206345E+01 -0.39033220221E+00 -0.21080413457E+02  0.21205779854E+02  0.00000000000E+00 0.  1.
</event>
<event>
 7    1  0.1542786E-009  0.4778727E+02  0.7816164E-02  0.1312668E+00
        -11   -1    0    0    0    0  0.00000000000E+00  0.00000000000E+00  0.45593999997E+02  0.45594000000E+02  0.51100000000E-03 0.  1.
         11   -1    0    0    0    0 -0.00000000000E+00 -0.00000000000E+00 -0.45593999997E+02  0.45594000000E+02  0.51100000000E-03 0. -1.
    9900012    2    1    2    0    0  0.20786650833E+01 -0.28014694551E+01 -0.43260308010E+02  0.47787270413E+02  0.19999997119E+02 0.  0.
        -12    1    1    2    0    0 -0.20786650833E+01  0.28014694551E+01  0.43260308010E+02  0.43400729587E+02  0.00000000000E+00 0.  1.
         11    1    3    3    0    0  0.21774009642E+01  0.89147099551E+00 -0.42788811018E+02  0.42853449617E+02  0.51100000000E-03 0. -1.
        -11    1    3    3    0    0 -0.10808189399E+01 -0.13231791526E+01 -0.13968246456E+01  0.22068284941E+01  0.51100000000E-03 0.  1.
         12    1    3    3    0    0  0.98208305900E+00 -0.23697612981E+01  0.92532765391E+00  0.27269923014E+01  0.00000000000E+00 0. -1.
</event>
<event>
 7    1  0.1542786E-009  0.4778727E+02  0.7816164E-02  0.1312668E+00
        -11   -1    0    0    0    0  0.00000000000E+00  0.00000000000E+00  0.45593999997E+02  0.45594000000E+02  0.51100000000E-03 0. -1.
         11   -1    0    0    0    0 -0.00000000000E+00 -0.00000000000E+00 -0.45593999997E+02  0.45594000000E+02  0.51100000000E-03 0.  1.
    9900012    2    1    2    0    0 -0.36241967014E+02 -0.23843065656E+02  0.12850527600E+01  0.47787270588E+02  0.19999997920E+02 0.  0.
        -12    1    1    2    0    0  0.36241967014E+02  0.23843065656E+02 -0.12850527600E+01  0.43400729412E+02  0.00000000000E+00 0.  1.
         11    1    3    3    0    0 -0.19045946295E+02 -0.79029746950E+01 -0.55393481421E+01  0.21351568031E+02  0.51100000000E-03 0. -1.
        -11    1    3    3    0    0 -0.98625613871E+01 -0.13164198300E+02  0.66112441887E+00  0.16462178464E+02  0.51100000000E-03 0.  1.
         12    1    3    3    0    0 -0.73334593319E+01 -0.27758926605E+01  0.61632764833E+01  0.99735240936E+01  0.00000000000E+00 0. -1.
</event>
<event>
 7    1  0.1542786E-009  0.4778727E+02  0.7816164E-02  0.1312668E+00
        -11   -1    0    0    0    0  0.00000000000E+00  0.00000000000E+00  0.45593999997E+02  0.45594000000E+02  0.51100000000E-03 0.  1.
         11   -1    0    0    0    0 -0.00000000000E+00 -0.00000000000E+00 -0.45593999997E+02  0.45594000000E+02  0.51100000000E-03 0. -1.
    9900012    2    1    2    0    0  0.10287283332E+01 -0.25562262840E+02 -0.35059034119E+02  0.47787269166E+02  0.19999991437E+02 0.  0.
        -12    1    1    2    0    0 -0.10287283332E+01  0.25562262840E+02  0.35059034119E+02  0.43400730834E+02  0.00000000000E+00 0.  1.
         11    1    3    3    0    0 -0.99347756903E+00 -0.20512452558E+02 -0.34602606054E+02  0.40237893256E+02  0.51100000000E-03 0. -1.
        -11    1    3    3    0    0  0.32707981775E+01 -0.38639930335E+01 -0.17919015577E+01  0.53702396906E+01  0.51100000000E-03 0.  1.
         12    1    3    3    0    0 -0.12485922753E+01 -0.11858172485E+01  0.13354734926E+01  0.21791362202E+01  0.00000000000E+00 0. -1.
</event>
<event>
 7    1  0.1542786E-009  0.4778727E+02  0.7816164E-02  0.1312668E+00
        -11   -1    0    0    0    0  0.00000000000E+00  0.00000000000E+00  0.45593999997E+02  0.45594000000E+02  0.51100000000E-03 0.  1.
         11   -1    0    0    0    0 -0.00000000000E+00 -0.00000000000E+00 -0.45593999997E+02  0.45594000000E+02  0.51100000000E-03 0. -1.
    9900012    2    1    2    0    0 -0.36256880860E+02 -0.51246910284E+00 -0.23849511017E+02  0.47787271780E+02  0.20000003353E+02 0.  0.
        -12    1    1    2    0    0  0.36256880860E+02  0.51246910284E+00  0.23849511017E+02  0.43400728220E+02  0.00000000000E+00 0.  1.
         11    1    3    3    0    0 -0.22503950336E+02  0.69028581787E+01 -0.19165217352E+02  0.30354287806E+02  0.51100000000E-03 0. -1.
        -11    1    3    3    0    0  0.31988953408E+00 -0.14493823553E+01 -0.16331229486E+00  0.14932212470E+01  0.51100000000E-03 0.  1.
        -12    1    3    3    0    0 -0.14072820058E+02 -0.59659449263E+01 -0.45209813698E+01  0.15939762727E+02  0.00000000000E+00 0.  1.
</event>
<event>
 7    1  0.1542786E-009  0.4778726E+02  0.7816164E-02  0.1312668E+00
        -11   -1    0    0    0    0  0.00000000000E+00  0.00000000000E+00  0.45593999997E+02  0.45594000000E+02  0.51100000000E-03 0.  1.
         11   -1    0    0    0    0 -0.00000000000E+00 -0.00000000000E+00 -0.45593999997E+02  0.45594000000E+02  0.51100000000E-03 0. -1.
    9900012    2    1    2    0    0 -0.55673455662E+01  0.41438658111E+02 -0.11639007449E+02  0.47787260178E+02  0.19999950455E+02 0.  0.
        -12    1    1    2    0    0  0.55673455662E+01 -0.41438658111E+02  0.11639007449E+02  0.43400739822E+02  0.00000000000E+00 0.  1.
         11    1    3    3    0    0 -0.13713613041E+01  0.16960501636E+02 -0.23107440034E+00  0.17017421756E+02  0.51100000000E-03 0. -1.
        -11    1    3    3    0    0  0.43439489811E+01  0.13546097682E+02 -0.85784300844E+01  0.16611926984E+02  0.51100000000E-03 0.  1.
         12    1    3    3    0    0 -0.85399332432E+01  0.10932058793E+02 -0.28295029640E+01  0.14157911438E+02  0.00000000000E+00 0. -1.
</event>
<event>
 7    1  0.1542786E-009  0.4778727E+02  0.7816164E-02  0.1312668E+00
        -11   -1    0    0    0    0  0.00000000000E+00  0.00000000000E+00  0.45593999997E+02  0.45594000000E+02  0.51100000000E-03 0.  1.
         11   -1    0    0    0    0 -0.00000000000E+00 -0.00000000000E+00 -0.45593999997E+02  0.45594000000E+02  0.51100000000E-03 0. -1.
    9900012    2    1    2    0    0  0.17041012405E+02 -0.22043376738E+01 -0.39854338866E+02  0.47787268039E+02  0.19999986295E+02 0.  0.
        -12    1    1    2    0    0 -0.17041012405E+02  0.22043376738E+01  0.39854338866E+02  0.43400731961E+02  0.00000000000E+00 0.  1.
         11    1    3    3    0    0  0.14383950935E+02  0.21782097985E+01 -0.17965722334E+02  0.23117305675E+02  0.51100000000E-03 0. -1.
        -11    1    3    3    0    0  0.60505998576E+01 -0.56111677928E+00 -0.14107596371E+02  0.15360627796E+02  0.51100000000E-03 0.  1.
        -12    1    3    3    0    0 -0.33935383882E+01 -0.38214306931E+01 -0.77810201612E+01  0.93093345671E+01  0.00000000000E+00 0.  1.
</event>
<event>
 7    1  0.1542786E-009  0.4778727E+02  0.7816164E-02  0.1312668E+00
        -11   -1    0    0    0    0  0.00000000000E+00  0.00000000000E+00  0.45593999997E+02  0.45594000000E+02  0.51100000000E-03 0. -1.
         11   -1    0    0    0    0 -0.00000000000E+00 -0.00000000000E+00 -0.45593999997E+02  0.45594000000E+02  0.51100000000E-03 0.  1.
    9900012    2    1    2    0    0 -0.10536009430E+02  0.39095673728E+02  0.15625114590E+02  0.47787269535E+02  0.19999993119E+02 0.  0.
        -12    1    1    2    0    0  0.10536009430E+02 -0.39095673728E+02 -0.15625114590E+02  0.43400730465E+02  0.00000000000E+00 0.  1.
         11    1    3    3    0    0 -0.14725719860E+02  0.21042699229E+02  0.10758860420E+02  0.27845917008E+02  0.51100000000E-03 0. -1.
        -11    1    3    3    0    0  0.18294317638E+01  0.29975376892E+01 -0.93683262314E+00  0.36345162541E+01  0.51100000000E-03 0.  1.
         12    1    3    3    0    0  0.23602786655E+01  0.15055436810E+02  0.58030867935E+01  0.16306836273E+02  0.00000000000E+00 0. -1.
</event>
<event>
 7    1  0.1542786E-009  0.4778727E+02  0.7816164E-02  0.1312668E+00
        -11   -1    0    0    0    0  0.00000000000E+00  0.00000000000E+00  0.45593999997E+02  0.45594000000E+02  0.51100000000E-03 0.  1.
         11   -1    0    0    0    0 -0.00000000000E+00 -0.00000000000E+00 -0.45593999997E+02  0.45594000000E+02  0.51100000000E-03 0. -1.
    9900012    2    1    2    0    0  0.34536033020E+02  0.92517928065E+01  0.24602642106E+02  0.47787271372E+02  0.20000001492E+02 0.  0.
        -12    1    1    2    0    0 -0.34536033020E+02 -0.92517928065E+01 -0.24602642106E+02  0.43400728628E+02  0.00000000000E+00 0.  1.
         11    1    3    3    0    0  0.13620834300E+02  0.10930605304E+02  0.53578927417E+01  0.18267793360E+02  0.51100000000E-03 0. -1.
        -11    1    3    3    0    0  0.56928762604E+01 -0.27224235784E+01  0.22974703067E+01  0.67155640365E+01  0.51100000000E-03 0.  1.
        -12    1    3    3    0    0  0.15222322460E+02  0.10436110806E+01  0.16947279058E+02  0.22803913976E+02  0.00000000000E+00 0.  1.
</event>
<event>
 7    1  0.1542786E-009  0.4778726E+02  0.7816164E-02  0.1312668E+00
        -11   -1    0    0    0    0  0.00000000000E+00  0.00000000000E+00  0.45593999997E+02  0.45594000000E+02  0.51100000000E-03 0. -1.
         11   -1    0    0    0    0 -0.00000000000E+00 -0.00000000000E+00 -0.45593999997E+02  0.45594000000E+02  0.51100000000E-03 0.  1.
    9900012    2    1    2    0    0 -0.22598800813E+02 -0.15267054015E+02  0.33761444726E+02  0.47787263988E+02  0.19999967825E+02 0.  0.
        -12    1    1    2    0    0  0.22598800813E+02  0.15267054015E+02 -0.33761444726E+02  0.43400736012E+02  0.00000000000E+00 0.  1.
         11    1    3    3    0    0 -0.10938936377E+02 -0.76518187876E+01  0.22376499637E+02  0.26056062560E+02  0.51100000000E-03 0. -1.
        -11    1    3    3    0    0  0.23560805027E+01 -0.22455979406E+01  0.34897490242E+01  0.47720199034E+01  0.51100000000E-03 0.  1.
        -12    1    3    3    0    0 -0.14015944938E+02 -0.53696372868E+01  0.78951960640E+01  0.16959181525E+02  0.00000000000E+00 0.  1.
</event>
<event>
 7    1  0.1542786E-009  0.4778728E+02  0.7816164E-02  0.1312668E+00
        -11   -1    0    0    0    0  0.00000000000E+00  0.00000000000E+00  0.45593999997E+02  0.45594000000E+02  0.51100000000E-03 0.  1.
         11   -1    0    0    0    0 -0.00000000000E+00 -0.00000000000E+00 -0.45593999997E+02  0.45594000000E+02  0.51100000000E-03 0. -1.
    9900012    2    1    2    0    0 -0.11859500670E+02 -0.36472512711E+02 -0.20315772108E+02  0.47787279546E+02  0.20000038760E+02 0.  0.
        -12    1    1    2    0    0  0.11859500670E+02  0.36472512711E+02  0.20315772108E+02  0.43400720454E+02  0.00000000000E+00 0.  1.
         11    1    3    3    0    0  0.79148735913E+00 -0.39400400997E+01  0.79897194867E+00  0.40974046252E+01  0.51100000000E-03 0. -1.
        -11    1    3    3    0    0 -0.47387308171E+01 -0.22375854964E+02 -0.56355827563E+01  0.23556193419E+02  0.51100000000E-03 0.  1.
         12    1    3    3    0    0 -0.79122572120E+01 -0.10156617647E+02 -0.15479161301E+02  0.20133681501E+02  0.00000000000E+00 0. -1.
</event>
<event>
 7    1  0.1542786E-009  0.4778727E+02  0.7816164E-02  0.1312668E+00
        -11   -1    0    0    0    0  0.00000000000E+00  0.00000000000E+00  0.45593999997E+02  0.45594000000E+02  0.51100000000E-03 0.  1.
         11   -1    0    0    0    0 -0.00000000000E+00 -0.00000000000E+00 -0.45593999997E+02  0.45594000000E+02  0.51100000000E-03 0. -1.
    9900012    2    1    2    0    0  0.20607751188E+02  0.92383447139E+01 -0.37062067548E+02  0.47787271054E+02  0.20000000045E+02 0.  0.
        -12    1    1    2    0    0 -0.20607751188E+02 -0.92383447139E+01  0.37062067548E+02  0.43400728946E+02  0.00000000000E+00 0.  1.
         11    1    3    3    0    0  0.13095904934E+02  0.66439507863E+01 -0.12440150028E+02  0.19245834382E+02  0.51100000000E-03 0. -1.
        -11    1    3    3    0    0  0.27020460295E+01 -0.44757059733E+01 -0.54667360613E+01  0.75642712887E+01  0.51100000000E-03 0.  1.
         12    1    3    3    0    0  0.48098002250E+01  0.70700999009E+01 -0.19155181458E+02  0.20977165383E+02  0.00000000000E+00 0. -1.
</event>
<event>
 7    1  0.1542786E-009  0.4778727E+02  0.7816164E-02  0.1312668E+00
        -11   -1    0    0    0    0  0.00000000000E+00  0.00000000000E+00  0.45593999997E+02  0.45594000000E+02  0.51100000000E-03 0.  1.
         11   -1    0    0    0    0 -0.00000000000E+00 -0.00000000000E+00 -0.45593999997E+02  0.45594000000E+02  0.51100000000E-03 0. -1.
    9900012    2    1    2    0    0 -0.18226374840E+02 -0.20173479089E+02 -0.33829769229E+02  0.47787270922E+02  0.19999999443E+02 0.  0.
        -12    1    1    2    0    0  0.18226374840E+02  0.20173479089E+02  0.33829769229E+02  0.43400729078E+02  0.00000000000E+00 0.  1.
         11    1    3    3    0    0 -0.90473914320E+01 -0.12140638639E+01 -0.10887944426E+02  0.14208327730E+02  0.51100000000E-03 0. -1.
        -11    1    3    3    0    0 -0.80009164107E+01 -0.11638736354E+02 -0.65101720367E+01  0.15551758342E+02  0.51100000000E-03 0.  1.
         12    1    3    3    0    0 -0.11780669974E+01 -0.73206788713E+01 -0.16431652766E+02  0.18027184850E+02  0.00000000000E+00 0. -1.
</event>
<event>
 7    1  0.1542786E-009  0.4778728E+02  0.7816164E-02  0.1312668E+00
        -11   -1    0    0    0    0  0.00000000000E+00  0.00000000000E+00  0.45593999997E+02  0.45594000000E+02  0.51100000000E-03 0.  1.
         11   -1    0    0    0    0 -0.00000000000E+00 -0.00000000000E+00 -0.45593999997E+02  0.45594000000E+02  0.51100000000E-03 0. -1.
    9900012    2    1    2    0    0 -0.33291788255E+02 -0.25945456167E+02  0.10105083739E+02  0.47787279058E+02  0.20000036537E+02 0.  0.
        -12    1    1    2    0    0  0.33291788255E+02  0.25945456167E+02 -0.10105083739E+02  0.43400720942E+02  0.00000000000E+00 0.  1.
         11    1    3    3    0    0  0.17437588695E+01 -0.56619717016E+01  0.31984319000E+00  0.59330361933E+01  0.51100000000E-03 0.  1.
        -11    1    3    3    0    0 -0.11837312354E+02 -0.47434860638E+01  0.24648325789E+01  0.12988380334E+02  0.51100000000E-03 0. -1.
        -12    1    3    3    0    0 -0.23198234770E+02 -0.15539998402E+02  0.73204079700E+01  0.28865862531E+02  0.00000000000E+00 0.  1.
</event>
<event>
 7    1  0.1542786E-009  0.4778727E+02  0.7816164E-02  0.1312668E+00
        -11   -1    0    0    0    0  0.00000000000E+00  0.00000000000E+00  0.45593999997E+02  0.45594000000E+02  0.51100000000E-03 0.  1.
         11   -1    0    0    0    0 -0.00000000000E+00 -0.00000000000E+00 -0.45593999997E+02  0.45594000000E+02  0.51100000000E-03 0. -1.
    9900012    2    1    2    0    0 -0.37920174019E+02 -0.20501390262E+02 -0.50375498161E+01  0.47787268341E+02  0.19999987676E+02 0.  0.
        -12    1    1    2    0    0  0.37920174019E+02  0.20501390262E+02  0.50375498161E+01  0.43400731659E+02  0.00000000000E+00 0.  1.
         11    1    3    3    0    0 -0.22459620617E+02 -0.12744737235E+02 -0.18569571726E+01  0.25890368395E+02  0.51100000000E-03 0. -1.
        -11    1    3    3    0    0 -0.49564532991E+01 -0.25224938574E+01  0.50903388150E+01  0.75392940040E+01  0.51100000000E-03 0.  1.
        -12    1    3    3    0    0 -0.10504100103E+02 -0.52341591699E+01 -0.82709314584E+01  0.14357605942E+02  0.00000000000E+00 0.  1.
</event>
<event>
 7    1  0.1542786E-009  0.4778727E+02  0.7816164E-02  0.1312668E+00
        -11   -1    0    0    0    0  0.00000000000E+00  0.00000000000E+00  0.45593999997E+02  0.45594000000E+02  0.51100000000E-03 0. -1.
         11   -1    0    0    0    0 -0.00000000000E+00 -0.00000000000E+00 -0.45593999997E+02  0.45594000000E+02  0.51100000000E-03 0.  1.
    9900012    2    1    2    0    0 -0.36158130880E+01 -0.28609616503E+02  0.32435153104E+02  0.47787269388E+02  0.19999992450E+02 0.  0.
        -12    1    1    2    0    0  0.36158130880E+01  0.28609616503E+02 -0.32435153104E+02  0.43400730612E+02  0.00000000000E+00 0.  1.
         11    1    3    3    0    0  0.25406849599E+00 -0.14827296833E+02  0.10363626461E+02  0.18091932894E+02  0.51100000000E-03 0. -1.
        -11    1    3    3    0    0  0.24053314333E+01 -0.69761285714E+01  0.18240148676E+02  0.19676255059E+02  0.51100000000E-03 0.  1.
         12    1    3    3    0    0 -0.62752130173E+01 -0.68061910985E+01  0.38313779671E+01  0.10019081435E+02  0.00000000000E+00 0. -1.
</event>
<event>
 7    1  0.1542786E-009  0.4778728E+02  0.7816164E-02  0.1312668E+00
        -11   -1    0    0    0    0  0.00000000000E+00  0.00000000000E+00  0.45593999997E+02  0.45594000000E+02  0.51100000000E-03 0. -1.
         11   -1    0    0    0    0 -0.00000000000E+00 -0.00000000000E+00 -0.45593999997E+02  0.45594000000E+02  0.51100000000E-03 0.  1.
    9900012    2    1    2    0    0  0.41731387671E+02  0.11125516910E+02 -0.42821788445E+01  0.47787275362E+02  0.20000019685E+02 0.  0.
        -12    1    1    2    0    0 -0.41731387671E+02 -0.11125516910E+02  0.42821788445E+01  0.43400724638E+02  0.00000000000E+00 0.  1.
         11    1    3    3    0    0  0.18121082709E+02  0.23921155478E+01 -0.21938977541E+01  0.18409482420E+02  0.51100000000E-03 0. -1.
        -11    1    3    3    0    0  0.10220004573E+02  0.95759436434E+01  0.41136987156E+01  0.14596907464E+02  0.51100000000E-03 0.  1.
        -12    1    3    3    0    0  0.13390300388E+02 -0.84254228104E+00 -0.62019798061E+01  0.14780885478E+02  0.00000000000E+00 0.  1.
</event>
<event>
 7    1  0.1542786E-009  0.4778727E+02  0.7816164E-02  0.1312668E+00
        -11   -1    0    0    0    0  0.00000000000E+00  0.00000000000E+00  0.45593999997E+02  0.45594000000E+02  0.51100000000E-03 0. -1.
         11   -1    0    0    0    0 -0.00000000000E+00 -0.00000000000E+00 -0.45593999997E+02  0.45594000000E+02  0.51100000000E-03 0.  1.
    9900012    2    1    2    0    0 -0.58954101399E+01 -0.41410207636E+02  0.11578510488E+02  0.47787273482E+02  0.20000011113E+02 0.  0.
        -12    1    1    2    0    0  0.58954101399E+01  0.41410207636E+02 -0.11578510488E+02  0.43400726518E+02  0.00000000000E+00 0.  1.
         11    1    3    3    0    0  0.29802794534E+01 -0.18888788461E+02  0.42802176991E+01  0.19595628568E+02  0.51100000000E-03 0. -1.
        -11    1    3    3    0    0 -0.60088410623E+00 -0.23428743824E+01  0.58546661376E+01  0.63346063749E+01  0.51100000000E-03 0.  1.
         12    1    3    3    0    0 -0.82748054870E+01 -0.20178544793E+02  0.14436266518E+01  0.21857038539E+02  0.00000000000E+00 0. -1.
</event>
<event>
 7    1  0.1542786E-009  0.4778727E+02  0.7816164E-02  0.1312668E+00
        -11   -1    0    0    0    0  0.00000000000E+00  0.00000000000E+00  0.45593999997E+02  0.45594000000E+02  0.51100000000E-03 0.  1.
         11   -1    0    0    0    0 -0.00000000000E+00 -0.00000000000E+00 -0.45593999997E+02  0.45594000000E+02  0.51100000000E-03 0. -1.
    9900012    2    1    2    0    0  0.29438849545E+01  0.31213820630E+02 -0.30010896163E+02  0.47787274828E+02  0.20000017253E+02 0.  0.
        -12    1    1    2    0    0 -0.29438849545E+01 -0.31213820630E+02  0.30010896163E+02  0.43400725172E+02  0.00000000000E+00 0.  1.
         11    1    3    3    0    0  0.25712408507E+01 -0.56717753791E+00 -0.51521834876E+01  0.57860145889E+01  0.51100000000E-03 0. -1.
        -11    1    3    3    0    0  0.58364405808E+01  0.18756238129E+02 -0.12964602429E+02  0.23535960227E+02  0.51100000000E-03 0.  1.
         12    1    3    3    0    0 -0.54637964770E+01  0.13024760039E+02 -0.11894110246E+02  0.18465300013E+02  0.00000000000E+00 0. -1.
</event>
<event>
 7    1  0.1542786E-009  0.4778727E+02  0.7816164E-02  0.1312668E+00
        -11   -1    0    0    0    0  0.00000000000E+00  0.00000000000E+00  0.45593999997E+02  0.45594000000E+02  0.51100000000E-03 0. -1.
         11   -1    0    0    0    0 -0.00000000000E+00 -0.00000000000E+00 -0.45593999997E+02  0.45594000000E+02  0.51100000000E-03 0.  1.
    9900012    2    1    2    0    0  0.43099102810E+02 -0.50162991178E+01  0.96299057700E+00  0.47787271081E+02  0.20000000166E+02 0.  0.
        -12    1    1    2    0    0 -0.43099102810E+02  0.50162991178E+01 -0.96299057700E+00  0.43400728919E+02  0.00000000000E+00 0.  1.
         11    1    3    3    0    0  0.20715006763E+02 -0.66914761180E+01  0.74750003891E+01  0.23016580739E+02  0.51100000000E-03 0. -1.
        -11    1    3    3    0    0  0.16912912691E+02 -0.23925891841E+01 -0.45883413737E+01  0.17686830568E+02  0.51100000000E-03 0.  1.
        -12    1    3    3    0    0  0.54711833558E+01  0.40677661842E+01 -0.19236684384E+01  0.70838597744E+01  0.00000000000E+00 0.  1.
</event>
<event>
 7    1  0.1542786E-009  0.4778727E+02  0.7816164E-02  0.1312668E+00
        -11   -1    0    0    0    0  0.00000000000E+00  0.00000000000E+00  0.45593999997E+02  0.45594000000E+02  0.51100000000E-03 0.  1.
         11   -1    0    0    0    0 -0.00000000000E+00 -0.00000000000E+00 -0.45593999997E+02  0.45594000000E+02  0.51100000000E-03 0. -1.
    9900012    2    1    2    0    0  0.14138591364E+02 -0.36635930475E+02 -0.18480594222E+02  0.47787268090E+02  0.19999986528E+02 0.  0.
        -12    1    1    2    0    0 -0.14138591364E+02  0.36635930475E+02  0.18480594222E+02  0.43400731910E+02  0.00000000000E+00 0.  1.
         11    1    3    3    0    0  0.90386362292E+01 -0.13625386312E+02 -0.18540200439E+01  0.16455560994E+02  0.51100000000E-03 0. -1.
        -11    1    3    3    0    0  0.86853722259E+01 -0.12307751121E+02 -0.75628551182E+01  0.16855657987E+02  0.51100000000E-03 0.  1.
        -12    1    3    3    0    0 -0.35854170909E+01 -0.10702793042E+02 -0.90637190597E+01  0.14476049109E+02  0.00000000000E+00 0.  1.
</event>
<event>
 7    1  0.1542786E-009  0.4778727E+02  0.7816164E-02  0.1312668E+00
        -11   -1    0    0    0    0  0.00000000000E+00  0.00000000000E+00  0.45593999997E+02  0.45594000000E+02  0.51100000000E-03 0.  1.
         11   -1    0    0    0    0 -0.00000000000E+00 -0.00000000000E+00 -0.45593999997E+02  0.45594000000E+02  0.51100000000E-03 0. -1.
    9900012    2    1    2    0    0  0.15885706816E+02 -0.31799914738E+00 -0.40387703164E+02  0.47787269922E+02  0.19999994880E+02 0.  0.
        -12    1    1    2    0    0 -0.15885706816E+02  0.31799914738E+00  0.40387703164E+02  0.43400730078E+02  0.00000000000E+00 0.  1.
         11    1    3    3    0    0 -0.32598900556E+01 -0.39971433013E+01 -0.50184953945E+01  0.71964806699E+01  0.51100000000E-03 0.  1.
        -11    1    3    3    0    0  0.62167942676E+01  0.24465709608E+01 -0.15178384790E+02  0.16583654770E+02  0.51100000000E-03 0. -1.
        -12    1    3    3    0    0  0.12928802604E+02  0.12325731932E+01 -0.20190822979E+02  0.24007134482E+02  0.00000000000E+00 0.  1.
</event>
<event>
 7    1  0.1542786E-009  0.4778727E+02  0.7816164E-02  0.1312668E+00
        -11   -1    0    0    0    0  0.00000000000E+00  0.00000000000E+00  0.45593999997E+02  0.45594000000E+02  0.51100000000E-03 0.  1.
         11   -1    0    0    0    0 -0.00000000000E+00 -0.00000000000E+00 -0.45593999997E+02  0.45594000000E+02  0.51100000000E-03 0. -1.
    9900012    2    1    2    0    0  0.11621758060E+02 -0.22100887677E+02 -0.35498010041E+02  0.47787271741E+02  0.20000003175E+02 0.  0.
        -12    1    1    2    0    0 -0.11621758060E+02  0.22100887677E+02  0.35498010041E+02  0.43400728259E+02  0.00000000000E+00 0.  1.
         11    1    3    3    0    0  0.82318937640E+00 -0.10666075959E+02 -0.25468509345E+02  0.27624043615E+02  0.51100000000E-03 0. -1.
        -11    1    3    3    0    0  0.17430774732E+01 -0.57564252251E+01 -0.85080713873E+00  0.60744237173E+01  0.51100000000E-03 0.  1.
        -12    1    3    3    0    0  0.90554912108E+01 -0.56783864930E+01 -0.91786935572E+01  0.14088804408E+02  0.00000000000E+00 0.  1.
</event>
<event>
 7    1  0.1542786E-009  0.4778727E+02  0.7816164E-02  0.1312668E+00
        -11   -1    0    0    0    0  0.00000000000E+00  0.00000000000E+00  0.45593999997E+02  0.45594000000E+02  0.51100000000E-03 0.  1.
         11   -1    0    0    0    0 -0.00000000000E+00 -0.00000000000E+00 -0.45593999997E+02  0.45594000000E+02  0.51100000000E-03 0. -1.
    9900012    2    1    2    0    0  0.17365818675E+01  0.23878774549E+02 -0.36199612682E+02  0.47787267877E+02  0.19999985558E+02 0.  0.
        -12    1    1    2    0    0 -0.17365818675E+01 -0.23878774549E+02  0.36199612682E+02  0.43400732123E+02  0.00000000000E+00 0.  1.
         11    1    3    3    0    0  0.78856767203E+00 -0.18642523676E+01 -0.37247836221E+01  0.42392557314E+01  0.51100000000E-03 0. -1.
        -11    1    3    3    0    0 -0.36904132763E+01  0.11159559994E+02 -0.65831773017E+01  0.13471939469E+02  0.51100000000E-03 0.  1.
        -12    1    3    3    0    0  0.46384274718E+01  0.14583466922E+02 -0.25891651758E+02  0.30076072676E+02  0.00000000000E+00 0.  1.
</event>
<event>
 7    1  0.1542786E-009  0.4778727E+02  0.7816164E-02  0.1312668E+00
        -11   -1    0    0    0    0  0.00000000000E+00  0.00000000000E+00  0.45593999997E+02  0.45594000000E+02  0.51100000000E-03 0.  1.
         11   -1    0    0    0    0 -0.00000000000E+00 -0.00000000000E+00 -0.45593999997E+02  0.45594000000E+02  0.51100000000E-03 0. -1.
    9900012    2    1    2    0    0 -0.10735674865E+02 -0.50109181904E+00 -0.42048988630E+02  0.47787271289E+02  0.20000001115E+02 0.  0.
        -12    1    1    2    0    0  0.10735674865E+02  0.50109181904E+00  0.42048988630E+02  0.43400728711E+02  0.00000000000E+00 0.  1.
         11    1    3    3    0    0 -0.29254093858E+01 -0.32619616484E+00 -0.38223064180E+02  0.38336236899E+02  0.51100000000E-03 0. -1.
        -11    1    3    3    0    0 -0.12303778486E+01 -0.14609895948E+01 -0.54137551167E+00  0.19852979505E+01  0.51100000000E-03 0.  1.
         12    1    3    3    0    0 -0.65798876309E+01  0.12860939406E+01 -0.32845489389E+01  0.74657364399E+01  0.00000000000E+00 0. -1.
</event>
<event>
 7    1  0.1542786E-009  0.4778727E+02  0.7816164E-02  0.1312668E+00
        -11   -1    0    0    0    0  0.00000000000E+00  0.00000000000E+00  0.45593999997E+02  0.45594000000E+02  0.51100000000E-03 0.  1.
         11   -1    0    0    0    0 -0.00000000000E+00 -0.00000000000E+00 -0.45593999997E+02  0.45594000000E+02  0.51100000000E-03 0. -1.
    9900012    2    1    2    0    0 -0.32196492176E+01  0.67521641041E+01 -0.42751204202E+02  0.47787270491E+02  0.19999997477E+02 0.  0.
        -12    1    1    2    0    0  0.32196492176E+01 -0.67521641041E+01  0.42751204202E+02  0.43400729509E+02  0.00000000000E+00 0.  1.
         11    1    3    3    0    0 -0.33408240425E+01 -0.12764464685E+01 -0.17561312106E+02  0.17921777368E+02  0.51100000000E-03 0. -1.
        -11    1    3    3    0    0  0.35362507247E+01 -0.10471954179E+01 -0.10254453537E+01  0.38279532215E+01  0.51100000000E-03 0.  1.
         12    1    3    3    0    0 -0.34150758998E+01  0.90758059905E+01 -0.24164446742E+02  0.26037539902E+02  0.00000000000E+00 0. -1.
</event>
<event>
 7    1  0.1542786E-009  0.4778727E+02  0.7816164E-02  0.1312668E+00
        -11   -1    0    0    0    0  0.00000000000E+00  0.00000000000E+00  0.45593999997E+02  0.45594000000E+02  0.51100000000E-03 0. -1.
         11   -1    0    0    0    0 -0.00000000000E+00 -0.00000000000E+00 -0.45593999997E+02  0.45594000000E+02  0.51100000000E-03 0.  1.
    9900012    2    1    2    0    0 -0.40390807244E+02  0.15819793847E+02  0.13929165297E+01  0.47787269550E+02  0.19999993185E+02 0.  0.
        -12    1    1    2    0    0  0.40390807244E+02 -0.15819793847E+02 -0.13929165297E+01  0.43400730450E+02  0.00000000000E+00 0.  1.
         11    1    3    3    0    0 -0.12450261655E+02  0.71554063861E+01 -0.65573291231E+01  0.15786304866E+02  0.51100000000E-03 0. -1.
        -11    1    3    3    0    0 -0.17391783977E+01 -0.18372745181E+01 -0.40654456512E+00  0.25623422680E+01  0.51100000000E-03 0.  1.
         12    1    3    3    0    0 -0.26201367191E+02  0.10501661979E+02  0.83567902179E+01  0.29438622416E+02  0.00000000000E+00 0. -1.
</event>
<event>
 7    1  0.1542786E-009  0.4778728E+02  0.7816164E-02  0.1312668E+00
        -11   -1    0    0    0    0  0.00000000000E+00  0.00000000000E+00  0.45593999997E+02  0.45594000000E+02  0.51100000000E-03 0.  1.
         11   -1    0    0    0    0 -0.00000000000E+00 -0.00000000000E+00 -0.45593999997E+02  0.45594000000E+02  0.51100000000E-03 0. -1.
    9900012    2    1    2    0    0 -0.24078961712E+02  0.19982756072E+02 -0.30075158240E+02  0.47787284793E+02  0.20000062683E+02 0.  0.
        -12    1    1    2    0    0  0.24078961712E+02 -0.19982756072E+02  0.30075158240E+02  0.43400715207E+02  0.00000000000E+00 0.  1.
         11    1    3    3    0    0 -0.31497555768E+01  0.11677696208E+02 -0.12620214078E+02  0.17480256078E+02  0.51100000000E-03 0. -1.
        -11    1    3    3    0    0 -0.94359955029E+01  0.60574678729E+01 -0.28178490698E+01  0.11561626261E+02  0.51100000000E-03 0.  1.
         12    1    3    3    0    0 -0.11493210632E+02  0.22475919907E+01 -0.14637095092E+02  0.18745402453E+02  0.00000000000E+00 0. -1.
</event>
<event>
 7    1  0.1542786E-009  0.4778727E+02  0.7816164E-02  0.1312668E+00
        -11   -1    0    0    0    0  0.00000000000E+00  0.00000000000E+00  0.45593999997E+02  0.45594000000E+02  0.51100000000E-03 0.  1.
         11   -1    0    0    0    0 -0.00000000000E+00 -0.00000000000E+00 -0.45593999997E+02  0.45594000000E+02  0.51100000000E-03 0. -1.
    9900012    2    1    2    0    0 -0.20405444810E+02  0.33125856925E+02 -0.19233270322E+02  0.47787271179E+02  0.20000000613E+02 0.  0.
        -12    1    1    2    0    0  0.20405444810E+02 -0.33125856925E+02  0.19233270322E+02  0.43400728821E+02  0.00000000000E+00 0.  1.
         11    1    3    3    0    0 -0.19909819348E+02  0.25367159624E+02 -0.16386913719E+02  0.36172152761E+02  0.51100000000E-03 0. -1.
        -11    1    3    3    0    0 -0.79704400197E+00 -0.16380670123E+01 -0.81945846564E+00  0.19975122317E+01  0.51100000000E-03 0.  1.
        -12    1    3    3    0    0  0.30141853975E+00  0.93967643134E+01 -0.20268981376E+01  0.96176061865E+01  0.00000000000E+00 0.  1.
</event>
<event>
 7    1  0.1542786E-009  0.4778727E+02  0.7816164E-02  0.1312668E+00
        -11   -1    0    0    0    0  0.00000000000E+00  0.00000000000E+00  0.45593999997E+02  0.45594000000E+02  0.51100000000E-03 0. -1.
         11   -1    0    0    0    0 -0.00000000000E+00 -0.00000000000E+00 -0.45593999997E+02  0.45594000000E+02  0.51100000000E-03 0.  1.
    9900012    2    1    2    0    0 -0.82835880929E+01  0.11732794748E+02  0.40955427404E+02  0.47787270305E+02  0.19999996627E+02 0.  0.
        -12    1    1    2    0    0  0.82835880929E+01 -0.11732794748E+02 -0.40955427404E+02  0.43400729695E+02  0.00000000000E+00 0.  1.
         11    1    3    3    0    0 -0.73998864928E+00  0.90065345653E+00  0.50789045097E+01  0.52109529963E+01  0.51100000000E-03 0. -1.
        -11    1    3    3    0    0  0.32966026997E+01 -0.30561687917E+01  0.12642170199E+02  0.13417608753E+02  0.51100000000E-03 0.  1.
         12    1    3    3    0    0 -0.10840202143E+02  0.13888310083E+02  0.23234352695E+02  0.29158708555E+02  0.00000000000E+00 0. -1.
</event>
<event>
 7    1  0.1542786E-009  0.4778727E+02  0.7816164E-02  0.1312668E+00
        -11   -1    0    0    0    0  0.00000000000E+00  0.00000000000E+00  0.45593999997E+02  0.45594000000E+02  0.51100000000E-03 0. -1.
         11   -1    0    0    0    0 -0.00000000000E+00 -0.00000000000E+00 -0.45593999997E+02  0.45594000000E+02  0.51100000000E-03 0.  1.
    9900012    2    1    2    0    0  0.51179780146E+01 -0.41386437383E+02  0.12024661726E+02  0.47787269732E+02  0.19999994014E+02 0.  0.
        -12    1    1    2    0    0 -0.51179780146E+01  0.41386437383E+02 -0.12024661726E+02  0.43400730268E+02  0.00000000000E+00 0.  1.
         11    1    3    3    0    0  0.23502909670E+01 -0.38345442671E+01  0.44551238950E+01  0.63305391988E+01  0.51100000000E-03 0. -1.
        -11    1    3    3    0    0  0.34071297605E+01 -0.13339877598E+02  0.10141602328E+02  0.17100086713E+02  0.51100000000E-03 0.  1.
         12    1    3    3    0    0 -0.63944271283E+00 -0.24212015518E+02 -0.25720644970E+01  0.24356643820E+02  0.00000000000E+00 0. -1.
</event>
<event>
 7    1  0.1542786E-009  0.4778727E+02  0.7816164E-02  0.1312668E+00
        -11   -1    0    0    0    0  0.00000000000E+00  0.00000000000E+00  0.45593999997E+02  0.45594000000E+02  0.51100000000E-03 0.  1.
         11   -1    0    0    0    0 -0.00000000000E+00 -0.00000000000E+00 -0.45593999997E+02  0.45594000000E+02  0.51100000000E-03 0. -1.
    9900012    2    1    2    0    0  0.22031764435E+02  0.60369210029E+01 -0.36902308036E+02  0.47787269618E+02  0.19999993494E+02 0.  0.
        -12    1    1    2    0    0 -0.22031764435E+02 -0.60369210029E+01  0.36902308036E+02  0.43400730382E+02  0.00000000000E+00 0.  1.
         11    1    3    3    0    0  0.12959645507E+02  0.11347428053E+01 -0.24494231831E+02  0.27734589346E+02  0.51100000000E-03 0. -1.
        -11    1    3    3    0    0  0.53847003591E+01 -0.34622730009E+01 -0.67457533130E+01  0.92998666824E+01  0.51100000000E-03 0.  1.
        -12    1    3    3    0    0  0.36874185691E+01  0.83644511986E+01 -0.56623228917E+01  0.10752813589E+02  0.00000000000E+00 0.  1.
</event>
<event>
 7    1  0.1542786E-009  0.4778727E+02  0.7816164E-02  0.1312668E+00
        -11   -1    0    0    0    0  0.00000000000E+00  0.00000000000E+00  0.45593999997E+02  0.45594000000E+02  0.51100000000E-03 0.  1.
         11   -1    0    0    0    0 -0.00000000000E+00 -0.00000000000E+00 -0.45593999997E+02  0.45594000000E+02  0.51100000000E-03 0. -1.
    9900012    2    1    2    0    0  0.96090621645E+01 -0.15458689664E+02 -0.39399466258E+02  0.47787273010E+02  0.20000008962E+02 0.  0.
        -12    1    1    2    0    0 -0.96090621645E+01  0.15458689664E+02  0.39399466258E+02  0.43400726990E+02  0.00000000000E+00 0.  1.
         11    1    3    3    0    0  0.67110990733E+01 -0.79409634850E+01 -0.14695623094E+02  0.18001641321E+02  0.51100000000E-03 0.  1.
        -11    1    3    3    0    0 -0.20103852460E+00 -0.20617105500E+01 -0.23253378246E+02  0.23345463521E+02  0.51100000000E-03 0. -1.
        -12    1    3    3    0    0  0.30990016158E+01 -0.54560156294E+01 -0.14504649174E+01  0.64401681686E+01  0.00000000000E+00 0.  1.
</event>
<event>
 7    1  0.1949440E-009  0.4778727E+02  0.7816164E-02  0.1312668E+00
        -11   -1    0    0    0    0  0.00000000000E+00  0.00000000000E+00  0.45593999997E+02  0.45594000000E+02  0.51100000000E-03 0. -1.
         11   -1    0    0    0    0 -0.00000000000E+00 -0.00000000000E+00 -0.45593999997E+02  0.45594000000E+02  0.51100000000E-03 0.  1.
    9900012    2    1    2    0    0  0.37772692857E+02  0.92210932327E+00  0.21354086657E+02  0.47787266962E+02  0.19999981387E+02 0.  0.
        -12    1    1    2    0    0 -0.37772692857E+02 -0.92210932327E+00 -0.21354086657E+02  0.43400733038E+02  0.00000000000E+00 0.  1.
         11    1    3    3    0    0  0.15848481561E+02 -0.13034916998E+01  0.63032665434E+01  0.17105689925E+02  0.51100000000E-03 0. -1.
        -11    1    3    3    0    0  0.78862364157E+01 -0.14661104662E+01  0.13991426019E+02  0.16127684490E+02  0.51100000000E-03 0.  1.
        -12    1    3    3    0    0  0.14037974880E+02  0.36917114892E+01  0.10593940949E+01  0.14553892548E+02  0.00000000000E+00 0.  1.
</event>
<event>
 7    1  0.1542786E-009  0.4778727E+02  0.7816164E-02  0.1312668E+00
        -11   -1    0    0    0    0  0.00000000000E+00  0.00000000000E+00  0.45593999997E+02  0.45594000000E+02  0.51100000000E-03 0.  1.
         11   -1    0    0    0    0 -0.00000000000E+00 -0.00000000000E+00 -0.45593999997E+02  0.45594000000E+02  0.51100000000E-03 0. -1.
    9900012    2    1    2    0    0 -0.41082039498E+01 -0.24838112697E+02 -0.35352711730E+02  0.47787269491E+02  0.19999992918E+02 0.  0.
        -12    1    1    2    0    0  0.41082039498E+01  0.24838112697E+02  0.35352711730E+02  0.43400730509E+02  0.00000000000E+00 0.  1.
         11    1    3    3    0    0  0.21915987196E+01 -0.18409594830E+02 -0.31365248010E+02  0.36434805746E+02  0.51100000000E-03 0. -1.
        -11    1    3    3    0    0 -0.39439135945E+01 -0.69643751978E+01 -0.39751395855E+01  0.89363701424E+01  0.51100000000E-03 0.  1.
        -12    1    3    3    0    0 -0.23558890749E+01  0.53585733152E+00 -0.12324134605E-01  0.24160936028E+01  0.00000000000E+00 0.  1.
</event>
<event>
 7    1  0.1542786E-009  0.4778727E+02  0.7816164E-02  0.1312668E+00
        -11   -1    0    0    0    0  0.00000000000E+00  0.00000000000E+00  0.45593999997E+02  0.45594000000E+02  0.51100000000E-03 0.  1.
         11   -1    0    0    0    0 -0.00000000000E+00 -0.00000000000E+00 -0.45593999997E+02  0.45594000000E+02  0.51100000000E-03 0. -1.
    9900012    2    1    2    0    0 -0.39012300500E+02 -0.18603508980E+02 -0.39462510183E+01  0.47787273810E+02  0.20000012610E+02 0.  0.
        -12    1    1    2    0    0  0.39012300500E+02  0.18603508980E+02  0.39462510183E+01  0.43400726190E+02  0.00000000000E+00 0.  1.
         11    1    3    3    0    0 -0.84401499376E+01 -0.32647687863E+01  0.24952748761E+01  0.93872915778E+01  0.51100000000E-03 0. -1.
        -11    1    3    3    0    0 -0.17020274048E+02 -0.16268698290E+02 -0.76653494986E+01  0.24761216770E+02  0.51100000000E-03 0.  1.
        -12    1    3    3    0    0 -0.13551876515E+02  0.92995809622E+00  0.12238236042E+01  0.13638765463E+02  0.00000000000E+00 0.  1.
</event>
<event>
 7    1  0.1542786E-009  0.4778728E+02  0.7816164E-02  0.1312668E+00
        -11   -1    0    0    0    0  0.00000000000E+00  0.00000000000E+00  0.45593999997E+02  0.45594000000E+02  0.51100000000E-03 0.  1.
         11   -1    0    0    0    0 -0.00000000000E+00 -0.00000000000E+00 -0.45593999997E+02  0.45594000000E+02  0.51100000000E-03 0. -1.
    9900012    2    1    2    0    0  0.21927587559E+02 -0.18732087803E+02 -0.32433201449E+02  0.47787276897E+02  0.20000026685E+02 0.  0.
        -12    1    1    2    0    0 -0.21927587559E+02  0.18732087803E+02  0.32433201449E+02  0.43400723103E+02  0.00000000000E+00 0.  1.
         11    1    3    3    0    0  0.29535310733E+01  0.14433089136E+01 -0.45410346953E+01  0.56060220108E+01  0.51100000000E-03 0. -1.
        -11    1    3    3    0    0  0.64125240522E+01 -0.13625285619E+01 -0.38467484605E+00  0.65669569666E+01  0.51100000000E-03 0.  1.
         12    1    3    3    0    0  0.12561532434E+02 -0.18812868154E+02 -0.27507491908E+02  0.35614297920E+02  0.00000000000E+00 0. -1.
</event>
<event>
 7    1  0.1542786E-009  0.4778727E+02  0.7816164E-02  0.1312668E+00
        -11   -1    0    0    0    0  0.00000000000E+00  0.00000000000E+00  0.45593999997E+02  0.45594000000E+02  0.51100000000E-03 0.  1.
         11   -1    0    0    0    0 -0.00000000000E+00 -0.00000000000E+00 -0.45593999997E+02  0.45594000000E+02  0.51100000000E-03 0. -1.
    9900012    2    1    2    0    0  0.26040217262E+02 -0.11584993217E+02 -0.32731005363E+02  0.47787266193E+02  0.19999977880E+02 0.  0.
        -12    1    1    2    0    0 -0.26040217262E+02  0.11584993217E+02  0.32731005363E+02  0.43400733807E+02  0.00000000000E+00 0.  1.
         11    1    3    3    0    0  0.67391800218E+00 -0.46304135147E+01 -0.33807028414E+01  0.57726983945E+01  0.51100000000E-03 0. -1.
        -11    1    3    3    0    0  0.10676039496E+02  0.12893940344E+01 -0.20101594140E+02  0.22797246402E+02  0.51100000000E-03 0.  1.
         12    1    3    3    0    0  0.14690259764E+02 -0.82439737365E+01 -0.92487083820E+01  0.19217321396E+02  0.00000000000E+00 0. -1.
</event>
<event>
 7    1  0.1542786E-009  0.4778727E+02  0.7816164E-02  0.1312668E+00
        -11   -1    0    0    0    0  0.00000000000E+00  0.00000000000E+00  0.45593999997E+02  0.45594000000E+02  0.51100000000E-03 0.  1.
         11   -1    0    0    0    0 -0.00000000000E+00 -0.00000000000E+00 -0.45593999997E+02  0.45594000000E+02  0.51100000000E-03 0. -1.
    9900012    2    1    2    0    0  0.28899106797E+02  0.27263202024E+02 -0.17469486538E+02  0.47787268230E+02  0.19999987168E+02 0.  0.
        -12    1    1    2    0    0 -0.28899106797E+02 -0.27263202024E+02  0.17469486538E+02  0.43400731770E+02  0.00000000000E+00 0.  1.
         11    1    3    3    0    0  0.18497517106E+02  0.18067653955E+02 -0.13366678105E+02  0.29107839877E+02  0.51100000000E-03 0. -1.
        -11    1    3    3    0    0  0.29867718938E+01 -0.11816085036E+01 -0.49461334748E+01  0.58975623449E+01  0.51100000000E-03 0.  1.
         12    1    3    3    0    0  0.74148177978E+01  0.10377156573E+02  0.84332504236E+00  0.12781866008E+02  0.00000000000E+00 0. -1.
</event>
<event>
 7    1  0.1542786E-009  0.4778727E+02  0.7816164E-02  0.1312668E+00
        -11   -1    0    0    0    0  0.00000000000E+00  0.00000000000E+00  0.45593999997E+02  0.45594000000E+02  0.51100000000E-03 0.  1.
         11   -1    0    0    0    0 -0.00000000000E+00 -0.00000000000E+00 -0.45593999997E+02  0.45594000000E+02  0.51100000000E-03 0. -1.
    9900012    2    1    2    0    0 -0.31481385676E+02  0.24530657766E+02 -0.17052639355E+02  0.47787270473E+02  0.19999997397E+02 0.  0.
        -12    1    1    2    0    0  0.31481385676E+02 -0.24530657766E+02  0.17052639355E+02  0.43400729527E+02  0.00000000000E+00 0.  1.
         11    1    3    3    0    0 -0.84542725171E+01  0.84661769134E+01 -0.36704277495E+01  0.12514907728E+02  0.51100000000E-03 0. -1.
        -11    1    3    3    0    0 -0.24619888118E+01  0.62344468710E+00 -0.87891042175E+01  0.91486843532E+01  0.51100000000E-03 0.  1.
        -12    1    3    3    0    0 -0.20565124347E+02  0.15441036165E+02 -0.45931073876E+01  0.26123678392E+02  0.00000000000E+00 0.  1.
</event>
<event>
 7    1  0.1542786E-009  0.4778727E+02  0.7816164E-02  0.1312668E+00
        -11   -1    0    0    0    0  0.00000000000E+00  0.00000000000E+00  0.45593999997E+02  0.45594000000E+02  0.51100000000E-03 0.  1.
         11   -1    0    0    0    0 -0.00000000000E+00 -0.00000000000E+00 -0.45593999997E+02  0.45594000000E+02  0.51100000000E-03 0. -1.
    9900012    2    1    2    0    0 -0.38711016964E+02  0.10771774595E+01 -0.19593882196E+02  0.47787269992E+02  0.19999995203E+02 0.  0.
        -12    1    1    2    0    0  0.38711016964E+02 -0.10771774595E+01  0.19593882196E+02  0.43400730008E+02  0.00000000000E+00 0.  1.
         11    1    3    3    0    0 -0.27390138130E+01 -0.10826282816E+01 -0.78958128314E+01  0.84272261862E+01  0.51100000000E-03 0. -1.
        -11    1    3    3    0    0 -0.35219149444E+01 -0.22759691764E+01 -0.38236402513E+01  0.56748696549E+01  0.51100000000E-03 0.  1.
        -12    1    3    3    0    0 -0.32450088207E+02  0.44357749174E+01 -0.78744291137E+01  0.33685174151E+02  0.00000000000E+00 0.  1.
</event>
<event>
 7    1  0.1542786E-009  0.4778727E+02  0.7816164E-02  0.1312668E+00
        -11   -1    0    0    0    0  0.00000000000E+00  0.00000000000E+00  0.45593999997E+02  0.45594000000E+02  0.51100000000E-03 0.  1.
         11   -1    0    0    0    0 -0.00000000000E+00 -0.00000000000E+00 -0.45593999997E+02  0.45594000000E+02  0.51100000000E-03 0. -1.
    9900012    2    1    2    0    0 -0.80103349489E+01  0.42278408278E+02  0.56563017421E+01  0.47787273947E+02  0.20000013235E+02 0.  0.
        -12    1    1    2    0    0  0.80103349489E+01 -0.42278408278E+02 -0.56563017421E+01  0.43400726053E+02  0.00000000000E+00 0.  1.
         11    1    3    3    0    0  0.42181302899E+01  0.73738209662E+01 -0.38694091472E+01  0.93347836715E+01  0.51100000000E-03 0. -1.
        -11    1    3    3    0    0 -0.39379245088E+01  0.81093251885E+01  0.40112006608E+01  0.98670226235E+01  0.51100000000E-03 0.  1.
        -12    1    3    3    0    0 -0.82905407300E+01  0.26795262123E+02  0.55145102284E+01  0.28585467652E+02  0.00000000000E+00 0.  1.
</event>
<event>
 7    1  0.1542786E-009  0.4778725E+02  0.7816164E-02  0.1312668E+00
        -11   -1    0    0    0    0  0.00000000000E+00  0.00000000000E+00  0.45593999997E+02  0.45594000000E+02  0.51100000000E-03 0.  1.
         11   -1    0    0    0    0 -0.00000000000E+00 -0.00000000000E+00 -0.45593999997E+02  0.45594000000E+02  0.51100000000E-03 0. -1.
    9900012    2    1    2    0    0 -0.16037781100E+02 -0.77675270643E+00 -0.40321354328E+02  0.47787246755E+02  0.19999889254E+02 0.  0.
        -12    1    1    2    0    0  0.16037781100E+02  0.77675270643E+00  0.40321354328E+02  0.43400753245E+02  0.00000000000E+00 0.  1.
         11    1    3    3    0    0 -0.63520266640E+00  0.94444212647E-02 -0.20078441118E+02  0.20088488485E+02  0.51100000000E-03 0. -1.
        -11    1    3    3    0    0 -0.14164585325E+02 -0.31801100596E+01 -0.20354834442E+02  0.25001357220E+02  0.51100000000E-03 0.  1.
        -12    1    3    3    0    0 -0.12379931084E+01  0.23939129319E+01  0.11192123154E+00  0.26974010499E+01  0.00000000000E+00 0.  1.
</event>
<event>
 7    1  0.1542786E-009  0.4778729E+02  0.7816164E-02  0.1312668E+00
        -11   -1    0    0    0    0  0.00000000000E+00  0.00000000000E+00  0.45593999997E+02  0.45594000000E+02  0.51100000000E-03 0. -1.
         11   -1    0    0    0    0 -0.00000000000E+00 -0.00000000000E+00 -0.45593999997E+02  0.45594000000E+02  0.51100000000E-03 0.  1.
    9900012    2    1    2    0    0 -0.24975489758E+02  0.23686501786E+02  0.26434760462E+02  0.47787285534E+02  0.20000066063E+02 0.  0.
        -12    1    1    2    0    0  0.24975489758E+02 -0.23686501786E+02 -0.26434760462E+02  0.43400714466E+02  0.00000000000E+00 0.  1.
         11    1    3    3    0    0 -0.15096721061E+02  0.21328469990E+02  0.24211846521E+02  0.35623421104E+02  0.51100000000E-03 0. -1.
        -11    1    3    3    0    0  0.68381914958E+00  0.10209675080E+01  0.68396082638E+00  0.14063377812E+01  0.51100000000E-03 0.  1.
        -12    1    3    3    0    0 -0.10562587846E+02  0.13370642874E+01  0.15389531154E+01  0.10757526649E+02  0.00000000000E+00 0.  1.
</event>
<event>
 7    1  0.1542786E-009  0.4778728E+02  0.7816164E-02  0.1312668E+00
        -11   -1    0    0    0    0  0.00000000000E+00  0.00000000000E+00  0.45593999997E+02  0.45594000000E+02  0.51100000000E-03 0.  1.
         11   -1    0    0    0    0 -0.00000000000E+00 -0.00000000000E+00 -0.45593999997E+02  0.45594000000E+02  0.51100000000E-03 0. -1.
    9900012    2    1    2    0    0  0.28575462694E+02 -0.84814152034E+00 -0.32654948460E+02  0.47787284901E+02  0.20000063176E+02 0.  0.
        -12    1    1    2    0    0 -0.28575462694E+02  0.84814152034E+00  0.32654948460E+02  0.43400715099E+02  0.00000000000E+00 0.  1.
         11    1    3    3    0    0  0.11652764294E+02  0.61641793557E+01 -0.18497120505E+02  0.22714037291E+02  0.51100000000E-03 0. -1.
        -11    1    3    3    0    0  0.16370443413E+02 -0.53699436686E+01 -0.15263800004E+02  0.23017630272E+02  0.51100000000E-03 0.  1.
        -12    1    3    3    0    0  0.55225498759E+00 -0.16423772074E+01  0.11059720496E+01  0.20556173373E+01  0.00000000000E+00 0.  1.
</event>
<event>
 7    1  0.1542786E-009  0.4778727E+02  0.7816164E-02  0.1312668E+00
        -11   -1    0    0    0    0  0.00000000000E+00  0.00000000000E+00  0.45593999997E+02  0.45594000000E+02  0.51100000000E-03 0.  1.
         11   -1    0    0    0    0 -0.00000000000E+00 -0.00000000000E+00 -0.45593999997E+02  0.45594000000E+02  0.51100000000E-03 0. -1.
    9900012    2    1    2    0    0  0.23145125459E+02 -0.69389173945E+01 -0.36052431722E+02  0.47787271433E+02  0.20000001771E+02 0.  0.
        -12    1    1    2    0    0 -0.23145125459E+02  0.69389173945E+01  0.36052431722E+02  0.43400728567E+02  0.00000000000E+00 0.  1.
         11    1    3    3    0    0  0.53349456925E+01 -0.42394221008E+01 -0.14258651017E+02  0.15803274166E+02  0.51100000000E-03 0. -1.
        -11    1    3    3    0    0  0.46785729668E+01  0.60353575049E+01 -0.69263058291E+01  0.10309621618E+02  0.51100000000E-03 0.  1.
         12    1    3    3    0    0  0.13131606799E+02 -0.87348527986E+01 -0.14867474876E+02  0.21674375648E+02  0.00000000000E+00 0. -1.
</event>
<event>
 7    1  0.1542786E-009  0.4778728E+02  0.7816164E-02  0.1312668E+00
        -11   -1    0    0    0    0  0.00000000000E+00  0.00000000000E+00  0.45593999997E+02  0.45594000000E+02  0.51100000000E-03 0.  1.
         11   -1    0    0    0    0 -0.00000000000E+00 -0.00000000000E+00 -0.45593999997E+02  0.45594000000E+02  0.51100000000E-03 0. -1.
    9900012    2    1    2    0    0 -0.18647179550E+02  0.43514381893E+01 -0.38948305669E+02  0.47787276112E+02  0.20000023106E+02 0.  0.
        -12    1    1    2    0    0  0.18647179550E+02 -0.43514381893E+01  0.38948305669E+02  0.43400723888E+02  0.00000000000E+00 0.  1.
         11    1    3    3    0    0 -0.88264193795E+01  0.34786661476E+01 -0.87522749123E+01  0.12907715275E+02  0.51100000000E-03 0. -1.
        -11    1    3    3    0    0  0.80410598582E+00 -0.36298323843E+01 -0.16084975639E+01  0.40508683327E+01  0.51100000000E-03 0.  1.
         12    1    3    3    0    0 -0.10624866156E+02  0.45026044260E+01 -0.28587533193E+02  0.30828692504E+02  0.00000000000E+00 0. -1.
</event>
<event>
 7    1  0.1542786E-009  0.4778727E+02  0.7816164E-02  0.1312668E+00
        -11   -1    0    0    0    0  0.00000000000E+00  0.00000000000E+00  0.45593999997E+02  0.45594000000E+02  0.51100000000E-03 0. -1.
         11   -1    0    0    0    0 -0.00000000000E+00 -0.00000000000E+00 -0.45593999997E+02  0.45594000000E+02  0.51100000000E-03 0.  1.
    9900012    2    1    2    0    0 -0.39219727660E+01 -0.35568226097E+02  0.24558958162E+02  0.47787274152E+02  0.20000014170E+02 0.  0.
        -12    1    1    2    0    0  0.39219727660E+01  0.35568226097E+02 -0.24558958162E+02  0.43400725848E+02  0.00000000000E+00 0.  1.
         11    1    3    3    0    0 -0.25193441300E+01 -0.20420647855E+02  0.12193971664E+02  0.23917418315E+02  0.51100000000E-03 0. -1.
        -11    1    3    3    0    0  0.53397025170E+01 -0.43591027708E+01  0.13115824526E+01  0.70167263541E+01  0.51100000000E-03 0.  1.
         12    1    3    3    0    0 -0.67423311530E+01 -0.10788475472E+02  0.11053404046E+02  0.16853129483E+02  0.00000000000E+00 0. -1.
</event>
<event>
 7    1  0.1542786E-009  0.4778727E+02  0.7816164E-02  0.1312668E+00
        -11   -1    0    0    0    0  0.00000000000E+00  0.00000000000E+00  0.45593999997E+02  0.45594000000E+02  0.51100000000E-03 0. -1.
         11   -1    0    0    0    0 -0.00000000000E+00 -0.00000000000E+00 -0.45593999997E+02  0.45594000000E+02  0.51100000000E-03 0.  1.
    9900012    2    1    2    0    0 -0.37653697739E+02 -0.13345968468E+02  0.16961938645E+02  0.47787272006E+02  0.20000004385E+02 0.  0.
        -12    1    1    2    0    0  0.37653697739E+02  0.13345968468E+02 -0.16961938645E+02  0.43400727994E+02  0.00000000000E+00 0.  1.
         11    1    3    3    0    0 -0.47147779317E+01 -0.34703248123E+01  0.33065464861E+01  0.67235061667E+01  0.51100000000E-03 0. -1.
        -11    1    3    3    0    0 -0.33915330150E+02 -0.64549908863E+01  0.99548372084E+01  0.35930701505E+02  0.51100000000E-03 0.  1.
        -12    1    3    3    0    0  0.97641034201E+00 -0.34206527694E+01  0.37005549505E+01  0.51330643349E+01  0.00000000000E+00 0.  1.
</event>
<event>
 7    1  0.1542786E-009  0.4778727E+02  0.7816164E-02  0.1312668E+00
        -11   -1    0    0    0    0  0.00000000000E+00  0.00000000000E+00  0.45593999997E+02  0.45594000000E+02  0.51100000000E-03 0.  1.
         11   -1    0    0    0    0 -0.00000000000E+00 -0.00000000000E+00 -0.45593999997E+02  0.45594000000E+02  0.51100000000E-03 0. -1.
    9900012    2    1    2    0    0 -0.41555890418E+02  0.38026703422E+01 -0.11927755382E+02  0.47787266382E+02  0.19999978741E+02 0.  0.
        -12    1    1    2    0    0  0.41555890418E+02 -0.38026703422E+01  0.11927755382E+02  0.43400733618E+02  0.00000000000E+00 0.  1.
         11    1    3    3    0    0 -0.23816564616E+02 -0.52333567917E+01 -0.81468119675E+01  0.25709673645E+02  0.51100000000E-03 0. -1.
        -11    1    3    3    0    0 -0.16527516381E+02  0.47832503827E+01 -0.20444441786E+01  0.17326801038E+02  0.51100000000E-03 0.  1.
        -12    1    3    3    0    0 -0.12118094202E+01  0.42527767512E+01 -0.17364992363E+01  0.47507916987E+01  0.00000000000E+00 0.  1.
</event>
<event>
 7    1  0.1542786E-009  0.4778727E+02  0.7816164E-02  0.1312668E+00
        -11   -1    0    0    0    0  0.00000000000E+00  0.00000000000E+00  0.45593999997E+02  0.45594000000E+02  0.51100000000E-03 0. -1.
         11   -1    0    0    0    0 -0.00000000000E+00 -0.00000000000E+00 -0.45593999997E+02  0.45594000000E+02  0.51100000000E-03 0.  1.
    9900012    2    1    2    0    0 -0.28277974942E+02 -0.32625012110E+02  0.44258211327E+01  0.47787272187E+02  0.20000005210E+02 0.  0.
        -12    1    1    2    0    0  0.28277974942E+02  0.32625012110E+02 -0.44258211327E+01  0.43400727813E+02  0.00000000000E+00 0.  1.
         11    1    3    3    0    0  0.13351858253E+01  0.28542393150E+00 -0.90747039199E+00  0.16394178181E+01  0.51100000000E-03 0. -1.
        -11    1    3    3    0    0 -0.12983038725E+02 -0.13028879502E+02 -0.35798064470E+01  0.18738356654E+02  0.51100000000E-03 0.  1.
         12    1    3    3    0    0 -0.16630122042E+02 -0.19881556539E+02  0.89130979717E+01  0.27409497715E+02  0.00000000000E+00 0. -1.
</event>
<event>
 7    1  0.1542786E-009  0.4778727E+02  0.7816164E-02  0.1312668E+00
        -11   -1    0    0    0    0  0.00000000000E+00  0.00000000000E+00  0.45593999997E+02  0.45594000000E+02  0.51100000000E-03 0.  1.
         11   -1    0    0    0    0 -0.00000000000E+00 -0.00000000000E+00 -0.45593999997E+02  0.45594000000E+02  0.51100000000E-03 0. -1.
    9900012    2    1    2    0    0  0.24162275202E+02  0.86675985611E+01 -0.34995433491E+02  0.47787272207E+02  0.20000005300E+02 0.  0.
        -12    1    1    2    0    0 -0.24162275202E+02 -0.86675985611E+01  0.34995433491E+02  0.43400727793E+02  0.00000000000E+00 0.  1.
         11    1    3    3    0    0  0.26511066622E+02  0.99715632335E+01 -0.26302676220E+02  0.38653583319E+02  0.51100000000E-03 0. -1.
        -11    1    3    3    0    0 -0.10865788041E+01 -0.42124497170E+00 -0.25994684172E+01  0.28487430802E+01  0.51100000000E-03 0.  1.
         12    1    3    3    0    0 -0.12622126159E+01 -0.88271970078E+00 -0.60932888535E+01  0.62849458080E+01  0.00000000000E+00 0. -1.
</event>
<event>
 7    1  0.1542786E-009  0.4778727E+02  0.7816164E-02  0.1312668E+00
        -11   -1    0    0    0    0  0.00000000000E+00  0.00000000000E+00  0.45593999997E+02  0.45594000000E+02  0.51100000000E-03 0. -1.
         11   -1    0    0    0    0 -0.00000000000E+00 -0.00000000000E+00 -0.45593999997E+02  0.45594000000E+02  0.51100000000E-03 0.  1.
    9900012    2    1    2    0    0  0.10741875115E+02  0.41496260330E+02 -0.68041243860E+01  0.47787267160E+02  0.19999982291E+02 0.  0.
        -12    1    1    2    0    0 -0.10741875115E+02 -0.41496260330E+02  0.68041243860E+01  0.43400732840E+02  0.00000000000E+00 0.  1.
         11    1    3    3    0    0  0.66716572450E+01  0.18744788364E+02 -0.82562976284E+01  0.21541693341E+02  0.51100000000E-03 0. -1.
        -11    1    3    3    0    0  0.44526024116E+01  0.69744712096E+01 -0.44513161094E+01  0.93959104005E+01  0.51100000000E-03 0.  1.
        -12    1    3    3    0    0 -0.38238454124E+00  0.15777000756E+02  0.59034893518E+01  0.16849663419E+02  0.00000000000E+00 0.  1.
</event>
<event>
 7    1  0.1542786E-009  0.4778727E+02  0.7816164E-02  0.1312668E+00
        -11   -1    0    0    0    0  0.00000000000E+00  0.00000000000E+00  0.45593999997E+02  0.45594000000E+02  0.51100000000E-03 0.  1.
         11   -1    0    0    0    0 -0.00000000000E+00 -0.00000000000E+00 -0.45593999997E+02  0.45594000000E+02  0.51100000000E-03 0. -1.
    9900012    2    1    2    0    0 -0.21794669515E+02  0.37276393435E+02 -0.43687518416E+01  0.47787272824E+02  0.20000008112E+02 0.  0.
        -12    1    1    2    0    0  0.21794669515E+02 -0.37276393435E+02  0.43687518416E+01  0.43400727176E+02  0.00000000000E+00 0.  1.
         11    1    3    3    0    0 -0.78881594899E+01  0.13356602719E+02 -0.11996834713E+01  0.15558314081E+02  0.51100000000E-03 0. -1.
        -11    1    3    3    0    0 -0.84222669475E+01  0.16683692131E+02  0.56975402248E+01  0.19538222246E+02  0.51100000000E-03 0.  1.
        -12    1    3    3    0    0 -0.54842430778E+01  0.72360985847E+01 -0.88666085951E+01  0.12690736497E+02  0.00000000000E+00 0.  1.
</event>
<event>
 7    1  0.1542786E-009  0.4778727E+02  0.7816164E-02  0.1312668E+00
        -11   -1    0    0    0    0  0.00000000000E+00  0.00000000000E+00  0.45593999997E+02  0.45594000000E+02  0.51100000000E-03 0.  1.
         11   -1    0    0    0    0 -0.00000000000E+00 -0.00000000000E+00 -0.45593999997E+02  0.45594000000E+02  0.51100000000E-03 0. -1.
    9900012    2    1    2    0    0  0.31387835430E+02 -0.26952849456E+02 -0.13113763592E+02  0.47787273021E+02  0.20000009011E+02 0.  0.
        -12    1    1    2    0    0 -0.31387835430E+02  0.26952849456E+02  0.13113763592E+02  0.43400726979E+02  0.00000000000E+00 0.  1.
         11    1    3    3    0    0  0.83640565497E+01 -0.11040298363E+02 -0.51976690826E+01  0.14793964785E+02  0.51100000000E-03 0. -1.
        -11    1    3    3    0    0  0.17479803862E+02 -0.68229799345E+01  0.14403313662E+01  0.18819435511E+02  0.51100000000E-03 0.  1.
        -12    1    3    3    0    0  0.55439750180E+01 -0.90895711582E+01 -0.93564258754E+01  0.14173872724E+02  0.00000000000E+00 0.  1.
</event>
<event>
 7    1  0.1542786E-009  0.4778727E+02  0.7816164E-02  0.1312668E+00
        -11   -1    0    0    0    0  0.00000000000E+00  0.00000000000E+00  0.45593999997E+02  0.45594000000E+02  0.51100000000E-03 0.  1.
         11   -1    0    0    0    0 -0.00000000000E+00 -0.00000000000E+00 -0.45593999997E+02  0.45594000000E+02  0.51100000000E-03 0. -1.
    9900012    2    1    2    0    0  0.15322665217E+02 -0.33200908434E+02 -0.23378172573E+02  0.47787270247E+02  0.19999996365E+02 0.  0.
        -12    1    1    2    0    0 -0.15322665217E+02  0.33200908434E+02  0.23378172573E+02  0.43400729753E+02  0.00000000000E+00 0.  1.
         11    1    3    3    0    0  0.74570819262E+00 -0.54538055172E+01 -0.89894373556E+01  0.10540875654E+02  0.51100000000E-03 0.  1.
        -11    1    3    3    0    0  0.57684790775E+01 -0.16291407703E+02 -0.14853246253E+02  0.22788247856E+02  0.51100000000E-03 0. -1.
        -12    1    3    3    0    0  0.88084779472E+01 -0.11455695214E+02  0.46451103538E+00  0.14458146737E+02  0.00000000000E+00 0.  1.
</event>
<event>
 7    1  0.1542786E-009  0.4778727E+02  0.7816164E-02  0.1312668E+00
        -11   -1    0    0    0    0  0.00000000000E+00  0.00000000000E+00  0.45593999997E+02  0.45594000000E+02  0.51100000000E-03 0.  1.
         11   -1    0    0    0    0 -0.00000000000E+00 -0.00000000000E+00 -0.45593999997E+02  0.45594000000E+02  0.51100000000E-03 0. -1.
    9900012    2    1    2    0    0 -0.20266107053E+02  0.37658128059E+02 -0.74009222826E+01  0.47787270115E+02  0.19999995760E+02 0.  0.
        -12    1    1    2    0    0  0.20266107053E+02 -0.37658128059E+02  0.74009222826E+01  0.43400729885E+02  0.00000000000E+00 0.  1.
         11    1    3    3    0    0 -0.13473859713E+02  0.16764779083E+02 -0.44037033151E+01  0.21954391734E+02  0.51100000000E-03 0. -1.
        -11    1    3    3    0    0 -0.51396090156E+01  0.18956953950E+01  0.24496310391E+01  0.60008278057E+01  0.51100000000E-03 0.  1.
        -12    1    3    3    0    0 -0.16526383241E+01  0.18997653580E+02 -0.54468500066E+01  0.19832050574E+02  0.00000000000E+00 0.  1.
</event>
<event>
 7    1  0.1542786E-009  0.4778728E+02  0.7816164E-02  0.1312668E+00
        -11   -1    0    0    0    0  0.00000000000E+00  0.00000000000E+00  0.45593999997E+02  0.45594000000E+02  0.51100000000E-03 0.  1.
         11   -1    0    0    0    0 -0.00000000000E+00 -0.00000000000E+00 -0.45593999997E+02  0.45594000000E+02  0.51100000000E-03 0. -1.
    9900012    2    1    2    0    0 -0.13788203735E+01  0.30201759182E+02 -0.31138002549E+02  0.47787278738E+02  0.20000035077E+02 0.  0.
        -12    1    1    2    0    0  0.13788203735E+01 -0.30201759182E+02  0.31138002549E+02  0.43400721262E+02  0.00000000000E+00 0.  1.
         11    1    3    3    0    0  0.22379696866E+01  0.53625613028E+01 -0.18731509807E+02  0.19612114418E+02  0.51100000000E-03 0. -1.
        -11    1    3    3    0    0 -0.19630565767E+01  0.63081056194E+01 -0.22528310712E+01  0.69800455389E+01  0.51100000000E-03 0.  1.
         12    1    3    3    0    0 -0.16537334833E+01  0.18531092260E+02 -0.10153661671E+02  0.21195118780E+02  0.00000000000E+00 0. -1.
</event>
<event>
 7    1  0.1542786E-009  0.4778727E+02  0.7816164E-02  0.1312668E+00
        -11   -1    0    0    0    0  0.00000000000E+00  0.00000000000E+00  0.45593999997E+02  0.45594000000E+02  0.51100000000E-03 0. -1.
         11   -1    0    0    0    0 -0.00000000000E+00 -0.00000000000E+00 -0.45593999997E+02  0.45594000000E+02  0.51100000000E-03 0.  1.
    9900012    2    1    2    0    0  0.41470924806E+01 -0.36031773585E+02  0.23835603325E+02  0.47787273398E+02  0.20000010729E+02 0.  0.
        -12    1    1    2    0    0 -0.41470924806E+01  0.36031773585E+02 -0.23835603325E+02  0.43400726602E+02  0.00000000000E+00 0.  1.
         11    1    3    3    0    0  0.11371413730E+01 -0.11061819721E+02  0.13753486814E+02  0.17686586608E+02  0.51100000000E-03 0. -1.
        -11    1    3    3    0    0 -0.39098687860E+01 -0.42729101750E+01 -0.56399748461E+00  0.58191862585E+01  0.51100000000E-03 0.  1.
         12    1    3    3    0    0  0.69198198936E+01 -0.20697043689E+02  0.10646113996E+02  0.24281500531E+02  0.00000000000E+00 0. -1.
</event>
<event>
 7    1  0.1542786E-009  0.4778726E+02  0.7816164E-02  0.1312668E+00
        -11   -1    0    0    0    0  0.00000000000E+00  0.00000000000E+00  0.45593999997E+02  0.45594000000E+02  0.51100000000E-03 0. -1.
         11   -1    0    0    0    0 -0.00000000000E+00 -0.00000000000E+00 -0.45593999997E+02  0.45594000000E+02  0.51100000000E-03 0.  1.
    9900012    2    1    2    0    0  0.57039262496E+01  0.21237387925E+02  0.37417416594E+02  0.47787257090E+02  0.19999936378E+02 0.  0.
        -12    1    1    2    0    0 -0.57039262496E+01 -0.21237387925E+02 -0.37417416594E+02  0.43400742910E+02  0.00000000000E+00 0.  1.
         11    1    3    3    0    0  0.77034802863E+01  0.52323581498E+01  0.11691296478E+02  0.14946825547E+02  0.51100000000E-03 0. -1.
        -11    1    3    3    0    0 -0.37012628970E+01 -0.13898175181E+00  0.79311224947E+01  0.87533631963E+01  0.51100000000E-03 0.  1.
        -12    1    3    3    0    0  0.17017088603E+01  0.16144011527E+02  0.17794997621E+02  0.24087068347E+02  0.00000000000E+00 0.  1.
</event>
<event>
 7    1  0.1542786E-009  0.4778727E+02  0.7816164E-02  0.1312668E+00
        -11   -1    0    0    0    0  0.00000000000E+00  0.00000000000E+00  0.45593999997E+02  0.45594000000E+02  0.51100000000E-03 0. -1.
         11   -1    0    0    0    0 -0.00000000000E+00 -0.00000000000E+00 -0.45593999997E+02  0.45594000000E+02  0.51100000000E-03 0.  1.
    9900012    2    1    2    0    0 -0.36074702072E+02 -0.24092013510E+02 -0.13469961942E+01  0.47787266788E+02  0.19999980594E+02 0.  0.
        -12    1    1    2    0    0  0.36074702072E+02  0.24092013510E+02  0.13469961942E+01  0.43400733212E+02  0.00000000000E+00 0.  1.
         11    1    3    3    0    0 -0.92967170309E+01 -0.12239168561E+02  0.14288270917E+01  0.15435923741E+02  0.51100000000E-03 0. -1.
        -11    1    3    3    0    0 -0.13116225804E+02 -0.59539342292E+01 -0.81254648553E+01  0.16538073997E+02  0.51100000000E-03 0.  1.
         12    1    3    3    0    0 -0.13661759237E+02 -0.58989107193E+01  0.53496415694E+01  0.15813269050E+02  0.00000000000E+00 0. -1.
</event>
<event>
 7    1  0.1542786E-009  0.4778727E+02  0.7816164E-02  0.1312668E+00
        -11   -1    0    0    0    0  0.00000000000E+00  0.00000000000E+00  0.45593999997E+02  0.45594000000E+02  0.51100000000E-03 0. -1.
         11   -1    0    0    0    0 -0.00000000000E+00 -0.00000000000E+00 -0.45593999997E+02  0.45594000000E+02  0.51100000000E-03 0.  1.
    9900012    2    1    2    0    0 -0.24059672076E+02  0.35489867961E+02  0.67249286989E+01  0.47787271730E+02  0.20000003127E+02 0.  0.
        -12    1    1    2    0    0  0.24059672076E+02 -0.35489867961E+02 -0.67249286989E+01  0.43400728270E+02  0.00000000000E+00 0.  1.
         11    1    3    3    0    0 -0.21355120314E+02  0.25667760228E+02  0.64392347419E+01  0.34004982327E+02  0.51100000000E-03 0. -1.
        -11    1    3    3    0    0 -0.65730424709E+00 -0.81384416623E+00  0.25151421031E+01  0.27240284984E+01  0.51100000000E-03 0.  1.
        -12    1    3    3    0    0 -0.20472475154E+01  0.10635951900E+02 -0.22294481461E+01  0.11058260905E+02  0.00000000000E+00 0.  1.
</event>
<event>
 7    1  0.1542786E-009  0.4778727E+02  0.7816164E-02  0.1312668E+00
        -11   -1    0    0    0    0  0.00000000000E+00  0.00000000000E+00  0.45593999997E+02  0.45594000000E+02  0.51100000000E-03 0.  1.
         11   -1    0    0    0    0 -0.00000000000E+00 -0.00000000000E+00 -0.45593999997E+02  0.45594000000E+02  0.51100000000E-03 0. -1.
    9900012    2    1    2    0    0  0.26177728282E+02  0.31540499168E+02 -0.14266981968E+02  0.47787270510E+02  0.19999997564E+02 0.  0.
        -12    1    1    2    0    0 -0.26177728282E+02 -0.31540499168E+02  0.14266981968E+02  0.43400729490E+02  0.00000000000E+00 0.  1.
         11    1    3    3    0    0  0.12210221245E+02  0.19292675461E+02 -0.11054592036E+02  0.25367318239E+02  0.51100000000E-03 0. -1.
        -11    1    3    3    0    0  0.72007976836E+01 -0.50227841118E+00 -0.34120893130E+01  0.79841170221E+01  0.51100000000E-03 0.  1.
         12    1    3    3    0    0  0.67667093534E+01  0.12750102118E+02  0.19969938040E+00  0.14435835249E+02  0.00000000000E+00 0. -1.
</event>
<event>
 7    1  0.1542786E-009  0.4778726E+02  0.7816164E-02  0.1312668E+00
        -11   -1    0    0    0    0  0.00000000000E+00  0.00000000000E+00  0.45593999997E+02  0.45594000000E+02  0.51100000000E-03 0.  1.
         11   -1    0    0    0    0 -0.00000000000E+00 -0.00000000000E+00 -0.45593999997E+02  0.45594000000E+02  0.51100000000E-03 0. -1.
    9900012    2    1    2    0    0 -0.26600885823E+02 -0.13096010445E+02 -0.31694037176E+02  0.47787255667E+02  0.19999929888E+02 0.  0.
        -12    1    1    2    0    0  0.26600885823E+02  0.13096010445E+02  0.31694037176E+02  0.43400744333E+02  0.00000000000E+00 0.  1.
         11    1    3    3    0    0 -0.30812693148E+01 -0.94592942659E+00 -0.90875830846E+01  0.96422595718E+01  0.51100000000E-03 0. -1.
        -11    1    3    3    0    0 -0.11552700697E+02 -0.10467517623E+01 -0.18634858113E+01  0.11748751520E+02  0.51100000000E-03 0.  1.
         12    1    3    3    0    0 -0.11966915811E+02 -0.11103329256E+02 -0.20742968280E+02  0.26396244575E+02  0.00000000000E+00 0. -1.
</event>
<event>
 7    1  0.1542786E-009  0.4778728E+02  0.7816164E-02  0.1312668E+00
        -11   -1    0    0    0    0  0.00000000000E+00  0.00000000000E+00  0.45593999997E+02  0.45594000000E+02  0.51100000000E-03 0. -1.
         11   -1    0    0    0    0 -0.00000000000E+00 -0.00000000000E+00 -0.45593999997E+02  0.45594000000E+02  0.51100000000E-03 0.  1.
    9900012    2    1    2    0    0 -0.40713600883E+02 -0.60647947793E+01  0.13756587282E+02  0.47787277353E+02  0.20000028765E+02 0.  0.
        -12    1    1    2    0    0  0.40713600883E+02  0.60647947793E+01 -0.13756587282E+02  0.43400722647E+02  0.00000000000E+00 0.  1.
         11    1    3    3    0    0 -0.13774010682E+02 -0.57251568222E+01 -0.13470892230E+01  0.14977163968E+02  0.51100000000E-03 0. -1.
        -11    1    3    3    0    0 -0.11689840383E+00  0.13770050066E+01  0.30599105312E+01  0.33575081155E+01  0.51100000000E-03 0.  1.
         12    1    3    3    0    0 -0.26822691798E+02 -0.17166429638E+01  0.12043765974E+02  0.29452605270E+02  0.00000000000E+00 0. -1.
</event>
<event>
 7    1  0.1542786E-009  0.4778726E+02  0.7816164E-02  0.1312668E+00
        -11   -1    0    0    0    0  0.00000000000E+00  0.00000000000E+00  0.45593999997E+02  0.45594000000E+02  0.51100000000E-03 0. -1.
         11   -1    0    0    0    0 -0.00000000000E+00 -0.00000000000E+00 -0.45593999997E+02  0.45594000000E+02  0.51100000000E-03 0.  1.
    9900012    2    1    2    0    0  0.19521816860E+02 -0.43860173050E+00  0.38759911022E+02  0.47787257986E+02  0.19999940460E+02 0.  0.
        -12    1    1    2    0    0 -0.19521816860E+02  0.43860173050E+00 -0.38759911022E+02  0.43400742014E+02  0.00000000000E+00 0.  1.
         11    1    3    3    0    0  0.22667712252E+01 -0.99014553144E+00  0.23162365206E+02  0.23294072253E+02  0.51100000000E-03 0. -1.
        -11    1    3    3    0    0  0.50320880692E+01  0.19250396535E+01  0.11320993400E+01  0.55053916464E+01  0.51100000000E-03 0.  1.
        -12    1    3    3    0    0  0.12222957565E+02 -0.13734958525E+01  0.14465446476E+02  0.18987794086E+02  0.00000000000E+00 0.  1.
</event>
<event>
 7    1  0.1542786E-009  0.4778729E+02  0.7816164E-02  0.1312668E+00
        -11   -1    0    0    0    0  0.00000000000E+00  0.00000000000E+00  0.45593999997E+02  0.45594000000E+02  0.51100000000E-03 0.  1.
         11   -1    0    0    0    0 -0.00000000000E+00 -0.00000000000E+00 -0.45593999997E+02  0.45594000000E+02  0.51100000000E-03 0. -1.
    9900012    2    1    2    0    0 -0.69327149184E+01  0.29299297542E+02 -0.31258767294E+02  0.47787286811E+02  0.20000071884E+02 0.  0.
        -12    1    1    2    0    0  0.69327149184E+01 -0.29299297542E+02  0.31258767294E+02  0.43400713189E+02  0.00000000000E+00 0.  1.
         11    1    3    3    0    0 -0.52473724724E+00  0.93532171354E+01 -0.13424408335E+02  0.16369873529E+02  0.51100000000E-03 0. -1.
        -11    1    3    3    0    0  0.80793942409E-01  0.16145969204E+00  0.23862914523E+01  0.23931117921E+01  0.51100000000E-03 0.  1.
         12    1    3    3    0    0 -0.64887716136E+01  0.19784620715E+02 -0.20220650411E+02  0.29024301489E+02  0.00000000000E+00 0. -1.
</event>
<event>
 7    1  0.1542786E-009  0.4778727E+02  0.7816164E-02  0.1312668E+00
        -11   -1    0    0    0    0  0.00000000000E+00  0.00000000000E+00  0.45593999997E+02  0.45594000000E+02  0.51100000000E-03 0. -1.
         11   -1    0    0    0    0 -0.00000000000E+00 -0.00000000000E+00 -0.45593999997E+02  0.45594000000E+02  0.51100000000E-03 0.  1.
    9900012    2    1    2    0    0  0.26057402900E+02 -0.33775345528E+02  0.79913226207E+01  0.47787269031E+02  0.19999990818E+02 0.  0.
        -12    1    1    2    0    0 -0.26057402900E+02  0.33775345528E+02 -0.79913226207E+01  0.43400730969E+02  0.00000000000E+00 0.  1.
         11    1    3    3    0    0 -0.20082580182E+00 -0.10176134865E+01  0.19079828823E+01  0.21716968368E+01  0.51100000000E-03 0. -1.
        -11    1    3    3    0    0  0.25935293532E+02 -0.27275104291E+02  0.29805077419E+00  0.37638538749E+02  0.51100000000E-03 0.  1.
        -12    1    3    3    0    0  0.32293517039E+00 -0.54826277507E+01  0.57852889642E+01  0.79770334446E+01  0.00000000000E+00 0.  1.
</event>
<event>
 7    1  0.1542786E-009  0.4778728E+02  0.7816164E-02  0.1312668E+00
        -11   -1    0    0    0    0  0.00000000000E+00  0.00000000000E+00  0.45593999997E+02  0.45594000000E+02  0.51100000000E-03 0.  1.
         11   -1    0    0    0    0 -0.00000000000E+00 -0.00000000000E+00 -0.45593999997E+02  0.45594000000E+02  0.51100000000E-03 0. -1.
    9900012    2    1    2    0    0 -0.15782298836E+02  0.12881382064E+02 -0.38322471566E+02  0.47787276650E+02  0.20000025556E+02 0.  0.
        -12    1    1    2    0    0  0.15782298836E+02 -0.12881382064E+02  0.38322471566E+02  0.43400723350E+02  0.00000000000E+00 0.  1.
         11    1    3    3    0    0 -0.35653533446E+01  0.85885775658E+01 -0.22930004985E+02  0.24743899005E+02  0.51100000000E-03 0. -1.
        -11    1    3    3    0    0 -0.53914622271E+00  0.36305448997E+01  0.50677945385E-01  0.36707088462E+01  0.51100000000E-03 0.  1.
         12    1    3    3    0    0 -0.11677799269E+02  0.66225959889E+00 -0.15443144526E+02  0.19372668799E+02  0.00000000000E+00 0. -1.
</event>
<event>
 7    1  0.1542786E-009  0.4778727E+02  0.7816164E-02  0.1312668E+00
        -11   -1    0    0    0    0  0.00000000000E+00  0.00000000000E+00  0.45593999997E+02  0.45594000000E+02  0.51100000000E-03 0.  1.
         11   -1    0    0    0    0 -0.00000000000E+00 -0.00000000000E+00 -0.45593999997E+02  0.45594000000E+02  0.51100000000E-03 0. -1.
    9900012    2    1    2    0    0 -0.12149873216E+02  0.19415802652E+01 -0.41620118543E+02  0.47787269354E+02  0.19999992293E+02 0.  0.
        -12    1    1    2    0    0  0.12149873216E+02 -0.19415802652E+01  0.41620118543E+02  0.43400730646E+02  0.00000000000E+00 0.  1.
         11    1    3    3    0    0 -0.76319914975E+01  0.48042724138E+01 -0.19101347530E+02  0.21123205376E+02  0.51100000000E-03 0. -1.
        -11    1    3    3    0    0 -0.44928778762E+01 -0.43429273468E+01 -0.27284738923E+01  0.68184704730E+01  0.51100000000E-03 0.  1.
         12    1    3    3    0    0 -0.25003842159E-01  0.14802351982E+01 -0.19790297121E+02  0.19845593505E+02  0.00000000000E+00 0. -1.
</event>
<event>
 7    1  0.1542786E-009  0.4778729E+02  0.7816164E-02  0.1312668E+00
        -11   -1    0    0    0    0  0.00000000000E+00  0.00000000000E+00  0.45593999997E+02  0.45594000000E+02  0.51100000000E-03 0. -1.
         11   -1    0    0    0    0 -0.00000000000E+00 -0.00000000000E+00 -0.45593999997E+02  0.45594000000E+02  0.51100000000E-03 0.  1.
    9900012    2    1    2    0    0 -0.38797820283E+02  0.19338409955E+02 -0.20920138093E+01  0.47787291710E+02  0.20000094222E+02 0.  0.
        -12    1    1    2    0    0  0.38797820283E+02 -0.19338409955E+02  0.20920138093E+01  0.43400708290E+02  0.00000000000E+00 0.  1.
         11    1    3    3    0    0 -0.11262597700E+02  0.25164269003E+01  0.49820659010E+01  0.12569784890E+02  0.51100000000E-03 0. -1.
        -11    1    3    3    0    0 -0.17821830396E+02  0.15407181064E+02 -0.80832190752E+00  0.23572277183E+02  0.51100000000E-03 0.  1.
         12    1    3    3    0    0 -0.97133921872E+01  0.14148019910E+01 -0.62657578027E+01  0.11645229637E+02  0.00000000000E+00 0. -1.
</event>
<event>
 7    1  0.1542786E-009  0.4778727E+02  0.7816164E-02  0.1312668E+00
        -11   -1    0    0    0    0  0.00000000000E+00  0.00000000000E+00  0.45593999997E+02  0.45594000000E+02  0.51100000000E-03 0.  1.
         11   -1    0    0    0    0 -0.00000000000E+00 -0.00000000000E+00 -0.45593999997E+02  0.45594000000E+02  0.51100000000E-03 0. -1.
    9900012    2    1    2    0    0 -0.77855690892E+00  0.89760880688E+00 -0.43384458570E+02  0.47787273073E+02  0.20000009247E+02 0.  0.
        -12    1    1    2    0    0  0.77855690892E+00 -0.89760880688E+00  0.43384458570E+02  0.43400726927E+02  0.00000000000E+00 0.  1.
         11    1    3    3    0    0  0.90090194203E+00 -0.29824126633E+01 -0.27261532992E+02  0.27438979408E+02  0.51100000000E-03 0. -1.
        -11    1    3    3    0    0 -0.22506621996E+01  0.50066741637E+00 -0.16712385390E+02  0.16870683860E+02  0.51100000000E-03 0.  1.
        -12    1    3    3    0    0  0.57120334860E+00  0.33793540538E+01  0.58945981253E+00  0.34776098051E+01  0.00000000000E+00 0.  1.
</event>
<event>
 7    1  0.1542786E-009  0.4778727E+02  0.7816164E-02  0.1312668E+00
        -11   -1    0    0    0    0  0.00000000000E+00  0.00000000000E+00  0.45593999997E+02  0.45594000000E+02  0.51100000000E-03 0. -1.
         11   -1    0    0    0    0 -0.00000000000E+00 -0.00000000000E+00 -0.45593999997E+02  0.45594000000E+02  0.51100000000E-03 0.  1.
    9900012    2    1    2    0    0 -0.10974742595E+02  0.40645662622E+02  0.10540792026E+02  0.47787272339E+02  0.20000005901E+02 0.  0.
        -12    1    1    2    0    0  0.10974742595E+02 -0.40645662622E+02 -0.10540792026E+02  0.43400727661E+02  0.00000000000E+00 0.  1.
         11    1    3    3    0    0 -0.75532038581E+01  0.18300662775E+02  0.14849846206E+02  0.24748395486E+02  0.51100000000E-03 0.  1.
        -11    1    3    3    0    0 -0.12117549903E+01  0.11332029907E+02 -0.19763169890E+01  0.11566723004E+02  0.51100000000E-03 0. -1.
        -12    1    3    3    0    0 -0.22097837465E+01  0.11012969941E+02 -0.23327371910E+01  0.11472153848E+02  0.00000000000E+00 0.  1.
</event>
<event>
 7    1  0.1542786E-009  0.4778727E+02  0.7816164E-02  0.1312668E+00
        -11   -1    0    0    0    0  0.00000000000E+00  0.00000000000E+00  0.45593999997E+02  0.45594000000E+02  0.51100000000E-03 0.  1.
         11   -1    0    0    0    0 -0.00000000000E+00 -0.00000000000E+00 -0.45593999997E+02  0.45594000000E+02  0.51100000000E-03 0. -1.
    9900012    2    1    2    0    0  0.24828054202E+02  0.22855958122E+02 -0.27290955628E+02  0.47787270096E+02  0.19999995674E+02 0.  0.
        -12    1    1    2    0    0 -0.24828054202E+02 -0.22855958122E+02  0.27290955628E+02  0.43400729904E+02  0.00000000000E+00 0.  1.
         11    1    3    3    0    0  0.87113295437E+01  0.14116015277E+02 -0.72208503598E+01  0.18091153360E+02  0.51100000000E-03 0. -1.
        -11    1    3    3    0    0 -0.10200116107E+01  0.11304695509E+01 -0.61710478641E+01  0.63561165104E+01  0.51100000000E-03 0.  1.
        -12    1    3    3    0    0  0.17136736269E+02  0.76094732938E+01 -0.13899057404E+02  0.23340000225E+02  0.00000000000E+00 0.  1.
</event>
<event>
 7    1  0.1542786E-009  0.4778726E+02  0.7816164E-02  0.1312668E+00
        -11   -1    0    0    0    0  0.00000000000E+00  0.00000000000E+00  0.45593999997E+02  0.45594000000E+02  0.51100000000E-03 0.  1.
         11   -1    0    0    0    0 -0.00000000000E+00 -0.00000000000E+00 -0.45593999997E+02  0.45594000000E+02  0.51100000000E-03 0. -1.
    9900012    2    1    2    0    0  0.19919912872E+01 -0.17360382297E+02 -0.39727487934E+02  0.47787260371E+02  0.19999951336E+02 0.  0.
        -12    1    1    2    0    0 -0.19919912872E+01  0.17360382297E+02  0.39727487934E+02  0.43400739629E+02  0.00000000000E+00 0.  1.
         11    1    3    3    0    0  0.50010920402E+01 -0.12265160698E+02 -0.24909097874E+02  0.28211845840E+02  0.51100000000E-03 0. -1.
        -11    1    3    3    0    0  0.12361052930E+01 -0.20443965044E+01  0.12370510533E+01  0.26903176266E+01  0.51100000000E-03 0.  1.
        -12    1    3    3    0    0 -0.42452060461E+01 -0.30508250945E+01 -0.16055441113E+02  0.16885096904E+02  0.00000000000E+00 0.  1.
</event>
<event>
 7    1  0.1542786E-009  0.4778727E+02  0.7816164E-02  0.1312668E+00
        -11   -1    0    0    0    0  0.00000000000E+00  0.00000000000E+00  0.45593999997E+02  0.45594000000E+02  0.51100000000E-03 0.  1.
         11   -1    0    0    0    0 -0.00000000000E+00 -0.00000000000E+00 -0.45593999997E+02  0.45594000000E+02  0.51100000000E-03 0. -1.
    9900012    2    1    2    0    0 -0.36668225603E+02 -0.18938781238E+02 -0.13430827826E+02  0.47787270286E+02  0.19999996541E+02 0.  0.
        -12    1    1    2    0    0  0.36668225603E+02  0.18938781238E+02  0.13430827826E+02  0.43400729714E+02  0.00000000000E+00 0.  1.
         11    1    3    3    0    0 -0.18932650787E+02 -0.87242296096E+01 -0.25173204061E+01  0.20997484382E+02  0.51100000000E-03 0. -1.
        -11    1    3    3    0    0 -0.46852449060E+01 -0.62698451401E+01  0.19277524697E+01  0.80609371512E+01  0.51100000000E-03 0.  1.
         12    1    3    3    0    0 -0.13050329910E+02 -0.39447064887E+01 -0.12841259889E+02  0.18728848752E+02  0.00000000000E+00 0. -1.
</event>
<event>
 7    1  0.1542786E-009  0.4778728E+02  0.7816164E-02  0.1312668E+00
        -11   -1    0    0    0    0  0.00000000000E+00  0.00000000000E+00  0.45593999997E+02  0.45594000000E+02  0.51100000000E-03 0.  1.
         11   -1    0    0    0    0 -0.00000000000E+00 -0.00000000000E+00 -0.45593999997E+02  0.45594000000E+02  0.51100000000E-03 0. -1.
    9900012    2    1    2    0    0  0.43269763168E+02 -0.32040955304E+01  0.10412856847E+01  0.47787275252E+02  0.20000019185E+02 0.  0.
        -12    1    1    2    0    0 -0.43269763168E+02  0.32040955304E+01 -0.10412856847E+01  0.43400724748E+02  0.00000000000E+00 0.  1.
         11    1    3    3    0    0  0.17891113899E+02 -0.30190993743E+01 -0.14986152055E+01  0.18205844264E+02  0.51100000000E-03 0. -1.
        -11    1    3    3    0    0 -0.54162662845E+00  0.27314791127E+01 -0.15373609697E+01  0.31808515464E+01  0.51100000000E-03 0.  1.
        -12    1    3    3    0    0  0.25920275897E+02 -0.29164752688E+01  0.40772618599E+01  0.26400579442E+02  0.00000000000E+00 0.  1.
</event>
<event>
 7    1  0.1655332E-009  0.4778725E+02  0.7816164E-02  0.1312668E+00
        -11   -1    0    0    0    0  0.00000000000E+00  0.00000000000E+00  0.45593999997E+02  0.45594000000E+02  0.51100000000E-03 0. -1.
         11   -1    0    0    0    0 -0.00000000000E+00 -0.00000000000E+00 -0.45593999997E+02  0.45594000000E+02  0.51100000000E-03 0.  1.
    9900012    2    1    2    0    0  0.23719660918E+02 -0.29830611217E+02  0.20763847674E+02  0.47787250584E+02  0.19999906711E+02 0.  0.
        -12    1    1    2    0    0 -0.23719660918E+02  0.29830611217E+02 -0.20763847674E+02  0.43400749416E+02  0.00000000000E+00 0.  1.
         11    1    3    3    0    0  0.22309747297E+02 -0.22161350055E+02  0.16097070920E+02  0.35326561581E+02  0.51100000000E-03 0. -1.
        -11    1    3    3    0    0 -0.30111028237E+00 -0.68725407029E+01  0.67582649733E+01  0.96434759722E+01  0.51100000000E-03 0.  1.
        -12    1    3    3    0    0  0.17110239037E+01 -0.79672045948E+00 -0.20914882187E+01  0.28172130304E+01  0.00000000000E+00 0.  1.
</event>
<event>
 7    1  0.1542786E-009  0.4778728E+02  0.7816164E-02  0.1312668E+00
        -11   -1    0    0    0    0  0.00000000000E+00  0.00000000000E+00  0.45593999997E+02  0.45594000000E+02  0.51100000000E-03 0. -1.
         11   -1    0    0    0    0 -0.00000000000E+00 -0.00000000000E+00 -0.45593999997E+02  0.45594000000E+02  0.51100000000E-03 0.  1.
    9900012    2    1    2    0    0  0.31489368709E+02  0.87637977338E+01  0.28552378507E+02  0.47787276380E+02  0.20000024325E+02 0.  0.
        -12    1    1    2    0    0 -0.31489368709E+02 -0.87637977338E+01 -0.28552378507E+02  0.43400723620E+02  0.00000000000E+00 0.  1.
         11    1    3    3    0    0  0.15484812506E+02  0.91418997616E+01  0.17799188349E+02  0.25301479319E+02  0.51100000000E-03 0. -1.
        -11    1    3    3    0    0  0.12529012563E+02 -0.37162616762E+01  0.11739285655E+02  0.17566945795E+02  0.51100000000E-03 0.  1.
         12    1    3    3    0    0  0.34755436406E+01  0.33381596484E+01 -0.98609549731E+00  0.49188512649E+01  0.00000000000E+00 0. -1.
</event>
<event>
 7    1  0.1542786E-009  0.4778727E+02  0.7816164E-02  0.1312668E+00
        -11   -1    0    0    0    0  0.00000000000E+00  0.00000000000E+00  0.45593999997E+02  0.45594000000E+02  0.51100000000E-03 0.  1.
         11   -1    0    0    0    0 -0.00000000000E+00 -0.00000000000E+00 -0.45593999997E+02  0.45594000000E+02  0.51100000000E-03 0. -1.
    9900012    2    1    2    0    0 -0.12342976604E+02 -0.52318205474E+01 -0.41278353686E+02  0.47787268431E+02  0.19999988084E+02 0.  0.
        -12    1    1    2    0    0  0.12342976604E+02  0.52318205474E+01  0.41278353686E+02  0.43400731569E+02  0.00000000000E+00 0.  1.
         11    1    3    3    0    0 -0.36734225638E+01  0.37741119118E+01 -0.21517632824E+02  0.22152798393E+02  0.51100000000E-03 0. -1.
        -11    1    3    3    0    0  0.27486510715E+00 -0.69097930175E+01 -0.10634554952E+02  0.12685209878E+02  0.51100000000E-03 0.  1.
         12    1    3    3    0    0 -0.89444191477E+01 -0.20961394417E+01 -0.91261659104E+01  0.12949260159E+02  0.00000000000E+00 0. -1.
</event>
<event>
 7    1  0.1542786E-009  0.4778727E+02  0.7816164E-02  0.1312668E+00
        -11   -1    0    0    0    0  0.00000000000E+00  0.00000000000E+00  0.45593999997E+02  0.45594000000E+02  0.51100000000E-03 0.  1.
         11   -1    0    0    0    0 -0.00000000000E+00 -0.00000000000E+00 -0.45593999997E+02  0.45594000000E+02  0.51100000000E-03 0. -1.
    9900012    2    1    2    0    0 -0.33322297634E+02  0.23832541009E+02  0.14326814647E+02  0.47787272489E+02  0.20000006588E+02 0.  0.
        -12    1    1    2    0    0  0.33322297634E+02 -0.23832541009E+02 -0.14326814647E+02  0.43400727511E+02  0.00000000000E+00 0.  1.
         11    1    3    3    0    0 -0.23414614266E+02  0.73162629337E+01  0.93907657817E+01  0.26267058206E+02  0.51100000000E-03 0. -1.
        -11    1    3    3    0    0  0.54383230597E+00  0.59506588334E+00 -0.12571037304E+01  0.14933743779E+01  0.51100000000E-03 0.  1.
        -12    1    3    3    0    0 -0.10451515673E+02  0.15921212192E+02  0.61931525953E+01  0.20026839906E+02  0.00000000000E+00 0.  1.
</event>
<event>
 7    1  0.1542786E-009  0.4778729E+02  0.7816164E-02  0.1312668E+00
        -11   -1    0    0    0    0  0.00000000000E+00  0.00000000000E+00  0.45593999997E+02  0.45594000000E+02  0.51100000000E-03 0.  1.
         11   -1    0    0    0    0 -0.00000000000E+00 -0.00000000000E+00 -0.45593999997E+02  0.45594000000E+02  0.51100000000E-03 0. -1.
    9900012    2    1    2    0    0 -0.30195530495E+02 -0.24828146140E+02 -0.18852449570E+02  0.47787288515E+02  0.20000079655E+02 0.  0.
        -12    1    1    2    0    0  0.30195530495E+02  0.24828146140E+02  0.18852449570E+02  0.43400711485E+02  0.00000000000E+00 0.  1.
         11    1    3    3    0    0 -0.19414584813E+02 -0.14218882036E+02 -0.62677345077E+01  0.24867392423E+02  0.51100000000E-03 0. -1.
        -11    1    3    3    0    0 -0.91316641557E+01 -0.38129279826E+01 -0.12477798518E+02  0.15925487942E+02  0.51100000000E-03 0.  1.
         12    1    3    3    0    0 -0.16492815270E+01 -0.67963361211E+01 -0.10691654341E+00  0.69944081503E+01  0.00000000000E+00 0. -1.
</event>
<event>
 7    1  0.1542786E-009  0.4778727E+02  0.7816164E-02  0.1312668E+00
        -11   -1    0    0    0    0  0.00000000000E+00  0.00000000000E+00  0.45593999997E+02  0.45594000000E+02  0.51100000000E-03 0.  1.
         11   -1    0    0    0    0 -0.00000000000E+00 -0.00000000000E+00 -0.45593999997E+02  0.45594000000E+02  0.51100000000E-03 0. -1.
    9900012    2    1    2    0    0 -0.40030451926E+02 -0.16631620002E+02 -0.21390460837E+01  0.47787269782E+02  0.19999994244E+02 0.  0.
        -12    1    1    2    0    0  0.40030451926E+02  0.16631620002E+02  0.21390460837E+01  0.43400730218E+02  0.00000000000E+00 0.  1.
         11    1    3    3    0    0 -0.68296217326E+01 -0.61684970428E+01  0.33424235905E+01  0.97911125260E+01  0.51100000000E-03 0.  1.
        -11    1    3    3    0    0 -0.96011460132E+01  0.24988290696E+01 -0.48994332052E+01  0.11064836080E+02  0.51100000000E-03 0. -1.
         12    1    3    3    0    0 -0.23599684180E+02 -0.12961952029E+02 -0.58203646898E+00  0.26931321176E+02  0.00000000000E+00 0. -1.
</event>
<event>
 7    1  0.1542786E-009  0.4778723E+02  0.7816164E-02  0.1312668E+00
        -11   -1    0    0    0    0  0.00000000000E+00  0.00000000000E+00  0.45593999997E+02  0.45594000000E+02  0.51100000000E-03 0.  1.
         11   -1    0    0    0    0 -0.00000000000E+00 -0.00000000000E+00 -0.45593999997E+02  0.45594000000E+02  0.51100000000E-03 0. -1.
    9900012    2    1    2    0    0 -0.33685917173E+02 -0.27363162983E+02  0.37788242355E+00  0.47787233885E+02  0.19999830574E+02 0.  0.
        -12    1    1    2    0    0  0.33685917173E+02  0.27363162983E+02 -0.37788242355E+00  0.43400766115E+02  0.00000000000E+00 0.  1.
         11    1    3    3    0    0 -0.13194450158E+01  0.48112738817E+00 -0.16637177583E+01  0.21772403987E+01  0.51100000000E-03 0. -1.
        -11    1    3    3    0    0 -0.14611018398E+01  0.20586756380E+01 -0.30130100490E+00  0.25423899240E+01  0.51100000000E-03 0.  1.
        -12    1    3    3    0    0 -0.30905370318E+02 -0.29902966009E+02  0.23429011868E+01  0.43067603562E+02  0.00000000000E+00 0.  1.
</event>
<event>
 7    1  0.1542786E-009  0.4778729E+02  0.7816164E-02  0.1312668E+00
        -11   -1    0    0    0    0  0.00000000000E+00  0.00000000000E+00  0.45593999997E+02  0.45594000000E+02  0.51100000000E-03 0.  1.
         11   -1    0    0    0    0 -0.00000000000E+00 -0.00000000000E+00 -0.45593999997E+02  0.45594000000E+02  0.51100000000E-03 0. -1.
    9900012    2    1    2    0    0 -0.40166041370E+02  0.43523321215E+01 -0.15854583732E+02  0.47787291486E+02  0.20000093200E+02 0.  0.
        -12    1    1    2    0    0  0.40166041370E+02 -0.43523321215E+01  0.15854583732E+02  0.43400708514E+02  0.00000000000E+00 0.  1.
         11    1    3    3    0    0 -0.78739752461E+01 -0.13505583405E+00 -0.62969095691E+01  0.10083094596E+02  0.51100000000E-03 0. -1.
        -11    1    3    3    0    0  0.87102092941E+00 -0.18471065141E+01  0.10737546145E+01  0.23072557655E+01  0.51100000000E-03 0.  1.
        -12    1    3    3    0    0 -0.33163087053E+02  0.63344944697E+01 -0.10631428778E+02  0.35396941124E+02  0.00000000000E+00 0.  1.
</event>
<event>
 7    1  0.1542786E-009  0.4778727E+02  0.7816164E-02  0.1312668E+00
        -11   -1    0    0    0    0  0.00000000000E+00  0.00000000000E+00  0.45593999997E+02  0.45594000000E+02  0.51100000000E-03 0.  1.
         11   -1    0    0    0    0 -0.00000000000E+00 -0.00000000000E+00 -0.45593999997E+02  0.45594000000E+02  0.51100000000E-03 0. -1.
    9900012    2    1    2    0    0 -0.15756992301E+02 -0.21786471706E+02 -0.34068906159E+02  0.47787268178E+02  0.19999986933E+02 0.  0.
        -12    1    1    2    0    0  0.15756992301E+02  0.21786471706E+02  0.34068906159E+02  0.43400731822E+02  0.00000000000E+00 0.  1.
         11    1    3    3    0    0 -0.12372572038E+02 -0.13843938003E+02 -0.25973191527E+02  0.31927133236E+02  0.51100000000E-03 0. -1.
        -11    1    3    3    0    0  0.20352848498E+01 -0.18666526601E+01 -0.71484683276E+01  0.76633789065E+01  0.51100000000E-03 0.  1.
        -12    1    3    3    0    0 -0.54197051133E+01 -0.60758810427E+01 -0.94724630419E+00  0.81967560364E+01  0.00000000000E+00 0.  1.
</event>
<event>
 7    1  0.1542786E-009  0.4778727E+02  0.7816164E-02  0.1312668E+00
        -11   -1    0    0    0    0  0.00000000000E+00  0.00000000000E+00  0.45593999997E+02  0.45594000000E+02  0.51100000000E-03 0. -1.
         11   -1    0    0    0    0 -0.00000000000E+00 -0.00000000000E+00 -0.45593999997E+02  0.45594000000E+02  0.51100000000E-03 0.  1.
    9900012    2    1    2    0    0 -0.24881372142E+02  0.34531139656E+02  0.84935808413E+01  0.47787271882E+02  0.20000003821E+02 0.  0.
        -12    1    1    2    0    0  0.24881372142E+02 -0.34531139656E+02 -0.84935808413E+01  0.43400728118E+02  0.00000000000E+00 0.  1.
         11    1    3    3    0    0 -0.87000440113E+01  0.12490520600E+02  0.85746826824E+01  0.17470805763E+02  0.51100000000E-03 0. -1.
        -11    1    3    3    0    0 -0.14654859943E+02  0.90766253648E+01 -0.65284048558E+00  0.17250398515E+02  0.51100000000E-03 0.  1.
        -12    1    3    3    0    0 -0.15264681878E+01  0.12963993691E+02  0.57173864448E+00  0.13066067604E+02  0.00000000000E+00 0.  1.
</event>
<event>
 7    1  0.1542786E-009  0.4778727E+02  0.7816164E-02  0.1312668E+00
        -11   -1    0    0    0    0  0.00000000000E+00  0.00000000000E+00  0.45593999997E+02  0.45594000000E+02  0.51100000000E-03 0. -1.
         11   -1    0    0    0    0 -0.00000000000E+00 -0.00000000000E+00 -0.45593999997E+02  0.45594000000E+02  0.51100000000E-03 0.  1.
    9900012    2    1    2    0    0  0.39392419348E+02 -0.61639585495E+01  0.17142522509E+02  0.47787272298E+02  0.20000005715E+02 0.  0.
        -12    1    1    2    0    0 -0.39392419348E+02  0.61639585495E+01 -0.17142522509E+02  0.43400727702E+02  0.00000000000E+00 0.  1.
         11    1    3    3    0    0  0.23790050071E+02 -0.72493836378E+01  0.42249571543E+01  0.25226381205E+02  0.51100000000E-03 0. -1.
        -11    1    3    3    0    0 -0.12794117091E+01 -0.51878781280E+00  0.18602195567E+01  0.23165604193E+01  0.51100000000E-03 0.  1.
        -12    1    3    3    0    0  0.16881780987E+02  0.16042129011E+01  0.11057345798E+02  0.20244330673E+02  0.00000000000E+00 0.  1.
</event>
<event>
 7    1  0.1542786E-009  0.4778727E+02  0.7816164E-02  0.1312668E+00
        -11   -1    0    0    0    0  0.00000000000E+00  0.00000000000E+00  0.45593999997E+02  0.45594000000E+02  0.51100000000E-03 0. -1.
         11   -1    0    0    0    0 -0.00000000000E+00 -0.00000000000E+00 -0.45593999997E+02  0.45594000000E+02  0.51100000000E-03 0.  1.
    9900012    2    1    2    0    0 -0.30809706495E+02 -0.23537837439E+02  0.19502706836E+02  0.47787269828E+02  0.19999994452E+02 0.  0.
        -12    1    1    2    0    0  0.30809706495E+02  0.23537837439E+02 -0.19502706836E+02  0.43400730172E+02  0.00000000000E+00 0.  1.
         11    1    3    3    0    0 -0.19684861878E+02 -0.45962575666E+01  0.12773982004E+02  0.23912214186E+02  0.51100000000E-03 0. -1.
        -11    1    3    3    0    0 -0.81319266805E+01 -0.82501152113E+01  0.17819680349E+01  0.11720411378E+02  0.51100000000E-03 0.  1.
         12    1    3    3    0    0 -0.29929179363E+01 -0.10691464661E+02  0.49467567970E+01  0.12154644264E+02  0.00000000000E+00 0. -1.
</event>
<event>
 7    1  0.1542786E-009  0.4778727E+02  0.7816164E-02  0.1312668E+00
        -11   -1    0    0    0    0  0.00000000000E+00  0.00000000000E+00  0.45593999997E+02  0.45594000000E+02  0.51100000000E-03 0.  1.
         11   -1    0    0    0    0 -0.00000000000E+00 -0.00000000000E+00 -0.45593999997E+02  0.45594000000E+02  0.51100000000E-03 0. -1.
    9900012    2    1    2    0    0  0.20039966135E+02  0.10193603434E+01 -0.38483554330E+02  0.47787270835E+02  0.19999999044E+02 0.  0.
        -12    1    1    2    0    0 -0.20039966135E+02 -0.10193603434E+01  0.38483554330E+02  0.43400729165E+02  0.00000000000E+00 0.  1.
         11    1    3    3    0    0  0.17958829393E+02  0.35267583381E+01 -0.37862577380E+02  0.42053921858E+02  0.51100000000E-03 0. -1.
        -11    1    3    3    0    0  0.31019341177E+01 -0.46523264516E+00  0.52261296333E+00  0.31798681192E+01  0.51100000000E-03 0.  1.
         12    1    3    3    0    0 -0.10207973760E+01 -0.20421653496E+01 -0.11435899136E+01  0.25534808572E+01  0.00000000000E+00 0. -1.
</event>
<event>
 7    1  0.1542786E-009  0.4778727E+02  0.7816164E-02  0.1312668E+00
        -11   -1    0    0    0    0  0.00000000000E+00  0.00000000000E+00  0.45593999997E+02  0.45594000000E+02  0.51100000000E-03 0.  1.
         11   -1    0    0    0    0 -0.00000000000E+00 -0.00000000000E+00 -0.45593999997E+02  0.45594000000E+02  0.51100000000E-03 0. -1.
    9900012    2    1    2    0    0 -0.24610928055E+02 -0.34978823308E+02  0.73761347464E+01  0.47787271624E+02  0.20000002644E+02 0.  0.
        -12    1    1    2    0    0  0.24610928055E+02  0.34978823308E+02 -0.73761347464E+01  0.43400728376E+02  0.00000000000E+00 0.  1.
         11    1    3    3    0    0 -0.68676348027E+01 -0.31912859479E+01  0.20584423923E+01  0.78476683880E+01  0.51100000000E-03 0. -1.
        -11    1    3    3    0    0 -0.53932373900E+01 -0.15084623118E+01 -0.27782142082E+01  0.62514752290E+01  0.51100000000E-03 0.  1.
         12    1    3    3    0    0 -0.12350055862E+02 -0.30279075048E+02  0.80959065622E+01  0.33688128007E+02  0.00000000000E+00 0. -1.
</event>
<event>
 7    1  0.1542786E-009  0.4778725E+02  0.7816164E-02  0.1312668E+00
        -11   -1    0    0    0    0  0.00000000000E+00  0.00000000000E+00  0.45593999997E+02  0.45594000000E+02  0.51100000000E-03 0. -1.
         11   -1    0    0    0    0 -0.00000000000E+00 -0.00000000000E+00 -0.45593999997E+02  0.45594000000E+02  0.51100000000E-03 0.  1.
    9900012    2    1    2    0    0 -0.88219704635E+01 -0.35623858941E+02  0.23167624328E+02  0.47787247637E+02  0.19999893275E+02 0.  0.
        -12    1    1    2    0    0  0.88219704635E+01  0.35623858941E+02 -0.23167624328E+02  0.43400752363E+02  0.00000000000E+00 0.  1.
         11    1    3    3    0    0 -0.24286508012E+01 -0.18894578798E+02  0.89690174887E+00  0.19071127017E+02  0.51100000000E-03 0.  1.
        -11    1    3    3    0    0 -0.50076168730E+00 -0.30991005547E+01  0.53547971771E+01  0.62071764583E+01  0.51100000000E-03 0. -1.
        -12    1    3    3    0    0 -0.58925579750E+01 -0.13630179588E+02  0.16915925402E+02  0.22508944162E+02  0.00000000000E+00 0.  1.
</event>
<event>
 7    1  0.1542786E-009  0.4778732E+02  0.7816164E-02  0.1312668E+00
        -11   -1    0    0    0    0  0.00000000000E+00  0.00000000000E+00  0.45593999997E+02  0.45594000000E+02  0.51100000000E-03 0.  1.
         11   -1    0    0    0    0 -0.00000000000E+00 -0.00000000000E+00 -0.45593999997E+02  0.45594000000E+02  0.51100000000E-03 0. -1.
    9900012    2    1    2    0    0  0.11459839319E+02  0.14677091511E+02 -0.39202980648E+02  0.47787324612E+02  0.20000244233E+02 0.  0.
        -12    1    1    2    0    0 -0.11459839319E+02 -0.14677091511E+02  0.39202980648E+02  0.43400675388E+02  0.00000000000E+00 0.  1.
         11    1    3    3    0    0  0.10393695637E+02  0.71146097515E+01 -0.27110192856E+02  0.29893295868E+02  0.51100000000E-03 0. -1.
        -11    1    3    3    0    0  0.17305233695E+01 -0.22917041728E+01 -0.99828364742E+00  0.30402614443E+01  0.51100000000E-03 0.  1.
        -12    1    3    3    0    0 -0.66437968682E+00  0.98541859324E+01 -0.11094504145E+02  0.14853767299E+02  0.00000000000E+00 0.  1.
</event>
<event>
 7    1  0.1542786E-009  0.4778727E+02  0.7816164E-02  0.1312668E+00
        -11   -1    0    0    0    0  0.00000000000E+00  0.00000000000E+00  0.45593999997E+02  0.45594000000E+02  0.51100000000E-03 0.  1.
         11   -1    0    0    0    0 -0.00000000000E+00 -0.00000000000E+00 -0.45593999997E+02  0.45594000000E+02  0.51100000000E-03 0. -1.
    9900012    2    1    2    0    0 -0.24833490441E+02  0.42063127463E+01 -0.35344419194E+02  0.47787270944E+02  0.19999999544E+02 0.  0.
        -12    1    1    2    0    0  0.24833490441E+02 -0.42063127463E+01  0.35344419194E+02  0.43400729056E+02  0.00000000000E+00 0.  1.
         11    1    3    3    0    0 -0.11415234889E+02 -0.37585297760E+00 -0.67578175096E+01  0.13270906178E+02  0.51100000000E-03 0. -1.
        -11    1    3    3    0    0 -0.19405748372E+01  0.68850976560E+01 -0.72841949663E+01  0.10209304433E+02  0.51100000000E-03 0.  1.
        -12    1    3    3    0    0 -0.11477680714E+02 -0.23029319321E+01 -0.21302406718E+02  0.24307060333E+02  0.00000000000E+00 0.  1.
</event>
<event>
 7    1  0.1542786E-009  0.4778728E+02  0.7816164E-02  0.1312668E+00
        -11   -1    0    0    0    0  0.00000000000E+00  0.00000000000E+00  0.45593999997E+02  0.45594000000E+02  0.51100000000E-03 0.  1.
         11   -1    0    0    0    0 -0.00000000000E+00 -0.00000000000E+00 -0.45593999997E+02  0.45594000000E+02  0.51100000000E-03 0. -1.
    9900012    2    1    2    0    0  0.41208334302E+02 -0.13324510669E+02 -0.28201039833E+01  0.47787281262E+02  0.20000046584E+02 0.  0.
        -12    1    1    2    0    0 -0.41208334302E+02  0.13324510669E+02  0.28201039833E+01  0.43400718738E+02  0.00000000000E+00 0.  1.
         11    1    3    3    0    0  0.52134620200E+01  0.16100496952E+01 -0.37211137220E+01  0.66044783176E+01  0.51100000000E-03 0. -1.
        -11    1    3    3    0    0  0.11737475899E+02 -0.11339287928E+02 -0.21897353961E+01  0.16466412255E+02  0.51100000000E-03 0.  1.
         12    1    3    3    0    0  0.24257396383E+02 -0.35952724363E+01  0.30907451348E+01  0.24716390689E+02  0.00000000000E+00 0. -1.
</event>
<event>
 7    1  0.1542786E-009  0.4778729E+02  0.7816164E-02  0.1312668E+00
        -11   -1    0    0    0    0  0.00000000000E+00  0.00000000000E+00  0.45593999997E+02  0.45594000000E+02  0.51100000000E-03 0. -1.
         11   -1    0    0    0    0 -0.00000000000E+00 -0.00000000000E+00 -0.45593999997E+02  0.45594000000E+02  0.51100000000E-03 0.  1.
    9900012    2    1    2    0    0 -0.73897367215E+01 -0.18292629425E+02  0.38657376237E+02  0.47787294504E+02  0.20000106959E+02 0.  0.
        -12    1    1    2    0    0  0.73897367215E+01  0.18292629425E+02 -0.38657376237E+02  0.43400705496E+02  0.00000000000E+00 0.  1.
         11    1    3    3    0    0  0.13532029734E+01 -0.52869818744E+01  0.15860412503E+02  0.16773074276E+02  0.51100000000E-03 0. -1.
        -11    1    3    3    0    0 -0.75937658148E+01 -0.14782162268E+02  0.13302734181E+02  0.21287093214E+02  0.51100000000E-03 0.  1.
         12    1    3    3    0    0 -0.11491738802E+01  0.17765147173E+01  0.94942295524E+01  0.97271270137E+01  0.00000000000E+00 0. -1.
</event>
<event>
 7    1  0.1542786E-009  0.4778727E+02  0.7816164E-02  0.1312668E+00
        -11   -1    0    0    0    0  0.00000000000E+00  0.00000000000E+00  0.45593999997E+02  0.45594000000E+02  0.51100000000E-03 0.  1.
         11   -1    0    0    0    0 -0.00000000000E+00 -0.00000000000E+00 -0.45593999997E+02  0.45594000000E+02  0.51100000000E-03 0. -1.
    9900012    2    1    2    0    0  0.60470911823E+01  0.37646183190E+02 -0.20732132329E+02  0.47787265773E+02  0.19999975967E+02 0.  0.
        -12    1    1    2    0    0 -0.60470911823E+01 -0.37646183190E+02  0.20732132329E+02  0.43400734227E+02  0.00000000000E+00 0.  1.
         11    1    3    3    0    0 -0.31446231963E+01  0.27905248620E+02 -0.16403251391E+02  0.32521657584E+02  0.51100000000E-03 0. -1.
        -11    1    3    3    0    0  0.15199348525E+01  0.14753266550E+01  0.14762858764E+01  0.25819006458E+01  0.51100000000E-03 0.  1.
        -12    1    3    3    0    0  0.76717795261E+01  0.82656079153E+01 -0.58051668139E+01  0.12683707543E+02  0.00000000000E+00 0.  1.
</event>
<event>
 7    1  0.1542786E-009  0.4778727E+02  0.7816164E-02  0.1312668E+00
        -11   -1    0    0    0    0  0.00000000000E+00  0.00000000000E+00  0.45593999997E+02  0.45594000000E+02  0.51100000000E-03 0.  1.
         11   -1    0    0    0    0 -0.00000000000E+00 -0.00000000000E+00 -0.45593999997E+02  0.45594000000E+02  0.51100000000E-03 0. -1.
    9900012    2    1    2    0    0 -0.16769904649E+02 -0.40020947493E+02  0.84702186702E+00  0.47787269750E+02  0.19999994097E+02 0.  0.
        -12    1    1    2    0    0  0.16769904649E+02  0.40020947493E+02 -0.84702186702E+00  0.43400730250E+02  0.00000000000E+00 0.  1.
         11    1    3    3    0    0 -0.62916468007E+01 -0.90323170367E+01 -0.69463360840E+01  0.13016111392E+02  0.51100000000E-03 0. -1.
        -11    1    3    3    0    0 -0.71073679281E+01 -0.10935755844E+02  0.60049428119E+01  0.14358439093E+02  0.51100000000E-03 0.  1.
        -12    1    3    3    0    0 -0.33708899201E+01 -0.20052874613E+02  0.17884151392E+01  0.20412719265E+02  0.00000000000E+00 0.  1.
</event>
<event>
 7    1  0.1542786E-009  0.4778727E+02  0.7816164E-02  0.1312668E+00
        -11   -1    0    0    0    0  0.00000000000E+00  0.00000000000E+00  0.45593999997E+02  0.45594000000E+02  0.51100000000E-03 0.  1.
         11   -1    0    0    0    0 -0.00000000000E+00 -0.00000000000E+00 -0.45593999997E+02  0.45594000000E+02  0.51100000000E-03 0. -1.
    9900012    2    1    2    0    0 -0.66762387755E+01 -0.53305668230E+01 -0.42551568496E+02  0.47787273183E+02  0.20000009749E+02 0.  0.
        -12    1    1    2    0    0  0.66762387755E+01  0.53305668230E+01  0.42551568496E+02  0.43400726817E+02  0.00000000000E+00 0.  1.
         11    1    3    3    0    0  0.10787073067E+01 -0.28020818392E-01 -0.57991894758E+01  0.58987281220E+01  0.51100000000E-03 0. -1.
        -11    1    3    3    0    0 -0.85110004652E+01 -0.10951868357E+02 -0.30007057083E+02  0.33057586489E+02  0.51100000000E-03 0.  1.
        -12    1    3    3    0    0  0.75605438294E+00  0.56493223520E+01 -0.67453219367E+01  0.88309585718E+01  0.00000000000E+00 0.  1.
</event>
<event>
 7    1  0.1542786E-009  0.4778727E+02  0.7816164E-02  0.1312668E+00
        -11   -1    0    0    0    0  0.00000000000E+00  0.00000000000E+00  0.45593999997E+02  0.45594000000E+02  0.51100000000E-03 0.  1.
         11   -1    0    0    0    0 -0.00000000000E+00 -0.00000000000E+00 -0.45593999997E+02  0.45594000000E+02  0.51100000000E-03 0. -1.
    9900012    2    1    2    0    0  0.13349107980E+02 -0.41000740388E+02  0.49359992616E+01  0.47787268613E+02  0.19999988915E+02 0.  0.
        -12    1    1    2    0    0 -0.13349107980E+02  0.41000740388E+02 -0.49359992616E+01  0.43400731387E+02  0.00000000000E+00 0.  1.
         11    1    3    3    0    0  0.74207984644E+01 -0.40540131738E+01 -0.18588089916E+01  0.86578544566E+01  0.51100000000E-03 0.  1.
        -11    1    3    3    0    0 -0.21817382050E+01 -0.14501763869E+02  0.28845553174E+01  0.14945962550E+02  0.51100000000E-03 0. -1.
        -12    1    3    3    0    0  0.81100477204E+01 -0.22444963345E+02  0.39102529357E+01  0.24183451606E+02  0.00000000000E+00 0.  1.
</event>
<event>
 7    1  0.1542786E-009  0.4778727E+02  0.7816164E-02  0.1312668E+00
        -11   -1    0    0    0    0  0.00000000000E+00  0.00000000000E+00  0.45593999997E+02  0.45594000000E+02  0.51100000000E-03 0. -1.
         11   -1    0    0    0    0 -0.00000000000E+00 -0.00000000000E+00 -0.45593999997E+02  0.45594000000E+02  0.51100000000E-03 0.  1.
    9900012    2    1    2    0    0 -0.41822085763E+02  0.60007160204E+01  0.99261134791E+01  0.47787272136E+02  0.20000004979E+02 0.  0.
        -12    1    1    2    0    0  0.41822085763E+02 -0.60007160204E+01 -0.99261134791E+01  0.43400727864E+02  0.00000000000E+00 0.  1.
         11    1    3    3    0    0 -0.14409056982E+02  0.50384628105E+01  0.69596460898E+01  0.16776283991E+02  0.51100000000E-03 0. -1.
        -11    1    3    3    0    0 -0.26237689440E+02  0.21090919836E+01 -0.13862554133E+01  0.26358799678E+02  0.51100000000E-03 0.  1.
        -12    1    3    3    0    0 -0.11753393412E+01 -0.11468387737E+01  0.43527228025E+01  0.46521884673E+01  0.00000000000E+00 0.  1.
</event>
<event>
 7    1  0.1542786E-009  0.4778727E+02  0.7816164E-02  0.1312668E+00
        -11   -1    0    0    0    0  0.00000000000E+00  0.00000000000E+00  0.45593999997E+02  0.45594000000E+02  0.51100000000E-03 0.  1.
         11   -1    0    0    0    0 -0.00000000000E+00 -0.00000000000E+00 -0.45593999997E+02  0.45594000000E+02  0.51100000000E-03 0. -1.
    9900012    2    1    2    0    0  0.10063875469E+02  0.13942523423E+02 -0.39849065492E+02  0.47787267640E+02  0.19999984477E+02 0.  0.
        -12    1    1    2    0    0 -0.10063875469E+02 -0.13942523423E+02  0.39849065492E+02  0.43400732360E+02  0.00000000000E+00 0.  1.
         11    1    3    3    0    0  0.11695745852E+02  0.57388217451E-01 -0.14426230841E+02  0.18571750078E+02  0.51100000000E-03 0. -1.
        -11    1    3    3    0    0  0.66514046190E+00  0.82646109755E+01 -0.13701698719E+02  0.16015078971E+02  0.51100000000E-03 0.  1.
         12    1    3    3    0    0 -0.22970108450E+01  0.56205242299E+01 -0.11721135932E+02  0.13200438590E+02  0.00000000000E+00 0. -1.
</event>
<event>
 7    1  0.1542786E-009  0.4778729E+02  0.7816164E-02  0.1312668E+00
        -11   -1    0    0    0    0  0.00000000000E+00  0.00000000000E+00  0.45593999997E+02  0.45594000000E+02  0.51100000000E-03 0.  1.
         11   -1    0    0    0    0 -0.00000000000E+00 -0.00000000000E+00 -0.45593999997E+02  0.45594000000E+02  0.51100000000E-03 0. -1.
    9900012    2    1    2    0    0 -0.29944660424E+02 -0.12850991635E+02 -0.28666889011E+02  0.47787294942E+02  0.20000108960E+02 0.  0.
        -12    1    1    2    0    0  0.29944660424E+02  0.12850991635E+02  0.28666889011E+02  0.43400705058E+02  0.00000000000E+00 0.  1.
         11    1    3    3    0    0 -0.52137274014E+01 -0.89479432905E+01 -0.71947886175E+01  0.12610060510E+02  0.51100000000E-03 0. -1.
        -11    1    3    3    0    0 -0.35021827829E+01  0.37595489401E+01 -0.26058506318E+01  0.57610719710E+01  0.51100000000E-03 0.  1.
         12    1    3    3    0    0 -0.21228750240E+02 -0.76625972851E+01 -0.18866249761E+02  0.29416162462E+02  0.00000000000E+00 0. -1.
</event>
<event>
 7    1  0.1542786E-009  0.4778728E+02  0.7816164E-02  0.1312668E+00
        -11   -1    0    0    0    0  0.00000000000E+00  0.00000000000E+00  0.45593999997E+02  0.45594000000E+02  0.51100000000E-03 0. -1.
         11   -1    0    0    0    0 -0.00000000000E+00 -0.00000000000E+00 -0.45593999997E+02  0.45594000000E+02  0.51100000000E-03 0.  1.
    9900012    2    1    2    0    0  0.96804176991E+01  0.27726877525E+02  0.31955163634E+02  0.47787277576E+02  0.20000029778E+02 0.  0.
        -12    1    1    2    0    0 -0.96804176991E+01 -0.27726877525E+02 -0.31955163634E+02  0.43400722424E+02  0.00000000000E+00 0.  1.
         11    1    3    3    0    0  0.27537934327E+01  0.17425197451E+02  0.28776820124E+02  0.33753907347E+02  0.51100000000E-03 0. -1.
        -11    1    3    3    0    0 -0.37613625785E-01  0.21192108547E+01 -0.11942178362E+01  0.24328226267E+01  0.51100000000E-03 0.  1.
         12    1    3    3    0    0  0.69642378921E+01  0.81824692190E+01  0.43725613458E+01  0.11600547602E+02  0.00000000000E+00 0. -1.
</event>
<event>
 7    1  0.1542786E-009  0.4778727E+02  0.7816164E-02  0.1312668E+00
        -11   -1    0    0    0    0  0.00000000000E+00  0.00000000000E+00  0.45593999997E+02  0.45594000000E+02  0.51100000000E-03 0. -1.
         11   -1    0    0    0    0 -0.00000000000E+00 -0.00000000000E+00 -0.45593999997E+02  0.45594000000E+02  0.51100000000E-03 0.  1.
    9900012    2    1    2    0    0 -0.20684159977E+02 -0.37186863695E+02 -0.85396694297E+01  0.47787271211E+02  0.20000000761E+02 0.  0.
        -12    1    1    2    0    0  0.20684159977E+02  0.37186863695E+02  0.85396694297E+01  0.43400728789E+02  0.00000000000E+00 0.  1.
         11    1    3    3    0    0 -0.89394600674E+01 -0.80885997834E+01  0.52293918876E+00  0.12067015307E+02  0.51100000000E-03 0. -1.
        -11    1    3    3    0    0  0.18589730886E+01 -0.18389978331E+01 -0.40862654552E+01  0.48513152449E+01  0.51100000000E-03 0.  1.
         12    1    3    3    0    0 -0.13603672998E+02 -0.27259266079E+02 -0.49763431633E+01  0.30868940660E+02  0.00000000000E+00 0. -1.
</event>
<event>
 7    1  0.1542786E-009  0.4778729E+02  0.7816164E-02  0.1312668E+00
        -11   -1    0    0    0    0  0.00000000000E+00  0.00000000000E+00  0.45593999997E+02  0.45594000000E+02  0.51100000000E-03 0.  1.
         11   -1    0    0    0    0 -0.00000000000E+00 -0.00000000000E+00 -0.45593999997E+02  0.45594000000E+02  0.51100000000E-03 0. -1.
    9900012    2    1    2    0    0  0.26562277953E+02 -0.32401454685E+02 -0.11323096544E+02  0.47787292734E+02  0.20000098893E+02 0.  0.
        -12    1    1    2    0    0 -0.26562277953E+02  0.32401454685E+02  0.11323096544E+02  0.43400707266E+02  0.00000000000E+00 0.  1.
         11    1    3    3    0    0  0.93182344381E+01 -0.16476893347E+02  0.44509993361E+01  0.19445536834E+02  0.51100000000E-03 0. -1.
        -11    1    3    3    0    0  0.83441543189E+01 -0.88089576950E+01 -0.86901745557E+01  0.14924536208E+02  0.51100000000E-03 0.  1.
         12    1    3    3    0    0  0.88998891964E+01 -0.71156036431E+01 -0.70839213249E+01  0.13417219692E+02  0.00000000000E+00 0. -1.
</event>
<event>
 7    1  0.1542786E-009  0.4778727E+02  0.7816164E-02  0.1312668E+00
        -11   -1    0    0    0    0  0.00000000000E+00  0.00000000000E+00  0.45593999997E+02  0.45594000000E+02  0.51100000000E-03 0.  1.
         11   -1    0    0    0    0 -0.00000000000E+00 -0.00000000000E+00 -0.45593999997E+02  0.45594000000E+02  0.51100000000E-03 0. -1.
    9900012    2    1    2    0    0  0.59515914421E+00 -0.90872979599E+01 -0.42434537757E+02  0.47787271973E+02  0.20000004234E+02 0.  0.
        -12    1    1    2    0    0 -0.59515914421E+00  0.90872979599E+01  0.42434537757E+02  0.43400728027E+02  0.00000000000E+00 0.  1.
         11    1    3    3    0    0 -0.68444670018E+01 -0.69637541669E+01 -0.21516386373E+02  0.23628277200E+02  0.51100000000E-03 0. -1.
        -11    1    3    3    0    0  0.29586985856E+01  0.23930625073E+01 -0.14981183669E+02  0.15456924334E+02  0.51100000000E-03 0.  1.
        -12    1    3    3    0    0  0.44809275604E+01 -0.45166063003E+01 -0.59369677144E+01  0.87020704384E+01  0.00000000000E+00 0.  1.
</event>
<event>
 7    1  0.1542786E-009  0.4778723E+02  0.7816164E-02  0.1312668E+00
        -11   -1    0    0    0    0  0.00000000000E+00  0.00000000000E+00  0.45593999997E+02  0.45594000000E+02  0.51100000000E-03 0.  1.
         11   -1    0    0    0    0 -0.00000000000E+00 -0.00000000000E+00 -0.45593999997E+02  0.45594000000E+02  0.51100000000E-03 0. -1.
    9900012    2    1    2    0    0  0.30310666515E+02  0.27588268152E+01 -0.30939926105E+02  0.47787232065E+02  0.19999822277E+02 0.  0.
        -12    1    1    2    0    0 -0.30310666515E+02 -0.27588268152E+01  0.30939926105E+02  0.43400767935E+02  0.00000000000E+00 0.  1.
         11    1    3    3    0    0  0.18082719590E+02  0.24603446027E+01 -0.60853027279E+01  0.19237176323E+02  0.51100000000E-03 0. -1.
        -11    1    3    3    0    0  0.46839376444E+01 -0.30227357131E+01 -0.75751332311E+01  0.94052563377E+01  0.51100000000E-03 0.  1.
         12    1    3    3    0    0  0.75440092805E+01  0.33212179256E+01 -0.17279490146E+02  0.19144799405E+02  0.00000000000E+00 0. -1.
</event>
<event>
 7    1  0.1542786E-009  0.4778727E+02  0.7816164E-02  0.1312668E+00
        -11   -1    0    0    0    0  0.00000000000E+00  0.00000000000E+00  0.45593999997E+02  0.45594000000E+02  0.51100000000E-03 0.  1.
         11   -1    0    0    0    0 -0.00000000000E+00 -0.00000000000E+00 -0.45593999997E+02  0.45594000000E+02  0.51100000000E-03 0. -1.
    9900012    2    1    2    0    0  0.74263928254E+01  0.42535012541E+02  0.43868658432E+01  0.47787271963E+02  0.20000004186E+02 0.  0.
        -12    1    1    2    0    0 -0.74263928254E+01 -0.42535012541E+02 -0.43868658432E+01  0.43400728037E+02  0.00000000000E+00 0.  1.
         11    1    3    3    0    0  0.69563319105E+00  0.96658866298E+01  0.29320049609E+01  0.10124718427E+02  0.51100000000E-03 0.  1.
        -11    1    3    3    0    0  0.11847430414E+01  0.19378878432E+02  0.88178618944E+01  0.21323677779E+02  0.51100000000E-03 0. -1.
         12    1    3    3    0    0  0.55460165929E+01  0.13490247479E+02 -0.73630010121E+01  0.16338875757E+02  0.00000000000E+00 0. -1.
</event>
<event>
 7    1  0.1542786E-009  0.4778727E+02  0.7816164E-02  0.1312668E+00
        -11   -1    0    0    0    0  0.00000000000E+00  0.00000000000E+00  0.45593999997E+02  0.45594000000E+02  0.51100000000E-03 0.  1.
         11   -1    0    0    0    0 -0.00000000000E+00 -0.00000000000E+00 -0.45593999997E+02  0.45594000000E+02  0.51100000000E-03 0. -1.
    9900012    2    1    2    0    0  0.13401643923E+02 -0.23434203109E+02 -0.33983195537E+02  0.47787268277E+02  0.19999987381E+02 0.  0.
        -12    1    1    2    0    0 -0.13401643923E+02  0.23434203109E+02  0.33983195537E+02  0.43400731723E+02  0.00000000000E+00 0.  1.
         11    1    3    3    0    0  0.67952531611E+01 -0.13154269731E+01 -0.17673015901E+02  0.18980023839E+02  0.51100000000E-03 0. -1.
        -11    1    3    3    0    0  0.52567753831E+01 -0.81429553439E+01 -0.71133721834E+01  0.12022540216E+02  0.51100000000E-03 0.  1.
         12    1    3    3    0    0  0.13496153784E+01 -0.13975820792E+02 -0.91968074532E+01  0.16784704222E+02  0.00000000000E+00 0. -1.
</event>
<event>
 7    1  0.1542786E-009  0.4778728E+02  0.7816164E-02  0.1312668E+00
        -11   -1    0    0    0    0  0.00000000000E+00  0.00000000000E+00  0.45593999997E+02  0.45594000000E+02  0.51100000000E-03 0.  1.
         11   -1    0    0    0    0 -0.00000000000E+00 -0.00000000000E+00 -0.45593999997E+02  0.45594000000E+02  0.51100000000E-03 0. -1.
    9900012    2    1    2    0    0 -0.27892911647E+02 -0.28107697640E+02 -0.17764154782E+02  0.47787281320E+02  0.20000046852E+02 0.  0.
        -12    1    1    2    0    0  0.27892911647E+02  0.28107697640E+02  0.17764154782E+02  0.43400718680E+02  0.00000000000E+00 0.  1.
         11    1    3    3    0    0 -0.67939343741E+01 -0.14556926795E+01 -0.21975374822E+01  0.72873696698E+01  0.51100000000E-03 0. -1.
        -11    1    3    3    0    0 -0.11877154460E+02 -0.51424781257E+01 -0.10226777690E+02  0.16495419410E+02  0.51100000000E-03 0.  1.
        -12    1    3    3    0    0 -0.92218228127E+01 -0.21509526835E+02 -0.53398396100E+01  0.24004492240E+02  0.00000000000E+00 0.  1.
</event>
<event>
 7    1  0.1542786E-009  0.4778727E+02  0.7816164E-02  0.1312668E+00
        -11   -1    0    0    0    0  0.00000000000E+00  0.00000000000E+00  0.45593999997E+02  0.45594000000E+02  0.51100000000E-03 0.  1.
         11   -1    0    0    0    0 -0.00000000000E+00 -0.00000000000E+00 -0.45593999997E+02  0.45594000000E+02  0.51100000000E-03 0. -1.
    9900012    2    1    2    0    0 -0.21118762926E+02  0.15515613696E+02 -0.34596056841E+02  0.47787267692E+02  0.19999984717E+02 0.  0.
        -12    1    1    2    0    0  0.21118762926E+02 -0.15515613696E+02  0.34596056841E+02  0.43400732308E+02  0.00000000000E+00 0.  1.
         11    1    3    3    0    0 -0.84159794944E+01  0.10342857537E+02 -0.56722864889E+01  0.14490626182E+02  0.51100000000E-03 0. -1.
        -11    1    3    3    0    0  0.82310392963E+00 -0.85244069218E+00 -0.51827886094E+01  0.53165264265E+01  0.51100000000E-03 0.  1.
         12    1    3    3    0    0 -0.13525887361E+02  0.60251968516E+01 -0.23740981743E+02  0.27980115084E+02  0.00000000000E+00 0. -1.
</event>
<event>
 7    1  0.1542786E-009  0.4778728E+02  0.7816164E-02  0.1312668E+00
        -11   -1    0    0    0    0  0.00000000000E+00  0.00000000000E+00  0.45593999997E+02  0.45594000000E+02  0.51100000000E-03 0.  1.
         11   -1    0    0    0    0 -0.00000000000E+00 -0.00000000000E+00 -0.45593999997E+02  0.45594000000E+02  0.51100000000E-03 0. -1.
    9900012    2    1    2    0    0  0.21732010440E+01 -0.66185536362E+01 -0.42838006615E+02  0.47787275746E+02  0.20000021435E+02 0.  0.
        -12    1    1    2    0    0 -0.21732010440E+01  0.66185536362E+01  0.42838006615E+02  0.43400724254E+02  0.00000000000E+00 0.  1.
         11    1    3    3    0    0  0.75415713426E+01 -0.41097686117E+01 -0.13757912662E+02  0.16218682358E+02  0.51100000000E-03 0. -1.
        -11    1    3    3    0    0 -0.42408222299E+01 -0.58436808146E+01 -0.11062449403E+02  0.13210259866E+02  0.51100000000E-03 0.  1.
        -12    1    3    3    0    0 -0.11275480687E+01  0.33348957901E+01 -0.18017644550E+02  0.18358333522E+02  0.00000000000E+00 0.  1.
</event>
<event>
 7    1  0.1542786E-009  0.4778727E+02  0.7816164E-02  0.1312668E+00
        -11   -1    0    0    0    0  0.00000000000E+00  0.00000000000E+00  0.45593999997E+02  0.45594000000E+02  0.51100000000E-03 0.  1.
         11   -1    0    0    0    0 -0.00000000000E+00 -0.00000000000E+00 -0.45593999997E+02  0.45594000000E+02  0.51100000000E-03 0. -1.
    9900012    2    1    2    0    0  0.17452409936E+02 -0.21558908859E+02 -0.33380380175E+02  0.47787274840E+02  0.20000017307E+02 0.  0.
        -12    1    1    2    0    0 -0.17452409936E+02  0.21558908859E+02  0.33380380175E+02  0.43400725160E+02  0.00000000000E+00 0.  1.
         11    1    3    3    0    0 -0.10055854290E+01  0.19672535820E+01 -0.70731271631E+00  0.23198233232E+01  0.51100000000E-03 0. -1.
        -11    1    3    3    0    0  0.71711802692E+01 -0.35155138843E+01 -0.46910588767E+01  0.92623268119E+01  0.51100000000E-03 0.  1.
         12    1    3    3    0    0  0.11286815096E+02 -0.20010648557E+02 -0.27982008582E+02  0.36205124705E+02  0.00000000000E+00 0. -1.
</event>
<event>
 7    1  0.1542786E-009  0.4778727E+02  0.7816164E-02  0.1312668E+00
        -11   -1    0    0    0    0  0.00000000000E+00  0.00000000000E+00  0.45593999997E+02  0.45594000000E+02  0.51100000000E-03 0.  1.
         11   -1    0    0    0    0 -0.00000000000E+00 -0.00000000000E+00 -0.45593999997E+02  0.45594000000E+02  0.51100000000E-03 0. -1.
    9900012    2    1    2    0    0  0.34321085255E+02 -0.16460879654E+02 -0.20850081507E+02  0.47787270156E+02  0.19999995951E+02 0.  0.
        -12    1    1    2    0    0 -0.34321085255E+02  0.16460879654E+02  0.20850081507E+02  0.43400729844E+02  0.00000000000E+00 0.  1.
         11    1    3    3    0    0  0.31209444626E+02 -0.14421028359E+02 -0.94898773462E+01  0.35665855732E+02  0.51100000000E-03 0. -1.
        -11    1    3    3    0    0  0.23934324559E+01 -0.16482410760E+01 -0.56564355362E+01  0.63592830415E+01  0.51100000000E-03 0.  1.
         12    1    3    3    0    0  0.71820817337E+00 -0.39161021970E+00 -0.57037686250E+01  0.57621313827E+01  0.00000000000E+00 0. -1.
</event>
<event>
 7    1  0.1542786E-009  0.4778727E+02  0.7816164E-02  0.1312668E+00
        -11   -1    0    0    0    0  0.00000000000E+00  0.00000000000E+00  0.45593999997E+02  0.45594000000E+02  0.51100000000E-03 0.  1.
         11   -1    0    0    0    0 -0.00000000000E+00 -0.00000000000E+00 -0.45593999997E+02  0.45594000000E+02  0.51100000000E-03 0. -1.
    9900012    2    1    2    0    0  0.88598781589E+01 -0.98852555973E+01 -0.41320788154E+02  0.47787271286E+02  0.20000001103E+02 0.  0.
        -12    1    1    2    0    0 -0.88598781589E+01  0.98852555973E+01  0.41320788154E+02  0.43400728714E+02  0.00000000000E+00 0.  1.
         11    1    3    3    0    0  0.39730686493E+01 -0.37953389470E+01 -0.36358395470E+01  0.65885659811E+01  0.51100000000E-03 0. -1.
        -11    1    3    3    0    0 -0.34433950840E+01 -0.73050854325E+01 -0.21256225596E+02  0.22738697626E+02  0.51100000000E-03 0.  1.
        -12    1    3    3    0    0  0.83302045936E+01  0.12151687822E+01 -0.16428723011E+02  0.18460007679E+02  0.00000000000E+00 0.  1.
</event>
<event>
 7    1  0.1542786E-009  0.4778730E+02  0.7816164E-02  0.1312668E+00
        -11   -1    0    0    0    0  0.00000000000E+00  0.00000000000E+00  0.45593999997E+02  0.45594000000E+02  0.51100000000E-03 0.  1.
         11   -1    0    0    0    0 -0.00000000000E+00 -0.00000000000E+00 -0.45593999997E+02  0.45594000000E+02  0.51100000000E-03 0. -1.
    9900012    2    1    2    0    0  0.82421586205E+01  0.90367922541E+00 -0.42601297662E+02  0.47787304414E+02  0.20000152144E+02 0.  0.
        -12    1    1    2    0    0 -0.82421586205E+01 -0.90367922541E+00  0.42601297662E+02  0.43400695586E+02  0.00000000000E+00 0.  1.
         11    1    3    3    0    0  0.10758997910E+02 -0.66561624544E+00 -0.18370503515E+02  0.21299635693E+02  0.51100000000E-03 0. -1.
        -11    1    3    3    0    0  0.59335237969E+00  0.50735219171E+00 -0.22945517757E+02  0.22958794801E+02  0.51100000000E-03 0.  1.
        -12    1    3    3    0    0 -0.31101916691E+01  0.10619432791E+01 -0.12852763903E+01  0.35288739204E+01  0.00000000000E+00 0.  1.
</event>
<event>
 7    1  0.2044027E-009  0.4778727E+02  0.7816164E-02  0.1312668E+00
        -11   -1    0    0    0    0  0.00000000000E+00  0.00000000000E+00  0.45593999997E+02  0.45594000000E+02  0.51100000000E-03 0.  1.
         11   -1    0    0    0    0 -0.00000000000E+00 -0.00000000000E+00 -0.45593999997E+02  0.45594000000E+02  0.51100000000E-03 0. -1.
    9900012    2    1    2    0    0  0.31495621109E+02 -0.23655804118E+02 -0.18222300085E+02  0.47787269155E+02  0.19999991385E+02 0.  0.
        -12    1    1    2    0    0 -0.31495621109E+02  0.23655804118E+02  0.18222300085E+02  0.43400730845E+02  0.00000000000E+00 0.  1.
         11    1    3    3    0    0  0.20666350999E+02 -0.83905041822E+01 -0.64528731866E+01  0.23219349618E+02  0.51100000000E-03 0. -1.
        -11    1    3    3    0    0  0.39655907865E+01 -0.26392495668E+01 -0.86308199391E+01  0.98581236371E+01  0.51100000000E-03 0.  1.
         12    1    3    3    0    0  0.68636793232E+01 -0.12626050369E+02 -0.31386069589E+01  0.14709795900E+02  0.00000000000E+00 0. -1.
</event>
<event>
 7    1  0.1542786E-009  0.4778728E+02  0.7816164E-02  0.1312668E+00
        -11   -1    0    0    0    0  0.00000000000E+00  0.00000000000E+00  0.45593999997E+02  0.45594000000E+02  0.51100000000E-03 0. -1.
         11   -1    0    0    0    0 -0.00000000000E+00 -0.00000000000E+00 -0.45593999997E+02  0.45594000000E+02  0.51100000000E-03 0.  1.
    9900012    2    1    2    0    0 -0.24384357955E+01  0.15615813633E+02  0.40420578810E+02  0.47787276551E+02  0.20000025106E+02 0.  0.
        -12    1    1    2    0    0  0.24384357955E+01 -0.15615813633E+02 -0.40420578810E+02  0.43400723449E+02  0.00000000000E+00 0.  1.
         11    1    3    3    0    0 -0.79475545857E+01  0.90894646048E+01  0.89082240071E+01  0.15004614154E+02  0.51100000000E-03 0.  1.
        -11    1    3    3    0    0 -0.19973008436E+00  0.36418876920E+00  0.38673879240E+01  0.38896291831E+01  0.51100000000E-03 0. -1.
        -12    1    3    3    0    0  0.57088488746E+01  0.61621602594E+01  0.27644966879E+02  0.28893033213E+02  0.00000000000E+00 0.  1.
</event>
<event>
 7    1  0.1542786E-009  0.4778727E+02  0.7816164E-02  0.1312668E+00
        -11   -1    0    0    0    0  0.00000000000E+00  0.00000000000E+00  0.45593999997E+02  0.45594000000E+02  0.51100000000E-03 0. -1.
         11   -1    0    0    0    0 -0.00000000000E+00 -0.00000000000E+00 -0.45593999997E+02  0.45594000000E+02  0.51100000000E-03 0.  1.
    9900012    2    1    2    0    0  0.11168166052E+02  0.27197374340E+02  0.31924885538E+02  0.47787269355E+02  0.19999992295E+02 0.  0.
        -12    1    1    2    0    0 -0.11168166052E+02 -0.27197374340E+02 -0.31924885538E+02  0.43400730645E+02  0.00000000000E+00 0.  1.
         11    1    3    3    0    0  0.13580604419E+02  0.17073798752E+02  0.23858171381E+02  0.32328930730E+02  0.51100000000E-03 0. -1.
        -11    1    3    3    0    0  0.25553922597E+01  0.38700566493E+01  0.52127795700E+01  0.69771368896E+01  0.51100000000E-03 0.  1.
        -12    1    3    3    0    0 -0.49678306265E+01  0.62535189383E+01  0.28539345864E+01  0.84812017349E+01  0.00000000000E+00 0.  1.
</event>
<event>
 7    1  0.1542786E-009  0.4778727E+02  0.7816164E-02  0.1312668E+00
        -11   -1    0    0    0    0  0.00000000000E+00  0.00000000000E+00  0.45593999997E+02  0.45594000000E+02  0.51100000000E-03 0.  1.
         11   -1    0    0    0    0 -0.00000000000E+00 -0.00000000000E+00 -0.45593999997E+02  0.45594000000E+02  0.51100000000E-03 0. -1.
    9900012    2    1    2    0    0  0.37535549640E+02 -0.17690633468E+02 -0.12717989387E+02  0.47787271281E+02  0.20000001080E+02 0.  0.
        -12    1    1    2    0    0 -0.37535549640E+02  0.17690633468E+02  0.12717989387E+02  0.43400728719E+02  0.00000000000E+00 0.  1.
         11    1    3    3    0    0  0.33001403672E+02 -0.11418524104E+02 -0.13123663364E+02  0.37305574348E+02  0.51100000000E-03 0. -1.
        -11    1    3    3    0    0  0.50597317089E+01 -0.27087030549E+01  0.25604523097E+01  0.62844151277E+01  0.51100000000E-03 0.  1.
        -12    1    3    3    0    0 -0.52558574140E+00 -0.35634063089E+01 -0.21547783331E+01  0.41972818060E+01  0.00000000000E+00 0.  1.
</event>
<event>
 7    1  0.1542786E-009  0.4778727E+02  0.7816164E-02  0.1312668E+00
        -11   -1    0    0    0    0  0.00000000000E+00  0.00000000000E+00  0.45593999997E+02  0.45594000000E+02  0.51100000000E-03 0. -1.
         11   -1    0    0    0    0 -0.00000000000E+00 -0.00000000000E+00 -0.45593999997E+02  0.45594000000E+02  0.51100000000E-03 0.  1.
    9900012    2    1    2    0    0 -0.98043717334E+01 -0.41756299672E+02 -0.66264049848E+01  0.47787268319E+02  0.19999987576E+02 0.  0.
        -12    1    1    2    0    0  0.98043717334E+01  0.41756299672E+02  0.66264049848E+01  0.43400731681E+02  0.00000000000E+00 0.  1.
         11    1    3    3    0    0 -0.28205572498E+01 -0.15430834041E+02  0.10231014032E+01  0.15719825671E+02  0.51100000000E-03 0. -1.
        -11    1    3    3    0    0 -0.28075962265E+01 -0.10048445134E+02  0.44681615300E+01  0.11349815589E+02  0.51100000000E-03 0.  1.
        -12    1    3    3    0    0 -0.41762182572E+01 -0.16277020498E+02 -0.12117667918E+02  0.20717627060E+02  0.00000000000E+00 0.  1.
</event>
<event>
 7    1  0.1542786E-009  0.4778726E+02  0.7816164E-02  0.1312668E+00
        -11   -1    0    0    0    0  0.00000000000E+00  0.00000000000E+00  0.45593999997E+02  0.45594000000E+02  0.51100000000E-03 0.  1.
         11   -1    0    0    0    0 -0.00000000000E+00 -0.00000000000E+00 -0.45593999997E+02  0.45594000000E+02  0.51100000000E-03 0. -1.
    9900012    2    1    2    0    0  0.13123574719E+01 -0.24970603006E+02 -0.35473528887E+02  0.47787256362E+02  0.19999933057E+02 0.  0.
        -12    1    1    2    0    0 -0.13123574719E+01  0.24970603006E+02  0.35473528887E+02  0.43400743638E+02  0.00000000000E+00 0.  1.
         11    1    3    3    0    0  0.33280707365E+01 -0.51611807894E+01 -0.17203347124E+01  0.63775695804E+01  0.51100000000E-03 0.  1.
        -11    1    3    3    0    0 -0.47755350745E+01 -0.13717051207E+01 -0.10413906543E+02  0.11538490366E+02  0.51100000000E-03 0. -1.
         12    1    3    3    0    0  0.27598218099E+01 -0.18437717095E+02 -0.23339287632E+02  0.29871196415E+02  0.00000000000E+00 0. -1.
</event>
<event>
 7    1  0.1542786E-009  0.4778728E+02  0.7816164E-02  0.1312668E+00
        -11   -1    0    0    0    0  0.00000000000E+00  0.00000000000E+00  0.45593999997E+02  0.45594000000E+02  0.51100000000E-03 0.  1.
         11   -1    0    0    0    0 -0.00000000000E+00 -0.00000000000E+00 -0.45593999997E+02  0.45594000000E+02  0.51100000000E-03 0. -1.
    9900012    2    1    2    0    0  0.42379577326E+02  0.58307211033E+01 -0.73209929434E+01  0.47787276266E+02  0.20000023809E+02 0.  0.
        -12    1    1    2    0    0 -0.42379577326E+02 -0.58307211033E+01  0.73209929434E+01  0.43400723734E+02  0.00000000000E+00 0.  1.
         11    1    3    3    0    0  0.14938828533E+02 -0.43802062114E-01 -0.29269822295E+01  0.15222934730E+02  0.51100000000E-03 0. -1.
        -11    1    3    3    0    0  0.81235734940E+01  0.45235481253E+01  0.55163374734E+01  0.10811332635E+02  0.51100000000E-03 0.  1.
        -12    1    3    3    0    0  0.19317175299E+02  0.13509750401E+01 -0.99103481874E+01  0.21753008902E+02  0.00000000000E+00 0.  1.
</event>
<event>
 7    1  0.1542786E-009  0.4778727E+02  0.7816164E-02  0.1312668E+00
        -11   -1    0    0    0    0  0.00000000000E+00  0.00000000000E+00  0.45593999997E+02  0.45594000000E+02  0.51100000000E-03 0. -1.
         11   -1    0    0    0    0 -0.00000000000E+00 -0.00000000000E+00 -0.45593999997E+02  0.45594000000E+02  0.51100000000E-03 0.  1.
    9900012    2    1    2    0    0  0.32618697115E+02  0.19217670373E+02  0.21220865460E+02  0.47787269742E+02  0.19999994064E+02 0.  0.
        -12    1    1    2    0    0 -0.32618697115E+02 -0.19217670373E+02 -0.21220865460E+02  0.43400730258E+02  0.00000000000E+00 0.  1.
         11    1    3    3    0    0  0.14534164104E+02  0.15938811773E+01  0.55387125132E+01  0.15635207705E+02  0.51100000000E-03 0. -1.
        -11    1    3    3    0    0 -0.17236631312E+01  0.12667284373E+01  0.24606557212E+01  0.32604359161E+01  0.51100000000E-03 0.  1.
         12    1    3    3    0    0  0.19808196141E+02  0.16357060758E+02  0.13221497226E+02  0.28891626121E+02  0.00000000000E+00 0. -1.
</event>
<event>
 7    1  0.1542786E-009  0.4778727E+02  0.7816164E-02  0.1312668E+00
        -11   -1    0    0    0    0  0.00000000000E+00  0.00000000000E+00  0.45593999997E+02  0.45594000000E+02  0.51100000000E-03 0.  1.
         11   -1    0    0    0    0 -0.00000000000E+00 -0.00000000000E+00 -0.45593999997E+02  0.45594000000E+02  0.51100000000E-03 0. -1.
    9900012    2    1    2    0    0  0.28706207268E+02  0.20844308424E+02 -0.25001832344E+02  0.47787272472E+02  0.20000006508E+02 0.  0.
        -12    1    1    2    0    0 -0.28706207268E+02 -0.20844308424E+02  0.25001832344E+02  0.43400727528E+02  0.00000000000E+00 0.  1.
         11    1    3    3    0    0  0.18317172668E+01  0.53715204346E+01 -0.18310815312E+01  0.59633279098E+01  0.51100000000E-03 0. -1.
        -11    1    3    3    0    0  0.24196682197E+02  0.14562389506E+02 -0.25583822410E+02  0.38106096452E+02  0.51100000000E-03 0.  1.
        -12    1    3    3    0    0  0.26778078047E+01  0.91039848317E+00  0.24130715968E+01  0.37178481099E+01  0.00000000000E+00 0.  1.
</event>
<event>
 7    1  0.1542786E-009  0.4778727E+02  0.7816164E-02  0.1312668E+00
        -11   -1    0    0    0    0  0.00000000000E+00  0.00000000000E+00  0.45593999997E+02  0.45594000000E+02  0.51100000000E-03 0. -1.
         11   -1    0    0    0    0 -0.00000000000E+00 -0.00000000000E+00 -0.45593999997E+02  0.45594000000E+02  0.51100000000E-03 0.  1.
    9900012    2    1    2    0    0  0.33560024409E+02  0.12613599655E+02 -0.24459049248E+02  0.47787271611E+02  0.20000002581E+02 0.  0.
        -12    1    1    2    0    0 -0.33560024409E+02 -0.12613599655E+02  0.24459049248E+02  0.43400728389E+02  0.00000000000E+00 0.  1.
         11    1    3    3    0    0  0.22001458083E+02  0.47599300066E+01 -0.86006657385E+01  0.24097563006E+02  0.51100000000E-03 0. -1.
        -11    1    3    3    0    0  0.68949052875E+01 -0.12411752515E+01 -0.41291345355E+01  0.81320346287E+01  0.51100000000E-03 0.  1.
        -12    1    3    3    0    0  0.46636610391E+01  0.90948448997E+01 -0.11729248974E+02  0.15557673976E+02  0.00000000000E+00 0.  1.
</event>
<event>
 7    1  0.1542786E-009  0.4778727E+02  0.7816164E-02  0.1312668E+00
        -11   -1    0    0    0    0  0.00000000000E+00  0.00000000000E+00  0.45593999997E+02  0.45594000000E+02  0.51100000000E-03 0.  1.
         11   -1    0    0    0    0 -0.00000000000E+00 -0.00000000000E+00 -0.45593999997E+02  0.45594000000E+02  0.51100000000E-03 0. -1.
    9900012    2    1    2    0    0 -0.60670368279E+01 -0.13239156811E+02 -0.40884461699E+02  0.47787269391E+02  0.19999992463E+02 0.  0.
        -12    1    1    2    0    0  0.60670368279E+01  0.13239156811E+02  0.40884461699E+02  0.43400730609E+02  0.00000000000E+00 0.  1.
         11    1    3    3    0    0 -0.31505426420E+01 -0.90795893146E+01 -0.18207219464E+02  0.20588047551E+02  0.51100000000E-03 0. -1.
        -11    1    3    3    0    0  0.55224449955E+01 -0.24634930464E+01 -0.65223524886E+01  0.88942272832E+01  0.51100000000E-03 0.  1.
         12    1    3    3    0    0 -0.84389391815E+01 -0.16960744500E+01 -0.16154889746E+02  0.18304994558E+02  0.00000000000E+00 0. -1.
</event>
<event>
 7    1  0.1542786E-009  0.4778727E+02  0.7816164E-02  0.1312668E+00
        -11   -1    0    0    0    0  0.00000000000E+00  0.00000000000E+00  0.45593999997E+02  0.45594000000E+02  0.51100000000E-03 0.  1.
         11   -1    0    0    0    0 -0.00000000000E+00 -0.00000000000E+00 -0.45593999997E+02  0.45594000000E+02  0.51100000000E-03 0. -1.
    9900012    2    1    2    0    0  0.10867315882E+02  0.38318209275E+02 -0.17240635260E+02  0.47787271657E+02  0.20000002794E+02 0.  0.
        -12    1    1    2    0    0 -0.10867315882E+02 -0.38318209275E+02  0.17240635260E+02  0.43400728343E+02  0.00000000000E+00 0.  1.
         11    1    3    3    0    0  0.72918652413E+01  0.99069679513E+01 -0.55662842277E+01  0.13501956638E+02  0.51100000000E-03 0. -1.
        -11    1    3    3    0    0 -0.35815281759E+01  0.78142485055E+00 -0.87436753360E+00  0.37686188076E+01  0.51100000000E-03 0.  1.
        -12    1    3    3    0    0  0.71569788170E+01  0.27629816473E+02 -0.10799983499E+02  0.30516696212E+02  0.00000000000E+00 0.  1.
</event>
<event>
 7    1  0.1542786E-009  0.4778727E+02  0.7816164E-02  0.1312668E+00
        -11   -1    0    0    0    0  0.00000000000E+00  0.00000000000E+00  0.45593999997E+02  0.45594000000E+02  0.51100000000E-03 0.  1.
         11   -1    0    0    0    0 -0.00000000000E+00 -0.00000000000E+00 -0.45593999997E+02  0.45594000000E+02  0.51100000000E-03 0. -1.
    9900012    2    1    2    0    0 -0.33605822785E+02  0.44996285118E+01 -0.27092904333E+02  0.47787269050E+02  0.19999990905E+02 0.  0.
        -12    1    1    2    0    0  0.33605822785E+02 -0.44996285118E+01  0.27092904333E+02  0.43400730950E+02  0.00000000000E+00 0.  1.
         11    1    3    3    0    0 -0.58145262015E+01  0.29890976494E+01 -0.93264619706E+01  0.11389745952E+02  0.51100000000E-03 0. -1.
        -11    1    3    3    0    0 -0.15573792501E+02  0.49893379654E+01 -0.25102189927E+01  0.16545020576E+02  0.51100000000E-03 0.  1.
         12    1    3    3    0    0 -0.12217504083E+02 -0.34788071029E+01 -0.15256223370E+02  0.19852502522E+02  0.00000000000E+00 0. -1.
</event>
<event>
 7    1  0.1542786E-009  0.4778726E+02  0.7816164E-02  0.1312668E+00
        -11   -1    0    0    0    0  0.00000000000E+00  0.00000000000E+00  0.45593999997E+02  0.45594000000E+02  0.51100000000E-03 0.  1.
         11   -1    0    0    0    0 -0.00000000000E+00 -0.00000000000E+00 -0.45593999997E+02  0.45594000000E+02  0.51100000000E-03 0. -1.
    9900012    2    1    2    0    0  0.39021240894E+02 -0.30185822098E+01 -0.18757791594E+02  0.47787264695E+02  0.19999971052E+02 0.  0.
        -12    1    1    2    0    0 -0.39021240894E+02  0.30185822098E+01  0.18757791594E+02  0.43400735305E+02  0.00000000000E+00 0.  1.
         11    1    3    3    0    0  0.10395341937E+01  0.30259374558E+01 -0.10241263451E+01  0.33594290971E+01  0.51100000000E-03 0. -1.
        -11    1    3    3    0    0  0.10623672674E+02 -0.80121418592E+01 -0.57370322541E+01  0.14490354640E+02  0.51100000000E-03 0.  1.
         12    1    3    3    0    0  0.27358034027E+02  0.19676221936E+01 -0.11996632995E+02  0.29937480958E+02  0.00000000000E+00 0. -1.
</event>
<event>
 7    1  0.1542786E-009  0.4778727E+02  0.7816164E-02  0.1312668E+00
        -11   -1    0    0    0    0  0.00000000000E+00  0.00000000000E+00  0.45593999997E+02  0.45594000000E+02  0.51100000000E-03 0.  1.
         11   -1    0    0    0    0 -0.00000000000E+00 -0.00000000000E+00 -0.45593999997E+02  0.45594000000E+02  0.51100000000E-03 0. -1.
    9900012    2    1    2    0    0 -0.13937478576E+02 -0.13809602497E+02 -0.38712592694E+02  0.47787271166E+02  0.20000000555E+02 0.  0.
        -12    1    1    2    0    0  0.13937478576E+02  0.13809602497E+02  0.38712592694E+02  0.43400728834E+02  0.00000000000E+00 0.  1.
         11    1    3    3    0    0 -0.64255337948E+01 -0.91695745768E+01 -0.16045035154E+02  0.19565575274E+02  0.51100000000E-03 0. -1.
        -11    1    3    3    0    0  0.21415023168E+01 -0.66084077376E+01 -0.88247626215E+01  0.11230918065E+02  0.51100000000E-03 0.  1.
         12    1    3    3    0    0 -0.96534470982E+01  0.19683798173E+01 -0.13842794919E+02  0.16990777827E+02  0.00000000000E+00 0. -1.
</event>
<event>
 7    1  0.1542786E-009  0.4778727E+02  0.7816164E-02  0.1312668E+00
        -11   -1    0    0    0    0  0.00000000000E+00  0.00000000000E+00  0.45593999997E+02  0.45594000000E+02  0.51100000000E-03 0.  1.
         11   -1    0    0    0    0 -0.00000000000E+00 -0.00000000000E+00 -0.45593999997E+02  0.45594000000E+02  0.51100000000E-03 0. -1.
    9900012    2    1    2    0    0 -0.42181128856E+02 -0.36687810678E+01 -0.95349844894E+01  0.47787268263E+02  0.19999987320E+02 0.  0.
        -12    1    1    2    0    0  0.42181128856E+02  0.36687810678E+01  0.95349844894E+01  0.43400731737E+02  0.00000000000E+00 0.  1.
         11    1    3    3    0    0 -0.22011073663E+02 -0.54543271616E+01 -0.97644827653E+01  0.24689717951E+02  0.51100000000E-03 0. -1.
        -11    1    3    3    0    0 -0.12633748910E+02  0.64989563940E+01  0.18894001714E+00  0.14208579954E+02  0.51100000000E-03 0.  1.
         12    1    3    3    0    0 -0.75363062833E+01 -0.47134103002E+01  0.40558258779E-01  0.88889703580E+01  0.00000000000E+00 0. -1.
</event>
<event>
 7    1  0.1542786E-009  0.4778727E+02  0.7816164E-02  0.1312668E+00
        -11   -1    0    0    0    0  0.00000000000E+00  0.00000000000E+00  0.45593999997E+02  0.45594000000E+02  0.51100000000E-03 0.  1.
         11   -1    0    0    0    0 -0.00000000000E+00 -0.00000000000E+00 -0.45593999997E+02  0.45594000000E+02  0.51100000000E-03 0. -1.
    9900012    2    1    2    0    0 -0.76797005895E+01 -0.21813513591E+02 -0.36726233354E+02  0.47787269676E+02  0.19999993759E+02 0.  0.
        -12    1    1    2    0    0  0.76797005895E+01  0.21813513591E+02  0.36726233354E+02  0.43400730324E+02  0.00000000000E+00 0.  1.
         11    1    3    3    0    0 -0.39634447291E+01 -0.14552628373E+02 -0.18768304239E+02  0.24077731018E+02  0.51100000000E-03 0. -1.
        -11    1    3    3    0    0 -0.75247110024E+01 -0.11827180655E+01 -0.57244909803E+01  0.95283731527E+01  0.51100000000E-03 0.  1.
         12    1    3    3    0    0  0.38084551421E+01 -0.60781671518E+01 -0.12233438134E+02  0.14181165505E+02  0.00000000000E+00 0. -1.
</event>
<event>
 7    1  0.1542786E-009  0.4778727E+02  0.7816164E-02  0.1312668E+00
        -11   -1    0    0    0    0  0.00000000000E+00  0.00000000000E+00  0.45593999997E+02  0.45594000000E+02  0.51100000000E-03 0.  1.
         11   -1    0    0    0    0 -0.00000000000E+00 -0.00000000000E+00 -0.45593999997E+02  0.45594000000E+02  0.51100000000E-03 0. -1.
    9900012    2    1    2    0    0  0.62411207555E+00  0.24188153108E+02 -0.36030086772E+02  0.47787269367E+02  0.19999992354E+02 0.  0.
        -12    1    1    2    0    0 -0.62411207555E+00 -0.24188153108E+02  0.36030086772E+02  0.43400730633E+02  0.00000000000E+00 0.  1.
         11    1    3    3    0    0 -0.38997419051E+01  0.12343415434E+02 -0.20789860708E+02  0.24490532865E+02  0.51100000000E-03 0. -1.
        -11    1    3    3    0    0  0.41966095427E+00 -0.22635867895E+01 -0.46375239266E+01  0.51775060503E+01  0.51100000000E-03 0.  1.
        -12    1    3    3    0    0  0.41041930264E+01  0.14108324463E+02 -0.10602702137E+02  0.18119230452E+02  0.00000000000E+00 0.  1.
</event>
<event>
 7    1  0.1542786E-009  0.4778728E+02  0.7816164E-02  0.1312668E+00
        -11   -1    0    0    0    0  0.00000000000E+00  0.00000000000E+00  0.45593999997E+02  0.45594000000E+02  0.51100000000E-03 0.  1.
         11   -1    0    0    0    0 -0.00000000000E+00 -0.00000000000E+00 -0.45593999997E+02  0.45594000000E+02  0.51100000000E-03 0. -1.
    9900012    2    1    2    0    0 -0.31621592731E+02 -0.12374255643E+01 -0.29701278360E+02  0.47787282436E+02  0.20000051937E+02 0.  0.
        -12    1    1    2    0    0  0.31621592731E+02  0.12374255643E+01  0.29701278360E+02  0.43400717564E+02  0.00000000000E+00 0.  1.
         11    1    3    3    0    0 -0.11607075077E+02  0.58007512796E+01 -0.12231562236E+02  0.17832106501E+02  0.51100000000E-03 0. -1.
        -11    1    3    3    0    0 -0.82344709279E+01 -0.47589228979E+01 -0.97847606791E+00  0.95609243427E+01  0.51100000000E-03 0.  1.
         12    1    3    3    0    0 -0.11780046726E+02 -0.22792539460E+01 -0.16491240056E+02  0.20394251592E+02  0.00000000000E+00 0. -1.
</event>
<event>
 7    1  0.1542786E-009  0.4778727E+02  0.7816164E-02  0.1312668E+00
        -11   -1    0    0    0    0  0.00000000000E+00  0.00000000000E+00  0.45593999997E+02  0.45594000000E+02  0.51100000000E-03 0.  1.
         11   -1    0    0    0    0 -0.00000000000E+00 -0.00000000000E+00 -0.45593999997E+02  0.45594000000E+02  0.51100000000E-03 0. -1.
    9900012    2    1    2    0    0  0.10038336602E+02 -0.12236934872E+02 -0.40411787343E+02  0.47787270363E+02  0.19999996892E+02 0.  0.
        -12    1    1    2    0    0 -0.10038336602E+02  0.12236934872E+02  0.40411787343E+02  0.43400729637E+02  0.00000000000E+00 0.  1.
         11    1    3    3    0    0  0.67628024223E+01 -0.40005186693E+01 -0.19310708570E+02  0.20848096124E+02  0.51100000000E-03 0. -1.
        -11    1    3    3    0    0  0.42576621061E+01 -0.11277857126E+02 -0.10910138550E+02  0.16258809040E+02  0.51100000000E-03 0.  1.
         12    1    3    3    0    0 -0.98212792608E+00  0.30414409237E+01 -0.10190940223E+02  0.10680365199E+02  0.00000000000E+00 0. -1.
</event>
<event>
 7    1  0.1542786E-009  0.4778727E+02  0.7816164E-02  0.1312668E+00
        -11   -1    0    0    0    0  0.00000000000E+00  0.00000000000E+00  0.45593999997E+02  0.45594000000E+02  0.51100000000E-03 0.  1.
         11   -1    0    0    0    0 -0.00000000000E+00 -0.00000000000E+00 -0.45593999997E+02  0.45594000000E+02  0.51100000000E-03 0. -1.
    9900012    2    1    2    0    0 -0.20608963728E+02 -0.94092401688E+00 -0.38183875527E+02  0.47787273345E+02  0.20000010487E+02 0.  0.
        -12    1    1    2    0    0  0.20608963728E+02  0.94092401688E+00  0.38183875527E+02  0.43400726655E+02  0.00000000000E+00 0.  1.
         11    1    3    3    0    0 -0.32855301372E+01 -0.54397900921E-01 -0.54013506859E+01  0.63223616558E+01  0.51100000000E-03 0. -1.
        -11    1    3    3    0    0 -0.24012554166E+01  0.40216054212E+01 -0.21800770077E+02  0.22298271546E+02  0.51100000000E-03 0.  1.
        -12    1    3    3    0    0 -0.14922178174E+02 -0.49081315372E+01 -0.10981754765E+02  0.19166640143E+02  0.00000000000E+00 0.  1.
</event>
<event>
 7    1  0.1542786E-009  0.4778727E+02  0.7816164E-02  0.1312668E+00
        -11   -1    0    0    0    0  0.00000000000E+00  0.00000000000E+00  0.45593999997E+02  0.45594000000E+02  0.51100000000E-03 0.  1.
         11   -1    0    0    0    0 -0.00000000000E+00 -0.00000000000E+00 -0.45593999997E+02  0.45594000000E+02  0.51100000000E-03 0. -1.
    9900012    2    1    2    0    0 -0.16641476733E+02  0.34553210673E+02 -0.20316502926E+02  0.47787269513E+02  0.19999993019E+02 0.  0.
        -12    1    1    2    0    0  0.16641476733E+02 -0.34553210673E+02  0.20316502926E+02  0.43400730487E+02  0.00000000000E+00 0.  1.
         11    1    3    3    0    0 -0.33198923520E+01  0.88457339154E+01 -0.65026231163E+00  0.94705614969E+01  0.51100000000E-03 0. -1.
        -11    1    3    3    0    0 -0.84964517909E+01  0.30218940423E+01 -0.91630907305E+01  0.12856273513E+02  0.51100000000E-03 0.  1.
        -12    1    3    3    0    0 -0.48251325897E+01  0.22685582715E+02 -0.10503149884E+02  0.25460434504E+02  0.00000000000E+00 0.  1.
</event>
<event>
 7    1  0.1542786E-009  0.4778727E+02  0.7816164E-02  0.1312668E+00
        -11   -1    0    0    0    0  0.00000000000E+00  0.00000000000E+00  0.45593999997E+02  0.45594000000E+02  0.51100000000E-03 0.  1.
         11   -1    0    0    0    0 -0.00000000000E+00 -0.00000000000E+00 -0.45593999997E+02  0.45594000000E+02  0.51100000000E-03 0. -1.
    9900012    2    1    2    0    0 -0.11979288268E+01 -0.37305598774E+02 -0.22146799036E+02  0.47787269120E+02  0.19999991226E+02 0.  0.
        -12    1    1    2    0    0  0.11979288268E+01  0.37305598774E+02  0.22146799036E+02  0.43400730880E+02  0.00000000000E+00 0.  1.
         11    1    3    3    0    0 -0.41284732744E+01 -0.14311847340E+02  0.61495482654E+00  0.14908099663E+02  0.51100000000E-03 0. -1.
        -11    1    3    3    0    0  0.79626951822E-01 -0.51408367768E+01 -0.81377304709E+01  0.96258610366E+01  0.51100000000E-03 0.  1.
         12    1    3    3    0    0  0.28509174958E+01 -0.17852914657E+02 -0.14624023391E+02  0.23253308420E+02  0.00000000000E+00 0. -1.
</event>
<event>
 7    1  0.1542786E-009  0.4778727E+02  0.7816164E-02  0.1312668E+00
        -11   -1    0    0    0    0  0.00000000000E+00  0.00000000000E+00  0.45593999997E+02  0.45594000000E+02  0.51100000000E-03 0.  1.
         11   -1    0    0    0    0 -0.00000000000E+00 -0.00000000000E+00 -0.45593999997E+02  0.45594000000E+02  0.51100000000E-03 0. -1.
    9900012    2    1    2    0    0  0.39815990391E+02  0.17171464497E+02  0.18576559773E+01  0.47787272247E+02  0.20000005482E+02 0.  0.
        -12    1    1    2    0    0 -0.39815990391E+02 -0.17171464497E+02 -0.18576559773E+01  0.43400727753E+02  0.00000000000E+00 0.  1.
         11    1    3    3    0    0  0.11249795420E+02  0.34997532399E+01 -0.46540953269E+01  0.12667548038E+02  0.51100000000E-03 0. -1.
        -11    1    3    3    0    0  0.18031680057E+02  0.17379878186E+01  0.63647120248E+01  0.19200824117E+02  0.51100000000E-03 0.  1.
         12    1    3    3    0    0  0.10534514914E+02  0.11933723438E+02  0.14703927939E+00  0.15918900091E+02  0.00000000000E+00 0. -1.
</event>
<event>
 7    1  0.1542786E-009  0.4778727E+02  0.7816164E-02  0.1312668E+00
        -11   -1    0    0    0    0  0.00000000000E+00  0.00000000000E+00  0.45593999997E+02  0.45594000000E+02  0.51100000000E-03 0.  1.
         11   -1    0    0    0    0 -0.00000000000E+00 -0.00000000000E+00 -0.45593999997E+02  0.45594000000E+02  0.51100000000E-03 0. -1.
    9900012    2    1    2    0    0 -0.22466625667E+02 -0.29453195256E+02 -0.22613786456E+02  0.47787270541E+02  0.19999997705E+02 0.  0.
        -12    1    1    2    0    0  0.22466625667E+02  0.29453195256E+02  0.22613786456E+02  0.43400729459E+02  0.00000000000E+00 0.  1.
         11    1    3    3    0    0 -0.12223285573E+02 -0.18681913298E+02 -0.16288993716E+02  0.27636097974E+02  0.51100000000E-03 0. -1.
        -11    1    3    3    0    0 -0.91778537271E+01 -0.94736255995E+00 -0.35660119629E+01  0.98917610382E+01  0.51100000000E-03 0.  1.
         12    1    3    3    0    0 -0.10654863671E+01 -0.98239193985E+01 -0.27587807774E+01  0.10259411529E+02  0.00000000000E+00 0. -1.
</event>
<event>
 7    1  0.1542786E-009  0.4778727E+02  0.7816164E-02  0.1312668E+00
        -11   -1    0    0    0    0  0.00000000000E+00  0.00000000000E+00  0.45593999997E+02  0.45594000000E+02  0.51100000000E-03 0.  1.
         11   -1    0    0    0    0 -0.00000000000E+00 -0.00000000000E+00 -0.45593999997E+02  0.45594000000E+02  0.51100000000E-03 0. -1.
    9900012    2    1    2    0    0  0.17084141706E+02 -0.37681058900E+02 -0.13110804196E+02  0.47787270924E+02  0.19999999450E+02 0.  0.
        -12    1    1    2    0    0 -0.17084141706E+02  0.37681058900E+02  0.13110804196E+02  0.43400729076E+02  0.00000000000E+00 0.  1.
         11    1    3    3    0    0  0.37564870505E+01 -0.59005564652E+01 -0.63780104133E+01  0.94660857092E+01  0.51100000000E-03 0. -1.
        -11    1    3    3    0    0  0.44951414167E+01 -0.20486478229E+02  0.27175937608E+01  0.21149170261E+02  0.51100000000E-03 0.  1.
        -12    1    3    3    0    0  0.88325132386E+01 -0.11294024206E+02 -0.94503875431E+01  0.17172014954E+02  0.00000000000E+00 0.  1.
</event>
<event>
 7    1  0.1542786E-009  0.4778726E+02  0.7816164E-02  0.1312668E+00
        -11   -1    0    0    0    0  0.00000000000E+00  0.00000000000E+00  0.45593999997E+02  0.45594000000E+02  0.51100000000E-03 0. -1.
         11   -1    0    0    0    0 -0.00000000000E+00 -0.00000000000E+00 -0.45593999997E+02  0.45594000000E+02  0.51100000000E-03 0.  1.
    9900012    2    1    2    0    0 -0.21529856659E+02 -0.29464156145E+01  0.37568713438E+02  0.47787258969E+02  0.19999944941E+02 0.  0.
        -12    1    1    2    0    0  0.21529856659E+02  0.29464156145E+01 -0.37568713438E+02  0.43400741031E+02  0.00000000000E+00 0.  1.
         11    1    3    3    0    0 -0.95112223339E+01 -0.46121471355E+01  0.97539201960E+01  0.14383122433E+02  0.51100000000E-03 0. -1.
        -11    1    3    3    0    0  0.27640871967E+01 -0.16802186774E+01  0.63645577880E+01  0.71393913559E+01  0.51100000000E-03 0.  1.
         12    1    3    3    0    0 -0.14782721522E+02  0.33459501984E+01  0.21450235454E+02  0.26264745179E+02  0.00000000000E+00 0. -1.
</event>
<event>
 7    1  0.1542786E-009  0.4778727E+02  0.7816164E-02  0.1312668E+00
        -11   -1    0    0    0    0  0.00000000000E+00  0.00000000000E+00  0.45593999997E+02  0.45594000000E+02  0.51100000000E-03 0. -1.
         11   -1    0    0    0    0 -0.00000000000E+00 -0.00000000000E+00 -0.45593999997E+02  0.45594000000E+02  0.51100000000E-03 0.  1.
    9900012    2    1    2    0    0  0.56872857972E+01 -0.42990230757E+02 -0.17658480594E+01  0.47787269826E+02  0.19999994446E+02 0.  0.
        -12    1    1    2    0    0 -0.56872857972E+01  0.42990230757E+02  0.17658480594E+01  0.43400730174E+02  0.00000000000E+00 0.  1.
         11    1    3    3    0    0  0.60807676864E+01 -0.22898131932E+02  0.31645765090E+01  0.23902190828E+02  0.51100000000E-03 0. -1.
        -11    1    3    3    0    0 -0.24216841836E+01 -0.18210380635E+02 -0.77466414200E+01  0.19937225753E+02  0.51100000000E-03 0.  1.
         12    1    3    3    0    0  0.20282022945E+01 -0.18817181888E+01  0.28162168516E+01  0.39478532451E+01  0.00000000000E+00 0. -1.
</event>
<event>
 7    1  0.1542786E-009  0.4778727E+02  0.7816164E-02  0.1312668E+00
        -11   -1    0    0    0    0  0.00000000000E+00  0.00000000000E+00  0.45593999997E+02  0.45594000000E+02  0.51100000000E-03 0.  1.
         11   -1    0    0    0    0 -0.00000000000E+00 -0.00000000000E+00 -0.45593999997E+02  0.45594000000E+02  0.51100000000E-03 0. -1.
    9900012    2    1    2    0    0  0.48462937175E+01  0.39230970102E+02 -0.17918372144E+02  0.47787266847E+02  0.19999980861E+02 0.  0.
        -12    1    1    2    0    0 -0.48462937175E+01 -0.39230970102E+02  0.17918372144E+02  0.43400733153E+02  0.00000000000E+00 0.  1.
         11    1    3    3    0    0  0.24726150707E+01  0.25440864037E+02 -0.80807518075E+01  0.26807647011E+02  0.51100000000E-03 0. -1.
        -11    1    3    3    0    0  0.30599946627E+01  0.10323525979E+02 -0.12541781461E+02  0.16529822699E+02  0.51100000000E-03 0.  1.
         12    1    3    3    0    0 -0.68631601584E+00  0.34665800864E+01  0.27041611252E+01  0.44497971369E+01  0.00000000000E+00 0. -1.
</event>
<event>
 7    1  0.1542786E-009  0.4778727E+02  0.7816164E-02  0.1312668E+00
        -11   -1    0    0    0    0  0.00000000000E+00  0.00000000000E+00  0.45593999997E+02  0.45594000000E+02  0.51100000000E-03 0.  1.
         11   -1    0    0    0    0 -0.00000000000E+00 -0.00000000000E+00 -0.45593999997E+02  0.45594000000E+02  0.51100000000E-03 0. -1.
    9900012    2    1    2    0    0 -0.61278889911E+00 -0.42145061402E+02 -0.10346100042E+02  0.47787268475E+02  0.19999988287E+02 0.  0.
        -12    1    1    2    0    0  0.61278889911E+00  0.42145061402E+02  0.10346100042E+02  0.43400731525E+02  0.00000000000E+00 0.  1.
         11    1    3    3    0    0  0.25465508431E+01 -0.21416617586E+02 -0.25681668509E+01  0.21719850627E+02  0.51100000000E-03 0. -1.
        -11    1    3    3    0    0 -0.74118124185E+01 -0.16298167218E+02 -0.27160337874E+01  0.18109170544E+02  0.51100000000E-03 0.  1.
         12    1    3    3    0    0  0.42524726763E+01 -0.44302765983E+01 -0.50618994035E+01  0.79582473052E+01  0.00000000000E+00 0. -1.
</event>
<event>
 7    1  0.1542786E-009  0.4778727E+02  0.7816164E-02  0.1312668E+00
        -11   -1    0    0    0    0  0.00000000000E+00  0.00000000000E+00  0.45593999997E+02  0.45594000000E+02  0.51100000000E-03 0. -1.
         11   -1    0    0    0    0 -0.00000000000E+00 -0.00000000000E+00 -0.45593999997E+02  0.45594000000E+02  0.51100000000E-03 0.  1.
    9900012    2    1    2    0    0  0.19811932847E+02 -0.29407785812E+02  0.25025841950E+02  0.47787270573E+02  0.19999997851E+02 0.  0.
        -12    1    1    2    0    0 -0.19811932847E+02  0.29407785812E+02 -0.25025841950E+02  0.43400729427E+02  0.00000000000E+00 0.  1.
         11    1    3    3    0    0  0.14136160522E+02 -0.15007258893E+02  0.15260909728E+02  0.25650423383E+02  0.51100000000E-03 0. -1.
        -11    1    3    3    0    0  0.29426073974E+01  0.12406096274E-01 -0.18062405139E+01  0.34527666098E+01  0.51100000000E-03 0.  1.
         12    1    3    3    0    0  0.27331649281E+01 -0.14412933015E+02  0.11571172736E+02  0.18684080580E+02  0.00000000000E+00 0. -1.
</event>
<event>
 7    1  0.1542786E-009  0.4778727E+02  0.7816164E-02  0.1312668E+00
        -11   -1    0    0    0    0  0.00000000000E+00  0.00000000000E+00  0.45593999997E+02  0.45594000000E+02  0.51100000000E-03 0.  1.
         11   -1    0    0    0    0 -0.00000000000E+00 -0.00000000000E+00 -0.45593999997E+02  0.45594000000E+02  0.51100000000E-03 0. -1.
    9900012    2    1    2    0    0  0.13795290146E+02  0.55632885744E+01 -0.40772086539E+02  0.47787271311E+02  0.20000001216E+02 0.  0.
        -12    1    1    2    0    0 -0.13795290146E+02 -0.55632885744E+01  0.40772086539E+02  0.43400728689E+02  0.00000000000E+00 0.  1.
         11    1    3    3    0    0 -0.75802127807E+00  0.24929775805E+01 -0.13896698496E+02  0.14138874171E+02  0.51100000000E-03 0. -1.
        -11    1    3    3    0    0  0.30896507705E+01 -0.32902383076E+01 -0.97285256402E+00  0.46171476452E+01  0.51100000000E-03 0.  1.
         12    1    3    3    0    0  0.11463660653E+02  0.63605493016E+01 -0.25902535479E+02  0.29031249495E+02  0.00000000000E+00 0. -1.
</event>
<event>
 7    1  0.1542786E-009  0.4778727E+02  0.7816164E-02  0.1312668E+00
        -11   -1    0    0    0    0  0.00000000000E+00  0.00000000000E+00  0.45593999997E+02  0.45594000000E+02  0.51100000000E-03 0. -1.
         11   -1    0    0    0    0 -0.00000000000E+00 -0.00000000000E+00 -0.45593999997E+02  0.45594000000E+02  0.51100000000E-03 0.  1.
    9900012    2    1    2    0    0 -0.72622746959E+01  0.41560575550E+02 -0.10178473904E+02  0.47787269536E+02  0.19999993124E+02 0.  0.
        -12    1    1    2    0    0  0.72622746959E+01 -0.41560575550E+02  0.10178473904E+02  0.43400730464E+02  0.00000000000E+00 0.  1.
         11    1    3    3    0    0 -0.82648948404E+01  0.83848909857E+01 -0.98758643406E+00  0.11814830121E+02  0.51100000000E-03 0. -1.
        -11    1    3    3    0    0  0.12993550262E+01  0.84744824697E+01 -0.71886046771E+01  0.11188441092E+02  0.51100000000E-03 0.  1.
         12    1    3    3    0    0 -0.29673488171E+00  0.24701202094E+02 -0.20022827924E+01  0.24783998323E+02  0.00000000000E+00 0. -1.
</event>
<event>
 7    1  0.1542786E-009  0.4778727E+02  0.7816164E-02  0.1312668E+00
        -11   -1    0    0    0    0  0.00000000000E+00  0.00000000000E+00  0.45593999997E+02  0.45594000000E+02  0.51100000000E-03 0.  1.
         11   -1    0    0    0    0 -0.00000000000E+00 -0.00000000000E+00 -0.45593999997E+02  0.45594000000E+02  0.51100000000E-03 0. -1.
    9900012    2    1    2    0    0 -0.39355106535E+02  0.16930785292E+02 -0.69388375126E+01  0.47787269971E+02  0.19999995108E+02 0.  0.
        -12    1    1    2    0    0  0.39355106535E+02 -0.16930785292E+02  0.69388375126E+01  0.43400730029E+02  0.00000000000E+00 0.  1.
         11    1    3    3    0    0 -0.12727816857E+01  0.59160320009E+01  0.38862505259E+00  0.60638632528E+01  0.51100000000E-03 0.  1.
        -11    1    3    3    0    0 -0.23960235337E+02  0.11642804227E+02 -0.71668864448E+01  0.27586446478E+02  0.51100000000E-03 0. -1.
        -12    1    3    3    0    0 -0.14122089512E+02 -0.62805093637E+00 -0.16057612040E+00  0.14136960241E+02  0.00000000000E+00 0.  1.
</event>
<event>
 7    1  0.1542786E-009  0.4778727E+02  0.7816164E-02  0.1312668E+00
        -11   -1    0    0    0    0  0.00000000000E+00  0.00000000000E+00  0.45593999997E+02  0.45594000000E+02  0.51100000000E-03 0.  1.
         11   -1    0    0    0    0 -0.00000000000E+00 -0.00000000000E+00 -0.45593999997E+02  0.45594000000E+02  0.51100000000E-03 0. -1.
    9900012    2    1    2    0    0  0.10491167829E+02  0.70010099754E+01 -0.41527638223E+02  0.47787268676E+02  0.19999989199E+02 0.  0.
        -12    1    1    2    0    0 -0.10491167829E+02 -0.70010099754E+01  0.41527638223E+02  0.43400731324E+02  0.00000000000E+00 0.  1.
         11    1    3    3    0    0  0.79565026991E+01  0.75257070167E+01 -0.23343771756E+02  0.25785148465E+02  0.51100000000E-03 0. -1.
        -11    1    3    3    0    0 -0.35271975920E+01  0.20197656479E+01 -0.19918552454E+01  0.45263742339E+01  0.51100000000E-03 0.  1.
         12    1    3    3    0    0  0.60618627217E+01 -0.25444626892E+01 -0.16192011222E+02  0.17475745977E+02  0.00000000000E+00 0. -1.
</event>
<event>
 7    1  0.1542786E-009  0.4778728E+02  0.7816164E-02  0.1312668E+00
        -11   -1    0    0    0    0  0.00000000000E+00  0.00000000000E+00  0.45593999997E+02  0.45594000000E+02  0.51100000000E-03 0. -1.
         11   -1    0    0    0    0 -0.00000000000E+00 -0.00000000000E+00 -0.45593999997E+02  0.45594000000E+02  0.51100000000E-03 0.  1.
    9900012    2    1    2    0    0 -0.33286163712E+02 -0.27673036517E+02 -0.31396290172E+01  0.47787275178E+02  0.20000018847E+02 0.  0.
        -12    1    1    2    0    0  0.33286163712E+02  0.27673036517E+02  0.31396290172E+01  0.43400724822E+02  0.00000000000E+00 0.  1.
         11    1    3    3    0    0 -0.14739815070E+02 -0.18069375422E+02 -0.67988720243E+01  0.24289692001E+02  0.51100000000E-03 0. -1.
        -11    1    3    3    0    0  0.73170991187E+00  0.87215250478E+00  0.75415324330E+00  0.13655756157E+01  0.51100000000E-03 0.  1.
         12    1    3    3    0    0 -0.19278058553E+02 -0.10475813599E+02  0.29050897637E+01  0.22132007561E+02  0.00000000000E+00 0. -1.
</event>
<event>
 7    1  0.1542786E-009  0.4778729E+02  0.7816164E-02  0.1312668E+00
        -11   -1    0    0    0    0  0.00000000000E+00  0.00000000000E+00  0.45593999997E+02  0.45594000000E+02  0.51100000000E-03 0.  1.
         11   -1    0    0    0    0 -0.00000000000E+00 -0.00000000000E+00 -0.45593999997E+02  0.45594000000E+02  0.51100000000E-03 0. -1.
    9900012    2    1    2    0    0  0.52430020456E+01 -0.31035550717E+01 -0.42970931183E+02  0.47787285130E+02  0.20000064220E+02 0.  0.
        -12    1    1    2    0    0 -0.52430020456E+01  0.31035550717E+01  0.42970931183E+02  0.43400714870E+02  0.00000000000E+00 0.  1.
         11    1    3    3    0    0  0.22861920202E+00 -0.66044816473E+01 -0.37944607149E+02  0.38515771529E+02  0.51100000000E-03 0. -1.
        -11    1    3    3    0    0  0.21255650801E+01 -0.91171387852E+00 -0.60849311881E+00  0.23915503848E+01  0.51100000000E-03 0.  1.
         12    1    3    3    0    0  0.28888177634E+01  0.44126404541E+01 -0.44178309154E+01  0.68799632153E+01  0.00000000000E+00 0. -1.
</event>
<event>
 7    1  0.1542786E-009  0.4778727E+02  0.7816164E-02  0.1312668E+00
        -11   -1    0    0    0    0  0.00000000000E+00  0.00000000000E+00  0.45593999997E+02  0.45594000000E+02  0.51100000000E-03 0.  1.
         11   -1    0    0    0    0 -0.00000000000E+00 -0.00000000000E+00 -0.45593999997E+02  0.45594000000E+02  0.51100000000E-03 0. -1.
    9900012    2    1    2    0    0  0.22306049577E+02  0.36678150626E+02 -0.63856551499E+01  0.47787272209E+02  0.20000005311E+02 0.  0.
        -12    1    1    2    0    0 -0.22306049577E+02 -0.36678150626E+02  0.63856551499E+01  0.43400727791E+02  0.00000000000E+00 0.  1.
         11    1    3    3    0    0  0.15032209574E+02  0.10597521771E+02 -0.72171982164E+01  0.19757599619E+02  0.51100000000E-03 0. -1.
        -11    1    3    3    0    0 -0.14661735293E+01  0.45491820455E+01  0.13176629493E+00  0.47814312417E+01  0.51100000000E-03 0.  1.
        -12    1    3    3    0    0  0.87400135322E+01  0.21531446810E+02  0.69977677157E+00  0.23248241348E+02  0.00000000000E+00 0.  1.
</event>
<event>
 7    1  0.1542786E-009  0.4778725E+02  0.7816164E-02  0.1312668E+00
        -11   -1    0    0    0    0  0.00000000000E+00  0.00000000000E+00  0.45593999997E+02  0.45594000000E+02  0.51100000000E-03 0.  1.
         11   -1    0    0    0    0 -0.00000000000E+00 -0.00000000000E+00 -0.45593999997E+02  0.45594000000E+02  0.51100000000E-03 0. -1.
    9900012    2    1    2    0    0 -0.38564000464E+00 -0.23724098489E+02 -0.36340654537E+02  0.47787254160E+02  0.19999923015E+02 0.  0.
        -12    1    1    2    0    0  0.38564000464E+00  0.23724098489E+02  0.36340654537E+02  0.43400745840E+02  0.00000000000E+00 0.  1.
         11    1    3    3    0    0 -0.20225150419E+01 -0.21033543757E+02 -0.19831364892E+02  0.28979019373E+02  0.51100000000E-03 0. -1.
        -11    1    3    3    0    0 -0.29785757544E+01 -0.15366507957E+01 -0.11145682263E+02  0.11638704505E+02  0.51100000000E-03 0.  1.
        -12    1    3    3    0    0  0.46154507917E+01 -0.11539039356E+01 -0.53636073819E+01  0.71695302810E+01  0.00000000000E+00 0.  1.
</event>
<event>
 7    1  0.1542786E-009  0.4778727E+02  0.7816164E-02  0.1312668E+00
        -11   -1    0    0    0    0  0.00000000000E+00  0.00000000000E+00  0.45593999997E+02  0.45594000000E+02  0.51100000000E-03 0. -1.
         11   -1    0    0    0    0 -0.00000000000E+00 -0.00000000000E+00 -0.45593999997E+02  0.45594000000E+02  0.51100000000E-03 0.  1.
    9900012    2    1    2    0    0  0.43127946447E+01 -0.38188961138E+02  0.20164985615E+02  0.47787267341E+02  0.19999983115E+02 0.  0.
        -12    1    1    2    0    0 -0.43127946447E+01  0.38188961138E+02 -0.20164985615E+02  0.43400732659E+02  0.00000000000E+00 0.  1.
         11    1    3    3    0    0  0.47451593222E+01 -0.19463855046E+02  0.12505121031E+02  0.23616440090E+02  0.51100000000E-03 0.  1.
        -11    1    3    3    0    0 -0.57095093160E+01 -0.90062557676E+01 -0.94560401424E-01  0.10663961811E+02  0.51100000000E-03 0. -1.
         12    1    3    3    0    0  0.52771446385E+01 -0.97188503244E+01  0.77544249855E+01  0.13506865440E+02  0.00000000000E+00 0. -1.
</event>
<event>
 7    1  0.1542786E-009  0.4778727E+02  0.7816164E-02  0.1312668E+00
        -11   -1    0    0    0    0  0.00000000000E+00  0.00000000000E+00  0.45593999997E+02  0.45594000000E+02  0.51100000000E-03 0.  1.
         11   -1    0    0    0    0 -0.00000000000E+00 -0.00000000000E+00 -0.45593999997E+02  0.45594000000E+02  0.51100000000E-03 0. -1.
    9900012    2    1    2    0    0 -0.76671265990E+01  0.20239771924E+02 -0.37619010199E+02  0.47787272746E+02  0.20000007759E+02 0.  0.
        -12    1    1    2    0    0  0.76671265990E+01 -0.20239771924E+02  0.37619010199E+02  0.43400727254E+02  0.00000000000E+00 0.  1.
         11    1    3    3    0    0 -0.64483241139E+01 -0.12192014232E+01 -0.10593223730E+02  0.12461289068E+02  0.51100000000E-03 0. -1.
        -11    1    3    3    0    0 -0.40473457121E+01  0.13106568392E+02 -0.18754228711E+02  0.23235409124E+02  0.51100000000E-03 0.  1.
        -12    1    3    3    0    0  0.28285432270E+01  0.83524049548E+01 -0.82715577581E+01  0.12090574555E+02  0.00000000000E+00 0.  1.
</event>
<event>
 7    1  0.1542786E-009  0.4778727E+02  0.7816164E-02  0.1312668E+00
        -11   -1    0    0    0    0  0.00000000000E+00  0.00000000000E+00  0.45593999997E+02  0.45594000000E+02  0.51100000000E-03 0. -1.
         11   -1    0    0    0    0 -0.00000000000E+00 -0.00000000000E+00 -0.45593999997E+02  0.45594000000E+02  0.51100000000E-03 0.  1.
    9900012    2    1    2    0    0 -0.18137293301E+02 -0.19365892914E+02  0.34345651226E+02  0.47787274490E+02  0.20000015712E+02 0.  0.
        -12    1    1    2    0    0  0.18137293301E+02  0.19365892914E+02 -0.34345651226E+02  0.43400725510E+02  0.00000000000E+00 0.  1.
         11    1    3    3    0    0 -0.10731412215E+01  0.14971431857E+01  0.88756692844E+01  0.90647986909E+01  0.51100000000E-03 0. -1.
        -11    1    3    3    0    0 -0.16232231498E+02 -0.18312091329E+02  0.26290463253E+02  0.35916660292E+02  0.51100000000E-03 0.  1.
         12    1    3    3    0    0 -0.83192058154E+00 -0.25509447712E+01 -0.82048131140E+00  0.28058155075E+01  0.00000000000E+00 0. -1.
</event>
<event>
 7    1  0.1542786E-009  0.4778725E+02  0.7816164E-02  0.1312668E+00
        -11   -1    0    0    0    0  0.00000000000E+00  0.00000000000E+00  0.45593999997E+02  0.45594000000E+02  0.51100000000E-03 0. -1.
         11   -1    0    0    0    0 -0.00000000000E+00 -0.00000000000E+00 -0.45593999997E+02  0.45594000000E+02  0.51100000000E-03 0.  1.
    9900012    2    1    2    0    0 -0.19707838710E+02  0.29073639518E+02  0.25494105083E+02  0.47787253285E+02  0.19999919027E+02 0.  0.
        -12    1    1    2    0    0  0.19707838710E+02 -0.29073639518E+02 -0.25494105083E+02  0.43400746715E+02  0.00000000000E+00 0.  1.
         11    1    3    3    0    0 -0.49963778836E+01  0.12314529035E+02  0.66875166471E+01  0.14877308106E+02  0.51100000000E-03 0. -1.
        -11    1    3    3    0    0 -0.13178944844E+02  0.58583285759E+01  0.50272098128E+01  0.15273422657E+02  0.51100000000E-03 0.  1.
         12    1    3    3    0    0 -0.15325159827E+01  0.10900781907E+02  0.13779378623E+02  0.17636522522E+02  0.00000000000E+00 0. -1.
</event>
<event>
 7    1  0.1542786E-009  0.4778727E+02  0.7816164E-02  0.1312668E+00
        -11   -1    0    0    0    0  0.00000000000E+00  0.00000000000E+00  0.45593999997E+02  0.45594000000E+02  0.51100000000E-03 0.  1.
         11   -1    0    0    0    0 -0.00000000000E+00 -0.00000000000E+00 -0.45593999997E+02  0.45594000000E+02  0.51100000000E-03 0. -1.
    9900012    2    1    2    0    0 -0.38515586175E+02  0.54977157882E+01 -0.19234030827E+02  0.47787271905E+02  0.20000003925E+02 0.  0.
        -12    1    1    2    0    0  0.38515586175E+02 -0.54977157882E+01  0.19234030827E+02  0.43400728095E+02  0.00000000000E+00 0.  1.
         11    1    3    3    0    0 -0.74315211325E+01  0.34503527122E+01  0.42651648094E-01  0.81935498781E+01  0.51100000000E-03 0. -1.
        -11    1    3    3    0    0  0.13187019879E+01  0.43058762244E+00 -0.29811546901E+01  0.32881095147E+01  0.51100000000E-03 0.  1.
         12    1    3    3    0    0 -0.32402767031E+02  0.16167754536E+01 -0.16295527785E+02  0.36305612512E+02  0.00000000000E+00 0. -1.
</event>
<event>
 7    1  0.1542786E-009  0.4778728E+02  0.7816164E-02  0.1312668E+00
        -11   -1    0    0    0    0  0.00000000000E+00  0.00000000000E+00  0.45593999997E+02  0.45594000000E+02  0.51100000000E-03 0.  1.
         11   -1    0    0    0    0 -0.00000000000E+00 -0.00000000000E+00 -0.45593999997E+02  0.45594000000E+02  0.51100000000E-03 0. -1.
    9900012    2    1    2    0    0 -0.36780987186E+02  0.31342771964E+01 -0.22824499991E+02  0.47787279824E+02  0.20000040031E+02 0.  0.
        -12    1    1    2    0    0  0.36780987186E+02 -0.31342771964E+01  0.22824499991E+02  0.43400720176E+02  0.00000000000E+00 0.  1.
         11    1    3    3    0    0 -0.50528590631E+01  0.72428916460E-01 -0.11718736920E+02  0.12761873919E+02  0.51100000000E-03 0. -1.
        -11    1    3    3    0    0 -0.95571393320E+01  0.39639995123E+01 -0.31502471410E+00  0.10351398223E+02  0.51100000000E-03 0.  1.
        -12    1    3    3    0    0 -0.22170988791E+02 -0.90215123236E+00 -0.10790738356E+02  0.24674007682E+02  0.00000000000E+00 0.  1.
</event>
<event>
 7    1  0.1542786E-009  0.4778727E+02  0.7816164E-02  0.1312668E+00
        -11   -1    0    0    0    0  0.00000000000E+00  0.00000000000E+00  0.45593999997E+02  0.45594000000E+02  0.51100000000E-03 0.  1.
         11   -1    0    0    0    0 -0.00000000000E+00 -0.00000000000E+00 -0.45593999997E+02  0.45594000000E+02  0.51100000000E-03 0. -1.
    9900012    2    1    2    0    0  0.29174651955E+02  0.31434329506E+02  0.66592566432E+01  0.47787273195E+02  0.20000009804E+02 0.  0.
        -12    1    1    2    0    0 -0.29174651955E+02 -0.31434329506E+02 -0.66592566432E+01  0.43400726805E+02  0.00000000000E+00 0.  1.
         11    1    3    3    0    0  0.17154801663E+02  0.10478524549E+02  0.33285632020E+00  0.20104663400E+02  0.51100000000E-03 0. -1.
        -11    1    3    3    0    0  0.77199907979E+01  0.39671589123E+01  0.52087993465E+01  0.10122657687E+02  0.51100000000E-03 0.  1.
         12    1    3    3    0    0  0.42998594940E+01  0.16988646045E+02  0.11176009765E+01  0.17559952108E+02  0.00000000000E+00 0. -1.
</event>
<event>
 7    1  0.1542786E-009  0.4778727E+02  0.7816164E-02  0.1312668E+00
        -11   -1    0    0    0    0  0.00000000000E+00  0.00000000000E+00  0.45593999997E+02  0.45594000000E+02  0.51100000000E-03 0.  1.
         11   -1    0    0    0    0 -0.00000000000E+00 -0.00000000000E+00 -0.45593999997E+02  0.45594000000E+02  0.51100000000E-03 0. -1.
    9900012    2    1    2    0    0 -0.22815615093E+02  0.27389774150E+02 -0.24756239718E+02  0.47787269303E+02  0.19999992060E+02 0.  0.
        -12    1    1    2    0    0  0.22815615093E+02 -0.27389774150E+02  0.24756239718E+02  0.43400730697E+02  0.00000000000E+00 0.  1.
         11    1    3    3    0    0 -0.30237767879E+01  0.50910303303E+01 -0.91466028315E+01  0.10895969875E+02  0.51100000000E-03 0. -1.
        -11    1    3    3    0    0 -0.10462466660E+02  0.20638988033E+02 -0.72322611098E+01  0.24243280237E+02  0.51100000000E-03 0.  1.
        -12    1    3    3    0    0 -0.93293716451E+01  0.16597557868E+01 -0.83773757765E+01  0.12648019191E+02  0.00000000000E+00 0.  1.
</event>
<event>
 7    1  0.1542786E-009  0.4778727E+02  0.7816164E-02  0.1312668E+00
        -11   -1    0    0    0    0  0.00000000000E+00  0.00000000000E+00  0.45593999997E+02  0.45594000000E+02  0.51100000000E-03 0. -1.
         11   -1    0    0    0    0 -0.00000000000E+00 -0.00000000000E+00 -0.45593999997E+02  0.45594000000E+02  0.51100000000E-03 0.  1.
    9900012    2    1    2    0    0 -0.40585088258E+02 -0.80294862129E+01  0.13114928000E+02  0.47787269888E+02  0.19999994729E+02 0.  0.
        -12    1    1    2    0    0  0.40585088258E+02  0.80294862129E+01 -0.13114928000E+02  0.43400730112E+02  0.00000000000E+00 0.  1.
         11    1    3    3    0    0 -0.21920214919E+02 -0.14649883274E+01  0.11199350907E+02  0.24659024188E+02  0.51100000000E-03 0. -1.
        -11    1    3    3    0    0  0.14097332516E+01  0.70112219017E+00  0.75926559478E+00  0.17479715875E+01  0.51100000000E-03 0.  1.
         12    1    3    3    0    0 -0.20074606591E+02 -0.72656200756E+01  0.11563114978E+01  0.21380274113E+02  0.00000000000E+00 0. -1.
</event>
<event>
 7    1  0.1843274E-009  0.4778727E+02  0.7816164E-02  0.1312668E+00
        -11   -1    0    0    0    0  0.00000000000E+00  0.00000000000E+00  0.45593999997E+02  0.45594000000E+02  0.51100000000E-03 0. -1.
         11   -1    0    0    0    0 -0.00000000000E+00 -0.00000000000E+00 -0.45593999997E+02  0.45594000000E+02  0.51100000000E-03 0.  1.
    9900012    2    1    2    0    0  0.18198451770E+02  0.33964241145E+02 -0.19971731271E+02  0.47787269899E+02  0.19999994777E+02 0.  0.
        -12    1    1    2    0    0 -0.18198451770E+02 -0.33964241145E+02  0.19971731271E+02  0.43400730101E+02  0.00000000000E+00 0.  1.
         11    1    3    3    0    0  0.15093724276E+02  0.19482119870E+02 -0.16063016337E+02  0.29417579799E+02  0.51100000000E-03 0. -1.
        -11    1    3    3    0    0  0.27905751605E+01  0.15859577673E+02 -0.46674831103E+01  0.16766004668E+02  0.51100000000E-03 0.  1.
        -12    1    3    3    0    0  0.31415233422E+00 -0.13774563980E+01  0.75876817676E+00  0.16036854316E+01  0.00000000000E+00 0.  1.
</event>
<event>
 7    1  0.1542786E-009  0.4778727E+02  0.7816164E-02  0.1312668E+00
        -11   -1    0    0    0    0  0.00000000000E+00  0.00000000000E+00  0.45593999997E+02  0.45594000000E+02  0.51100000000E-03 0.  1.
         11   -1    0    0    0    0 -0.00000000000E+00 -0.00000000000E+00 -0.45593999997E+02  0.45594000000E+02  0.51100000000E-03 0. -1.
    9900012    2    1    2    0    0  0.35387777766E+02  0.98512332525E+01 -0.23114536150E+02  0.47787269669E+02  0.19999993731E+02 0.  0.
        -12    1    1    2    0    0 -0.35387777766E+02 -0.98512332525E+01  0.23114536150E+02  0.43400730331E+02  0.00000000000E+00 0.  1.
         11    1    3    3    0    0  0.15279607790E+02 -0.53590364774E+00 -0.66799816728E+01  0.16684596559E+02  0.51100000000E-03 0. -1.
        -11    1    3    3    0    0  0.13146070546E+02  0.12635172481E+02 -0.79276451147E+01  0.19882512712E+02  0.51100000000E-03 0.  1.
         12    1    3    3    0    0  0.69620994297E+01 -0.22480355812E+01 -0.85069093629E+01  0.11220160398E+02  0.00000000000E+00 0. -1.
</event>
<event>
 7    1  0.1542786E-009  0.4778727E+02  0.7816164E-02  0.1312668E+00
        -11   -1    0    0    0    0  0.00000000000E+00  0.00000000000E+00  0.45593999997E+02  0.45594000000E+02  0.51100000000E-03 0. -1.
         11   -1    0    0    0    0 -0.00000000000E+00 -0.00000000000E+00 -0.45593999997E+02  0.45594000000E+02  0.51100000000E-03 0.  1.
    9900012    2    1    2    0    0 -0.20566949593E+02 -0.14483557022E+02  0.35367362968E+02  0.47787271862E+02  0.20000003727E+02 0.  0.
        -12    1    1    2    0    0  0.20566949593E+02  0.14483557022E+02 -0.35367362968E+02  0.43400728138E+02  0.00000000000E+00 0.  1.
         11    1    3    3    0    0 -0.12237533894E+02 -0.89338933350E+01  0.10899694168E+02  0.18664806968E+02  0.51100000000E-03 0. -1.
        -11    1    3    3    0    0 -0.58026055516E+01  0.28335497161E+01  0.66483340129E+01  0.92682026623E+01  0.51100000000E-03 0.  1.
         12    1    3    3    0    0 -0.25268101470E+01 -0.83832134035E+01  0.17819334788E+02  0.19854262232E+02  0.00000000000E+00 0. -1.
</event>
<event>
 7    1  0.1542786E-009  0.4778727E+02  0.7816164E-02  0.1312668E+00
        -11   -1    0    0    0    0  0.00000000000E+00  0.00000000000E+00  0.45593999997E+02  0.45594000000E+02  0.51100000000E-03 0. -1.
         11   -1    0    0    0    0 -0.00000000000E+00 -0.00000000000E+00 -0.45593999997E+02  0.45594000000E+02  0.51100000000E-03 0.  1.
    9900012    2    1    2    0    0  0.12568012589E+02  0.35519186312E+02  0.21541956764E+02  0.47787269155E+02  0.19999991386E+02 0.  0.
        -12    1    1    2    0    0 -0.12568012589E+02 -0.35519186312E+02 -0.21541956764E+02  0.43400730845E+02  0.00000000000E+00 0.  1.
         11    1    3    3    0    0  0.54837362689E+01  0.32606447709E+01  0.43921000157E+01  0.77455607026E+01  0.51100000000E-03 0. -1.
        -11    1    3    3    0    0  0.68035154124E+01  0.58778337823E+01  0.82397867013E+01  0.12195525289E+02  0.51100000000E-03 0.  1.
        -12    1    3    3    0    0  0.28076090760E+00  0.26380707758E+02  0.89100700466E+01  0.27846183163E+02  0.00000000000E+00 0.  1.
</event>
<event>
 7    1  0.1542786E-009  0.4778728E+02  0.7816164E-02  0.1312668E+00
        -11   -1    0    0    0    0  0.00000000000E+00  0.00000000000E+00  0.45593999997E+02  0.45594000000E+02  0.51100000000E-03 0. -1.
         11   -1    0    0    0    0 -0.00000000000E+00 -0.00000000000E+00 -0.45593999997E+02  0.45594000000E+02  0.51100000000E-03 0.  1.
    9900012    2    1    2    0    0  0.23468749126E+02  0.35524215852E+02  0.84184643163E+01  0.47787278360E+02  0.20000033354E+02 0.  0.
        -12    1    1    2    0    0 -0.23468749126E+02 -0.35524215852E+02 -0.84184643163E+01  0.43400721640E+02  0.00000000000E+00 0.  1.
         11    1    3    3    0    0  0.85550815538E+01  0.15458516090E+02 -0.25591811842E+01  0.17852298135E+02  0.51100000000E-03 0. -1.
        -11    1    3    3    0    0  0.13058113324E+01 -0.17180997905E+01  0.10288652860E+01  0.23907267020E+01  0.51100000000E-03 0.  1.
         12    1    3    3    0    0  0.13607856240E+02  0.21783799552E+02  0.99487802145E+01  0.27544253523E+02  0.00000000000E+00 0. -1.
</event>
<event>
 7    1  0.1542786E-009  0.4778727E+02  0.7816164E-02  0.1312668E+00
        -11   -1    0    0    0    0  0.00000000000E+00  0.00000000000E+00  0.45593999997E+02  0.45594000000E+02  0.51100000000E-03 0.  1.
         11   -1    0    0    0    0 -0.00000000000E+00 -0.00000000000E+00 -0.45593999997E+02  0.45594000000E+02  0.51100000000E-03 0. -1.
    9900012    2    1    2    0    0  0.52148481870E+01  0.95436711090E+01 -0.42016036099E+02  0.47787267410E+02  0.19999983429E+02 0.  0.
        -12    1    1    2    0    0 -0.52148481870E+01 -0.95436711090E+01  0.42016036099E+02  0.43400732590E+02  0.00000000000E+00 0.  1.
         11    1    3    3    0    0 -0.86512525594E+00  0.30407233564E+01 -0.14120952435E+02  0.14470512713E+02  0.51100000000E-03 0. -1.
        -11    1    3    3    0    0  0.11108921999E+02  0.17768911530E+01 -0.18641150272E+02  0.21772872431E+02  0.51100000000E-03 0.  1.
        -12    1    3    3    0    0 -0.50289485556E+01  0.47260565996E+01 -0.92539333920E+01  0.11543882266E+02  0.00000000000E+00 0.  1.
</event>
<event>
 7    1  0.1542786E-009  0.4778727E+02  0.7816164E-02  0.1312668E+00
        -11   -1    0    0    0    0  0.00000000000E+00  0.00000000000E+00  0.45593999997E+02  0.45594000000E+02  0.51100000000E-03 0. -1.
         11   -1    0    0    0    0 -0.00000000000E+00 -0.00000000000E+00 -0.45593999997E+02  0.45594000000E+02  0.51100000000E-03 0.  1.
    9900012    2    1    2    0    0 -0.53024961375E+01  0.39677264662E+02  0.16769649299E+02  0.47787274960E+02  0.20000017853E+02 0.  0.
        -12    1    1    2    0    0  0.53024961375E+01 -0.39677264662E+02 -0.16769649299E+02  0.43400725040E+02  0.00000000000E+00 0.  1.
         11    1    3    3    0    0 -0.53061999650E+01  0.24648863473E+02  0.97526767634E+01  0.27033995874E+02  0.51100000000E-03 0. -1.
        -11    1    3    3    0    0 -0.28908647173E+01  0.15854100117E+02  0.73734161752E+01  0.17722213622E+02  0.51100000000E-03 0.  1.
        -12    1    3    3    0    0  0.28945685449E+01 -0.82569892761E+00 -0.35644363912E+00  0.30310654641E+01  0.00000000000E+00 0.  1.
</event>
<event>
 7    1  0.1542786E-009  0.4778727E+02  0.7816164E-02  0.1312668E+00
        -11   -1    0    0    0    0  0.00000000000E+00  0.00000000000E+00  0.45593999997E+02  0.45594000000E+02  0.51100000000E-03 0. -1.
         11   -1    0    0    0    0 -0.00000000000E+00 -0.00000000000E+00 -0.45593999997E+02  0.45594000000E+02  0.51100000000E-03 0.  1.
    9900012    2    1    2    0    0 -0.32859513182E+02 -0.25242103489E+02  0.12911682396E+02  0.47787274920E+02  0.20000017672E+02 0.  0.
        -12    1    1    2    0    0  0.32859513182E+02  0.25242103489E+02 -0.12911682396E+02  0.43400725080E+02  0.00000000000E+00 0.  1.
         11    1    3    3    0    0 -0.24450318431E+01 -0.68495075061E+01  0.58259587764E+01  0.93185690809E+01  0.51100000000E-03 0. -1.
        -11    1    3    3    0    0 -0.25755989135E+02 -0.16106191031E+02  0.10631138572E+02  0.32183869771E+02  0.51100000000E-03 0.  1.
        -12    1    3    3    0    0 -0.46584922042E+01 -0.22864049517E+01 -0.35454149524E+01  0.62848360682E+01  0.00000000000E+00 0.  1.
</event>
<event>
 7    1  0.1542786E-009  0.4778727E+02  0.7816164E-02  0.1312668E+00
        -11   -1    0    0    0    0  0.00000000000E+00  0.00000000000E+00  0.45593999997E+02  0.45594000000E+02  0.51100000000E-03 0.  1.
         11   -1    0    0    0    0 -0.00000000000E+00 -0.00000000000E+00 -0.45593999997E+02  0.45594000000E+02  0.51100000000E-03 0. -1.
    9900012    2    1    2    0    0 -0.43959013001E+01  0.14011169911E+02 -0.40840988492E+02  0.47787272224E+02  0.20000005378E+02 0.  0.
        -12    1    1    2    0    0  0.43959013001E+01 -0.14011169911E+02  0.40840988492E+02  0.43400727776E+02  0.00000000000E+00 0.  1.
         11    1    3    3    0    0 -0.70308310586E+01  0.50473697296E+01 -0.89151789853E+01  0.12425334730E+02  0.51100000000E-03 0. -1.
        -11    1    3    3    0    0 -0.35266558989E+01 -0.67797861155E+00 -0.10084309958E+02  0.10704684228E+02  0.51100000000E-03 0.  1.
        -12    1    3    3    0    0  0.61615856573E+01  0.96417787926E+01 -0.21841499548E+02  0.24657253266E+02  0.00000000000E+00 0.  1.
</event>
<event>
 7    1  0.1542786E-009  0.4778727E+02  0.7816164E-02  0.1312668E+00
        -11   -1    0    0    0    0  0.00000000000E+00  0.00000000000E+00  0.45593999997E+02  0.45594000000E+02  0.51100000000E-03 0. -1.
         11   -1    0    0    0    0 -0.00000000000E+00 -0.00000000000E+00 -0.45593999997E+02  0.45594000000E+02  0.51100000000E-03 0.  1.
    9900012    2    1    2    0    0  0.11229386095E+02  0.34012226955E+02  0.24509033005E+02  0.47787269668E+02  0.19999993725E+02 0.  0.
        -12    1    1    2    0    0 -0.11229386095E+02 -0.34012226955E+02 -0.24509033005E+02  0.43400730332E+02  0.00000000000E+00 0.  1.
         11    1    3    3    0    0  0.44642501973E+01 -0.10625154065E+01  0.21510251257E+01  0.50680744041E+01  0.51100000000E-03 0. -1.
        -11    1    3    3    0    0  0.48396716605E+01  0.15620969324E+02  0.67005617263E+01  0.17672991601E+02  0.51100000000E-03 0.  1.
        -12    1    3    3    0    0  0.19254642368E+01  0.19453773037E+02  0.15657446153E+02  0.25046203663E+02  0.00000000000E+00 0.  1.
</event>
<event>
 7    1  0.1542786E-009  0.4778727E+02  0.7816164E-02  0.1312668E+00
        -11   -1    0    0    0    0  0.00000000000E+00  0.00000000000E+00  0.45593999997E+02  0.45594000000E+02  0.51100000000E-03 0. -1.
         11   -1    0    0    0    0 -0.00000000000E+00 -0.00000000000E+00 -0.45593999997E+02  0.45594000000E+02  0.51100000000E-03 0.  1.
    9900012    2    1    2    0    0 -0.43793389783E+01 -0.41379520965E+02  0.12336126051E+02  0.47787269924E+02  0.19999994890E+02 0.  0.
        -12    1    1    2    0    0  0.43793389783E+01  0.41379520965E+02 -0.12336126051E+02  0.43400730076E+02  0.00000000000E+00 0.  1.
         11    1    3    3    0    0 -0.21349164620E+01 -0.31452361517E+01 -0.25614360797E+01  0.45838121472E+01  0.51100000000E-03 0. -1.
        -11    1    3    3    0    0  0.32648390783E+01 -0.24417877984E+01  0.86870937407E-01  0.40778730584E+01  0.51100000000E-03 0.  1.
         12    1    3    3    0    0 -0.55092615946E+01 -0.35792497015E+02  0.14810691193E+02  0.39125584718E+02  0.00000000000E+00 0. -1.
</event>
<event>
 7    1  0.1542786E-009  0.4778725E+02  0.7816164E-02  0.1312668E+00
        -11   -1    0    0    0    0  0.00000000000E+00  0.00000000000E+00  0.45593999997E+02  0.45594000000E+02  0.51100000000E-03 0. -1.
         11   -1    0    0    0    0 -0.00000000000E+00 -0.00000000000E+00 -0.45593999997E+02  0.45594000000E+02  0.51100000000E-03 0.  1.
    9900012    2    1    2    0    0 -0.19674046415E+02  0.37227819666E+02  0.10518872775E+02  0.47787247197E+02  0.19999891270E+02 0.  0.
        -12    1    1    2    0    0  0.19674046415E+02 -0.37227819666E+02 -0.10518872775E+02  0.43400752803E+02  0.00000000000E+00 0.  1.
         11    1    3    3    0    0  0.10479470110E+01  0.92533281612E+00  0.19689770822E+01  0.24148094686E+01  0.51100000000E-03 0. -1.
        -11    1    3    3    0    0 -0.15910380416E+02  0.20052045853E+02 -0.15484626700E+01  0.25644151083E+02  0.51100000000E-03 0.  1.
        -12    1    3    3    0    0 -0.48116130101E+01  0.16250440997E+02  0.10098358362E+02  0.19728286646E+02  0.00000000000E+00 0.  1.
</event>
<event>
 7    1  0.1542786E-009  0.4778729E+02  0.7816164E-02  0.1312668E+00
        -11   -1    0    0    0    0  0.00000000000E+00  0.00000000000E+00  0.45593999997E+02  0.45594000000E+02  0.51100000000E-03 0. -1.
         11   -1    0    0    0    0 -0.00000000000E+00 -0.00000000000E+00 -0.45593999997E+02  0.45594000000E+02  0.51100000000E-03 0.  1.
    9900012    2    1    2    0    0  0.29735051534E+02  0.24807625821E+02  0.19596690204E+02  0.47787287384E+02  0.20000074500E+02 0.  0.
        -12    1    1    2    0    0 -0.29735051534E+02 -0.24807625821E+02 -0.19596690204E+02  0.43400712616E+02  0.00000000000E+00 0.  1.
         11    1    3    3    0    0  0.28668697722E+01  0.85648472918E-01  0.60394981230E+01  0.66859416532E+01  0.51100000000E-03 0. -1.
        -11    1    3    3    0    0  0.13245506916E+01  0.67159216511E+01  0.56207299538E+01  0.88572367944E+01  0.51100000000E-03 0.  1.
         12    1    3    3    0    0  0.25543631070E+02  0.18006055697E+02  0.79364621273E+01  0.32244108937E+02  0.00000000000E+00 0. -1.
</event>
<event>
 7    1  0.1542786E-009  0.4778727E+02  0.7816164E-02  0.1312668E+00
        -11   -1    0    0    0    0  0.00000000000E+00  0.00000000000E+00  0.45593999997E+02  0.45594000000E+02  0.51100000000E-03 0.  1.
         11   -1    0    0    0    0 -0.00000000000E+00 -0.00000000000E+00 -0.45593999997E+02  0.45594000000E+02  0.51100000000E-03 0. -1.
    9900012    2    1    2    0    0  0.19982171353E+02  0.28610409419E+02 -0.25802723371E+02  0.47787271522E+02  0.20000002177E+02 0.  0.
        -12    1    1    2    0    0 -0.19982171353E+02 -0.28610409419E+02  0.25802723371E+02  0.43400728478E+02  0.00000000000E+00 0.  1.
         11    1    3    3    0    0  0.71197519175E+01  0.10097390234E+02 -0.21085651720E+02  0.24438757448E+02  0.51100000000E-03 0. -1.
        -11    1    3    3    0    0  0.78181061418E+01  0.94226233303E+01 -0.41833009123E+01  0.12938648340E+02  0.51100000000E-03 0.  1.
         12    1    3    3    0    0  0.50443132934E+01  0.90903958547E+01 -0.53377073830E+00  0.10409865734E+02  0.00000000000E+00 0. -1.
</event>
<event>
 7    1  0.1542786E-009  0.4778727E+02  0.7816164E-02  0.1312668E+00
        -11   -1    0    0    0    0  0.00000000000E+00  0.00000000000E+00  0.45593999997E+02  0.45594000000E+02  0.51100000000E-03 0.  1.
         11   -1    0    0    0    0 -0.00000000000E+00 -0.00000000000E+00 -0.45593999997E+02  0.45594000000E+02  0.51100000000E-03 0. -1.
    9900012    2    1    2    0    0  0.32126145068E+02  0.11121438522E+02 -0.26978655726E+02  0.47787268940E+02  0.19999990404E+02 0.  0.
        -12    1    1    2    0    0 -0.32126145068E+02 -0.11121438522E+02  0.26978655726E+02  0.43400731060E+02  0.00000000000E+00 0.  1.
         11    1    3    3    0    0  0.79676319662E+00  0.30763697230E+01 -0.45481796624E+01  0.55484070477E+01  0.51100000000E-03 0. -1.
        -11    1    3    3    0    0  0.14459099797E+02 -0.26414498977E+01 -0.44248067800E+01  0.15349975238E+02  0.51100000000E-03 0.  1.
         12    1    3    3    0    0  0.16870282075E+02  0.10686518697E+02 -0.18005669284E+02  0.26888886654E+02  0.00000000000E+00 0. -1.
</event>
<event>
 7    1  0.1542786E-009  0.4778727E+02  0.7816164E-02  0.1312668E+00
        -11   -1    0    0    0    0  0.00000000000E+00  0.00000000000E+00  0.45593999997E+02  0.45594000000E+02  0.51100000000E-03 0.  1.
         11   -1    0    0    0    0 -0.00000000000E+00 -0.00000000000E+00 -0.45593999997E+02  0.45594000000E+02  0.51100000000E-03 0. -1.
    9900012    2    1    2    0    0 -0.11742517946E+02 -0.21831008101E+02 -0.35625042765E+02  0.47787270578E+02  0.19999997872E+02 0.  0.
        -12    1    1    2    0    0  0.11742517946E+02  0.21831008101E+02  0.35625042765E+02  0.43400729422E+02  0.00000000000E+00 0.  1.
         11    1    3    3    0    0 -0.45953840648E+01 -0.18385565120E+01 -0.13470919808E+02  0.14351429389E+02  0.51100000000E-03 0. -1.
        -11    1    3    3    0    0 -0.48129075103E+01  0.87081101275E-01 -0.47176414126E+01  0.67400150281E+01  0.51100000000E-03 0.  1.
         12    1    3    3    0    0 -0.23342263706E+01 -0.20079532690E+02 -0.17436481544E+02  0.26695826161E+02  0.00000000000E+00 0. -1.
</event>
<event>
 7    1  0.1542786E-009  0.4778727E+02  0.7816164E-02  0.1312668E+00
        -11   -1    0    0    0    0  0.00000000000E+00  0.00000000000E+00  0.45593999997E+02  0.45594000000E+02  0.51100000000E-03 0. -1.
         11   -1    0    0    0    0 -0.00000000000E+00 -0.00000000000E+00 -0.45593999997E+02  0.45594000000E+02  0.51100000000E-03 0.  1.
    9900012    2    1    2    0    0  0.35761706295E+02 -0.43685168685E+01  0.24199992098E+02  0.47787271961E+02  0.20000004180E+02 0.  0.
        -12    1    1    2    0    0 -0.35761706295E+02  0.43685168685E+01 -0.24199992098E+02  0.43400728039E+02  0.00000000000E+00 0.  1.
         11    1    3    3    0    0  0.36416964851E+01 -0.23782472099E+01  0.48935964346E+01  0.65471596442E+01  0.51100000000E-03 0. -1.
        -11    1    3    3    0    0  0.12484893476E+02 -0.66954437706E+01  0.14927202355E+02  0.20579672077E+02  0.51100000000E-03 0.  1.
         12    1    3    3    0    0  0.19635116334E+02  0.47051741121E+01  0.43791933082E+01  0.20660440240E+02  0.00000000000E+00 0. -1.
</event>
<event>
 7    1  0.1542786E-009  0.4778727E+02  0.7816164E-02  0.1312668E+00
        -11   -1    0    0    0    0  0.00000000000E+00  0.00000000000E+00  0.45593999997E+02  0.45594000000E+02  0.51100000000E-03 0. -1.
         11   -1    0    0    0    0 -0.00000000000E+00 -0.00000000000E+00 -0.45593999997E+02  0.45594000000E+02  0.51100000000E-03 0.  1.
    9900012    2    1    2    0    0  0.11371339561E+02  0.30639230790E+02  0.28557893660E+02  0.47787272850E+02  0.20000008232E+02 0.  0.
        -12    1    1    2    0    0 -0.11371339561E+02 -0.30639230790E+02 -0.28557893660E+02  0.43400727150E+02  0.00000000000E+00 0.  1.
         11    1    3    3    0    0  0.50874139761E+01  0.17600358030E+02  0.18121057798E+02  0.25768723673E+02  0.51100000000E-03 0. -1.
        -11    1    3    3    0    0  0.98431295078E+01  0.65266474721E+01  0.50321156911E+01  0.12837698950E+02  0.51100000000E-03 0.  1.
         12    1    3    3    0    0 -0.35592039228E+01  0.65122252879E+01  0.54047201711E+01  0.91808502271E+01  0.00000000000E+00 0. -1.
</event>
<event>
 7    1  0.1821395E-009  0.4778727E+02  0.7816164E-02  0.1312668E+00
        -11   -1    0    0    0    0  0.00000000000E+00  0.00000000000E+00  0.45593999997E+02  0.45594000000E+02  0.51100000000E-03 0. -1.
         11   -1    0    0    0    0 -0.00000000000E+00 -0.00000000000E+00 -0.45593999997E+02  0.45594000000E+02  0.51100000000E-03 0.  1.
    9900012    2    1    2    0    0  0.45670972800E+01  0.29844320293E+02  0.31178219373E+02  0.47787271958E+02  0.20000004166E+02 0.  0.
        -12    1    1    2    0    0 -0.45670972800E+01 -0.29844320293E+02 -0.31178219373E+02  0.43400728042E+02  0.00000000000E+00 0.  1.
         11    1    3    3    0    0  0.33961064525E+00  0.19807197752E+02  0.28133030828E+02  0.34407961898E+02  0.51100000000E-03 0. -1.
        -11    1    3    3    0    0  0.38131125772E+01  0.15023161418E+01  0.25354449434E+01  0.48192595530E+01  0.51100000000E-03 0.  1.
         12    1    3    3    0    0  0.41437405751E+00  0.85348063998E+01  0.50974360118E+00  0.85600505069E+01  0.00000000000E+00 0. -1.
</event>
<event>
 7    1  0.1542786E-009  0.4778728E+02  0.7816164E-02  0.1312668E+00
        -11   -1    0    0    0    0  0.00000000000E+00  0.00000000000E+00  0.45593999997E+02  0.45594000000E+02  0.51100000000E-03 0.  1.
         11   -1    0    0    0    0 -0.00000000000E+00 -0.00000000000E+00 -0.45593999997E+02  0.45594000000E+02  0.51100000000E-03 0. -1.
    9900012    2    1    2    0    0  0.72318534949E+00 -0.39793100180E+01 -0.43211856963E+02  0.47787280104E+02  0.20000041306E+02 0.  0.
        -12    1    1    2    0    0 -0.72318534949E+00  0.39793100180E+01  0.43211856963E+02  0.43400719896E+02  0.00000000000E+00 0.  1.
         11    1    3    3    0    0  0.81542665275E+01 -0.44232644614E+01 -0.29093151482E+02  0.30536352017E+02  0.51100000000E-03 0. -1.
        -11    1    3    3    0    0 -0.32465347884E+01 -0.15650071195E+01 -0.16839752789E+01  0.39780659142E+01  0.51100000000E-03 0.  1.
         12    1    3    3    0    0 -0.41845463897E+01  0.20089615629E+01 -0.12434730202E+02  0.13272862172E+02  0.00000000000E+00 0. -1.
</event>
<event>
 7    1  0.1542786E-009  0.4778727E+02  0.7816164E-02  0.1312668E+00
        -11   -1    0    0    0    0  0.00000000000E+00  0.00000000000E+00  0.45593999997E+02  0.45594000000E+02  0.51100000000E-03 0.  1.
         11   -1    0    0    0    0 -0.00000000000E+00 -0.00000000000E+00 -0.45593999997E+02  0.45594000000E+02  0.51100000000E-03 0. -1.
    9900012    2    1    2    0    0 -0.29583496622E+02 -0.26550299194E+02 -0.17421876426E+02  0.47787269155E+02  0.19999991384E+02 0.  0.
        -12    1    1    2    0    0  0.29583496622E+02  0.26550299194E+02  0.17421876426E+02  0.43400730845E+02  0.00000000000E+00 0.  1.
         11    1    3    3    0    0 -0.35486801049E+01 -0.77157375729E+01 -0.88808875830E+01  0.12288038953E+02  0.51100000000E-03 0. -1.
        -11    1    3    3    0    0 -0.98458831514E+01 -0.12005323533E+02 -0.89553062183E+01  0.17923914692E+02  0.51100000000E-03 0.  1.
        -12    1    3    3    0    0 -0.16188933366E+02 -0.68292380885E+01  0.41431737488E+00  0.17575315510E+02  0.00000000000E+00 0.  1.
</event>
<event>
 7    1  0.1542786E-009  0.4778727E+02  0.7816164E-02  0.1312668E+00
        -11   -1    0    0    0    0  0.00000000000E+00  0.00000000000E+00  0.45593999997E+02  0.45594000000E+02  0.51100000000E-03 0.  1.
         11   -1    0    0    0    0 -0.00000000000E+00 -0.00000000000E+00 -0.45593999997E+02  0.45594000000E+02  0.51100000000E-03 0. -1.
    9900012    2    1    2    0    0  0.19246127558E+02  0.35202065601E+02 -0.16553696431E+02  0.47787265973E+02  0.19999976875E+02 0.  0.
        -12    1    1    2    0    0 -0.19246127558E+02 -0.35202065601E+02  0.16553696431E+02  0.43400734027E+02  0.00000000000E+00 0.  1.
         11    1    3    3    0    0  0.50399658810E+01  0.15007422550E+02 -0.27983594925E+01  0.16076529594E+02  0.51100000000E-03 0. -1.
        -11    1    3    3    0    0  0.55386935864E+01  0.48804764737E+01  0.24607293996E+01  0.77814758686E+01  0.51100000000E-03 0.  1.
        -12    1    3    3    0    0  0.86674680909E+01  0.15314166577E+02 -0.16216066338E+02  0.23929260510E+02  0.00000000000E+00 0.  1.
</event>
<event>
 7    1  0.1542786E-009  0.4778728E+02  0.7816164E-02  0.1312668E+00
        -11   -1    0    0    0    0  0.00000000000E+00  0.00000000000E+00  0.45593999997E+02  0.45594000000E+02  0.51100000000E-03 0.  1.
         11   -1    0    0    0    0 -0.00000000000E+00 -0.00000000000E+00 -0.45593999997E+02  0.45594000000E+02  0.51100000000E-03 0. -1.
    9900012    2    1    2    0    0 -0.83998166095E+01  0.83610619663E+01 -0.41751143074E+02  0.47787283137E+02  0.20000055134E+02 0.  0.
        -12    1    1    2    0    0  0.83998166095E+01 -0.83610619663E+01  0.41751143074E+02  0.43400716863E+02  0.00000000000E+00 0.  1.
         11    1    3    3    0    0 -0.44321392078E+00  0.11684060505E+02 -0.28413714974E+02  0.30725443973E+02  0.51100000000E-03 0. -1.
        -11    1    3    3    0    0 -0.70792060308E+01 -0.68780997897E-01 -0.74455000661E+01  0.10274013838E+02  0.51100000000E-03 0.  1.
        -12    1    3    3    0    0 -0.87739665788E+00 -0.32542175405E+01 -0.58919280336E+01  0.67878253255E+01  0.00000000000E+00 0.  1.
</event>
<event>
 7    1  0.1542786E-009  0.4778727E+02  0.7816164E-02  0.1312668E+00
        -11   -1    0    0    0    0  0.00000000000E+00  0.00000000000E+00  0.45593999997E+02  0.45594000000E+02  0.51100000000E-03 0.  1.
         11   -1    0    0    0    0 -0.00000000000E+00 -0.00000000000E+00 -0.45593999997E+02  0.45594000000E+02  0.51100000000E-03 0. -1.
    9900012    2    1    2    0    0 -0.68159160579E+01 -0.19717378830E+02 -0.38057738728E+02  0.47787271703E+02  0.20000003003E+02 0.  0.
        -12    1    1    2    0    0  0.68159160579E+01  0.19717378830E+02  0.38057738728E+02  0.43400728297E+02  0.00000000000E+00 0.  1.
         11    1    3    3    0    0  0.90989355455E+00 -0.95067124004E+01 -0.10773094739E+02  0.14396703007E+02  0.51100000000E-03 0. -1.
        -11    1    3    3    0    0 -0.10584170240E+02 -0.41812177615E+01 -0.11156493651E+02  0.15936580326E+02  0.51100000000E-03 0.  1.
        -12    1    3    3    0    0  0.28583606275E+01 -0.60294486678E+01 -0.16128150338E+02  0.17453988371E+02  0.00000000000E+00 0.  1.
</event>
<event>
 7    1  0.1542786E-009  0.4778727E+02  0.7816164E-02  0.1312668E+00
        -11   -1    0    0    0    0  0.00000000000E+00  0.00000000000E+00  0.45593999997E+02  0.45594000000E+02  0.51100000000E-03 0.  1.
         11   -1    0    0    0    0 -0.00000000000E+00 -0.00000000000E+00 -0.45593999997E+02  0.45594000000E+02  0.51100000000E-03 0. -1.
    9900012    2    1    2    0    0  0.38252127771E+02  0.43484574451E+01 -0.20037183719E+02  0.47787273133E+02  0.20000009524E+02 0.  0.
        -12    1    1    2    0    0 -0.38252127771E+02 -0.43484574451E+01  0.20037183719E+02  0.43400726867E+02  0.00000000000E+00 0.  1.
         11    1    3    3    0    0  0.70433904552E+01  0.15318029673E+01 -0.85831731997E+01  0.11208328683E+02  0.51100000000E-03 0. -1.
        -11    1    3    3    0    0 -0.15172872075E+01 -0.91829803115E+00 -0.91408683443E+00  0.19952410246E+01  0.51100000000E-03 0.  1.
         12    1    3    3    0    0  0.32726024523E+02  0.37349525089E+01 -0.10539923685E+02  0.34583703426E+02  0.00000000000E+00 0. -1.
</event>
<event>
 7    1  0.1542786E-009  0.4778727E+02  0.7816164E-02  0.1312668E+00
        -11   -1    0    0    0    0  0.00000000000E+00  0.00000000000E+00  0.45593999997E+02  0.45594000000E+02  0.51100000000E-03 0.  1.
         11   -1    0    0    0    0 -0.00000000000E+00 -0.00000000000E+00 -0.45593999997E+02  0.45594000000E+02  0.51100000000E-03 0. -1.
    9900012    2    1    2    0    0 -0.17302059289E+02  0.10360937561E+02 -0.38430622345E+02  0.47787274008E+02  0.20000013513E+02 0.  0.
        -12    1    1    2    0    0  0.17302059289E+02 -0.10360937561E+02  0.38430622345E+02  0.43400725992E+02  0.00000000000E+00 0.  1.
         11    1    3    3    0    0 -0.14734691934E+02  0.70287779333E+01 -0.21325133897E+02  0.26856585815E+02  0.51100000000E-03 0. -1.
        -11    1    3    3    0    0 -0.36383240201E-02  0.72988503684E+01 -0.95384434615E+01  0.12010625873E+02  0.51100000000E-03 0.  1.
         12    1    3    3    0    0 -0.25637290311E+01 -0.39666907405E+01 -0.75670449861E+01  0.89200623203E+01  0.00000000000E+00 0. -1.
</event>
<event>
 7    1  0.1542786E-009  0.4778727E+02  0.7816164E-02  0.1312668E+00
        -11   -1    0    0    0    0  0.00000000000E+00  0.00000000000E+00  0.45593999997E+02  0.45594000000E+02  0.51100000000E-03 0. -1.
         11   -1    0    0    0    0 -0.00000000000E+00 -0.00000000000E+00 -0.45593999997E+02  0.45594000000E+02  0.51100000000E-03 0.  1.
    9900012    2    1    2    0    0  0.93081434445E+01 -0.28816270594E+01  0.42292762633E+02  0.47787273278E+02  0.20000010182E+02 0.  0.
        -12    1    1    2    0    0 -0.93081434445E+01  0.28816270594E+01 -0.42292762633E+02  0.43400726722E+02  0.00000000000E+00 0.  1.
         11    1    3    3    0    0  0.82969493844E+01  0.13562041977E+01  0.22467497751E+02  0.23988895647E+02  0.51100000000E-03 0. -1.
        -11    1    3    3    0    0  0.55046142937E+01  0.62097410568E+00  0.46125928717E+01  0.72084950318E+01  0.51100000000E-03 0.  1.
         12    1    3    3    0    0 -0.44934202336E+01 -0.48588053628E+01  0.15212672010E+02  0.16589882599E+02  0.00000000000E+00 0. -1.
</event>
<event>
 7    1  0.1542786E-009  0.4778727E+02  0.7816164E-02  0.1312668E+00
        -11   -1    0    0    0    0  0.00000000000E+00  0.00000000000E+00  0.45593999997E+02  0.45594000000E+02  0.51100000000E-03 0.  1.
         11   -1    0    0    0    0 -0.00000000000E+00 -0.00000000000E+00 -0.45593999997E+02  0.45594000000E+02  0.51100000000E-03 0. -1.
    9900012    2    1    2    0    0 -0.22238780502E+01  0.43330691567E+02 -0.10624807446E+01  0.47787270392E+02  0.19999997023E+02 0.  0.
        -12    1    1    2    0    0  0.22238780502E+01 -0.43330691567E+02  0.10624807446E+01  0.43400729608E+02  0.00000000000E+00 0.  1.
         11    1    3    3    0    0 -0.38321814354E+01  0.14531451478E+02 -0.75654562303E+00  0.15047294047E+02  0.51100000000E-03 0. -1.
        -11    1    3    3    0    0 -0.54237287874E+01  0.11794495878E+02  0.44684407376E+01  0.13729309154E+02  0.51100000000E-03 0.  1.
        -12    1    3    3    0    0  0.70320321725E+01  0.17004744211E+02 -0.47743758592E+01  0.19010667190E+02  0.00000000000E+00 0.  1.
</event>
<event>
 7    1  0.1542786E-009  0.4778727E+02  0.7816164E-02  0.1312668E+00
        -11   -1    0    0    0    0  0.00000000000E+00  0.00000000000E+00  0.45593999997E+02  0.45594000000E+02  0.51100000000E-03 0.  1.
         11   -1    0    0    0    0 -0.00000000000E+00 -0.00000000000E+00 -0.45593999997E+02  0.45594000000E+02  0.51100000000E-03 0. -1.
    9900012    2    1    2    0    0 -0.38758649890E+02  0.85893054448E+01 -0.17538924491E+02  0.47787274412E+02  0.20000015353E+02 0.  0.
        -12    1    1    2    0    0  0.38758649890E+02 -0.85893054448E+01  0.17538924491E+02  0.43400725588E+02  0.00000000000E+00 0.  1.
         11    1    3    3    0    0 -0.72390230391E+01  0.18077087711E+01 -0.23720207097E+01  0.78292878393E+01  0.51100000000E-03 0. -1.
        -11    1    3    3    0    0 -0.22622652718E+02  0.53644271706E+00 -0.17779743937E+02  0.28778316169E+02  0.51100000000E-03 0.  1.
        -12    1    3    3    0    0 -0.88969741321E+01  0.62451539567E+01  0.26128401559E+01  0.11179670403E+02  0.00000000000E+00 0.  1.
</event>
<event>
 7    1  0.1542786E-009  0.4778727E+02  0.7816164E-02  0.1312668E+00
        -11   -1    0    0    0    0  0.00000000000E+00  0.00000000000E+00  0.45593999997E+02  0.45594000000E+02  0.51100000000E-03 0.  1.
         11   -1    0    0    0    0 -0.00000000000E+00 -0.00000000000E+00 -0.45593999997E+02  0.45594000000E+02  0.51100000000E-03 0. -1.
    9900012    2    1    2    0    0 -0.81693197389E+01  0.21155892180E+02 -0.37004246157E+02  0.47787265068E+02  0.19999972752E+02 0.  0.
        -12    1    1    2    0    0  0.81693197389E+01 -0.21155892180E+02  0.37004246157E+02  0.43400734932E+02  0.00000000000E+00 0.  1.
         11    1    3    3    0    0 -0.41600547746E+01  0.17564690300E+02 -0.18375368488E+02  0.25758077731E+02  0.51100000000E-03 0. -1.
        -11    1    3    3    0    0 -0.70662615683E+01  0.20755633558E+01 -0.80360210341E+01  0.10900350917E+02  0.51100000000E-03 0.  1.
        -12    1    3    3    0    0  0.30569966040E+01  0.15156385251E+01 -0.10592856635E+02  0.11128836420E+02  0.00000000000E+00 0.  1.
</event>
<event>
 7    1  0.1542786E-009  0.4778727E+02  0.7816164E-02  0.1312668E+00
        -11   -1    0    0    0    0  0.00000000000E+00  0.00000000000E+00  0.45593999997E+02  0.45594000000E+02  0.51100000000E-03 0. -1.
         11   -1    0    0    0    0 -0.00000000000E+00 -0.00000000000E+00 -0.45593999997E+02  0.45594000000E+02  0.51100000000E-03 0.  1.
    9900012    2    1    2    0    0  0.29160792173E+02 -0.21747041224E+02  0.23671457163E+02  0.47787268596E+02  0.19999988836E+02 0.  0.
        -12    1    1    2    0    0 -0.29160792173E+02  0.21747041224E+02 -0.23671457163E+02  0.43400731404E+02  0.00000000000E+00 0.  1.
         11    1    3    3    0    0 -0.45465975615E+00  0.90190516497E+00  0.14202197473E+01  0.17427486371E+01  0.51100000000E-03 0.  1.
        -11    1    3    3    0    0  0.27892864271E+02 -0.15070379803E+02  0.21345901202E+02  0.38220095801E+02  0.51100000000E-03 0. -1.
         12    1    3    3    0    0  0.17225876587E+01 -0.75785665861E+01  0.90533621380E+00  0.78244241579E+01  0.00000000000E+00 0. -1.
</event>
<event>
 7    1  0.1542786E-009  0.4778727E+02  0.7816164E-02  0.1312668E+00
        -11   -1    0    0    0    0  0.00000000000E+00  0.00000000000E+00  0.45593999997E+02  0.45594000000E+02  0.51100000000E-03 0.  1.
         11   -1    0    0    0    0 -0.00000000000E+00 -0.00000000000E+00 -0.45593999997E+02  0.45594000000E+02  0.51100000000E-03 0. -1.
    9900012    2    1    2    0    0 -0.26942011533E+02  0.14389232283E+01 -0.33995308190E+02  0.47787268849E+02  0.19999989991E+02 0.  0.
        -12    1    1    2    0    0  0.26942011533E+02 -0.14389232283E+01  0.33995308190E+02  0.43400731151E+02  0.00000000000E+00 0.  1.
         11    1    3    3    0    0 -0.21540874305E+02 -0.11909457225E+01 -0.15647326678E+02  0.26650824565E+02  0.51100000000E-03 0. -1.
        -11    1    3    3    0    0  0.15530527846E+01  0.44494089556E+00 -0.26183358329E+00  0.16366130999E+01  0.51100000000E-03 0.  1.
        -12    1    3    3    0    0 -0.69541900125E+01  0.21849280552E+01 -0.18086147928E+02  0.19499831184E+02  0.00000000000E+00 0.  1.
</event>
<event>
 7    1  0.1542786E-009  0.4778727E+02  0.7816164E-02  0.1312668E+00
        -11   -1    0    0    0    0  0.00000000000E+00  0.00000000000E+00  0.45593999997E+02  0.45594000000E+02  0.51100000000E-03 0. -1.
         11   -1    0    0    0    0 -0.00000000000E+00 -0.00000000000E+00 -0.45593999997E+02  0.45594000000E+02  0.51100000000E-03 0.  1.
    9900012    2    1    2    0    0 -0.28697366369E+02  0.15547847656E+02  0.28606797754E+02  0.47787270962E+02  0.19999999626E+02 0.  0.
        -12    1    1    2    0    0  0.28697366369E+02 -0.15547847656E+02 -0.28606797754E+02  0.43400729038E+02  0.00000000000E+00 0.  1.
         11    1    3    3    0    0  0.35673008410E+00  0.11626606280E+01 -0.21694942424E+01  0.24871151195E+01  0.51100000000E-03 0.  1.
        -11    1    3    3    0    0 -0.93721292028E+01  0.26479844306E+01  0.13280886502E+02  0.16469079327E+02  0.51100000000E-03 0. -1.
        -12    1    3    3    0    0 -0.19681967250E+02  0.11737202598E+02  0.17495405495E+02  0.28831076516E+02  0.00000000000E+00 0.  1.
</event>
<event>
 7    1  0.1542786E-009  0.4778727E+02  0.7816164E-02  0.1312668E+00
        -11   -1    0    0    0    0  0.00000000000E+00  0.00000000000E+00  0.45593999997E+02  0.45594000000E+02  0.51100000000E-03 0. -1.
         11   -1    0    0    0    0 -0.00000000000E+00 -0.00000000000E+00 -0.45593999997E+02  0.45594000000E+02  0.51100000000E-03 0.  1.
    9900012    2    1    2    0    0  0.16218257523E+02  0.39601032566E+02  0.72353067766E+01  0.47787270495E+02  0.19999997496E+02 0.  0.
        -12    1    1    2    0    0 -0.16218257523E+02 -0.39601032566E+02 -0.72353067766E+01  0.43400729505E+02  0.00000000000E+00 0.  1.
         11    1    3    3    0    0  0.28408044117E+01  0.59248054437E+01  0.68983610561E+01  0.95268502021E+01  0.51100000000E-03 0. -1.
        -11    1    3    3    0    0  0.68338999931E+00  0.65404295707E+01 -0.44249356107E+01  0.79261779112E+01  0.51100000000E-03 0.  1.
         12    1    3    3    0    0  0.12694063112E+02  0.27135797552E+02  0.47618813312E+01  0.30334242382E+02  0.00000000000E+00 0. -1.
</event>
<event>
 7    1  0.1542786E-009  0.4778727E+02  0.7816164E-02  0.1312668E+00
        -11   -1    0    0    0    0  0.00000000000E+00  0.00000000000E+00  0.45593999997E+02  0.45594000000E+02  0.51100000000E-03 0. -1.
         11   -1    0    0    0    0 -0.00000000000E+00 -0.00000000000E+00 -0.45593999997E+02  0.45594000000E+02  0.51100000000E-03 0.  1.
    9900012    2    1    2    0    0  0.29831600929E+02 -0.27602713670E+02  0.15224617519E+02  0.47787271958E+02  0.20000004167E+02 0.  0.
        -12    1    1    2    0    0 -0.29831600929E+02  0.27602713670E+02 -0.15224617519E+02  0.43400728042E+02  0.00000000000E+00 0.  1.
         11    1    3    3    0    0  0.13966178737E+02 -0.11218893338E+02  0.38131518310E+01  0.18315508275E+02  0.51100000000E-03 0. -1.
        -11    1    3    3    0    0  0.19600374198E+01 -0.12612014507E+02  0.55189138346E+01  0.13905504910E+02  0.51100000000E-03 0.  1.
        -12    1    3    3    0    0  0.13905384773E+02 -0.37718058243E+01  0.58925518530E+01  0.15566258773E+02  0.00000000000E+00 0.  1.
</event>
<event>
 7    1  0.1542786E-009  0.4778727E+02  0.7816164E-02  0.1312668E+00
        -11   -1    0    0    0    0  0.00000000000E+00  0.00000000000E+00  0.45593999997E+02  0.45594000000E+02  0.51100000000E-03 0.  1.
         11   -1    0    0    0    0 -0.00000000000E+00 -0.00000000000E+00 -0.45593999997E+02  0.45594000000E+02  0.51100000000E-03 0. -1.
    9900012    2    1    2    0    0  0.18885677467E+02  0.31476100479E+02  0.23156201699E+02  0.47787269685E+02  0.19999993802E+02 0.  0.
        -12    1    1    2    0    0 -0.18885677467E+02 -0.31476100479E+02 -0.23156201699E+02  0.43400730315E+02  0.00000000000E+00 0.  1.
         11    1    3    3    0    0 -0.22580324342E+01  0.12307654228E+02  0.32067570122E+01  0.12917443783E+02  0.51100000000E-03 0. -1.
        -11    1    3    3    0    0  0.48586242921E+01  0.36603434457E+01  0.48947641631E+01  0.78078845167E+01  0.51100000000E-03 0.  1.
         12    1    3    3    0    0  0.16285085610E+02  0.15508102805E+02  0.15054680523E+02  0.27061941386E+02  0.00000000000E+00 0. -1.
</event>
<event>
 7    1  0.1542786E-009  0.4778728E+02  0.7816164E-02  0.1312668E+00
        -11   -1    0    0    0    0  0.00000000000E+00  0.00000000000E+00  0.45593999997E+02  0.45594000000E+02  0.51100000000E-03 0.  1.
         11   -1    0    0    0    0 -0.00000000000E+00 -0.00000000000E+00 -0.45593999997E+02  0.45594000000E+02  0.51100000000E-03 0. -1.
    9900012    2    1    2    0    0 -0.74251052439E-01 -0.20377530988E+02 -0.38319362774E+02  0.47787275976E+02  0.20000022486E+02 0.  0.
        -12    1    1    2    0    0  0.74251052439E-01  0.20377530988E+02  0.38319362774E+02  0.43400724024E+02  0.00000000000E+00 0.  1.
         11    1    3    3    0    0 -0.99411498859E+00 -0.47365612016E+01 -0.17722973375E+02  0.18371909594E+02  0.51100000000E-03 0. -1.
        -11    1    3    3    0    0  0.52882500734E+01 -0.15687740099E+02 -0.17280198573E+02  0.23930650665E+02  0.51100000000E-03 0.  1.
         12    1    3    3    0    0 -0.43683861373E+01  0.46770312696E-01 -0.33161908257E+01  0.54847157172E+01  0.00000000000E+00 0. -1.
</event>
<event>
 7    1  0.1542786E-009  0.4778727E+02  0.7816164E-02  0.1312668E+00
        -11   -1    0    0    0    0  0.00000000000E+00  0.00000000000E+00  0.45593999997E+02  0.45594000000E+02  0.51100000000E-03 0. -1.
         11   -1    0    0    0    0 -0.00000000000E+00 -0.00000000000E+00 -0.45593999997E+02  0.45594000000E+02  0.51100000000E-03 0.  1.
    9900012    2    1    2    0    0  0.24199530268E+02 -0.62272968156E+01  0.35485589155E+02  0.47787268111E+02  0.19999986626E+02 0.  0.
        -12    1    1    2    0    0 -0.24199530268E+02  0.62272968156E+01 -0.35485589155E+02  0.43400731889E+02  0.00000000000E+00 0.  1.
         11    1    3    3    0    0  0.83466526798E+01 -0.29624562805E+01  0.11163155568E+02  0.14249870198E+02  0.51100000000E-03 0. -1.
        -11    1    3    3    0    0 -0.67634145226E+00  0.35708134285E+01  0.99457841585E+01  0.10588992827E+02  0.51100000000E-03 0.  1.
        -12    1    3    3    0    0  0.16529219040E+02 -0.68356539636E+01  0.14376649428E+02  0.22948405086E+02  0.00000000000E+00 0.  1.
</event>
<event>
 7    1  0.1542786E-009  0.4778727E+02  0.7816164E-02  0.1312668E+00
        -11   -1    0    0    0    0  0.00000000000E+00  0.00000000000E+00  0.45593999997E+02  0.45594000000E+02  0.51100000000E-03 0.  1.
         11   -1    0    0    0    0 -0.00000000000E+00 -0.00000000000E+00 -0.45593999997E+02  0.45594000000E+02  0.51100000000E-03 0. -1.
    9900012    2    1    2    0    0  0.38525814528E+02 -0.19635937738E+02 -0.37168433316E+01  0.47787270050E+02  0.19999995466E+02 0.  0.
        -12    1    1    2    0    0 -0.38525814528E+02  0.19635937738E+02  0.37168433316E+01  0.43400729950E+02  0.00000000000E+00 0.  1.
         11    1    3    3    0    0  0.23245621185E+02 -0.10546046679E+02  0.32286160049E+01  0.25729398873E+02  0.51100000000E-03 0. -1.
        -11    1    3    3    0    0 -0.42180564384E+00  0.82971532621E+00  0.14120708913E+01  0.16912397781E+01  0.51100000000E-03 0.  1.
        -12    1    3    3    0    0  0.15701998986E+02 -0.99196063854E+01 -0.83575302278E+01  0.20366631398E+02  0.00000000000E+00 0.  1.
</event>
<event>
 7    1  0.1542786E-009  0.4778724E+02  0.7816164E-02  0.1312668E+00
        -11   -1    0    0    0    0  0.00000000000E+00  0.00000000000E+00  0.45593999997E+02  0.45594000000E+02  0.51100000000E-03 0.  1.
         11   -1    0    0    0    0 -0.00000000000E+00 -0.00000000000E+00 -0.45593999997E+02  0.45594000000E+02  0.51100000000E-03 0. -1.
    9900012    2    1    2    0    0  0.23922371902E+02  0.28227989930E+02 -0.22683174340E+02  0.47787243197E+02  0.19999873033E+02 0.  0.
        -12    1    1    2    0    0 -0.23922371902E+02 -0.28227989930E+02  0.22683174340E+02  0.43400756803E+02  0.00000000000E+00 0.  1.
         11    1    3    3    0    0  0.17713236429E+02  0.84471387635E+01 -0.66969853289E+01  0.20735537390E+02  0.51100000000E-03 0. -1.
        -11    1    3    3    0    0  0.83161586552E+00  0.71198504150E+01 -0.20168553763E+01  0.74465804736E+01  0.51100000000E-03 0.  1.
         12    1    3    3    0    0  0.53775196071E+01  0.12661000752E+02 -0.13969333635E+02  0.19605125334E+02  0.00000000000E+00 0. -1.
</event>
<event>
 7    1  0.1542786E-009  0.4778727E+02  0.7816164E-02  0.1312668E+00
        -11   -1    0    0    0    0  0.00000000000E+00  0.00000000000E+00  0.45593999997E+02  0.45594000000E+02  0.51100000000E-03 0.  1.
         11   -1    0    0    0    0 -0.00000000000E+00 -0.00000000000E+00 -0.45593999997E+02  0.45594000000E+02  0.51100000000E-03 0. -1.
    9900012    2    1    2    0    0  0.26865675316E+02  0.28576717985E+02 -0.18580365375E+02  0.47787270761E+02  0.19999998708E+02 0.  0.
        -12    1    1    2    0    0 -0.26865675316E+02 -0.28576717985E+02  0.18580365375E+02  0.43400729239E+02  0.00000000000E+00 0.  1.
         11    1    3    3    0    0  0.18359045019E+02  0.11529779831E+02 -0.42321134078E+01  0.22088484356E+02  0.51100000000E-03 0. -1.
        -11    1    3    3    0    0  0.24294945404E+01  0.11511957415E+02 -0.38796640802E+01  0.12388680353E+02  0.51100000000E-03 0.  1.
        -12    1    3    3    0    0  0.60771357559E+01  0.55349807393E+01 -0.10468587887E+02  0.13310106053E+02  0.00000000000E+00 0.  1.
</event>
<event>
 7    1  0.1542786E-009  0.4778727E+02  0.7816164E-02  0.1312668E+00
        -11   -1    0    0    0    0  0.00000000000E+00  0.00000000000E+00  0.45593999997E+02  0.45594000000E+02  0.51100000000E-03 0. -1.
         11   -1    0    0    0    0 -0.00000000000E+00 -0.00000000000E+00 -0.45593999997E+02  0.45594000000E+02  0.51100000000E-03 0.  1.
    9900012    2    1    2    0    0 -0.24140749007E+02 -0.28172480340E+02  0.22520189264E+02  0.47787270333E+02  0.19999996758E+02 0.  0.
        -12    1    1    2    0    0  0.24140749007E+02  0.28172480340E+02 -0.22520189264E+02  0.43400729667E+02  0.00000000000E+00 0.  1.
         11    1    3    3    0    0 -0.18745751920E+02 -0.10739065787E+02  0.17592210369E+02  0.27860664295E+02  0.51100000000E-03 0. -1.
        -11    1    3    3    0    0  0.27520933471E+00 -0.10662409186E+01 -0.11285228750E+01  0.15767606080E+01  0.51100000000E-03 0.  1.
         12    1    3    3    0    0 -0.56702064217E+01 -0.16367173635E+02  0.60565017697E+01  0.18349845431E+02  0.00000000000E+00 0. -1.
</event>
<event>
 7    1  0.1542786E-009  0.4778727E+02  0.7816164E-02  0.1312668E+00
        -11   -1    0    0    0    0  0.00000000000E+00  0.00000000000E+00  0.45593999997E+02  0.45594000000E+02  0.51100000000E-03 0.  1.
         11   -1    0    0    0    0 -0.00000000000E+00 -0.00000000000E+00 -0.45593999997E+02  0.45594000000E+02  0.51100000000E-03 0. -1.
    9900012    2    1    2    0    0  0.18136230379E+02 -0.18328661238E+02 -0.34910748445E+02  0.47787273830E+02  0.20000012700E+02 0.  0.
        -12    1    1    2    0    0 -0.18136230379E+02  0.18328661238E+02  0.34910748445E+02  0.43400726170E+02  0.00000000000E+00 0.  1.
         11    1    3    3    0    0  0.12775017023E+02 -0.90246200097E+01 -0.16871563182E+02  0.23006400647E+02  0.51100000000E-03 0. -1.
        -11    1    3    3    0    0  0.22310077433E+01 -0.70758365682E+01 -0.12082804871E+01  0.75169675194E+01  0.51100000000E-03 0.  1.
         12    1    3    3    0    0  0.31302056118E+01 -0.22282046599E+01 -0.16830904776E+02  0.17263905664E+02  0.00000000000E+00 0. -1.
</event>
<event>
 7    1  0.1542786E-009  0.4778728E+02  0.7816164E-02  0.1312668E+00
        -11   -1    0    0    0    0  0.00000000000E+00  0.00000000000E+00  0.45593999997E+02  0.45594000000E+02  0.51100000000E-03 0.  1.
         11   -1    0    0    0    0 -0.00000000000E+00 -0.00000000000E+00 -0.45593999997E+02  0.45594000000E+02  0.51100000000E-03 0. -1.
    9900012    2    1    2    0    0 -0.17550714260E+02 -0.36518322523E+02 -0.15556586378E+02  0.47787276150E+02  0.20000023280E+02 0.  0.
        -12    1    1    2    0    0  0.17550714260E+02  0.36518322523E+02  0.15556586378E+02  0.43400723850E+02  0.00000000000E+00 0.  1.
         11    1    3    3    0    0 -0.13976926921E+02 -0.32162699372E+02 -0.74777398885E+01  0.35856802858E+02  0.51100000000E-03 0. -1.
        -11    1    3    3    0    0  0.51380921745E+00 -0.46325831585E+01 -0.47088953468E+01  0.66255959943E+01  0.51100000000E-03 0.  1.
         12    1    3    3    0    0 -0.40875965559E+01  0.27696000727E+00 -0.33699511422E+01  0.53048772983E+01  0.00000000000E+00 0. -1.
</event>
<event>
 7    1  0.1542786E-009  0.4778727E+02  0.7816164E-02  0.1312668E+00
        -11   -1    0    0    0    0  0.00000000000E+00  0.00000000000E+00  0.45593999997E+02  0.45594000000E+02  0.51100000000E-03 0.  1.
         11   -1    0    0    0    0 -0.00000000000E+00 -0.00000000000E+00 -0.45593999997E+02  0.45594000000E+02  0.51100000000E-03 0. -1.
    9900012    2    1    2    0    0 -0.28703174205E+02 -0.30496453154E+02 -0.11389374955E+02  0.47787265833E+02  0.19999976238E+02 0.  0.
        -12    1    1    2    0    0  0.28703174205E+02  0.30496453154E+02  0.11389374955E+02  0.43400734167E+02  0.00000000000E+00 0.  1.
         11    1    3    3    0    0 -0.28738894445E+02 -0.21521171771E+02 -0.93947576765E+01  0.37112617266E+02  0.51100000000E-03 0. -1.
        -11    1    3    3    0    0 -0.20567371146E+01 -0.78150848870E+01 -0.17596867324E+01  0.82705632823E+01  0.51100000000E-03 0.  1.
        -12    1    3    3    0    0  0.20924573548E+01 -0.11601964960E+01 -0.23493054650E+00  0.24040852840E+01  0.00000000000E+00 0.  1.
</event>
<event>
 7    1  0.1542786E-009  0.4778728E+02  0.7816164E-02  0.1312668E+00
        -11   -1    0    0    0    0  0.00000000000E+00  0.00000000000E+00  0.45593999997E+02  0.45594000000E+02  0.51100000000E-03 0.  1.
         11   -1    0    0    0    0 -0.00000000000E+00 -0.00000000000E+00 -0.45593999997E+02  0.45594000000E+02  0.51100000000E-03 0. -1.
    9900012    2    1    2    0    0  0.31999066587E+02 -0.22038740559E+02  0.19338473905E+02  0.47787275111E+02  0.20000018543E+02 0.  0.
        -12    1    1    2    0    0 -0.31999066587E+02  0.22038740559E+02 -0.19338473905E+02  0.43400724889E+02  0.00000000000E+00 0.  1.
         11    1    3    3    0    0  0.17142174532E+02 -0.88857901475E+01  0.44701780023E+01  0.19819028883E+02  0.51100000000E-03 0. -1.
        -11    1    3    3    0    0  0.23191165967E+01  0.26425865791E+01  0.19831213259E+01  0.40366243411E+01  0.51100000000E-03 0.  1.
        -12    1    3    3    0    0  0.12537775458E+02 -0.15795536991E+02  0.12885174577E+02  0.23931621887E+02  0.00000000000E+00 0.  1.
</event>
<event>
 7    1  0.1542786E-009  0.4778727E+02  0.7816164E-02  0.1312668E+00
        -11   -1    0    0    0    0  0.00000000000E+00  0.00000000000E+00  0.45593999997E+02  0.45594000000E+02  0.51100000000E-03 0.  1.
         11   -1    0    0    0    0 -0.00000000000E+00 -0.00000000000E+00 -0.45593999997E+02  0.45594000000E+02  0.51100000000E-03 0. -1.
    9900012    2    1    2    0    0  0.13611453805E+02 -0.12913567541E+02 -0.39135552525E+02  0.47787269905E+02  0.19999994807E+02 0.  0.
        -12    1    1    2    0    0 -0.13611453805E+02  0.12913567541E+02  0.39135552525E+02  0.43400730095E+02  0.00000000000E+00 0.  1.
         11    1    3    3    0    0  0.67694835233E+01 -0.80054732562E+01 -0.14023513316E+02  0.17509210011E+02  0.51100000000E-03 0. -1.
        -11    1    3    3    0    0  0.51358068089E+01  0.48172703778E+01 -0.10341235799E+02  0.12510945751E+02  0.51100000000E-03 0.  1.
        -12    1    3    3    0    0  0.17061634731E+01 -0.97253646629E+01 -0.14770803409E+02  0.17767114143E+02  0.00000000000E+00 0.  1.
</event>
<event>
 7    1  0.1542786E-009  0.4778727E+02  0.7816164E-02  0.1312668E+00
        -11   -1    0    0    0    0  0.00000000000E+00  0.00000000000E+00  0.45593999997E+02  0.45594000000E+02  0.51100000000E-03 0.  1.
         11   -1    0    0    0    0 -0.00000000000E+00 -0.00000000000E+00 -0.45593999997E+02  0.45594000000E+02  0.51100000000E-03 0. -1.
    9900012    2    1    2    0    0  0.76138763487E+01 -0.24961397869E+02 -0.34678246425E+02  0.47787271069E+02  0.20000000110E+02 0.  0.
        -12    1    1    2    0    0 -0.76138763487E+01  0.24961397869E+02  0.34678246425E+02  0.43400728931E+02  0.00000000000E+00 0.  1.
         11    1    3    3    0    0  0.88686001244E+01 -0.84053714756E+01 -0.15225232271E+02  0.19522039745E+02  0.51100000000E-03 0. -1.
        -11    1    3    3    0    0 -0.70466530164E+00 -0.24178312576E+01  0.15380110776E+01  0.29509218074E+01  0.51100000000E-03 0.  1.
         12    1    3    3    0    0 -0.55005847408E+00 -0.14138195136E+02 -0.20991025231E+02  0.25314309517E+02  0.00000000000E+00 0. -1.
</event>
<event>
 7    1  0.1542786E-009  0.4778727E+02  0.7816164E-02  0.1312668E+00
        -11   -1    0    0    0    0  0.00000000000E+00  0.00000000000E+00  0.45593999997E+02  0.45594000000E+02  0.51100000000E-03 0.  1.
         11   -1    0    0    0    0 -0.00000000000E+00 -0.00000000000E+00 -0.45593999997E+02  0.45594000000E+02  0.51100000000E-03 0. -1.
    9900012    2    1    2    0    0 -0.32038404851E+02  0.93170389717E+01 -0.27755297536E+02  0.47787272564E+02  0.20000006929E+02 0.  0.
        -12    1    1    2    0    0  0.32038404851E+02 -0.93170389717E+01  0.27755297536E+02  0.43400727436E+02  0.00000000000E+00 0.  1.
         11    1    3    3    0    0 -0.25765883031E+01  0.35737139208E+01 -0.89783847094E+01  0.10001081478E+02  0.51100000000E-03 0. -1.
        -11    1    3    3    0    0 -0.93799425881E+01  0.47646838557E+01 -0.37007245430E+00  0.10527226087E+02  0.51100000000E-03 0.  1.
         12    1    3    3    0    0 -0.20081873960E+02  0.97864119522E+00 -0.18406840373E+02  0.27258965000E+02  0.00000000000E+00 0. -1.
</event>
<event>
 7    1  0.1542786E-009  0.4778726E+02  0.7816164E-02  0.1312668E+00
        -11   -1    0    0    0    0  0.00000000000E+00  0.00000000000E+00  0.45593999997E+02  0.45594000000E+02  0.51100000000E-03 0.  1.
         11   -1    0    0    0    0 -0.00000000000E+00 -0.00000000000E+00 -0.45593999997E+02  0.45594000000E+02  0.51100000000E-03 0. -1.
    9900012    2    1    2    0    0 -0.29580637886E+02  0.21636153659E+02 -0.23248383701E+02  0.47787255449E+02  0.19999928893E+02 0.  0.
        -12    1    1    2    0    0  0.29580637886E+02 -0.21636153659E+02  0.23248383701E+02  0.43400744551E+02  0.00000000000E+00 0.  1.
         11    1    3    3    0    0 -0.62315059527E+01  0.16045459067E+01 -0.11827723145E+02  0.13464815968E+02  0.51100000000E-03 0. -1.
        -11    1    3    3    0    0 -0.22862578712E+02  0.15490962547E+02 -0.11035108526E+02  0.29739553568E+02  0.51100000000E-03 0.  1.
         12    1    3    3    0    0 -0.48655322141E+00  0.45406452053E+01 -0.38555202979E+00  0.45828859123E+01  0.00000000000E+00 0. -1.
</event>
<event>
 7    1  0.1542786E-009  0.4778727E+02  0.7816164E-02  0.1312668E+00
        -11   -1    0    0    0    0  0.00000000000E+00  0.00000000000E+00  0.45593999997E+02  0.45594000000E+02  0.51100000000E-03 0. -1.
         11   -1    0    0    0    0 -0.00000000000E+00 -0.00000000000E+00 -0.45593999997E+02  0.45594000000E+02  0.51100000000E-03 0.  1.
    9900012    2    1    2    0    0 -0.18321173979E+02 -0.78803484710E+01  0.38546829519E+02  0.47787269891E+02  0.19999994743E+02 0.  0.
        -12    1    1    2    0    0  0.18321173979E+02  0.78803484710E+01 -0.38546829519E+02  0.43400730109E+02  0.00000000000E+00 0.  1.
         11    1    3    3    0    0 -0.13345240446E+02 -0.87853947629E+01  0.22969381206E+02  0.27979833398E+02  0.51100000000E-03 0. -1.
        -11    1    3    3    0    0 -0.10935305166E+01  0.24661830917E+00  0.15822329165E+02  0.15861990103E+02  0.51100000000E-03 0.  1.
        -12    1    3    3    0    0 -0.38824030158E+01  0.65842798280E+00 -0.24488085186E+00  0.39454463902E+01  0.00000000000E+00 0.  1.
</event>
<event>
 7    1  0.1542786E-009  0.4778727E+02  0.7816164E-02  0.1312668E+00
        -11   -1    0    0    0    0  0.00000000000E+00  0.00000000000E+00  0.45593999997E+02  0.45594000000E+02  0.51100000000E-03 0.  1.
         11   -1    0    0    0    0 -0.00000000000E+00 -0.00000000000E+00 -0.45593999997E+02  0.45594000000E+02  0.51100000000E-03 0. -1.
    9900012    2    1    2    0    0 -0.21126712812E+02  0.18858052778E+02 -0.32888587575E+02  0.47787270265E+02  0.19999996446E+02 0.  0.
        -12    1    1    2    0    0  0.21126712812E+02 -0.18858052778E+02  0.32888587575E+02  0.43400729735E+02  0.00000000000E+00 0.  1.
         11    1    3    3    0    0 -0.11534801216E+02  0.73166405849E+01 -0.71185458125E+01  0.15403199775E+02  0.51100000000E-03 0.  1.
        -11    1    3    3    0    0  0.18272584523E+01  0.11488260616E+01 -0.10312609344E+02  0.10536061243E+02  0.51100000000E-03 0. -1.
        -12    1    3    3    0    0 -0.11419170048E+02  0.10392586132E+02 -0.15457432419E+02  0.21848009247E+02  0.00000000000E+00 0.  1.
</event>
<event>
 7    1  0.1542786E-009  0.4778727E+02  0.7816164E-02  0.1312668E+00
        -11   -1    0    0    0    0  0.00000000000E+00  0.00000000000E+00  0.45593999997E+02  0.45594000000E+02  0.51100000000E-03 0. -1.
         11   -1    0    0    0    0 -0.00000000000E+00 -0.00000000000E+00 -0.45593999997E+02  0.45594000000E+02  0.51100000000E-03 0.  1.
    9900012    2    1    2    0    0  0.19884087697E+02 -0.59911348638E+01  0.38109744938E+02  0.47787270747E+02  0.19999998643E+02 0.  0.
        -12    1    1    2    0    0 -0.19884087697E+02  0.59911348638E+01 -0.38109744938E+02  0.43400729253E+02  0.00000000000E+00 0.  1.
         11    1    3    3    0    0  0.11506454975E+02  0.32887676941E+00  0.95400324503E+01  0.14950547998E+02  0.51100000000E-03 0. -1.
        -11    1    3    3    0    0 -0.29688733189E+01 -0.32698170424E+01  0.70732992751E+01  0.83389133088E+01  0.51100000000E-03 0.  1.
         12    1    3    3    0    0  0.11346506041E+02 -0.30501945907E+01  0.21496413212E+02  0.24497809440E+02  0.00000000000E+00 0. -1.
</event>
<event>
 7    1  0.1542786E-009  0.4778727E+02  0.7816164E-02  0.1312668E+00
        -11   -1    0    0    0    0  0.00000000000E+00  0.00000000000E+00  0.45593999997E+02  0.45594000000E+02  0.51100000000E-03 0.  1.
         11   -1    0    0    0    0 -0.00000000000E+00 -0.00000000000E+00 -0.45593999997E+02  0.45594000000E+02  0.51100000000E-03 0. -1.
    9900012    2    1    2    0    0 -0.10086421644E+02 -0.54969929677E-01 -0.42212374123E+02  0.47787268988E+02  0.19999990626E+02 0.  0.
        -12    1    1    2    0    0  0.10086421644E+02  0.54969929677E-01  0.42212374123E+02  0.43400731012E+02  0.00000000000E+00 0.  1.
         11    1    3    3    0    0 -0.12108205277E+02  0.68080791418E-01 -0.21116053719E+02  0.24341343326E+02  0.51100000000E-03 0. -1.
        -11    1    3    3    0    0 -0.39010248522E+01 -0.14261490936E+01 -0.80183467402E+01  0.90302702529E+01  0.51100000000E-03 0.  1.
        -12    1    3    3    0    0  0.59228084853E+01  0.13030983725E+01 -0.13077973664E+02  0.14415655409E+02  0.00000000000E+00 0.  1.
</event>
<event>
 7    1  0.1542786E-009  0.4778727E+02  0.7816164E-02  0.1312668E+00
        -11   -1    0    0    0    0  0.00000000000E+00  0.00000000000E+00  0.45593999997E+02  0.45594000000E+02  0.51100000000E-03 0.  1.
         11   -1    0    0    0    0 -0.00000000000E+00 -0.00000000000E+00 -0.45593999997E+02  0.45594000000E+02  0.51100000000E-03 0. -1.
    9900012    2    1    2    0    0 -0.16354548237E+02 -0.13181346338E+02 -0.37978995819E+02  0.47787271172E+02  0.20000000583E+02 0.  0.
        -12    1    1    2    0    0  0.16354548237E+02  0.13181346338E+02  0.37978995819E+02  0.43400728828E+02  0.00000000000E+00 0.  1.
         11    1    3    3    0    0 -0.70985076881E+01 -0.83084903460E+01 -0.22703511412E+02  0.25196611953E+02  0.51100000000E-03 0. -1.
        -11    1    3    3    0    0 -0.64549814759E+01  0.37107263896E+01 -0.53218518585E+01  0.91519606456E+01  0.51100000000E-03 0.  1.
         12    1    3    3    0    0 -0.28010590734E+01 -0.85835823816E+01 -0.99536325492E+01  0.13438698574E+02  0.00000000000E+00 0. -1.
</event>
<event>
 7    1  0.1542786E-009  0.4778727E+02  0.7816164E-02  0.1312668E+00
        -11   -1    0    0    0    0  0.00000000000E+00  0.00000000000E+00  0.45593999997E+02  0.45594000000E+02  0.51100000000E-03 0. -1.
         11   -1    0    0    0    0 -0.00000000000E+00 -0.00000000000E+00 -0.45593999997E+02  0.45594000000E+02  0.51100000000E-03 0.  1.
    9900012    2    1    2    0    0  0.18041084376E+02 -0.20092193437E+02  0.33977141972E+02  0.47787272596E+02  0.20000007074E+02 0.  0.
        -12    1    1    2    0    0 -0.18041084376E+02  0.20092193437E+02 -0.33977141972E+02  0.43400727404E+02  0.00000000000E+00 0.  1.
         11    1    3    3    0    0 -0.19301797192E+01 -0.10284846285E+02  0.96117411873E+01  0.14208772845E+02  0.51100000000E-03 0.  1.
        -11    1    3    3    0    0  0.60814176321E+01 -0.23273281140E+00  0.82169445703E+01  0.10225262017E+02  0.51100000000E-03 0. -1.
        -12    1    3    3    0    0  0.13889846463E+02 -0.95746143416E+01  0.16148456214E+02  0.23353237734E+02  0.00000000000E+00 0.  1.
</event>
<event>
 7    1  0.1542786E-009  0.4778727E+02  0.7816164E-02  0.1312668E+00
        -11   -1    0    0    0    0  0.00000000000E+00  0.00000000000E+00  0.45593999997E+02  0.45594000000E+02  0.51100000000E-03 0. -1.
         11   -1    0    0    0    0 -0.00000000000E+00 -0.00000000000E+00 -0.45593999997E+02  0.45594000000E+02  0.51100000000E-03 0.  1.
    9900012    2    1    2    0    0 -0.34990386621E+02 -0.18760836717E+02 -0.17530753279E+02  0.47787268891E+02  0.19999990184E+02 0.  0.
        -12    1    1    2    0    0  0.34990386621E+02  0.18760836717E+02  0.17530753279E+02  0.43400731109E+02  0.00000000000E+00 0.  1.
         11    1    3    3    0    0 -0.12494718616E+02 -0.70017174619E+01 -0.57714411855E+01  0.15441877293E+02  0.51100000000E-03 0. -1.
        -11    1    3    3    0    0  0.20496184553E+01 -0.29023046305E+01 -0.34691602493E+01  0.49658212892E+01  0.51100000000E-03 0.  1.
         12    1    3    3    0    0 -0.24545286461E+02 -0.88568146243E+01 -0.82901518442E+01  0.27379570309E+02  0.00000000000E+00 0. -1.
</event>
<event>
 7    1  0.1542786E-009  0.4778727E+02  0.7816164E-02  0.1312668E+00
        -11   -1    0    0    0    0  0.00000000000E+00  0.00000000000E+00  0.45593999997E+02  0.45594000000E+02  0.51100000000E-03 0.  1.
         11   -1    0    0    0    0 -0.00000000000E+00 -0.00000000000E+00 -0.45593999997E+02  0.45594000000E+02  0.51100000000E-03 0. -1.
    9900012    2    1    2    0    0 -0.12752517425E+02  0.41477097399E+02 -0.80452868864E+00  0.47787267567E+02  0.19999984145E+02 0.  0.
        -12    1    1    2    0    0  0.12752517425E+02 -0.41477097399E+02  0.80452868864E+00  0.43400732433E+02  0.00000000000E+00 0.  1.
         11    1    3    3    0    0 -0.46956724281E+00  0.29781885274E+02 -0.35691804913E+01  0.29998670529E+02  0.51100000000E-03 0. -1.
        -11    1    3    3    0    0 -0.53154197980E+01  0.43792825187E+01 -0.10948524507E+01  0.69735575682E+01  0.51100000000E-03 0.  1.
         12    1    3    3    0    0 -0.69675303838E+01  0.73159296060E+01  0.38595042534E+01  0.10815039470E+02  0.00000000000E+00 0. -1.
</event>
<event>
 7    1  0.1542786E-009  0.4778727E+02  0.7816164E-02  0.1312668E+00
        -11   -1    0    0    0    0  0.00000000000E+00  0.00000000000E+00  0.45593999997E+02  0.45594000000E+02  0.51100000000E-03 0. -1.
         11   -1    0    0    0    0 -0.00000000000E+00 -0.00000000000E+00 -0.45593999997E+02  0.45594000000E+02  0.51100000000E-03 0.  1.
    9900012    2    1    2    0    0  0.30895143732E+02  0.13355226405E+02 -0.27399841569E+02  0.47787270783E+02  0.19999998808E+02 0.  0.
        -12    1    1    2    0    0 -0.30895143732E+02 -0.13355226405E+02  0.27399841569E+02  0.43400729217E+02  0.00000000000E+00 0.  1.
         11    1    3    3    0    0  0.20007003282E+02  0.82615736275E+01 -0.77700787698E+01  0.22997997815E+02  0.51100000000E-03 0. -1.
        -11    1    3    3    0    0  0.22190610842E+01  0.57277893440E+01 -0.57595448953E+01  0.84204608263E+01  0.51100000000E-03 0.  1.
        -12    1    3    3    0    0  0.86690793656E+01 -0.63413656676E+00 -0.13870217904E+02  0.16368812142E+02  0.00000000000E+00 0.  1.
</event>
<event>
 7    1  0.1542786E-009  0.4778727E+02  0.7816164E-02  0.1312668E+00
        -11   -1    0    0    0    0  0.00000000000E+00  0.00000000000E+00  0.45593999997E+02  0.45594000000E+02  0.51100000000E-03 0.  1.
         11   -1    0    0    0    0 -0.00000000000E+00 -0.00000000000E+00 -0.45593999997E+02  0.45594000000E+02  0.51100000000E-03 0. -1.
    9900012    2    1    2    0    0  0.39745047190E+02 -0.11099382248E+02  0.13444647559E+02  0.47787267167E+02  0.19999982322E+02 0.  0.
        -12    1    1    2    0    0 -0.39745047190E+02  0.11099382248E+02 -0.13444647559E+02  0.43400732833E+02  0.00000000000E+00 0.  1.
         11    1    3    3    0    0  0.15370712166E+02 -0.78723622793E+01  0.61998139548E+01  0.18348585059E+02  0.51100000000E-03 0.  1.
        -11    1    3    3    0    0 -0.33778399906E-01  0.29649156724E+00 -0.27959611214E+01  0.28118405153E+01  0.51100000000E-03 0. -1.
         12    1    3    3    0    0  0.24408113424E+02 -0.35235115360E+01  0.10040794726E+02  0.26626841593E+02  0.00000000000E+00 0. -1.
</event>
<event>
 7    1  0.1542786E-009  0.4778726E+02  0.7816164E-02  0.1312668E+00
        -11   -1    0    0    0    0  0.00000000000E+00  0.00000000000E+00  0.45593999997E+02  0.45594000000E+02  0.51100000000E-03 0.  1.
         11   -1    0    0    0    0 -0.00000000000E+00 -0.00000000000E+00 -0.45593999997E+02  0.45594000000E+02  0.51100000000E-03 0. -1.
    9900012    2    1    2    0    0  0.39285759504E+02 -0.16959747475E+02  0.72539616840E+01  0.47787263896E+02  0.19999967409E+02 0.  0.
        -12    1    1    2    0    0 -0.39285759504E+02  0.16959747475E+02 -0.72539616840E+01  0.43400736104E+02  0.00000000000E+00 0.  1.
         11    1    3    3    0    0  0.25075853320E+02 -0.12998165958E+02  0.23535988582E+01  0.28342374034E+02  0.51100000000E-03 0. -1.
        -11    1    3    3    0    0  0.13174693960E+02  0.14855667523E+01  0.31062639331E+01  0.13617207695E+02  0.51100000000E-03 0.  1.
         12    1    3    3    0    0  0.10352122237E+01 -0.54471482695E+01  0.17940988927E+01  0.58276821683E+01  0.00000000000E+00 0. -1.
</event>
<event>
 7    1  0.1542786E-009  0.4778727E+02  0.7816164E-02  0.1312668E+00
        -11   -1    0    0    0    0  0.00000000000E+00  0.00000000000E+00  0.45593999997E+02  0.45594000000E+02  0.51100000000E-03 0.  1.
         11   -1    0    0    0    0 -0.00000000000E+00 -0.00000000000E+00 -0.45593999997E+02  0.45594000000E+02  0.51100000000E-03 0. -1.
    9900012    2    1    2    0    0  0.28231271776E+02 -0.32940327229E+02  0.12464238362E+01  0.47787269172E+02  0.19999991463E+02 0.  0.
        -12    1    1    2    0    0 -0.28231271776E+02  0.32940327229E+02 -0.12464238362E+01  0.43400730828E+02  0.00000000000E+00 0.  1.
         11    1    3    3    0    0  0.25011009339E+02 -0.14452288517E+02 -0.38867049848E+00  0.28888930346E+02  0.51100000000E-03 0. -1.
        -11    1    3    3    0    0  0.50589151360E+00 -0.66637686458E+01  0.24890536318E+00  0.66875775083E+01  0.51100000000E-03 0.  1.
         12    1    3    3    0    0  0.27143709241E+01 -0.11824270065E+02  0.13861889715E+01  0.12210761318E+02  0.00000000000E+00 0. -1.
</event>
<event>
 7    1  0.1542786E-009  0.4778727E+02  0.7816164E-02  0.1312668E+00
        -11   -1    0    0    0    0  0.00000000000E+00  0.00000000000E+00  0.45593999997E+02  0.45594000000E+02  0.51100000000E-03 0. -1.
         11   -1    0    0    0    0 -0.00000000000E+00 -0.00000000000E+00 -0.45593999997E+02  0.45594000000E+02  0.51100000000E-03 0.  1.
    9900012    2    1    2    0    0 -0.20343010680E+02 -0.18396600317E+01  0.38293616965E+02  0.47787268061E+02  0.19999986398E+02 0.  0.
        -12    1    1    2    0    0  0.20343010680E+02  0.18396600317E+01 -0.38293616965E+02  0.43400731939E+02  0.00000000000E+00 0.  1.
         11    1    3    3    0    0 -0.43042887707E+01  0.44627411826E+01  0.91193747523E+01  0.11027509094E+02  0.51100000000E-03 0. -1.
        -11    1    3    3    0    0  0.20225597148E+01  0.11536227598E+01  0.11524098598E+01  0.25980073168E+01  0.51100000000E-03 0.  1.
         12    1    3    3    0    0 -0.18061281624E+02 -0.74560239741E+01  0.28021832353E+02  0.34161751650E+02  0.00000000000E+00 0. -1.
</event>
<event>
 7    1  0.1542786E-009  0.4778727E+02  0.7816164E-02  0.1312668E+00
        -11   -1    0    0    0    0  0.00000000000E+00  0.00000000000E+00  0.45593999997E+02  0.45594000000E+02  0.51100000000E-03 0.  1.
         11   -1    0    0    0    0 -0.00000000000E+00 -0.00000000000E+00 -0.45593999997E+02  0.45594000000E+02  0.51100000000E-03 0. -1.
    9900012    2    1    2    0    0 -0.12560999532E+02 -0.36323766838E+02  0.20160070989E+02  0.47787271794E+02  0.20000003417E+02 0.  0.
        -12    1    1    2    0    0  0.12560999532E+02  0.36323766838E+02 -0.20160070989E+02  0.43400728206E+02  0.00000000000E+00 0.  1.
         11    1    3    3    0    0 -0.25699598003E+01 -0.52638026459E+01 -0.84931341081E+00  0.59189226385E+01  0.51100000000E-03 0. -1.
        -11    1    3    3    0    0 -0.99130373111E+01 -0.11850530144E+02  0.15498400466E+02  0.21883870560E+02  0.51100000000E-03 0.  1.
         12    1    3    3    0    0 -0.78002420616E-01 -0.19209434047E+02  0.55109839347E+01  0.19984478595E+02  0.00000000000E+00 0. -1.
</event>
<event>
 7    1  0.1542786E-009  0.4778727E+02  0.7816164E-02  0.1312668E+00
        -11   -1    0    0    0    0  0.00000000000E+00  0.00000000000E+00  0.45593999997E+02  0.45594000000E+02  0.51100000000E-03 0.  1.
         11   -1    0    0    0    0 -0.00000000000E+00 -0.00000000000E+00 -0.45593999997E+02  0.45594000000E+02  0.51100000000E-03 0. -1.
    9900012    2    1    2    0    0  0.10880077498E+02 -0.16959537787E+02 -0.38439839941E+02  0.47787270709E+02  0.19999998471E+02 0.  0.
        -12    1    1    2    0    0 -0.10880077498E+02  0.16959537787E+02  0.38439839941E+02  0.43400729291E+02  0.00000000000E+00 0.  1.
         11    1    3    3    0    0  0.70406180871E+01 -0.32945306302E+01 -0.16051410394E+02  0.17834573474E+02  0.51100000000E-03 0. -1.
        -11    1    3    3    0    0  0.14108239348E+01  0.44792618774E+00  0.14957809618E+01  0.21043818549E+01  0.51100000000E-03 0.  1.
         12    1    3    3    0    0  0.24286354756E+01 -0.14112933345E+02 -0.23884210509E+02  0.27848315380E+02  0.00000000000E+00 0. -1.
</event>
<event>
 7    1  0.1542786E-009  0.4778727E+02  0.7816164E-02  0.1312668E+00
        -11   -1    0    0    0    0  0.00000000000E+00  0.00000000000E+00  0.45593999997E+02  0.45594000000E+02  0.51100000000E-03 0. -1.
         11   -1    0    0    0    0 -0.00000000000E+00 -0.00000000000E+00 -0.45593999997E+02  0.45594000000E+02  0.51100000000E-03 0.  1.
    9900012    2    1    2    0    0  0.10527074803E+02 -0.35311689957E+02 -0.22932254667E+02  0.47787273559E+02  0.20000011464E+02 0.  0.
        -12    1    1    2    0    0 -0.10527074803E+02  0.35311689957E+02  0.22932254667E+02  0.43400726441E+02  0.00000000000E+00 0.  1.
         11    1    3    3    0    0  0.43732845745E+01 -0.10673633485E+02 -0.15056249448E+02  0.18966884758E+02  0.51100000000E-03 0.  1.
        -11    1    3    3    0    0  0.48830957975E+01 -0.44531209506E+01  0.10886145117E+01  0.66977602662E+01  0.51100000000E-03 0. -1.
         12    1    3    3    0    0  0.12706944312E+01 -0.20184935522E+02 -0.89646197307E+01  0.22122628534E+02  0.00000000000E+00 0. -1.
</event>
<event>
 7    1  0.1542786E-009  0.4778727E+02  0.7816164E-02  0.1312668E+00
        -11   -1    0    0    0    0  0.00000000000E+00  0.00000000000E+00  0.45593999997E+02  0.45594000000E+02  0.51100000000E-03 0. -1.
         11   -1    0    0    0    0 -0.00000000000E+00 -0.00000000000E+00 -0.45593999997E+02  0.45594000000E+02  0.51100000000E-03 0.  1.
    9900012    2    1    2    0    0  0.42153797761E+02 -0.66175856307E-01 -0.10328414255E+02  0.47787272058E+02  0.20000004620E+02 0.  0.
        -12    1    1    2    0    0 -0.42153797761E+02  0.66175856307E-01  0.10328414255E+02  0.43400727942E+02  0.00000000000E+00 0.  1.
         11    1    3    3    0    0 -0.66487937366E+00 -0.15829105247E+01 -0.40390251731E+01  0.43887805733E+01  0.51100000000E-03 0.  1.
        -11    1    3    3    0    0  0.15263672300E+02  0.95582138502E+00 -0.93226165826E+00  0.15321958056E+02  0.51100000000E-03 0. -1.
        -12    1    3    3    0    0  0.27555004834E+02  0.56091328338E+00 -0.53571274239E+01  0.28076533429E+02  0.00000000000E+00 0.  1.
</event>
<event>
 7    1  0.2022762E-009  0.4778727E+02  0.7816164E-02  0.1312668E+00
        -11   -1    0    0    0    0  0.00000000000E+00  0.00000000000E+00  0.45593999997E+02  0.45594000000E+02  0.51100000000E-03 0.  1.
         11   -1    0    0    0    0 -0.00000000000E+00 -0.00000000000E+00 -0.45593999997E+02  0.45594000000E+02  0.51100000000E-03 0. -1.
    9900012    2    1    2    0    0 -0.16150920158E+02  0.39334661074E+02 -0.86922721351E+01  0.47787269838E+02  0.19999994498E+02 0.  0.
        -12    1    1    2    0    0  0.16150920158E+02 -0.39334661074E+02  0.86922721351E+01  0.43400730162E+02  0.00000000000E+00 0.  1.
         11    1    3    3    0    0 -0.14668809588E+02  0.27240348386E+02 -0.24058157880E+01  0.31032217207E+02  0.51100000000E-03 0. -1.
        -11    1    3    3    0    0 -0.39292125277E+01  0.24000893866E+01 -0.47923265906E+01  0.66457155043E+01  0.51100000000E-03 0.  1.
        -12    1    3    3    0    0  0.24471019576E+01  0.96942233018E+01 -0.14941297564E+01  0.10109337127E+02  0.00000000000E+00 0.  1.
</event>
<event>
 7    1  0.1542786E-009  0.4778727E+02  0.7816164E-02  0.1312668E+00
        -11   -1    0    0    0    0  0.00000000000E+00  0.00000000000E+00  0.45593999997E+02  0.45594000000E+02  0.51100000000E-03 0. -1.
         11   -1    0    0    0    0 -0.00000000000E+00 -0.00000000000E+00 -0.45593999997E+02  0.45594000000E+02  0.51100000000E-03 0.  1.
    9900012    2    1    2    0    0 -0.35022031431E+02 -0.24628816802E+02  0.71064589328E+01  0.47787273495E+02  0.20000011172E+02 0.  0.
        -12    1    1    2    0    0  0.35022031431E+02  0.24628816802E+02 -0.71064589328E+01  0.43400726505E+02  0.00000000000E+00 0.  1.
         11    1    3    3    0    0 -0.19117631243E+02 -0.95283563416E+01 -0.21082162822E+01  0.21464341943E+02  0.51100000000E-03 0. -1.
        -11    1    3    3    0    0 -0.26058295088E+01  0.13310181526E+01  0.32194367417E+01  0.43504861736E+01  0.51100000000E-03 0.  1.
         12    1    3    3    0    0 -0.13298570679E+02 -0.16431478613E+02  0.59952384733E+01  0.21972445378E+02  0.00000000000E+00 0. -1.
</event>
<event>
 7    1  0.1542786E-009  0.4778728E+02  0.7816164E-02  0.1312668E+00
        -11   -1    0    0    0    0  0.00000000000E+00  0.00000000000E+00  0.45593999997E+02  0.45594000000E+02  0.51100000000E-03 0.  1.
         11   -1    0    0    0    0 -0.00000000000E+00 -0.00000000000E+00 -0.45593999997E+02  0.45594000000E+02  0.51100000000E-03 0. -1.
    9900012    2    1    2    0    0 -0.95123458231E+01  0.93246551180E-01 -0.42345357322E+02  0.47787277602E+02  0.20000029898E+02 0.  0.
        -12    1    1    2    0    0  0.95123458231E+01 -0.93246551180E-01  0.42345357322E+02  0.43400722398E+02  0.00000000000E+00 0.  1.
         11    1    3    3    0    0  0.22619019263E+01  0.36817698965E+01 -0.32880847929E+01  0.54298371763E+01  0.51100000000E-03 0.  1.
        -11    1    3    3    0    0 -0.69253805950E+01  0.29172040218E+01 -0.25229533132E+02  0.26324899202E+02  0.51100000000E-03 0. -1.
        -12    1    3    3    0    0 -0.48488671543E+01 -0.65057273670E+01 -0.13827739397E+02  0.16032541223E+02  0.00000000000E+00 0.  1.
</event>
<event>
 7    1  0.1542786E-009  0.4778727E+02  0.7816164E-02  0.1312668E+00
        -11   -1    0    0    0    0  0.00000000000E+00  0.00000000000E+00  0.45593999997E+02  0.45594000000E+02  0.51100000000E-03 0.  1.
         11   -1    0    0    0    0 -0.00000000000E+00 -0.00000000000E+00 -0.45593999997E+02  0.45594000000E+02  0.51100000000E-03 0. -1.
    9900012    2    1    2    0    0 -0.70976998379E+01  0.42751330088E+02 -0.23600064273E+01  0.47787271923E+02  0.20000004006E+02 0.  0.
        -12    1    1    2    0    0  0.70976998379E+01 -0.42751330088E+02  0.23600064273E+01  0.43400728077E+02  0.00000000000E+00 0.  1.
         11    1    3    3    0    0 -0.29525132297E+01  0.14489317485E+02 -0.46685978969E+01  0.15506561906E+02  0.51100000000E-03 0. -1.
        -11    1    3    3    0    0  0.23032377015E+01  0.41024821193E+01  0.53116848848E+01  0.70957212477E+01  0.51100000000E-03 0.  1.
        -12    1    3    3    0    0 -0.64484243096E+01  0.24159530484E+02 -0.30030934153E+01  0.25184988770E+02  0.00000000000E+00 0.  1.
</event>
<event>
 7    1  0.1542786E-009  0.4778726E+02  0.7816164E-02  0.1312668E+00
        -11   -1    0    0    0    0  0.00000000000E+00  0.00000000000E+00  0.45593999997E+02  0.45594000000E+02  0.51100000000E-03 0. -1.
         11   -1    0    0    0    0 -0.00000000000E+00 -0.00000000000E+00 -0.45593999997E+02  0.45594000000E+02  0.51100000000E-03 0.  1.
    9900012    2    1    2    0    0  0.11492224289E+02  0.38940456938E+02  0.15336025169E+02  0.47787261831E+02  0.19999957992E+02 0.  0.
        -12    1    1    2    0    0 -0.11492224289E+02 -0.38940456938E+02 -0.15336025169E+02  0.43400738169E+02  0.00000000000E+00 0.  1.
         11    1    3    3    0    0  0.67649695045E+01  0.89162046061E+01  0.77653017571E+01  0.13622166810E+02  0.51100000000E-03 0. -1.
        -11    1    3    3    0    0 -0.24429064768E+01  0.22776372832E+02  0.70051082959E+01  0.23954174875E+02  0.51100000000E-03 0.  1.
        -12    1    3    3    0    0  0.71701612612E+01  0.72478794996E+01  0.56561511560E+00  0.10210920145E+02  0.00000000000E+00 0.  1.
</event>
<event>
 7    1  0.1542786E-009  0.4778727E+02  0.7816164E-02  0.1312668E+00
        -11   -1    0    0    0    0  0.00000000000E+00  0.00000000000E+00  0.45593999997E+02  0.45594000000E+02  0.51100000000E-03 0.  1.
         11   -1    0    0    0    0 -0.00000000000E+00 -0.00000000000E+00 -0.45593999997E+02  0.45594000000E+02  0.51100000000E-03 0. -1.
    9900012    2    1    2    0    0  0.20775951351E+02 -0.30577854771E+02 -0.22737159157E+02  0.47787265404E+02  0.19999974284E+02 0.  0.
        -12    1    1    2    0    0 -0.20775951351E+02  0.30577854771E+02  0.22737159157E+02  0.43400734596E+02  0.00000000000E+00 0.  1.
         11    1    3    3    0    0  0.66339649020E+01 -0.13990685982E+02 -0.10922894541E+02  0.18948836639E+02  0.51100000000E-03 0. -1.
        -11    1    3    3    0    0  0.98625667866E+01 -0.17076682790E+02 -0.13826417168E+02  0.24084292198E+02  0.51100000000E-03 0.  1.
        -12    1    3    3    0    0  0.42794196625E+01  0.48951400132E+00  0.20121525516E+01  0.47541365669E+01  0.00000000000E+00 0.  1.
</event>
<event>
 7    1  0.1542786E-009  0.4778727E+02  0.7816164E-02  0.1312668E+00
        -11   -1    0    0    0    0  0.00000000000E+00  0.00000000000E+00  0.45593999997E+02  0.45594000000E+02  0.51100000000E-03 0.  1.
         11   -1    0    0    0    0 -0.00000000000E+00 -0.00000000000E+00 -0.45593999997E+02  0.45594000000E+02  0.51100000000E-03 0. -1.
    9900012    2    1    2    0    0 -0.14043561666E+02 -0.36757717873E+02 -0.18310425873E+02  0.47787272551E+02  0.20000006869E+02 0.  0.
        -12    1    1    2    0    0  0.14043561666E+02  0.36757717873E+02  0.18310425873E+02  0.43400727449E+02  0.00000000000E+00 0.  1.
         11    1    3    3    0    0 -0.21799176127E+01 -0.49931820366E+01 -0.64124098411E+01  0.84144463799E+01  0.51100000000E-03 0. -1.
        -11    1    3    3    0    0 -0.12606554171E+02 -0.20686217044E+02 -0.16793451290E+01  0.24283018428E+02  0.51100000000E-03 0.  1.
        -12    1    3    3    0    0  0.74291011795E+00 -0.11078318792E+02 -0.10218670903E+02  0.15089807743E+02  0.00000000000E+00 0.  1.
</event>
<event>
 7    1  0.1542786E-009  0.4778727E+02  0.7816164E-02  0.1312668E+00
        -11   -1    0    0    0    0  0.00000000000E+00  0.00000000000E+00  0.45593999997E+02  0.45594000000E+02  0.51100000000E-03 0. -1.
         11   -1    0    0    0    0 -0.00000000000E+00 -0.00000000000E+00 -0.45593999997E+02  0.45594000000E+02  0.51100000000E-03 0.  1.
    9900012    2    1    2    0    0  0.10823063226E+02 -0.38279244734E+02  0.17354653268E+02  0.47787271146E+02  0.20000000465E+02 0.  0.
        -12    1    1    2    0    0 -0.10823063226E+02  0.38279244734E+02 -0.17354653268E+02  0.43400728854E+02  0.00000000000E+00 0.  1.
         11    1    3    3    0    0 -0.10707114552E+01 -0.86855594761E+00  0.48291928352E+01  0.50221425861E+01  0.51100000000E-03 0. -1.
        -11    1    3    3    0    0  0.11165817386E+02 -0.20946117668E+02  0.11157065976E+02  0.26227760955E+02  0.51100000000E-03 0.  1.
        -12    1    3    3    0    0  0.72795729494E+00 -0.16464571118E+02  0.13683944571E+01  0.16537367606E+02  0.00000000000E+00 0.  1.
</event>
<event>
 7    1  0.1542786E-009  0.4778727E+02  0.7816164E-02  0.1312668E+00
        -11   -1    0    0    0    0  0.00000000000E+00  0.00000000000E+00  0.45593999997E+02  0.45594000000E+02  0.51100000000E-03 0.  1.
         11   -1    0    0    0    0 -0.00000000000E+00 -0.00000000000E+00 -0.45593999997E+02  0.45594000000E+02  0.51100000000E-03 0. -1.
    9900012    2    1    2    0    0 -0.99680904675E+00 -0.34714316179E+02 -0.26029713729E+02  0.47787269904E+02  0.19999994800E+02 0.  0.
        -12    1    1    2    0    0  0.99680904675E+00  0.34714316179E+02  0.26029713729E+02  0.43400730096E+02  0.00000000000E+00 0.  1.
         11    1    3    3    0    0  0.55793803491E+01 -0.88933176191E+01 -0.78805359534E+01  0.13127201931E+02  0.51100000000E-03 0. -1.
        -11    1    3    3    0    0 -0.30690945725E+01 -0.14613895727E+02 -0.25722031051E+01  0.15152607660E+02  0.51100000000E-03 0.  1.
        -12    1    3    3    0    0 -0.35070948234E+01 -0.11207102833E+02 -0.15576974670E+02  0.19507460314E+02  0.00000000000E+00 0.  1.
</event>
<event>
 7    1  0.1542786E-009  0.4778727E+02  0.7816164E-02  0.1312668E+00
        -11   -1    0    0    0    0  0.00000000000E+00  0.00000000000E+00  0.45593999997E+02  0.45594000000E+02  0.51100000000E-03 0. -1.
         11   -1    0    0    0    0 -0.00000000000E+00 -0.00000000000E+00 -0.45593999997E+02  0.45594000000E+02  0.51100000000E-03 0.  1.
    9900012    2    1    2    0    0  0.24559412915E+02 -0.35541393381E+02  0.41554472277E+01  0.47787272496E+02  0.20000006620E+02 0.  0.
        -12    1    1    2    0    0 -0.24559412915E+02  0.35541393381E+02 -0.41554472277E+01  0.43400727504E+02  0.00000000000E+00 0.  1.
         11    1    3    3    0    0  0.39112610142E+01 -0.12595366390E+02  0.27933270558E+01  0.13481242284E+02  0.51100000000E-03 0. -1.
        -11    1    3    3    0    0  0.29418747874E+01  0.17933685121E+01  0.17847912029E+01  0.38802419749E+01  0.51100000000E-03 0.  1.
        -12    1    3    3    0    0  0.17706277113E+02 -0.24739395503E+02 -0.42267103103E+00  0.30425788237E+02  0.00000000000E+00 0.  1.
</event>
<event>
 7    1  0.1542786E-009  0.4778727E+02  0.7816164E-02  0.1312668E+00
        -11   -1    0    0    0    0  0.00000000000E+00  0.00000000000E+00  0.45593999997E+02  0.45594000000E+02  0.51100000000E-03 0.  1.
         11   -1    0    0    0    0 -0.00000000000E+00 -0.00000000000E+00 -0.45593999997E+02  0.45594000000E+02  0.51100000000E-03 0. -1.
    9900012    2    1    2    0    0  0.52533233256E+01 -0.36325896935E+02 -0.23161501767E+02  0.47787270073E+02  0.19999995569E+02 0.  0.
        -12    1    1    2    0    0 -0.52533233256E+01  0.36325896935E+02  0.23161501767E+02  0.43400729927E+02  0.00000000000E+00 0.  1.
         11    1    3    3    0    0  0.10070373986E+01 -0.24870721331E+02 -0.21281829656E+02  0.32748788949E+02  0.51100000000E-03 0. -1.
        -11    1    3    3    0    0 -0.11333227657E+01 -0.53555043828E+01 -0.38224879532E+01  0.66766205598E+01  0.51100000000E-03 0.  1.
        -12    1    3    3    0    0  0.53796086927E+01 -0.60996712214E+01  0.19428158418E+01  0.83618605639E+01  0.00000000000E+00 0.  1.
</event>
<event>
 7    1  0.1542786E-009  0.4778727E+02  0.7816164E-02  0.1312668E+00
        -11   -1    0    0    0    0  0.00000000000E+00  0.00000000000E+00  0.45593999997E+02  0.45594000000E+02  0.51100000000E-03 0.  1.
         11   -1    0    0    0    0 -0.00000000000E+00 -0.00000000000E+00 -0.45593999997E+02  0.45594000000E+02  0.51100000000E-03 0. -1.
    9900012    2    1    2    0    0  0.38637481040E+02  0.31965482151E+01 -0.19507710477E+02  0.47787266946E+02  0.19999981313E+02 0.  0.
        -12    1    1    2    0    0 -0.38637481040E+02 -0.31965482151E+01  0.19507710477E+02  0.43400733054E+02  0.00000000000E+00 0.  1.
         11    1    3    3    0    0  0.25401239183E+02  0.17286529190E+01 -0.14549015680E+02  0.29323796659E+02  0.51100000000E-03 0. -1.
        -11    1    3    3    0    0  0.12909031275E+02  0.52271969008E+01 -0.46257591964E+01  0.14675296395E+02  0.51100000000E-03 0.  1.
         12    1    3    3    0    0  0.32721058180E+00 -0.37593016046E+01 -0.33293560013E+00  0.37881738916E+01  0.00000000000E+00 0. -1.
</event>
<event>
 7    1  0.1542786E-009  0.4778727E+02  0.7816164E-02  0.1312668E+00
        -11   -1    0    0    0    0  0.00000000000E+00  0.00000000000E+00  0.45593999997E+02  0.45594000000E+02  0.51100000000E-03 0.  1.
         11   -1    0    0    0    0 -0.00000000000E+00 -0.00000000000E+00 -0.45593999997E+02  0.45594000000E+02  0.51100000000E-03 0. -1.
    9900012    2    1    2    0    0 -0.26026564741E+02  0.90350787830E+01 -0.33535190229E+02  0.47787266083E+02  0.19999977379E+02 0.  0.
        -12    1    1    2    0    0  0.26026564741E+02 -0.90350787830E+01  0.33535190229E+02  0.43400733917E+02  0.00000000000E+00 0.  1.
         11    1    3    3    0    0  0.10846127114E+01  0.11634366069E+01 -0.58694838624E+01  0.60811849622E+01  0.51100000000E-03 0. -1.
        -11    1    3    3    0    0 -0.16495277548E+02  0.59434779668E+01 -0.25096890608E+02  0.30614915159E+02  0.51100000000E-03 0.  1.
        -12    1    3    3    0    0 -0.10615899904E+02  0.19281642093E+01 -0.25688157584E+01  0.11091165962E+02  0.00000000000E+00 0.  1.
</event>
<event>
 7    1  0.1542786E-009  0.4778727E+02  0.7816164E-02  0.1312668E+00
        -11   -1    0    0    0    0  0.00000000000E+00  0.00000000000E+00  0.45593999997E+02  0.45594000000E+02  0.51100000000E-03 0.  1.
         11   -1    0    0    0    0 -0.00000000000E+00 -0.00000000000E+00 -0.45593999997E+02  0.45594000000E+02  0.51100000000E-03 0. -1.
    9900012    2    1    2    0    0 -0.11021245178E+02  0.39932277607E+02 -0.12944827547E+02  0.47787271891E+02  0.20000003861E+02 0.  0.
        -12    1    1    2    0    0  0.11021245178E+02 -0.39932277607E+02  0.12944827547E+02  0.43400728109E+02  0.00000000000E+00 0.  1.
         11    1    3    3    0    0 -0.10632249048E+02  0.23843191952E+02 -0.11503128187E+02  0.28528310161E+02  0.51100000000E-03 0. -1.
        -11    1    3    3    0    0 -0.27961899584E+00  0.17494247385E+02 -0.22398089749E+01  0.17639263671E+02  0.51100000000E-03 0.  1.
        -12    1    3    3    0    0 -0.10937713385E+00 -0.14051617304E+01  0.79810961466E+00  0.16196980592E+01  0.00000000000E+00 0.  1.
</event>
<event>
 7    1  0.1542786E-009  0.4778727E+02  0.7816164E-02  0.1312668E+00
        -11   -1    0    0    0    0  0.00000000000E+00  0.00000000000E+00  0.45593999997E+02  0.45594000000E+02  0.51100000000E-03 0. -1.
         11   -1    0    0    0    0 -0.00000000000E+00 -0.00000000000E+00 -0.45593999997E+02  0.45594000000E+02  0.51100000000E-03 0.  1.
    9900012    2    1    2    0    0  0.13203265536E+01 -0.39382625840E+02  0.18190356926E+02  0.47787267687E+02  0.19999984690E+02 0.  0.
        -12    1    1    2    0    0 -0.13203265536E+01  0.39382625840E+02 -0.18190356926E+02  0.43400732313E+02  0.00000000000E+00 0.  1.
         11    1    3    3    0    0  0.49591411862E+00 -0.11275921074E+02  0.13408660104E+02  0.17526679461E+02  0.51100000000E-03 0. -1.
        -11    1    3    3    0    0  0.32877664059E+01 -0.33198856333E+01 -0.78332802252E+00  0.47375786653E+01  0.51100000000E-03 0.  1.
        -12    1    3    3    0    0 -0.24633539709E+01 -0.24786819133E+02  0.55650248446E+01  0.25523009561E+02  0.00000000000E+00 0.  1.
</event>
<event>
 7    1  0.2256657E-009  0.4778727E+02  0.7816164E-02  0.1312668E+00
        -11   -1    0    0    0    0  0.00000000000E+00  0.00000000000E+00  0.45593999997E+02  0.45594000000E+02  0.51100000000E-03 0.  1.
         11   -1    0    0    0    0 -0.00000000000E+00 -0.00000000000E+00 -0.45593999997E+02  0.45594000000E+02  0.51100000000E-03 0. -1.
    9900012    2    1    2    0    0 -0.19485689468E+02  0.37929196492E+02 -0.80813040450E+01  0.47787268259E+02  0.19999987302E+02 0.  0.
        -12    1    1    2    0    0  0.19485689468E+02 -0.37929196492E+02  0.80813040450E+01  0.43400731741E+02  0.00000000000E+00 0.  1.
         11    1    3    3    0    0 -0.67185432366E+01  0.17294612247E+02 -0.16494923461E+01  0.18626949865E+02  0.51100000000E-03 0. -1.
        -11    1    3    3    0    0 -0.14545381617E+02  0.11156427841E+02 -0.66886304324E+01  0.19513374538E+02  0.51100000000E-03 0.  1.
        -12    1    3    3    0    0  0.17782353861E+01  0.94781564042E+01  0.25681873348E+00  0.96469438566E+01  0.00000000000E+00 0.  1.
</event>
<event>
 7    1  0.1542786E-009  0.4778727E+02  0.7816164E-02  0.1312668E+00
        -11   -1    0    0    0    0  0.00000000000E+00  0.00000000000E+00  0.45593999997E+02  0.45594000000E+02  0.51100000000E-03 0.  1.
         11   -1    0    0    0    0 -0.00000000000E+00 -0.00000000000E+00 -0.45593999997E+02  0.45594000000E+02  0.51100000000E-03 0. -1.
    9900012    2    1    2    0    0 -0.28288822213E+02  0.28314763339E+02 -0.16782124317E+02  0.47787274410E+02  0.20000015346E+02 0.  0.
        -12    1    1    2    0    0  0.28288822213E+02 -0.28314763339E+02  0.16782124317E+02  0.43400725590E+02  0.00000000000E+00 0.  1.
         11    1    3    3    0    0 -0.42933689290E+01 -0.14133535088E+01 -0.50516822112E+01  0.67786487094E+01  0.51100000000E-03 0.  1.
        -11    1    3    3    0    0 -0.11952025743E+02  0.14231973555E+02 -0.10495961827E+02  0.21343973519E+02  0.51100000000E-03 0. -1.
        -12    1    3    3    0    0 -0.12043427541E+02  0.15496143293E+02 -0.12344802788E+01  0.19664652182E+02  0.00000000000E+00 0.  1.
</event>
<event>
 7    1  0.1542786E-009  0.4778727E+02  0.7816164E-02  0.1312668E+00
        -11   -1    0    0    0    0  0.00000000000E+00  0.00000000000E+00  0.45593999997E+02  0.45594000000E+02  0.51100000000E-03 0. -1.
         11   -1    0    0    0    0 -0.00000000000E+00 -0.00000000000E+00 -0.45593999997E+02  0.45594000000E+02  0.51100000000E-03 0.  1.
    9900012    2    1    2    0    0 -0.20076864998E+02  0.29652524225E+02 -0.24520816604E+02  0.47787272495E+02  0.20000006613E+02 0.  0.
        -12    1    1    2    0    0  0.20076864998E+02 -0.29652524225E+02  0.24520816604E+02  0.43400727505E+02  0.00000000000E+00 0.  1.
         11    1    3    3    0    0 -0.88034102413E+01  0.14676421019E+02 -0.11654227115E+02  0.20705515586E+02  0.51100000000E-03 0. -1.
        -11    1    3    3    0    0  0.25855230959E+01  0.36141293665E+01 -0.68740080769E+01  0.81852824056E+01  0.51100000000E-03 0.  1.
        -12    1    3    3    0    0 -0.13858977853E+02  0.11361973840E+02 -0.59925814124E+01  0.18896474503E+02  0.00000000000E+00 0.  1.
</event>
<event>
 7    1  0.1542786E-009  0.4778726E+02  0.7816164E-02  0.1312668E+00
        -11   -1    0    0    0    0  0.00000000000E+00  0.00000000000E+00  0.45593999997E+02  0.45594000000E+02  0.51100000000E-03 0.  1.
         11   -1    0    0    0    0 -0.00000000000E+00 -0.00000000000E+00 -0.45593999997E+02  0.45594000000E+02  0.51100000000E-03 0. -1.
    9900012    2    1    2    0    0  0.15388075877E+02  0.25303444574E+02  0.31726435405E+02  0.47787263946E+02  0.19999967635E+02 0.  0.
        -12    1    1    2    0    0 -0.15388075877E+02 -0.25303444574E+02 -0.31726435405E+02  0.43400736054E+02  0.00000000000E+00 0.  1.
         11    1    3    3    0    0  0.81429444470E+01  0.12057055072E+02  0.12192738133E+02  0.18982702250E+02  0.51100000000E-03 0. -1.
        -11    1    3    3    0    0  0.10089624286E+02  0.14495107402E+02  0.14326382178E+02  0.22741017642E+02  0.51100000000E-03 0.  1.
        -12    1    3    3    0    0 -0.28444928557E+01 -0.12487179001E+01  0.52073150943E+01  0.60635440537E+01  0.00000000000E+00 0.  1.
</event>
<event>
 7    1  0.1542786E-009  0.4778727E+02  0.7816164E-02  0.1312668E+00
        -11   -1    0    0    0    0  0.00000000000E+00  0.00000000000E+00  0.45593999997E+02  0.45594000000E+02  0.51100000000E-03 0.  1.
         11   -1    0    0    0    0 -0.00000000000E+00 -0.00000000000E+00 -0.45593999997E+02  0.45594000000E+02  0.51100000000E-03 0. -1.
    9900012    2    1    2    0    0 -0.23025723656E+01 -0.21168086960E+02 -0.37818429898E+02  0.47787269764E+02  0.19999994164E+02 0.  0.
        -12    1    1    2    0    0  0.23025723656E+01  0.21168086960E+02  0.37818429898E+02  0.43400730236E+02  0.00000000000E+00 0.  1.
         11    1    3    3    0    0 -0.59467136276E+01 -0.20118115642E+02 -0.23143574841E+02  0.31236629726E+02  0.51100000000E-03 0. -1.
        -11    1    3    3    0    0  0.84378229216E+00 -0.32742535023E+01 -0.37210039901E+01  0.50277803760E+01  0.51100000000E-03 0.  1.
        -12    1    3    3    0    0  0.28003589698E+01  0.22242821851E+01 -0.10953851067E+02  0.11522859662E+02  0.00000000000E+00 0.  1.
</event>
<event>
 7    1  0.1542786E-009  0.4778727E+02  0.7816164E-02  0.1312668E+00
        -11   -1    0    0    0    0  0.00000000000E+00  0.00000000000E+00  0.45593999997E+02  0.45594000000E+02  0.51100000000E-03 0. -1.
         11   -1    0    0    0    0 -0.00000000000E+00 -0.00000000000E+00 -0.45593999997E+02  0.45594000000E+02  0.51100000000E-03 0.  1.
    9900012    2    1    2    0    0 -0.11482843538E+02 -0.65653318847E+01  0.41335993516E+02  0.47787266845E+02  0.19999980851E+02 0.  0.
        -12    1    1    2    0    0  0.11482843538E+02  0.65653318847E+01 -0.41335993516E+02  0.43400733155E+02  0.00000000000E+00 0.  1.
         11    1    3    3    0    0 -0.11969231745E+02 -0.68139431309E+01  0.16720047941E+02  0.21662232872E+02  0.51100000000E-03 0. -1.
        -11    1    3    3    0    0 -0.29007248335E+01  0.54343570750E-01  0.20871583244E+02  0.21072260086E+02  0.51100000000E-03 0.  1.
        -12    1    3    3    0    0  0.33871130412E+01  0.19426767552E+00  0.37443623310E+01  0.50527738866E+01  0.00000000000E+00 0.  1.
</event>
<event>
 7    1  0.1542786E-009  0.4778729E+02  0.7816164E-02  0.1312668E+00
        -11   -1    0    0    0    0  0.00000000000E+00  0.00000000000E+00  0.45593999997E+02  0.45594000000E+02  0.51100000000E-03 0.  1.
         11   -1    0    0    0    0 -0.00000000000E+00 -0.00000000000E+00 -0.45593999997E+02  0.45594000000E+02  0.51100000000E-03 0. -1.
    9900012    2    1    2    0    0  0.40619435569E+02  0.77109044082E+01 -0.13199428067E+02  0.47787291549E+02  0.20000093489E+02 0.  0.
        -12    1    1    2    0    0 -0.40619435569E+02 -0.77109044082E+01  0.13199428067E+02  0.43400708451E+02  0.00000000000E+00 0.  1.
         11    1    3    3    0    0  0.34390726941E+02  0.12689222631E+02 -0.11961035222E+02  0.38559108319E+02  0.51100000000E-03 0. -1.
        -11    1    3    3    0    0  0.49263935630E+01 -0.28500159720E+01 -0.27394116788E+01  0.63163534722E+01  0.51100000000E-03 0.  1.
         12    1    3    3    0    0  0.13023150653E+01 -0.21283022507E+01  0.15010188343E+01  0.29118297582E+01  0.00000000000E+00 0. -1.
</event>
<event>
 7    1  0.1542786E-009  0.4778727E+02  0.7816164E-02  0.1312668E+00
        -11   -1    0    0    0    0  0.00000000000E+00  0.00000000000E+00  0.45593999997E+02  0.45594000000E+02  0.51100000000E-03 0. -1.
         11   -1    0    0    0    0 -0.00000000000E+00 -0.00000000000E+00 -0.45593999997E+02  0.45594000000E+02  0.51100000000E-03 0.  1.
    9900012    2    1    2    0    0  0.79468809919E+01  0.42657476115E+02  0.89995299496E+00  0.47787273032E+02  0.20000009061E+02 0.  0.
        -12    1    1    2    0    0 -0.79468809919E+01 -0.42657476115E+02 -0.89995299496E+00  0.43400726968E+02  0.00000000000E+00 0.  1.
         11    1    3    3    0    0  0.73995610212E+00  0.64251998158E+01 -0.55019320868E+01  0.84912887511E+01  0.51100000000E-03 0. -1.
        -11    1    3    3    0    0 -0.22146787384E+01  0.10076102501E+02 -0.14234679077E+01  0.10414360502E+02  0.51100000000E-03 0.  1.
         12    1    3    3    0    0  0.94216036282E+01  0.26156173798E+02  0.78253529894E+01  0.28881623779E+02  0.00000000000E+00 0. -1.
</event>
<event>
 7    1  0.1542786E-009  0.4778727E+02  0.7816164E-02  0.1312668E+00
        -11   -1    0    0    0    0  0.00000000000E+00  0.00000000000E+00  0.45593999997E+02  0.45594000000E+02  0.51100000000E-03 0.  1.
         11   -1    0    0    0    0 -0.00000000000E+00 -0.00000000000E+00 -0.45593999997E+02  0.45594000000E+02  0.51100000000E-03 0. -1.
    9900012    2    1    2    0    0 -0.62909651200E+01 -0.27821660753E+02 -0.32710886698E+02  0.47787272382E+02  0.20000006097E+02 0.  0.
        -12    1    1    2    0    0  0.62909651200E+01  0.27821660753E+02  0.32710886698E+02  0.43400727618E+02  0.00000000000E+00 0.  1.
         11    1    3    3    0    0 -0.22533838526E+01 -0.13850316924E+02 -0.66349550783E+01  0.15521973033E+02  0.51100000000E-03 0. -1.
        -11    1    3    3    0    0 -0.78239455535E+01 -0.50987000732E+01 -0.13509977739E+02  0.16423469951E+02  0.51100000000E-03 0.  1.
         12    1    3    3    0    0  0.37863642861E+01 -0.88726437552E+01 -0.12565953881E+02  0.15841829397E+02  0.00000000000E+00 0. -1.
</event>
<event>
 7    1  0.1542786E-009  0.4778727E+02  0.7816164E-02  0.1312668E+00
        -11   -1    0    0    0    0  0.00000000000E+00  0.00000000000E+00  0.45593999997E+02  0.45594000000E+02  0.51100000000E-03 0.  1.
         11   -1    0    0    0    0 -0.00000000000E+00 -0.00000000000E+00 -0.45593999997E+02  0.45594000000E+02  0.51100000000E-03 0. -1.
    9900012    2    1    2    0    0 -0.31718109630E+02 -0.24271309706E+02 -0.16984944450E+02  0.47787270843E+02  0.19999999084E+02 0.  0.
        -12    1    1    2    0    0  0.31718109630E+02  0.24271309706E+02  0.16984944450E+02  0.43400729157E+02  0.00000000000E+00 0.  1.
         11    1    3    3    0    0 -0.22788817319E+02 -0.20215467155E+02 -0.20177748435E+02  0.36539524344E+02  0.51100000000E-03 0. -1.
        -11    1    3    3    0    0 -0.41545192978E+01  0.17385008571E+00  0.10152977029E+00  0.41593945477E+01  0.51100000000E-03 0.  1.
         12    1    3    3    0    0 -0.47747730128E+01 -0.42296926368E+01  0.30912742144E+01  0.70883519519E+01  0.00000000000E+00 0. -1.
</event>
<event>
 7    1  0.1542786E-009  0.4778727E+02  0.7816164E-02  0.1312668E+00
        -11   -1    0    0    0    0  0.00000000000E+00  0.00000000000E+00  0.45593999997E+02  0.45594000000E+02  0.51100000000E-03 0. -1.
         11   -1    0    0    0    0 -0.00000000000E+00 -0.00000000000E+00 -0.45593999997E+02  0.45594000000E+02  0.51100000000E-03 0.  1.
    9900012    2    1    2    0    0 -0.30962724114E+02  0.28292364078E+02  0.11156845590E+02  0.47787270130E+02  0.19999995832E+02 0.  0.
        -12    1    1    2    0    0  0.30962724114E+02 -0.28292364078E+02 -0.11156845590E+02  0.43400729870E+02  0.00000000000E+00 0.  1.
         11    1    3    3    0    0 -0.24808954257E+02  0.16958534904E+02  0.15121389804E+02  0.33641232844E+02  0.51100000000E-03 0. -1.
        -11    1    3    3    0    0 -0.16111521442E+01  0.29837538304E+00 -0.62539275391E+00  0.17538402033E+01  0.51100000000E-03 0.  1.
         12    1    3    3    0    0 -0.45426177132E+01  0.11035453791E+02 -0.33391514602E+01  0.12392197083E+02  0.00000000000E+00 0. -1.
</event>
<event>
 7    1  0.1542786E-009  0.4778727E+02  0.7816164E-02  0.1312668E+00
        -11   -1    0    0    0    0  0.00000000000E+00  0.00000000000E+00  0.45593999997E+02  0.45594000000E+02  0.51100000000E-03 0. -1.
         11   -1    0    0    0    0 -0.00000000000E+00 -0.00000000000E+00 -0.45593999997E+02  0.45594000000E+02  0.51100000000E-03 0.  1.
    9900012    2    1    2    0    0 -0.70204456385E+01  0.42474398986E+02  0.55011050667E+01  0.47787269785E+02  0.19999994259E+02 0.  0.
        -12    1    1    2    0    0  0.70204456385E+01 -0.42474398986E+02 -0.55011050667E+01  0.43400730215E+02  0.00000000000E+00 0.  1.
         11    1    3    3    0    0 -0.85961945216E+01  0.35093453195E+02 -0.20977658674E+01  0.36191789667E+02  0.51100000000E-03 0. -1.
        -11    1    3    3    0    0  0.17477308716E+01  0.59149303186E+01  0.31854431126E+01  0.69417585638E+01  0.51100000000E-03 0.  1.
        -12    1    3    3    0    0 -0.17198198848E+00  0.14660154727E+01  0.44134278216E+01  0.46537215545E+01  0.00000000000E+00 0.  1.
</event>
<event>
 7    1  0.1777002E-009  0.4778727E+02  0.7816164E-02  0.1312668E+00
        -11   -1    0    0    0    0  0.00000000000E+00  0.00000000000E+00  0.45593999997E+02  0.45594000000E+02  0.51100000000E-03 0.  1.
         11   -1    0    0    0    0 -0.00000000000E+00 -0.00000000000E+00 -0.45593999997E+02  0.45594000000E+02  0.51100000000E-03 0. -1.
    9900012    2    1    2    0    0  0.42831461335E+02 -0.28306427185E+01 -0.64091197858E+01  0.47787269191E+02  0.19999991551E+02 0.  0.
        -12    1    1    2    0    0 -0.42831461335E+02  0.28306427185E+01  0.64091197858E+01  0.43400730809E+02  0.00000000000E+00 0.  1.
         11    1    3    3    0    0  0.11575542768E+02  0.28420839437E+01 -0.39929260766E+01  0.12570365565E+02  0.51100000000E-03 0. -1.
        -11    1    3    3    0    0  0.91359296221E+01 -0.13304411882E+01  0.61597234629E+01  0.11098534913E+02  0.51100000000E-03 0.  1.
        -12    1    3    3    0    0  0.22119988945E+02 -0.43422854740E+01 -0.85759171721E+01  0.24118368713E+02  0.00000000000E+00 0.  1.
</event>
<event>
 7    1  0.1542786E-009  0.4778727E+02  0.7816164E-02  0.1312668E+00
        -11   -1    0    0    0    0  0.00000000000E+00  0.00000000000E+00  0.45593999997E+02  0.45594000000E+02  0.51100000000E-03 0.  1.
         11   -1    0    0    0    0 -0.00000000000E+00 -0.00000000000E+00 -0.45593999997E+02  0.45594000000E+02  0.51100000000E-03 0. -1.
    9900012    2    1    2    0    0  0.14528371398E+02 -0.26088912120E+02 -0.31494736060E+02  0.47787270622E+02  0.19999998074E+02 0.  0.
        -12    1    1    2    0    0 -0.14528371398E+02  0.26088912120E+02  0.31494736060E+02  0.43400729378E+02  0.00000000000E+00 0.  1.
         11    1    3    3    0    0  0.11605125062E+01 -0.78295180360E+01 -0.12174240963E+02  0.14521029070E+02  0.51100000000E-03 0. -1.
        -11    1    3    3    0    0  0.70312681021E+01 -0.18349493821E+02 -0.18291028125E+02  0.26845937584E+02  0.51100000000E-03 0.  1.
        -12    1    3    3    0    0  0.63365907901E+01  0.90099737542E-01 -0.10294669713E+01  0.64203039685E+01  0.00000000000E+00 0.  1.
</event>
<event>
 7    1  0.1542786E-009  0.4778727E+02  0.7816164E-02  0.1312668E+00
        -11   -1    0    0    0    0  0.00000000000E+00  0.00000000000E+00  0.45593999997E+02  0.45594000000E+02  0.51100000000E-03 0.  1.
         11   -1    0    0    0    0 -0.00000000000E+00 -0.00000000000E+00 -0.45593999997E+02  0.45594000000E+02  0.51100000000E-03 0. -1.
    9900012    2    1    2    0    0 -0.39991712100E+02 -0.13450019525E+02 -0.10167760644E+02  0.47787269379E+02  0.19999992407E+02 0.  0.
        -12    1    1    2    0    0  0.39991712100E+02  0.13450019525E+02  0.10167760644E+02  0.43400730621E+02  0.00000000000E+00 0.  1.
         11    1    3    3    0    0 -0.62661549523E+01 -0.19045487940E+01  0.28876532008E+01  0.71575516250E+01  0.51100000000E-03 0.  1.
        -11    1    3    3    0    0 -0.16629463918E+02 -0.79070753477E+01 -0.13990682081E+02  0.23125745310E+02  0.51100000000E-03 0. -1.
         12    1    3    3    0    0 -0.17096093229E+02 -0.36383953828E+01  0.93526823586E+00  0.17503972445E+02  0.00000000000E+00 0. -1.
</event>
<event>
 7    1  0.1542786E-009  0.4778727E+02  0.7816164E-02  0.1312668E+00
        -11   -1    0    0    0    0  0.00000000000E+00  0.00000000000E+00  0.45593999997E+02  0.45594000000E+02  0.51100000000E-03 0.  1.
         11   -1    0    0    0    0 -0.00000000000E+00 -0.00000000000E+00 -0.45593999997E+02  0.45594000000E+02  0.51100000000E-03 0. -1.
    9900012    2    1    2    0    0  0.24148832699E+01  0.40882920139E+02 -0.14365880368E+02  0.47787270294E+02  0.19999996578E+02 0.  0.
        -12    1    1    2    0    0 -0.24148832699E+01 -0.40882920139E+02  0.14365880368E+02  0.43400729706E+02  0.00000000000E+00 0.  1.
         11    1    3    3    0    0  0.28041762660E+01  0.33846591806E+02 -0.83950062859E+01  0.34984729700E+02  0.51100000000E-03 0. -1.
        -11    1    3    3    0    0  0.11125305139E+01  0.73716683564E+01 -0.75410213596E+01  0.10604066291E+02  0.51100000000E-03 0.  1.
        -12    1    3    3    0    0 -0.15018235100E+01 -0.33534002346E+00  0.15701472775E+01  0.21984743027E+01  0.00000000000E+00 0.  1.
</event>
<event>
 7    1  0.1542786E-009  0.4778728E+02  0.7816164E-02  0.1312668E+00
        -11   -1    0    0    0    0  0.00000000000E+00  0.00000000000E+00  0.45593999997E+02  0.45594000000E+02  0.51100000000E-03 0.  1.
         11   -1    0    0    0    0 -0.00000000000E+00 -0.00000000000E+00 -0.45593999997E+02  0.45594000000E+02  0.51100000000E-03 0. -1.
    9900012    2    1    2    0    0  0.12633584499E+02 -0.16110241210E+02 -0.38268461226E+02  0.47787280493E+02  0.20000043080E+02 0.  0.
        -12    1    1    2    0    0 -0.12633584499E+02  0.16110241210E+02  0.38268461226E+02  0.43400719507E+02  0.00000000000E+00 0.  1.
         11    1    3    3    0    0  0.22745411764E+01 -0.88217535197E+01 -0.17383452401E+02  0.19626036033E+02  0.51100000000E-03 0. -1.
        -11    1    3    3    0    0 -0.28474889762E+01 -0.24236419298E+01 -0.89797608161E+01  0.97271958060E+01  0.51100000000E-03 0.  1.
         12    1    3    3    0    0  0.13206532299E+02 -0.48648457602E+01 -0.11905248009E+02  0.18434048654E+02  0.00000000000E+00 0. -1.
</event>
<event>
 7    1  0.1542786E-009  0.4778727E+02  0.7816164E-02  0.1312668E+00
        -11   -1    0    0    0    0  0.00000000000E+00  0.00000000000E+00  0.45593999997E+02  0.45594000000E+02  0.51100000000E-03 0.  1.
         11   -1    0    0    0    0 -0.00000000000E+00 -0.00000000000E+00 -0.45593999997E+02  0.45594000000E+02  0.51100000000E-03 0. -1.
    9900012    2    1    2    0    0  0.34767511959E+02  0.38704527781E+01 -0.25687796377E+02  0.47787272181E+02  0.20000005181E+02 0.  0.
        -12    1    1    2    0    0 -0.34767511959E+02 -0.38704527781E+01  0.25687796377E+02  0.43400727819E+02  0.00000000000E+00 0.  1.
         11    1    3    3    0    0  0.18497324476E+02 -0.36604790630E+01 -0.72229126432E+01  0.20192092191E+02  0.51100000000E-03 0. -1.
        -11    1    3    3    0    0  0.42531059587E+01  0.45440382232E+00 -0.10944905463E+02  0.11751014806E+02  0.51100000000E-03 0.  1.
         12    1    3    3    0    0  0.12017081525E+02  0.70765280188E+01 -0.75199782708E+01  0.15844165184E+02  0.00000000000E+00 0. -1.
</event>
<event>
 7    1  0.1542786E-009  0.4778727E+02  0.7816164E-02  0.1312668E+00
        -11   -1    0    0    0    0  0.00000000000E+00  0.00000000000E+00  0.45593999997E+02  0.45594000000E+02  0.51100000000E-03 0. -1.
         11   -1    0    0    0    0 -0.00000000000E+00 -0.00000000000E+00 -0.45593999997E+02  0.45594000000E+02  0.51100000000E-03 0.  1.
    9900012    2    1    2    0    0 -0.19337737077E+02 -0.20134363144E+02  0.33230746060E+02  0.47787272608E+02  0.20000007128E+02 0.  0.
        -12    1    1    2    0    0  0.19337737077E+02  0.20134363144E+02 -0.33230746060E+02  0.43400727392E+02  0.00000000000E+00 0.  1.
         11    1    3    3    0    0 -0.12289007030E+02 -0.91842444144E+01  0.22648450327E+02  0.27355481017E+02  0.51100000000E-03 0. -1.
        -11    1    3    3    0    0 -0.98207984370E+01 -0.10119131975E+02  0.67608632075E+01  0.15638228334E+02  0.51100000000E-03 0.  1.
         12    1    3    3    0    0  0.27720683892E+01 -0.83098675472E+00  0.38214325259E+01  0.47935632562E+01  0.00000000000E+00 0. -1.
</event>
<event>
 7    1  0.1542786E-009  0.4778726E+02  0.7816164E-02  0.1312668E+00
        -11   -1    0    0    0    0  0.00000000000E+00  0.00000000000E+00  0.45593999997E+02  0.45594000000E+02  0.51100000000E-03 0.  1.
         11   -1    0    0    0    0 -0.00000000000E+00 -0.00000000000E+00 -0.45593999997E+02  0.45594000000E+02  0.51100000000E-03 0. -1.
    9900012    2    1    2    0    0 -0.30970582360E+02 -0.15475200001E+02 -0.26171839345E+02  0.47787263123E+02  0.19999963882E+02 0.  0.
        -12    1    1    2    0    0  0.30970582360E+02  0.15475200001E+02  0.26171839345E+02  0.43400736877E+02  0.00000000000E+00 0.  1.
         11    1    3    3    0    0 -0.56588071832E+00 -0.10961146048E+01  0.14178732418E+01  0.18793756956E+01  0.51100000000E-03 0. -1.
        -11    1    3    3    0    0 -0.15904580845E+02 -0.84166748575E+01 -0.23695186617E+02  0.29753285140E+02  0.51100000000E-03 0.  1.
         12    1    3    3    0    0 -0.14500120796E+02 -0.59624105388E+01 -0.38945259695E+01  0.16154602288E+02  0.00000000000E+00 0. -1.
</event>
<event>
 7    1  0.1542786E-009  0.4778727E+02  0.7816164E-02  0.1312668E+00
        -11   -1    0    0    0    0  0.00000000000E+00  0.00000000000E+00  0.45593999997E+02  0.45594000000E+02  0.51100000000E-03 0. -1.
         11   -1    0    0    0    0 -0.00000000000E+00 -0.00000000000E+00 -0.45593999997E+02  0.45594000000E+02  0.51100000000E-03 0.  1.
    9900012    2    1    2    0    0  0.70431342010E+00 -0.36115825051E+02 -0.24057732447E+02  0.47787269972E+02  0.19999995109E+02 0.  0.
        -12    1    1    2    0    0 -0.70431342010E+00  0.36115825051E+02  0.24057732447E+02  0.43400730028E+02  0.00000000000E+00 0.  1.
         11    1    3    3    0    0  0.45131409805E+01 -0.16510049006E+02 -0.60818011781E+01  0.18164208365E+02  0.51100000000E-03 0. -1.
        -11    1    3    3    0    0  0.16861434968E+00  0.17421402843E+01 -0.74613859479E+00  0.19026840602E+01  0.51100000000E-03 0.  1.
         12    1    3    3    0    0 -0.39774419101E+01 -0.21347916329E+02 -0.17229792674E+02  0.27720377546E+02  0.00000000000E+00 0. -1.
</event>
<event>
 7    1  0.1542786E-009  0.4778727E+02  0.7816164E-02  0.1312668E+00
        -11   -1    0    0    0    0  0.00000000000E+00  0.00000000000E+00  0.45593999997E+02  0.45594000000E+02  0.51100000000E-03 0.  1.
         11   -1    0    0    0    0 -0.00000000000E+00 -0.00000000000E+00 -0.45593999997E+02  0.45594000000E+02  0.51100000000E-03 0. -1.
    9900012    2    1    2    0    0  0.15943319092E+02  0.26985958372E+02 -0.30019859314E+02  0.47787270442E+02  0.19999997253E+02 0.  0.
        -12    1    1    2    0    0 -0.15943319092E+02 -0.26985958372E+02  0.30019859314E+02  0.43400729558E+02  0.00000000000E+00 0.  1.
         11    1    3    3    0    0  0.95043249949E+01  0.73639735351E+01 -0.11425306175E+02  0.16586076127E+02  0.51100000000E-03 0. -1.
        -11    1    3    3    0    0  0.74019454146E+01  0.43325184556E+01 -0.23945867086E+01  0.89046930242E+01  0.51100000000E-03 0.  1.
         12    1    3    3    0    0 -0.96295131724E+00  0.15289466382E+02 -0.16199966430E+02  0.22296501291E+02  0.00000000000E+00 0. -1.
</event>
<event>
 7    1  0.1542786E-009  0.4778727E+02  0.7816164E-02  0.1312668E+00
        -11   -1    0    0    0    0  0.00000000000E+00  0.00000000000E+00  0.45593999997E+02  0.45594000000E+02  0.51100000000E-03 0.  1.
         11   -1    0    0    0    0 -0.00000000000E+00 -0.00000000000E+00 -0.45593999997E+02  0.45594000000E+02  0.51100000000E-03 0. -1.
    9900012    2    1    2    0    0  0.16896868202E+02 -0.76103433015E+01 -0.39245405692E+02  0.47787270189E+02  0.19999996099E+02 0.  0.
        -12    1    1    2    0    0 -0.16896868202E+02  0.76103433015E+01  0.39245405692E+02  0.43400729811E+02  0.00000000000E+00 0.  1.
         11    1    3    3    0    0  0.62740814062E+01  0.15632296022E+01 -0.12599080073E+01  0.65874997327E+01  0.51100000000E-03 0. -1.
        -11    1    3    3    0    0  0.30055655252E+01 -0.16172254387E+01 -0.27996698993E+01  0.44144075539E+01  0.51100000000E-03 0.  1.
         12    1    3    3    0    0  0.76172212706E+01 -0.75563474650E+01 -0.35185827786E+02  0.36785362902E+02  0.00000000000E+00 0. -1.
</event>
<event>
 7    1  0.1542786E-009  0.4778727E+02  0.7816164E-02  0.1312668E+00
        -11   -1    0    0    0    0  0.00000000000E+00  0.00000000000E+00  0.45593999997E+02  0.45594000000E+02  0.51100000000E-03 0. -1.
         11   -1    0    0    0    0 -0.00000000000E+00 -0.00000000000E+00 -0.45593999997E+02  0.45594000000E+02  0.51100000000E-03 0.  1.
    9900012    2    1    2    0    0  0.32440160954E+02 -0.28831103017E+02  0.16473171738E+00  0.47787266361E+02  0.19999978644E+02 0.  0.
        -12    1    1    2    0    0 -0.32440160954E+02  0.28831103017E+02 -0.16473171738E+00  0.43400733639E+02  0.00000000000E+00 0.  1.
         11    1    3    3    0    0  0.10525695183E+02 -0.47488672158E+01  0.57129227565E+01  0.12883302589E+02  0.51100000000E-03 0. -1.
        -11    1    3    3    0    0 -0.54376636783E+00 -0.28719134395E+01 -0.25302223600E+01  0.38659531966E+01  0.51100000000E-03 0.  1.
        -12    1    3    3    0    0  0.22458232139E+02 -0.21210322362E+02 -0.30179686791E+01  0.31038010575E+02  0.00000000000E+00 0.  1.
</event>
<event>
 7    1  0.1542786E-009  0.4778727E+02  0.7816164E-02  0.1312668E+00
        -11   -1    0    0    0    0  0.00000000000E+00  0.00000000000E+00  0.45593999997E+02  0.45594000000E+02  0.51100000000E-03 0.  1.
         11   -1    0    0    0    0 -0.00000000000E+00 -0.00000000000E+00 -0.45593999997E+02  0.45594000000E+02  0.51100000000E-03 0. -1.
    9900012    2    1    2    0    0  0.11041749727E+02 -0.28606566894E+02 -0.30714285941E+02  0.47787271119E+02  0.20000000340E+02 0.  0.
        -12    1    1    2    0    0 -0.11041749727E+02  0.28606566894E+02  0.30714285941E+02  0.43400728881E+02  0.00000000000E+00 0.  1.
         11    1    3    3    0    0  0.10577422978E+02 -0.21752080889E+02 -0.26646465274E+02  0.35987067284E+02  0.51100000000E-03 0. -1.
        -11    1    3    3    0    0  0.34845618963E+01  0.28431679569E-01 -0.19405260008E+01  0.39885613184E+01  0.51100000000E-03 0.  1.
        -12    1    3    3    0    0 -0.30202351476E+01 -0.68829176855E+01 -0.21272946671E+01  0.78116425169E+01  0.00000000000E+00 0.  1.
</event>
<event>
 7    1  0.1542786E-009  0.4778726E+02  0.7816164E-02  0.1312668E+00
        -11   -1    0    0    0    0  0.00000000000E+00  0.00000000000E+00  0.45593999997E+02  0.45594000000E+02  0.51100000000E-03 0.  1.
         11   -1    0    0    0    0 -0.00000000000E+00 -0.00000000000E+00 -0.45593999997E+02  0.45594000000E+02  0.51100000000E-03 0. -1.
    9900012    2    1    2    0    0 -0.22104365171E+02 -0.29405238447E+02 -0.23029393499E+02  0.47787262994E+02  0.19999963297E+02 0.  0.
        -12    1    1    2    0    0  0.22104365171E+02  0.29405238447E+02  0.23029393499E+02  0.43400737006E+02  0.00000000000E+00 0.  1.
         11    1    3    3    0    0 -0.52919626814E+01 -0.16779697550E+02 -0.13808570417E+02  0.22366039795E+02  0.51100000000E-03 0. -1.
        -11    1    3    3    0    0 -0.14263875028E+02 -0.14036132375E+02 -0.56125356697E+01  0.20783928882E+02  0.51100000000E-03 0.  1.
        -12    1    3    3    0    0 -0.25485274616E+01  0.14105914784E+01 -0.36082874118E+01  0.46372943176E+01  0.00000000000E+00 0.  1.
</event>
<event>
 7    1  0.1542786E-009  0.4778727E+02  0.7816164E-02  0.1312668E+00
        -11   -1    0    0    0    0  0.00000000000E+00  0.00000000000E+00  0.45593999997E+02  0.45594000000E+02  0.51100000000E-03 0.  1.
         11   -1    0    0    0    0 -0.00000000000E+00 -0.00000000000E+00 -0.45593999997E+02  0.45594000000E+02  0.51100000000E-03 0. -1.
    9900012    2    1    2    0    0 -0.22454520781E+02 -0.13577582744E+02 -0.34569742689E+02  0.47787269980E+02  0.19999995146E+02 0.  0.
        -12    1    1    2    0    0  0.22454520781E+02  0.13577582744E+02  0.34569742689E+02  0.43400730020E+02  0.00000000000E+00 0.  1.
         11    1    3    3    0    0 -0.85093046506E+01 -0.68509712750E+00 -0.14040297264E+02  0.16431907108E+02  0.51100000000E-03 0. -1.
        -11    1    3    3    0    0 -0.28798721356E+01 -0.39813003686E+01 -0.15538302099E+02  0.16296725086E+02  0.51100000000E-03 0.  1.
        -12    1    3    3    0    0 -0.11065343995E+02 -0.89111852483E+01 -0.49911433267E+01  0.15058637785E+02  0.00000000000E+00 0.  1.
</event>
<event>
 7    1  0.1542786E-009  0.4778727E+02  0.7816164E-02  0.1312668E+00
        -11   -1    0    0    0    0  0.00000000000E+00  0.00000000000E+00  0.45593999997E+02  0.45594000000E+02  0.51100000000E-03 0.  1.
         11   -1    0    0    0    0 -0.00000000000E+00 -0.00000000000E+00 -0.45593999997E+02  0.45594000000E+02  0.51100000000E-03 0. -1.
    9900012    2    1    2    0    0  0.19997524130E+02 -0.29919531885E+02 -0.24259930758E+02  0.47787267288E+02  0.19999982875E+02 0.  0.
        -12    1    1    2    0    0 -0.19997524130E+02  0.29919531885E+02  0.24259930758E+02  0.43400732712E+02  0.00000000000E+00 0.  1.
         11    1    3    3    0    0  0.53427681777E+01 -0.11943695033E+01 -0.11332225783E+02  0.12585349886E+02  0.51100000000E-03 0. -1.
        -11    1    3    3    0    0  0.92627215614E+01 -0.12062145861E+02 -0.66244270768E+01  0.16588441996E+02  0.51100000000E-03 0.  1.
        -12    1    3    3    0    0  0.53920343908E+01 -0.16663016520E+02 -0.63032778984E+01  0.18613475406E+02  0.00000000000E+00 0.  1.
</event>
<event>
 7    1  0.1542786E-009  0.4778727E+02  0.7816164E-02  0.1312668E+00
        -11   -1    0    0    0    0  0.00000000000E+00  0.00000000000E+00  0.45593999997E+02  0.45594000000E+02  0.51100000000E-03 0. -1.
         11   -1    0    0    0    0 -0.00000000000E+00 -0.00000000000E+00 -0.45593999997E+02  0.45594000000E+02  0.51100000000E-03 0.  1.
    9900012    2    1    2    0    0  0.55571726993E+01  0.28391991694E+02  0.32351755326E+02  0.47787269206E+02  0.19999991619E+02 0.  0.
        -12    1    1    2    0    0 -0.55571726993E+01 -0.28391991694E+02 -0.32351755326E+02  0.43400730794E+02  0.00000000000E+00 0.  1.
         11    1    3    3    0    0  0.16033479747E+01  0.14208965568E+02  0.62449141633E+01  0.15603345167E+02  0.51100000000E-03 0. -1.
        -11    1    3    3    0    0 -0.41808863253E+01  0.40097839846E+01  0.82839635534E+01  0.10108522666E+02  0.51100000000E-03 0.  1.
         12    1    3    3    0    0  0.81347110498E+01  0.10173242142E+02  0.17822877609E+02  0.22075401374E+02  0.00000000000E+00 0. -1.
</event>
<event>
 7    1  0.1542786E-009  0.4778726E+02  0.7816164E-02  0.1312668E+00
        -11   -1    0    0    0    0  0.00000000000E+00  0.00000000000E+00  0.45593999997E+02  0.45594000000E+02  0.51100000000E-03 0.  1.
         11   -1    0    0    0    0 -0.00000000000E+00 -0.00000000000E+00 -0.45593999997E+02  0.45594000000E+02  0.51100000000E-03 0. -1.
    9900012    2    1    2    0    0  0.35632543389E+02 -0.23640022656E+02 -0.74226069138E+01  0.47787263682E+02  0.19999966432E+02 0.  0.
        -12    1    1    2    0    0 -0.35632543389E+02  0.23640022656E+02  0.74226069138E+01  0.43400736318E+02  0.00000000000E+00 0.  1.
         11    1    3    3    0    0  0.12394727605E+01 -0.90176957496E+01 -0.79119561483E+00  0.91368003217E+01  0.51100000000E-03 0. -1.
        -11    1    3    3    0    0  0.10371646301E+02 -0.20963661351E+01  0.63920825752E+00  0.10600678536E+02  0.51100000000E-03 0.  1.
         12    1    3    3    0    0  0.24021424327E+02 -0.12525960771E+02 -0.72706195565E+01  0.28049784824E+02  0.00000000000E+00 0. -1.
</event>
<event>
 7    1  0.1542786E-009  0.4778728E+02  0.7816164E-02  0.1312668E+00
        -11   -1    0    0    0    0  0.00000000000E+00  0.00000000000E+00  0.45593999997E+02  0.45594000000E+02  0.51100000000E-03 0.  1.
         11   -1    0    0    0    0 -0.00000000000E+00 -0.00000000000E+00 -0.45593999997E+02  0.45594000000E+02  0.51100000000E-03 0. -1.
    9900012    2    1    2    0    0 -0.43739421715E+01 -0.11040907524E+02 -0.41744330042E+02  0.47787284572E+02  0.20000061675E+02 0.  0.
        -12    1    1    2    0    0  0.43739421715E+01  0.11040907524E+02  0.41744330042E+02  0.43400715428E+02  0.00000000000E+00 0.  1.
         11    1    3    3    0    0 -0.48830177484E+00  0.38226162303E+00 -0.10505539978E+02  0.10523826921E+02  0.51100000000E-03 0. -1.
        -11    1    3    3    0    0  0.44899239297E+01  0.15437698957E+01 -0.56610642560E+01  0.73885242881E+01  0.51100000000E-03 0.  1.
         12    1    3    3    0    0 -0.83755643263E+01 -0.12966939043E+02 -0.25577725808E+02  0.29874933363E+02  0.00000000000E+00 0. -1.
</event>
<event>
 7    1  0.1542786E-009  0.4778727E+02  0.7816164E-02  0.1312668E+00
        -11   -1    0    0    0    0  0.00000000000E+00  0.00000000000E+00  0.45593999997E+02  0.45594000000E+02  0.51100000000E-03 0.  1.
         11   -1    0    0    0    0 -0.00000000000E+00 -0.00000000000E+00 -0.45593999997E+02  0.45594000000E+02  0.51100000000E-03 0. -1.
    9900012    2    1    2    0    0 -0.27397075720E+02  0.82005662008E+01 -0.32646192714E+02  0.47787274859E+02  0.20000017393E+02 0.  0.
        -12    1    1    2    0    0  0.27397075720E+02 -0.82005662008E+01  0.32646192714E+02  0.43400725141E+02  0.00000000000E+00 0.  1.
         11    1    3    3    0    0 -0.14338907798E+02 -0.29041458575E+01 -0.99200179684E+01  0.17676116563E+02  0.51100000000E-03 0. -1.
        -11    1    3    3    0    0  0.16451433951E+00  0.84711797631E+00 -0.73005712685E+01  0.73513954418E+01  0.51100000000E-03 0.  1.
        -12    1    3    3    0    0 -0.13222682261E+02  0.10257594082E+02 -0.15425603478E+02  0.22759762854E+02  0.00000000000E+00 0.  1.
</event>
<event>
 7    1  0.1542786E-009  0.4778727E+02  0.7816164E-02  0.1312668E+00
        -11   -1    0    0    0    0  0.00000000000E+00  0.00000000000E+00  0.45593999997E+02  0.45594000000E+02  0.51100000000E-03 0.  1.
         11   -1    0    0    0    0 -0.00000000000E+00 -0.00000000000E+00 -0.45593999997E+02  0.45594000000E+02  0.51100000000E-03 0. -1.
    9900012    2    1    2    0    0  0.19469273089E+02  0.37577440547E+01 -0.38606350016E+02  0.47787268479E+02  0.19999988305E+02 0.  0.
        -12    1    1    2    0    0 -0.19469273089E+02 -0.37577440547E+01  0.38606350016E+02  0.43400731521E+02  0.00000000000E+00 0.  1.
         11    1    3    3    0    0  0.13426250934E+02  0.98624203136E+00 -0.26220642363E+02  0.29474717533E+02  0.51100000000E-03 0. -1.
        -11    1    3    3    0    0 -0.22699097188E+01  0.25311527975E+01 -0.84570841673E+01  0.91149052375E+01  0.51100000000E-03 0.  1.
         12    1    3    3    0    0  0.83129318737E+01  0.24034922592E+00 -0.39286234857E+01  0.91976457086E+01  0.00000000000E+00 0. -1.
</event>
<event>
 7    1  0.1542786E-009  0.4778727E+02  0.7816164E-02  0.1312668E+00
        -11   -1    0    0    0    0  0.00000000000E+00  0.00000000000E+00  0.45593999997E+02  0.45594000000E+02  0.51100000000E-03 0.  1.
         11   -1    0    0    0    0 -0.00000000000E+00 -0.00000000000E+00 -0.45593999997E+02  0.45594000000E+02  0.51100000000E-03 0. -1.
    9900012    2    1    2    0    0 -0.22994471064E+02 -0.31965178474E+02 -0.18251164566E+02  0.47787270255E+02  0.19999996403E+02 0.  0.
        -12    1    1    2    0    0  0.22994471064E+02  0.31965178474E+02  0.18251164566E+02  0.43400729745E+02  0.00000000000E+00 0.  1.
         11    1    3    3    0    0 -0.19387903596E+02 -0.15585365435E+02 -0.13262138944E+02  0.28190047024E+02  0.51100000000E-03 0. -1.
        -11    1    3    3    0    0  0.18326958692E+01 -0.40985020143E+01 -0.41908204428E+01  0.61416177962E+01  0.51100000000E-03 0.  1.
        -12    1    3    3    0    0 -0.54392633373E+01 -0.12281311024E+02 -0.79820517891E+00  0.13455605435E+02  0.00000000000E+00 0.  1.
</event>
<event>
 7    1  0.1542786E-009  0.4778726E+02  0.7816164E-02  0.1312668E+00
        -11   -1    0    0    0    0  0.00000000000E+00  0.00000000000E+00  0.45593999997E+02  0.45594000000E+02  0.51100000000E-03 0. -1.
         11   -1    0    0    0    0 -0.00000000000E+00 -0.00000000000E+00 -0.45593999997E+02  0.45594000000E+02  0.51100000000E-03 0.  1.
    9900012    2    1    2    0    0 -0.20532469049E+02  0.38206934069E+02  0.15072687342E+01  0.47787263195E+02  0.19999964211E+02 0.  0.
        -12    1    1    2    0    0  0.20532469049E+02 -0.38206934069E+02 -0.15072687342E+01  0.43400736805E+02  0.00000000000E+00 0.  1.
         11    1    3    3    0    0 -0.26593511704E+01  0.15451849937E+02 -0.11800558419E+01  0.15723369460E+02  0.51100000000E-03 0. -1.
        -11    1    3    3    0    0 -0.12710339475E+02  0.15228141654E+02  0.81299226920E+01  0.21436993050E+02  0.51100000000E-03 0.  1.
         12    1    3    3    0    0 -0.51627784040E+01  0.75269424777E+01 -0.54425981160E+01  0.10626900685E+02  0.00000000000E+00 0. -1.
</event>
<event>
 7    1  0.1542786E-009  0.4778727E+02  0.7816164E-02  0.1312668E+00
        -11   -1    0    0    0    0  0.00000000000E+00  0.00000000000E+00  0.45593999997E+02  0.45594000000E+02  0.51100000000E-03 0.  1.
         11   -1    0    0    0    0 -0.00000000000E+00 -0.00000000000E+00 -0.45593999997E+02  0.45594000000E+02  0.51100000000E-03 0. -1.
    9900012    2    1    2    0    0  0.28462072557E+02 -0.16052491551E+02  0.28563110245E+02  0.47787270443E+02  0.19999997256E+02 0.  0.
        -12    1    1    2    0    0 -0.28462072557E+02  0.16052491551E+02 -0.28563110245E+02  0.43400729557E+02  0.00000000000E+00 0.  1.
         11    1    3    3    0    0  0.11670089623E+02 -0.22982356383E+01  0.24838705755E+01  0.12150822695E+02  0.51100000000E-03 0. -1.
        -11    1    3    3    0    0  0.22017294063E+01 -0.39388055564E+01  0.42269769147E+00  0.45321601019E+01  0.51100000000E-03 0.  1.
        -12    1    3    3    0    0  0.14590253528E+02 -0.98154503566E+01  0.25656541978E+02  0.31104287646E+02  0.00000000000E+00 0.  1.
</event>
<event>
 7    1  0.1542786E-009  0.4778728E+02  0.7816164E-02  0.1312668E+00
        -11   -1    0    0    0    0  0.00000000000E+00  0.00000000000E+00  0.45593999997E+02  0.45594000000E+02  0.51100000000E-03 0.  1.
         11   -1    0    0    0    0 -0.00000000000E+00 -0.00000000000E+00 -0.45593999997E+02  0.45594000000E+02  0.51100000000E-03 0. -1.
    9900012    2    1    2    0    0 -0.30436491227E+01  0.36131298699E+01 -0.43142836799E+02  0.47787275645E+02  0.20000020976E+02 0.  0.
        -12    1    1    2    0    0  0.30436491227E+01 -0.36131298699E+01  0.43142836799E+02  0.43400724355E+02  0.00000000000E+00 0.  1.
         11    1    3    3    0    0 -0.42437811366E+01  0.30103717755E+01 -0.34807624928E+02  0.35194357075E+02  0.51100000000E-03 0. -1.
        -11    1    3    3    0    0 -0.81112694393E+00  0.47555680821E+01 -0.41630965558E+01  0.63721839189E+01  0.51100000000E-03 0.  1.
         12    1    3    3    0    0  0.20112589578E+01 -0.41528099877E+01 -0.41721153161E+01  0.62207346512E+01  0.00000000000E+00 0. -1.
</event>
<event>
 7    1  0.1542786E-009  0.4778728E+02  0.7816164E-02  0.1312668E+00
        -11   -1    0    0    0    0  0.00000000000E+00  0.00000000000E+00  0.45593999997E+02  0.45594000000E+02  0.51100000000E-03 0.  1.
         11   -1    0    0    0    0 -0.00000000000E+00 -0.00000000000E+00 -0.45593999997E+02  0.45594000000E+02  0.51100000000E-03 0. -1.
    9900012    2    1    2    0    0 -0.21398100307E+02  0.26498993255E+02  0.26898839553E+02  0.47787275242E+02  0.20000019137E+02 0.  0.
        -12    1    1    2    0    0  0.21398100307E+02 -0.26498993255E+02 -0.26898839553E+02  0.43400724758E+02  0.00000000000E+00 0.  1.
         11    1    3    3    0    0 -0.18082106563E+02  0.89566687169E+01  0.81523412009E+01  0.21763390351E+02  0.51100000000E-03 0.  1.
        -11    1    3    3    0    0 -0.27555893519E+00  0.86106178627E+01  0.88864430235E+01  0.12376895514E+02  0.51100000000E-03 0. -1.
        -12    1    3    3    0    0 -0.30404348085E+01  0.89317066754E+01  0.98600553282E+01  0.13646989376E+02  0.00000000000E+00 0.  1.
</event>
<event>
 7    1  0.1542786E-009  0.4778727E+02  0.7816164E-02  0.1312668E+00
        -11   -1    0    0    0    0  0.00000000000E+00  0.00000000000E+00  0.45593999997E+02  0.45594000000E+02  0.51100000000E-03 0. -1.
         11   -1    0    0    0    0 -0.00000000000E+00 -0.00000000000E+00 -0.45593999997E+02  0.45594000000E+02  0.51100000000E-03 0.  1.
    9900012    2    1    2    0    0 -0.35029221626E+02  0.18362905419E+02  0.17871215985E+02  0.47787273923E+02  0.20000013126E+02 0.  0.
        -12    1    1    2    0    0  0.35029221626E+02 -0.18362905419E+02 -0.17871215985E+02  0.43400726077E+02  0.00000000000E+00 0.  1.
         11    1    3    3    0    0 -0.92604841156E+01  0.67440721130E+00  0.86583314442E+01  0.12695593519E+02  0.51100000000E-03 0. -1.
        -11    1    3    3    0    0 -0.83945510900E+01  0.24541172319E+01 -0.26212115458E+01  0.91302754405E+01  0.51100000000E-03 0.  1.
        -12    1    3    3    0    0 -0.17374186421E+02  0.15234380976E+02  0.11834096087E+02  0.25961404964E+02  0.00000000000E+00 0.  1.
</event>
<event>
 7    1  0.1542786E-009  0.4778727E+02  0.7816164E-02  0.1312668E+00
        -11   -1    0    0    0    0  0.00000000000E+00  0.00000000000E+00  0.45593999997E+02  0.45594000000E+02  0.51100000000E-03 0.  1.
         11   -1    0    0    0    0 -0.00000000000E+00 -0.00000000000E+00 -0.45593999997E+02  0.45594000000E+02  0.51100000000E-03 0. -1.
    9900012    2    1    2    0    0  0.10302009447E+02 -0.44720576747E+01 -0.41922459089E+02  0.47787271036E+02  0.19999999962E+02 0.  0.
        -12    1    1    2    0    0 -0.10302009447E+02  0.44720576747E+01  0.41922459089E+02  0.43400728964E+02  0.00000000000E+00 0.  1.
         11    1    3    3    0    0  0.37653876389E+01 -0.20761666404E+01 -0.32344203769E+01  0.53805285452E+01  0.51100000000E-03 0. -1.
        -11    1    3    3    0    0 -0.15727043139E+01  0.47715378707E+01 -0.21623870273E+02  0.22199836449E+02  0.51100000000E-03 0.  1.
        -12    1    3    3    0    0  0.81093261223E+01 -0.71674289050E+01 -0.17064168440E+02  0.20206906042E+02  0.00000000000E+00 0.  1.
</event>
<event>
 7    1  0.1542786E-009  0.4778727E+02  0.7816164E-02  0.1312668E+00
        -11   -1    0    0    0    0  0.00000000000E+00  0.00000000000E+00  0.45593999997E+02  0.45594000000E+02  0.51100000000E-03 0.  1.
         11   -1    0    0    0    0 -0.00000000000E+00 -0.00000000000E+00 -0.45593999997E+02  0.45594000000E+02  0.51100000000E-03 0. -1.
    9900012    2    1    2    0    0  0.36850777404E+02  0.22778995164E+02  0.26001019641E+01  0.47787274820E+02  0.20000017213E+02 0.  0.
        -12    1    1    2    0    0 -0.36850777404E+02 -0.22778995164E+02 -0.26001019641E+01  0.43400725180E+02  0.00000000000E+00 0.  1.
         11    1    3    3    0    0  0.50636480948E+01  0.44754028118E+01  0.54934019812E+00  0.67802313582E+01  0.51100000000E-03 0. -1.
        -11    1    3    3    0    0  0.15874974301E+01  0.76534880359E+01 -0.34001231289E+01  0.85238996216E+01  0.51100000000E-03 0.  1.
        -12    1    3    3    0    0  0.30199631879E+02  0.10650104316E+02  0.54508848949E+01  0.32483143840E+02  0.00000000000E+00 0.  1.
</event>
<event>
 7    1  0.1542786E-009  0.4778727E+02  0.7816164E-02  0.1312668E+00
        -11   -1    0    0    0    0  0.00000000000E+00  0.00000000000E+00  0.45593999997E+02  0.45594000000E+02  0.51100000000E-03 0.  1.
         11   -1    0    0    0    0 -0.00000000000E+00 -0.00000000000E+00 -0.45593999997E+02  0.45594000000E+02  0.51100000000E-03 0. -1.
    9900012    2    1    2    0    0  0.18934364339E+02 -0.36084554866E+02  0.14933786736E+02  0.47787271445E+02  0.20000001827E+02 0.  0.
        -12    1    1    2    0    0 -0.18934364339E+02  0.36084554866E+02 -0.14933786736E+02  0.43400728555E+02  0.00000000000E+00 0.  1.
         11    1    3    3    0    0  0.11577948368E+01 -0.20408795956E+02  0.10932374303E+02  0.23181377212E+02  0.51100000000E-03 0. -1.
        -11    1    3    3    0    0  0.44078856608E+01 -0.13080539158E+01  0.11405428587E+00  0.45992901285E+01  0.51100000000E-03 0.  1.
         12    1    3    3    0    0  0.13368683842E+02 -0.14367704994E+02  0.38873581472E+01  0.20006604105E+02  0.00000000000E+00 0. -1.
</event>
<event>
 7    1  0.1542786E-009  0.4778727E+02  0.7816164E-02  0.1312668E+00
        -11   -1    0    0    0    0  0.00000000000E+00  0.00000000000E+00  0.45593999997E+02  0.45594000000E+02  0.51100000000E-03 0.  1.
         11   -1    0    0    0    0 -0.00000000000E+00 -0.00000000000E+00 -0.45593999997E+02  0.45594000000E+02  0.51100000000E-03 0. -1.
    9900012    2    1    2    0    0 -0.28155276659E+01  0.26517826277E+02 -0.34241805014E+02  0.47787268242E+02  0.19999987221E+02 0.  0.
        -12    1    1    2    0    0  0.28155276659E+01 -0.26517826277E+02  0.34241805014E+02  0.43400731758E+02  0.00000000000E+00 0.  1.
         11    1    3    3    0    0 -0.21719037398E+01  0.70614995517E+00 -0.53693179171E+01  0.58348426517E+01  0.51100000000E-03 0. -1.
        -11    1    3    3    0    0 -0.57140196985E+01  0.25091200464E+01 -0.36001630841E+01  0.72046428792E+01  0.51100000000E-03 0.  1.
         12    1    3    3    0    0  0.50703957724E+01  0.23302556276E+02 -0.25272324013E+02  0.34747782711E+02  0.00000000000E+00 0. -1.
</event>
<event>
 7    1  0.1542786E-009  0.4778727E+02  0.7816164E-02  0.1312668E+00
        -11   -1    0    0    0    0  0.00000000000E+00  0.00000000000E+00  0.45593999997E+02  0.45594000000E+02  0.51100000000E-03 0.  1.
         11   -1    0    0    0    0 -0.00000000000E+00 -0.00000000000E+00 -0.45593999997E+02  0.45594000000E+02  0.51100000000E-03 0. -1.
    9900012    2    1    2    0    0 -0.16432135398E+02 -0.11129841689E+02 -0.38597079582E+02  0.47787274176E+02  0.20000014280E+02 0.  0.
        -12    1    1    2    0    0  0.16432135398E+02  0.11129841689E+02  0.38597079582E+02  0.43400725824E+02  0.00000000000E+00 0.  1.
         11    1    3    3    0    0 -0.16779232097E+01 -0.68349728368E+01 -0.11810233643E+02  0.13748232575E+02  0.51100000000E-03 0. -1.
        -11    1    3    3    0    0 -0.20895712317E+01  0.28874675526E+01 -0.14980461043E-01  0.35642673125E+01  0.51100000000E-03 0.  1.
        -12    1    3    3    0    0 -0.12664640956E+02 -0.71823364052E+01 -0.26771865478E+02  0.30474774289E+02  0.00000000000E+00 0.  1.
</event>
<event>
 7    1  0.1542786E-009  0.4778727E+02  0.7816164E-02  0.1312668E+00
        -11   -1    0    0    0    0  0.00000000000E+00  0.00000000000E+00  0.45593999997E+02  0.45594000000E+02  0.51100000000E-03 0.  1.
         11   -1    0    0    0    0 -0.00000000000E+00 -0.00000000000E+00 -0.45593999997E+02  0.45594000000E+02  0.51100000000E-03 0. -1.
    9900012    2    1    2    0    0 -0.13056769395E+02  0.29375983951E+02 -0.29158116304E+02  0.47787269516E+02  0.19999993031E+02 0.  0.
        -12    1    1    2    0    0  0.13056769395E+02 -0.29375983951E+02  0.29158116304E+02  0.43400730484E+02  0.00000000000E+00 0.  1.
         11    1    3    3    0    0 -0.79000891679E+01  0.59635229383E+01 -0.95723057342E+01  0.13769678719E+02  0.51100000000E-03 0. -1.
        -11    1    3    3    0    0  0.34477140820E+01  0.78658012520E+01 -0.11857035168E+02  0.14640588956E+02  0.51100000000E-03 0.  1.
         12    1    3    3    0    0 -0.86043943095E+01  0.15546659761E+02 -0.77287754018E+01  0.19377001841E+02  0.00000000000E+00 0. -1.
</event>
<event>
 7    1  0.1542786E-009  0.4778727E+02  0.7816164E-02  0.1312668E+00
        -11   -1    0    0    0    0  0.00000000000E+00  0.00000000000E+00  0.45593999997E+02  0.45594000000E+02  0.51100000000E-03 0.  1.
         11   -1    0    0    0    0 -0.00000000000E+00 -0.00000000000E+00 -0.45593999997E+02  0.45594000000E+02  0.51100000000E-03 0. -1.
    9900012    2    1    2    0    0 -0.28105594652E+02  0.43029540447E+01 -0.32789990517E+02  0.47787270256E+02  0.19999996403E+02 0.  0.
        -12    1    1    2    0    0  0.28105594652E+02 -0.43029540447E+01  0.32789990517E+02  0.43400729744E+02  0.00000000000E+00 0.  1.
         11    1    3    3    0    0 -0.94175658373E+01  0.37130871070E+01 -0.44427253987E+01  0.11055106123E+02  0.51100000000E-03 0.  1.
        -11    1    3    3    0    0 -0.16562848300E+02 -0.21047359590E+01 -0.28780889059E+02  0.33273073686E+02  0.51100000000E-03 0. -1.
         12    1    3    3    0    0 -0.21251805153E+01  0.26946028967E+01  0.43362394080E+00  0.34590904463E+01  0.00000000000E+00 0. -1.
</event>
<event>
 7    1  0.1542786E-009  0.4778727E+02  0.7816164E-02  0.1312668E+00
        -11   -1    0    0    0    0  0.00000000000E+00  0.00000000000E+00  0.45593999997E+02  0.45594000000E+02  0.51100000000E-03 0.  1.
         11   -1    0    0    0    0 -0.00000000000E+00 -0.00000000000E+00 -0.45593999997E+02  0.45594000000E+02  0.51100000000E-03 0. -1.
    9900012    2    1    2    0    0 -0.81529790650E+01  0.76793687411E+01 -0.41930647602E+02  0.47787274427E+02  0.20000015424E+02 0.  0.
        -12    1    1    2    0    0  0.81529790650E+01 -0.76793687411E+01  0.41930647602E+02  0.43400725573E+02  0.00000000000E+00 0.  1.
         11    1    3    3    0    0 -0.25528601598E+00  0.57212022775E+00 -0.86202120628E+01  0.86429479215E+01  0.51100000000E-03 0. -1.
        -11    1    3    3    0    0 -0.60463985671E+01 -0.44057363680E+01 -0.65107014630E+01  0.99175945863E+01  0.51100000000E-03 0.  1.
        -12    1    3    3    0    0 -0.18512944819E+01  0.11512984881E+02 -0.26799734076E+02  0.29226731920E+02  0.00000000000E+00 0.  1.
</event>
<event>
 7    1  0.1542786E-009  0.4778731E+02  0.7816164E-02  0.1312668E+00
        -11   -1    0    0    0    0  0.00000000000E+00  0.00000000000E+00  0.45593999997E+02  0.45594000000E+02  0.51100000000E-03 0.  1.
         11   -1    0    0    0    0 -0.00000000000E+00 -0.00000000000E+00 -0.45593999997E+02  0.45594000000E+02  0.51100000000E-03 0. -1.
    9900012    2    1    2    0    0  0.13825902508E+02  0.85395384714E+01 -0.40243517380E+02  0.47787308893E+02  0.20000172567E+02 0.  0.
        -12    1    1    2    0    0 -0.13825902508E+02 -0.85395384714E+01  0.40243517380E+02  0.43400691107E+02  0.00000000000E+00 0.  1.
         11    1    3    3    0    0  0.84996689736E+01  0.99119896716E+01 -0.15695810907E+02  0.20416914365E+02  0.51100000000E-03 0. -1.
        -11    1    3    3    0    0  0.26431539921E+01 -0.36841042617E+01 -0.27845516902E+01  0.53209600274E+01  0.51100000000E-03 0.  1.
         12    1    3    3    0    0  0.26830795419E+01  0.23116530615E+01 -0.21763154782E+02  0.22049434500E+02  0.00000000000E+00 0. -1.
</event>
<event>
 7    1  0.1542786E-009  0.4778727E+02  0.7816164E-02  0.1312668E+00
        -11   -1    0    0    0    0  0.00000000000E+00  0.00000000000E+00  0.45593999997E+02  0.45594000000E+02  0.51100000000E-03 0. -1.
         11   -1    0    0    0    0 -0.00000000000E+00 -0.00000000000E+00 -0.45593999997E+02  0.45594000000E+02  0.51100000000E-03 0.  1.
    9900012    2    1    2    0    0  0.36539248973E+02 -0.18907589264E+02 -0.13820616253E+02  0.47787273267E+02  0.20000010135E+02 0.  0.
        -12    1    1    2    0    0 -0.36539248973E+02  0.18907589264E+02  0.13820616253E+02  0.43400726733E+02  0.00000000000E+00 0.  1.
         11    1    3    3    0    0  0.16111488093E+02 -0.95251022648E+01 -0.24494759733E+01  0.18876110684E+02  0.51100000000E-03 0. -1.
        -11    1    3    3    0    0  0.28418155114E+01  0.26073670127E+01  0.13840187330E+01  0.40975341676E+01  0.51100000000E-03 0.  1.
         12    1    3    3    0    0  0.17585945368E+02 -0.11989854012E+02 -0.12755159013E+02  0.24813628416E+02  0.00000000000E+00 0. -1.
</event>
<event>
 7    1  0.1542786E-009  0.4778728E+02  0.7816164E-02  0.1312668E+00
        -11   -1    0    0    0    0  0.00000000000E+00  0.00000000000E+00  0.45593999997E+02  0.45594000000E+02  0.51100000000E-03 0. -1.
         11   -1    0    0    0    0 -0.00000000000E+00 -0.00000000000E+00 -0.45593999997E+02  0.45594000000E+02  0.51100000000E-03 0.  1.
    9900012    2    1    2    0    0  0.41219454149E+02 -0.11432202199E+02  0.73405810210E+01  0.47787276767E+02  0.20000026091E+02 0.  0.
        -12    1    1    2    0    0 -0.41219454149E+02  0.11432202199E+02 -0.73405810210E+01  0.43400723233E+02  0.00000000000E+00 0.  1.
         11    1    3    3    0    0  0.12679375651E+02 -0.38557543799E+01  0.20462585260E+00  0.13254255193E+02  0.51100000000E-03 0. -1.
        -11    1    3    3    0    0  0.21276553646E+02 -0.12145464728E+02  0.21131678838E+01  0.24590029022E+02  0.51100000000E-03 0.  1.
        -12    1    3    3    0    0  0.72635248519E+01  0.45690169087E+01  0.50227872846E+01  0.99429925521E+01  0.00000000000E+00 0.  1.
</event>
<event>
 7    1  0.1542786E-009  0.4778727E+02  0.7816164E-02  0.1312668E+00
        -11   -1    0    0    0    0  0.00000000000E+00  0.00000000000E+00  0.45593999997E+02  0.45594000000E+02  0.51100000000E-03 0.  1.
         11   -1    0    0    0    0 -0.00000000000E+00 -0.00000000000E+00 -0.45593999997E+02  0.45594000000E+02  0.51100000000E-03 0. -1.
    9900012    2    1    2    0    0 -0.70522780497E+01  0.36860678347E+02 -0.21798598563E+02  0.47787272665E+02  0.20000007390E+02 0.  0.
        -12    1    1    2    0    0  0.70522780497E+01 -0.36860678347E+02  0.21798598563E+02  0.43400727335E+02  0.00000000000E+00 0.  1.
         11    1    3    3    0    0 -0.69653688780E+01  0.12001427744E+02 -0.39684917731E-01  0.13876318195E+02  0.51100000000E-03 0. -1.
        -11    1    3    3    0    0  0.20714321882E+01  0.18541192505E+01 -0.34472709532E+01  0.44285739004E+01  0.51100000000E-03 0.  1.
         12    1    3    3    0    0 -0.21583413599E+01  0.23005131352E+02 -0.18311642692E+02  0.29482380570E+02  0.00000000000E+00 0. -1.
</event>
<event>
 7    1  0.1542786E-009  0.4778727E+02  0.7816164E-02  0.1312668E+00
        -11   -1    0    0    0    0  0.00000000000E+00  0.00000000000E+00  0.45593999997E+02  0.45594000000E+02  0.51100000000E-03 0.  1.
         11   -1    0    0    0    0 -0.00000000000E+00 -0.00000000000E+00 -0.45593999997E+02  0.45594000000E+02  0.51100000000E-03 0. -1.
    9900012    2    1    2    0    0 -0.37051418519E+02  0.20837242117E+02  0.87535565465E+01  0.47787273906E+02  0.20000013046E+02 0.  0.
        -12    1    1    2    0    0  0.37051418519E+02 -0.20837242117E+02 -0.87535565465E+01  0.43400726094E+02  0.00000000000E+00 0.  1.
         11    1    3    3    0    0 -0.85048175500E+01  0.14206541133E+01  0.39336113866E+01  0.94775249127E+01  0.51100000000E-03 0. -1.
        -11    1    3    3    0    0 -0.52466203045E+01  0.12723483646E+02  0.16723995924E+01  0.13864017505E+02  0.51100000000E-03 0.  1.
         12    1    3    3    0    0 -0.23299980664E+02  0.66931043575E+01  0.31475455676E+01  0.24445731488E+02  0.00000000000E+00 0. -1.
</event>
<event>
 7    1  0.1542786E-009  0.4778726E+02  0.7816164E-02  0.1312668E+00
        -11   -1    0    0    0    0  0.00000000000E+00  0.00000000000E+00  0.45593999997E+02  0.45594000000E+02  0.51100000000E-03 0.  1.
         11   -1    0    0    0    0 -0.00000000000E+00 -0.00000000000E+00 -0.45593999997E+02  0.45594000000E+02  0.51100000000E-03 0. -1.
    9900012    2    1    2    0    0  0.30447759526E+02  0.40839414937E+01 -0.30657452211E+02  0.47787262514E+02  0.19999961105E+02 0.  0.
        -12    1    1    2    0    0 -0.30447759526E+02 -0.40839414937E+01  0.30657452211E+02  0.43400737486E+02  0.00000000000E+00 0.  1.
         11    1    3    3    0    0  0.62492036704E+01  0.60146455671E+01 -0.98461765946E+01  0.13121573900E+02  0.51100000000E-03 0. -1.
        -11    1    3    3    0    0  0.23135551941E+02 -0.99143837035E-01 -0.12927663208E+02  0.26502604955E+02  0.51100000000E-03 0.  1.
         12    1    3    3    0    0  0.10630039144E+01 -0.18315602364E+01 -0.78836124078E+01  0.81630836587E+01  0.00000000000E+00 0. -1.
</event>
<event>
 7    1  0.1542786E-009  0.4778727E+02  0.7816164E-02  0.1312668E+00
        -11   -1    0    0    0    0  0.00000000000E+00  0.00000000000E+00  0.45593999997E+02  0.45594000000E+02  0.51100000000E-03 0.  1.
         11   -1    0    0    0    0 -0.00000000000E+00 -0.00000000000E+00 -0.45593999997E+02  0.45594000000E+02  0.51100000000E-03 0. -1.
    9900012    2    1    2    0    0  0.17508636523E+02  0.30405604053E+02 -0.25545454022E+02  0.47787270376E+02  0.19999996951E+02 0.  0.
        -12    1    1    2    0    0 -0.17508636523E+02 -0.30405604053E+02  0.25545454022E+02  0.43400729624E+02  0.00000000000E+00 0.  1.
         11    1    3    3    0    0  0.60968872055E+01  0.23026502415E+02 -0.21517325985E+02  0.32099644311E+02  0.51100000000E-03 0. -1.
        -11    1    3    3    0    0  0.86905270515E+01  0.84501116155E+01 -0.39957123353E+01  0.12763046818E+02  0.51100000000E-03 0.  1.
        -12    1    3    3    0    0  0.27212222657E+01 -0.10710099779E+01 -0.32415701611E-01  0.29245792466E+01  0.00000000000E+00 0.  1.
</event>
<event>
 7    1  0.1542786E-009  0.4778727E+02  0.7816164E-02  0.1312668E+00
        -11   -1    0    0    0    0  0.00000000000E+00  0.00000000000E+00  0.45593999997E+02  0.45594000000E+02  0.51100000000E-03 0.  1.
         11   -1    0    0    0    0 -0.00000000000E+00 -0.00000000000E+00 -0.45593999997E+02  0.45594000000E+02  0.51100000000E-03 0. -1.
    9900012    2    1    2    0    0 -0.24951438336E+02 -0.35486673740E+02  0.13210209140E+01  0.47787269771E+02  0.19999994192E+02 0.  0.
        -12    1    1    2    0    0  0.24951438336E+02  0.35486673740E+02 -0.13210209140E+01  0.43400730229E+02  0.00000000000E+00 0.  1.
         11    1    3    3    0    0 -0.23342136714E+02 -0.29152993865E+02 -0.36965741267E+01  0.37528882986E+02  0.51100000000E-03 0. -1.
        -11    1    3    3    0    0 -0.26893329001E+01 -0.17892313388E+00  0.13821202003E+01  0.30289901691E+01  0.51100000000E-03 0.  1.
         12    1    3    3    0    0  0.10800312778E+01 -0.61547567413E+01  0.36354748405E+01  0.72293966153E+01  0.00000000000E+00 0. -1.
</event>
<event>
 7    1  0.1542786E-009  0.4778728E+02  0.7816164E-02  0.1312668E+00
        -11   -1    0    0    0    0  0.00000000000E+00  0.00000000000E+00  0.45593999997E+02  0.45594000000E+02  0.51100000000E-03 0.  1.
         11   -1    0    0    0    0 -0.00000000000E+00 -0.00000000000E+00 -0.45593999997E+02  0.45594000000E+02  0.51100000000E-03 0. -1.
    9900012    2    1    2    0    0  0.17157511661E+02 -0.31561334176E+02 -0.24354150241E+02  0.47787278170E+02  0.20000032490E+02 0.  0.
        -12    1    1    2    0    0 -0.17157511661E+02  0.31561334176E+02  0.24354150241E+02  0.43400721830E+02  0.00000000000E+00 0.  1.
         11    1    3    3    0    0  0.59722069182E+00 -0.10316354021E+02 -0.12896157230E+02  0.16525577279E+02  0.51100000000E-03 0. -1.
        -11    1    3    3    0    0  0.94162148103E+01 -0.81436719864E+01 -0.26367758129E-02  0.12449277167E+02  0.51100000000E-03 0.  1.
        -12    1    3    3    0    0  0.71440761588E+01 -0.13101308169E+02 -0.11455356235E+02  0.18812423724E+02  0.00000000000E+00 0.  1.
</event>
<event>
 7    1  0.1542786E-009  0.4778727E+02  0.7816164E-02  0.1312668E+00
        -11   -1    0    0    0    0  0.00000000000E+00  0.00000000000E+00  0.45593999997E+02  0.45594000000E+02  0.51100000000E-03 0.  1.
         11   -1    0    0    0    0 -0.00000000000E+00 -0.00000000000E+00 -0.45593999997E+02  0.45594000000E+02  0.51100000000E-03 0. -1.
    9900012    2    1    2    0    0  0.30711970360E+02  0.12417464991E+01 -0.30640767184E+02  0.47787266465E+02  0.19999979119E+02 0.  0.
        -12    1    1    2    0    0 -0.30711970360E+02 -0.12417464991E+01  0.30640767184E+02  0.43400733535E+02  0.00000000000E+00 0.  1.
         11    1    3    3    0    0  0.12873696340E+02  0.36668351751E+01 -0.46780698707E+01  0.14179635949E+02  0.51100000000E-03 0. -1.
        -11    1    3    3    0    0  0.11860079718E+02  0.38847795818E+01 -0.13195713234E+02  0.18162594840E+02  0.51100000000E-03 0.  1.
         12    1    3    3    0    0  0.59781943020E+01 -0.63098682578E+01 -0.12766984079E+02  0.15445035676E+02  0.00000000000E+00 0. -1.
</event>
<event>
 7    1  0.1542786E-009  0.4778727E+02  0.7816164E-02  0.1312668E+00
        -11   -1    0    0    0    0  0.00000000000E+00  0.00000000000E+00  0.45593999997E+02  0.45594000000E+02  0.51100000000E-03 0. -1.
         11   -1    0    0    0    0 -0.00000000000E+00 -0.00000000000E+00 -0.45593999997E+02  0.45594000000E+02  0.51100000000E-03 0.  1.
    9900012    2    1    2    0    0  0.40766303898E+02 -0.14872082039E+02 -0.74375976720E+00  0.47787268021E+02  0.19999986216E+02 0.  0.
        -12    1    1    2    0    0 -0.40766303898E+02  0.14872082039E+02  0.74375976720E+00  0.43400731979E+02  0.00000000000E+00 0.  1.
         11    1    3    3    0    0  0.48453985260E+01 -0.44572636289E+01  0.36301375614E+00  0.65936988998E+01  0.51100000000E-03 0. -1.
        -11    1    3    3    0    0  0.11980039471E+02  0.10707022479E+01  0.63661599243E+01  0.13608664206E+02  0.51100000000E-03 0.  1.
         12    1    3    3    0    0  0.23940865901E+02 -0.11485520658E+02 -0.74729334476E+01  0.27584904915E+02  0.00000000000E+00 0. -1.
</event>
<event>
 7    1  0.1542786E-009  0.4778727E+02  0.7816164E-02  0.1312668E+00
        -11   -1    0    0    0    0  0.00000000000E+00  0.00000000000E+00  0.45593999997E+02  0.45594000000E+02  0.51100000000E-03 0.  1.
         11   -1    0    0    0    0 -0.00000000000E+00 -0.00000000000E+00 -0.45593999997E+02  0.45594000000E+02  0.51100000000E-03 0. -1.
    9900012    2    1    2    0    0 -0.35388506421E+02 -0.20359452410E+02  0.14723097501E+02  0.47787270869E+02  0.19999999199E+02 0.  0.
        -12    1    1    2    0    0  0.35388506421E+02  0.20359452410E+02 -0.14723097501E+02  0.43400729131E+02  0.00000000000E+00 0.  1.
         11    1    3    3    0    0 -0.18251315493E+02 -0.83329844571E+01 -0.61792085700E+00  0.20073140602E+02  0.51100000000E-03 0. -1.
        -11    1    3    3    0    0 -0.86124903286E+01 -0.66525260039E+01  0.21145026566E+01  0.11086127080E+02  0.51100000000E-03 0.  1.
        -12    1    3    3    0    0 -0.85247005988E+01 -0.53739419486E+01  0.13226515701E+02  0.16628003186E+02  0.00000000000E+00 0.  1.
</event>
<event>
 7    1  0.1542786E-009  0.4778727E+02  0.7816164E-02  0.1312668E+00
        -11   -1    0    0    0    0  0.00000000000E+00  0.00000000000E+00  0.45593999997E+02  0.45594000000E+02  0.51100000000E-03 0.  1.
         11   -1    0    0    0    0 -0.00000000000E+00 -0.00000000000E+00 -0.45593999997E+02  0.45594000000E+02  0.51100000000E-03 0. -1.
    9900012    2    1    2    0    0 -0.35831697979E+02 -0.22324362205E+02 -0.10066552647E+02  0.47787271779E+02  0.20000003351E+02 0.  0.
        -12    1    1    2    0    0  0.35831697979E+02  0.22324362205E+02  0.10066552647E+02  0.43400728221E+02  0.00000000000E+00 0.  1.
         11    1    3    3    0    0 -0.25799662710E+02 -0.81383194333E+01 -0.90978587787E+01  0.28541651559E+02  0.51100000000E-03 0. -1.
        -11    1    3    3    0    0 -0.53135633666E+01 -0.40871980699E+01  0.30918047610E+01  0.73823032081E+01  0.51100000000E-03 0.  1.
        -12    1    3    3    0    0 -0.47184719025E+01 -0.10098844702E+02 -0.40604986292E+01  0.11863317012E+02  0.00000000000E+00 0.  1.
</event>
<event>
 7    1  0.1542786E-009  0.4778727E+02  0.7816164E-02  0.1312668E+00
        -11   -1    0    0    0    0  0.00000000000E+00  0.00000000000E+00  0.45593999997E+02  0.45594000000E+02  0.51100000000E-03 0.  1.
         11   -1    0    0    0    0 -0.00000000000E+00 -0.00000000000E+00 -0.45593999997E+02  0.45594000000E+02  0.51100000000E-03 0. -1.
    9900012    2    1    2    0    0  0.37709635390E+02 -0.55325134373E+01 -0.20760488564E+02  0.47787271992E+02  0.20000004321E+02 0.  0.
        -12    1    1    2    0    0 -0.37709635390E+02  0.55325134373E+01  0.20760488564E+02  0.43400728008E+02  0.00000000000E+00 0.  1.
         11    1    3    3    0    0  0.10219240251E+02 -0.13845365141E+01 -0.28797506184E+01  0.10707136712E+02  0.51100000000E-03 0. -1.
        -11    1    3    3    0    0  0.10502659418E+02 -0.14712473792E+01  0.20013446371E+01  0.10792395671E+02  0.51100000000E-03 0.  1.
         12    1    3    3    0    0  0.16987735721E+02 -0.26767295439E+01 -0.19882082582E+02  0.26287739610E+02  0.00000000000E+00 0. -1.
</event>
<event>
 7    1  0.1542786E-009  0.4778728E+02  0.7816164E-02  0.1312668E+00
        -11   -1    0    0    0    0  0.00000000000E+00  0.00000000000E+00  0.45593999997E+02  0.45594000000E+02  0.51100000000E-03 0. -1.
         11   -1    0    0    0    0 -0.00000000000E+00 -0.00000000000E+00 -0.45593999997E+02  0.45594000000E+02  0.51100000000E-03 0.  1.
    9900012    2    1    2    0    0  0.14532542967E+02  0.39498219527E+02 -0.10598019194E+02  0.47787283857E+02  0.20000058419E+02 0.  0.
        -12    1    1    2    0    0 -0.14532542967E+02 -0.39498219527E+02  0.10598019194E+02  0.43400716143E+02  0.00000000000E+00 0.  1.
         11    1    3    3    0    0  0.29183284495E+01  0.11075075949E+02  0.22197060599E+01  0.11666235188E+02  0.51100000000E-03 0. -1.
        -11    1    3    3    0    0  0.17516393867E+01  0.20987490939E+01  0.28411457322E+01  0.39427271821E+01  0.51100000000E-03 0.  1.
         12    1    3    3    0    0  0.98625751308E+01  0.26324394483E+02 -0.15658870987E+02  0.32178321487E+02  0.00000000000E+00 0. -1.
</event>
<event>
 7    1  0.1542786E-009  0.4778727E+02  0.7816164E-02  0.1312668E+00
        -11   -1    0    0    0    0  0.00000000000E+00  0.00000000000E+00  0.45593999997E+02  0.45594000000E+02  0.51100000000E-03 0. -1.
         11   -1    0    0    0    0 -0.00000000000E+00 -0.00000000000E+00 -0.45593999997E+02  0.45594000000E+02  0.51100000000E-03 0.  1.
    9900012    2    1    2    0    0  0.41949552136E+02 -0.22009543461E+00 -0.11126991429E+02  0.47787270690E+02  0.19999998382E+02 0.  0.
        -12    1    1    2    0    0 -0.41949552136E+02  0.22009543461E+00  0.11126991429E+02  0.43400729310E+02  0.00000000000E+00 0.  1.
         11    1    3    3    0    0  0.11063199677E+02 -0.22075460123E+01 -0.86480154769E+00  0.11314394746E+02  0.51100000000E-03 0. -1.
        -11    1    3    3    0    0  0.19526259713E+02  0.68833294471E+01 -0.49223238550E+00  0.20709836688E+02  0.51100000000E-03 0.  1.
        -12    1    3    3    0    0  0.11360092746E+02 -0.48958788694E+01 -0.97699574963E+01  0.15763039256E+02  0.00000000000E+00 0.  1.
</event>
<event>
 7    1  0.1542786E-009  0.4778728E+02  0.7816164E-02  0.1312668E+00
        -11   -1    0    0    0    0  0.00000000000E+00  0.00000000000E+00  0.45593999997E+02  0.45594000000E+02  0.51100000000E-03 0.  1.
         11   -1    0    0    0    0 -0.00000000000E+00 -0.00000000000E+00 -0.45593999997E+02  0.45594000000E+02  0.51100000000E-03 0. -1.
    9900012    2    1    2    0    0  0.34948571937E+02  0.16912283503E+02 -0.19395739311E+02  0.47787277459E+02  0.20000029245E+02 0.  0.
        -12    1    1    2    0    0 -0.34948571937E+02 -0.16912283503E+02  0.19395739311E+02  0.43400722541E+02  0.00000000000E+00 0.  1.
         11    1    3    3    0    0  0.82012097715E+01  0.15332326233E+01 -0.10211290504E+02  0.13186398220E+02  0.51100000000E-03 0. -1.
        -11    1    3    3    0    0  0.24853974732E+02  0.87139814124E+01 -0.83096226513E+01  0.27617084584E+02  0.51100000000E-03 0.  1.
         12    1    3    3    0    0  0.18933874330E+01  0.66650694676E+01 -0.87482615494E+00  0.69837946548E+01  0.00000000000E+00 0. -1.
</event>
<event>
 7    1  0.1542786E-009  0.4778727E+02  0.7816164E-02  0.1312668E+00
        -11   -1    0    0    0    0  0.00000000000E+00  0.00000000000E+00  0.45593999997E+02  0.45594000000E+02  0.51100000000E-03 0. -1.
         11   -1    0    0    0    0 -0.00000000000E+00 -0.00000000000E+00 -0.45593999997E+02  0.45594000000E+02  0.51100000000E-03 0.  1.
    9900012    2    1    2    0    0  0.39516250531E+02 -0.13935180145E+02 -0.11309280837E+02  0.47787272647E+02  0.20000007306E+02 0.  0.
        -12    1    1    2    0    0 -0.39516250531E+02  0.13935180145E+02  0.11309280837E+02  0.43400727353E+02  0.00000000000E+00 0.  1.
         11    1    3    3    0    0  0.21883125542E+02 -0.71991137921E+01 -0.53214622395E+00  0.23043038054E+02  0.51100000000E-03 0. -1.
        -11    1    3    3    0    0  0.15376742288E+02 -0.97184990335E+01 -0.10478135186E+02  0.20992492565E+02  0.51100000000E-03 0.  1.
         12    1    3    3    0    0  0.22563827008E+01  0.29824326803E+01 -0.29899942668E+00  0.37517420276E+01  0.00000000000E+00 0. -1.
</event>
<event>
 7    1  0.1542786E-009  0.4778727E+02  0.7816164E-02  0.1312668E+00
        -11   -1    0    0    0    0  0.00000000000E+00  0.00000000000E+00  0.45593999997E+02  0.45594000000E+02  0.51100000000E-03 0.  1.
         11   -1    0    0    0    0 -0.00000000000E+00 -0.00000000000E+00 -0.45593999997E+02  0.45594000000E+02  0.51100000000E-03 0. -1.
    9900012    2    1    2    0    0  0.12924225269E+02 -0.16755675956E+01 -0.41397825956E+02  0.47787272824E+02  0.20000008112E+02 0.  0.
        -12    1    1    2    0    0 -0.12924225269E+02  0.16755675956E+01  0.41397825956E+02  0.43400727176E+02  0.00000000000E+00 0.  1.
         11    1    3    3    0    0  0.78417803876E+01  0.78626150660E+00 -0.31947168718E+02  0.32904913253E+02  0.51100000000E-03 0. -1.
        -11    1    3    3    0    0  0.22478018582E+01 -0.58232869012E+01 -0.26439676873E+01  0.67789268266E+01  0.51100000000E-03 0.  1.
         12    1    3    3    0    0  0.28346430235E+01  0.33614577990E+01 -0.68066895502E+01  0.81034327441E+01  0.00000000000E+00 0. -1.
</event>
<event>
 7    1  0.1542786E-009  0.4778727E+02  0.7816164E-02  0.1312668E+00
        -11   -1    0    0    0    0  0.00000000000E+00  0.00000000000E+00  0.45593999997E+02  0.45594000000E+02  0.51100000000E-03 0.  1.
         11   -1    0    0    0    0 -0.00000000000E+00 -0.00000000000E+00 -0.45593999997E+02  0.45594000000E+02  0.51100000000E-03 0. -1.
    9900012    2    1    2    0    0 -0.13454076495E+02  0.27490649940E+02 -0.30771337314E+02  0.47787271797E+02  0.20000003431E+02 0.  0.
        -12    1    1    2    0    0  0.13454076495E+02 -0.27490649940E+02  0.30771337314E+02  0.43400728203E+02  0.00000000000E+00 0.  1.
         11    1    3    3    0    0 -0.73399187959E+01  0.91445697495E+01 -0.98102909116E+01  0.15288537270E+02  0.51100000000E-03 0. -1.
        -11    1    3    3    0    0  0.55445450237E+00 -0.11143293920E+01  0.15606545665E+01  0.19961945612E+01  0.51100000000E-03 0.  1.
         12    1    3    3    0    0 -0.66686122017E+01  0.19460409582E+02 -0.22521700969E+02  0.30502539966E+02  0.00000000000E+00 0. -1.
</event>
<event>
 7    1  0.1542786E-009  0.4778727E+02  0.7816164E-02  0.1312668E+00
        -11   -1    0    0    0    0  0.00000000000E+00  0.00000000000E+00  0.45593999997E+02  0.45594000000E+02  0.51100000000E-03 0.  1.
         11   -1    0    0    0    0 -0.00000000000E+00 -0.00000000000E+00 -0.45593999997E+02  0.45594000000E+02  0.51100000000E-03 0. -1.
    9900012    2    1    2    0    0  0.90789944479E+00 -0.18341318978E+02 -0.39324232498E+02  0.47787268153E+02  0.19999986818E+02 0.  0.
        -12    1    1    2    0    0 -0.90789944479E+00  0.18341318978E+02  0.39324232498E+02  0.43400731847E+02  0.00000000000E+00 0.  1.
         11    1    3    3    0    0  0.46416082700E+01 -0.87671061634E+01 -0.17506870872E+02  0.20122057693E+02  0.51100000000E-03 0. -1.
        -11    1    3    3    0    0 -0.91944906070E+00  0.82672223611E-01  0.17846116592E+01  0.20092437152E+01  0.51100000000E-03 0.  1.
         12    1    3    3    0    0 -0.28142597646E+01 -0.96568850387E+01 -0.23601973285E+02  0.25655966745E+02  0.00000000000E+00 0. -1.
</event>
<event>
 7    1  0.1542786E-009  0.4778727E+02  0.7816164E-02  0.1312668E+00
        -11   -1    0    0    0    0  0.00000000000E+00  0.00000000000E+00  0.45593999997E+02  0.45594000000E+02  0.51100000000E-03 0.  1.
         11   -1    0    0    0    0 -0.00000000000E+00 -0.00000000000E+00 -0.45593999997E+02  0.45594000000E+02  0.51100000000E-03 0. -1.
    9900012    2    1    2    0    0  0.13833100400E+01  0.42916192697E+02 -0.63174195509E+01  0.47787274982E+02  0.20000017953E+02 0.  0.
        -12    1    1    2    0    0 -0.13833100400E+01 -0.42916192697E+02  0.63174195509E+01  0.43400725018E+02  0.00000000000E+00 0.  1.
         11    1    3    3    0    0  0.20222890767E+00  0.56154041618E-01 -0.84038984864E+00  0.86620157371E+00  0.51100000000E-03 0. -1.
        -11    1    3    3    0    0 -0.74503098896E+01  0.10911194329E+02 -0.39567354573E+01  0.13791919188E+02  0.51100000000E-03 0.  1.
        -12    1    3    3    0    0  0.86313910219E+01  0.31948844326E+02 -0.15202942450E+01  0.33129154220E+02  0.00000000000E+00 0.  1.
</event>
<event>
 7    1  0.1542786E-009  0.4778727E+02  0.7816164E-02  0.1312668E+00
        -11   -1    0    0    0    0  0.00000000000E+00  0.00000000000E+00  0.45593999997E+02  0.45594000000E+02  0.51100000000E-03 0.  1.
         11   -1    0    0    0    0 -0.00000000000E+00 -0.00000000000E+00 -0.45593999997E+02  0.45594000000E+02  0.51100000000E-03 0. -1.
    9900012    2    1    2    0    0  0.15702514714E+02  0.10975289980E+01 -0.40445636564E+02  0.47787273562E+02  0.20000011480E+02 0.  0.
        -12    1    1    2    0    0 -0.15702514714E+02 -0.10975289980E+01  0.40445636564E+02  0.43400726438E+02  0.00000000000E+00 0.  1.
         11    1    3    3    0    0  0.65736458901E+01 -0.21071465776E+01 -0.17600088862E+02  0.18905449352E+02  0.51100000000E-03 0. -1.
        -11    1    3    3    0    0  0.95610083465E+01 -0.24204482747E+01 -0.20543937182E+02  0.22788699077E+02  0.51100000000E-03 0.  1.
        -12    1    3    3    0    0 -0.43213952237E+00  0.56251238503E+01 -0.23016105202E+01  0.60931251328E+01  0.00000000000E+00 0.  1.
</event>
<event>
 7    1  0.1542786E-009  0.4778729E+02  0.7816164E-02  0.1312668E+00
        -11   -1    0    0    0    0  0.00000000000E+00  0.00000000000E+00  0.45593999997E+02  0.45594000000E+02  0.51100000000E-03 0. -1.
         11   -1    0    0    0    0 -0.00000000000E+00 -0.00000000000E+00 -0.45593999997E+02  0.45594000000E+02  0.51100000000E-03 0.  1.
    9900012    2    1    2    0    0  0.58932871039E+01 -0.18746346133E+02  0.38697097277E+02  0.47787289592E+02  0.20000084567E+02 0.  0.
        -12    1    1    2    0    0 -0.58932871039E+01  0.18746346133E+02 -0.38697097277E+02  0.43400710408E+02  0.00000000000E+00 0.  1.
         11    1    3    3    0    0 -0.74485787157E+00 -0.48612178932E+01  0.27331929250E+01  0.56264195080E+01  0.51100000000E-03 0. -1.
        -11    1    3    3    0    0 -0.26387194102E+01 -0.77007301742E+01  0.57799594268E+01  0.99835873601E+01  0.51100000000E-03 0.  1.
         12    1    3    3    0    0  0.92768643857E+01 -0.61843980653E+01  0.30183944925E+02  0.32177282724E+02  0.00000000000E+00 0. -1.
</event>
<event>
 7    1  0.1542786E-009  0.4778727E+02  0.7816164E-02  0.1312668E+00
        -11   -1    0    0    0    0  0.00000000000E+00  0.00000000000E+00  0.45593999997E+02  0.45594000000E+02  0.51100000000E-03 0.  1.
         11   -1    0    0    0    0 -0.00000000000E+00 -0.00000000000E+00 -0.45593999997E+02  0.45594000000E+02  0.51100000000E-03 0. -1.
    9900012    2    1    2    0    0 -0.13299918600E+02 -0.92089608617E+01 -0.40273198347E+02  0.47787270743E+02  0.19999998625E+02 0.  0.
        -12    1    1    2    0    0  0.13299918600E+02  0.92089608617E+01  0.40273198347E+02  0.43400729257E+02  0.00000000000E+00 0.  1.
         11    1    3    3    0    0 -0.28799120903E+01 -0.97511155232E+01 -0.21515634472E+02  0.23797072816E+02  0.51100000000E-03 0. -1.
        -11    1    3    3    0    0  0.17183317942E+01  0.21050536223E+01 -0.33640032019E+01  0.43243996938E+01  0.51100000000E-03 0.  1.
        -12    1    3    3    0    0 -0.12138338304E+02 -0.15628989609E+01 -0.15393560673E+02  0.19665798233E+02  0.00000000000E+00 0.  1.
</event>
<event>
 7    1  0.1542786E-009  0.4778727E+02  0.7816164E-02  0.1312668E+00
        -11   -1    0    0    0    0  0.00000000000E+00  0.00000000000E+00  0.45593999997E+02  0.45594000000E+02  0.51100000000E-03 0.  1.
         11   -1    0    0    0    0 -0.00000000000E+00 -0.00000000000E+00 -0.45593999997E+02  0.45594000000E+02  0.51100000000E-03 0. -1.
    9900012    2    1    2    0    0 -0.28520622618E+02 -0.32621806560E+02 -0.24525715116E+01  0.47787270919E+02  0.19999999427E+02 0.  0.
        -12    1    1    2    0    0  0.28520622618E+02  0.32621806560E+02  0.24525715116E+01  0.43400729081E+02  0.00000000000E+00 0.  1.
         11    1    3    3    0    0 -0.12085109672E+02 -0.68341025990E+01 -0.35379026800E+01  0.14327302249E+02  0.51100000000E-03 0. -1.
        -11    1    3    3    0    0 -0.15813758982E+02 -0.13404833504E+02 -0.15354077335E+01  0.20787544626E+02  0.51100000000E-03 0.  1.
         12    1    3    3    0    0 -0.62175396455E+00 -0.12382870457E+02  0.26207389019E+01  0.12672424043E+02  0.00000000000E+00 0. -1.
</event>
<event>
 7    1  0.1542786E-009  0.4778726E+02  0.7816164E-02  0.1312668E+00
        -11   -1    0    0    0    0  0.00000000000E+00  0.00000000000E+00  0.45593999997E+02  0.45594000000E+02  0.51100000000E-03 0. -1.
         11   -1    0    0    0    0 -0.00000000000E+00 -0.00000000000E+00 -0.45593999997E+02  0.45594000000E+02  0.51100000000E-03 0.  1.
    9900012    2    1    2    0    0  0.18458271874E+02  0.26812204054E+02  0.28705788947E+02  0.47787258003E+02  0.19999940538E+02 0.  0.
        -12    1    1    2    0    0 -0.18458271874E+02 -0.26812204054E+02 -0.28705788947E+02  0.43400741997E+02  0.00000000000E+00 0.  1.
         11    1    3    3    0    0  0.13872941552E+01  0.10039213206E+02  0.79249050719E+01  0.12865244169E+02  0.51100000000E-03 0. -1.
        -11    1    3    3    0    0  0.11195301051E+02  0.10249462324E+02  0.35571367467E+01  0.15589723078E+02  0.51100000000E-03 0.  1.
         12    1    3    3    0    0  0.58756766681E+01  0.65235285238E+01  0.17223747129E+02  0.19332290756E+02  0.00000000000E+00 0. -1.
</event>
<event>
 7    1  0.1542786E-009  0.4778727E+02  0.7816164E-02  0.1312668E+00
        -11   -1    0    0    0    0  0.00000000000E+00  0.00000000000E+00  0.45593999997E+02  0.45594000000E+02  0.51100000000E-03 0. -1.
         11   -1    0    0    0    0 -0.00000000000E+00 -0.00000000000E+00 -0.45593999997E+02  0.45594000000E+02  0.51100000000E-03 0.  1.
    9900012    2    1    2    0    0 -0.36397235153E+02 -0.18384841572E+02  0.14861447774E+02  0.47787265486E+02  0.19999974655E+02 0.  0.
        -12    1    1    2    0    0  0.36397235153E+02  0.18384841572E+02 -0.14861447774E+02  0.43400734514E+02  0.00000000000E+00 0.  1.
         11    1    3    3    0    0 -0.16242502729E+02 -0.11027896255E+02 -0.40878891448E-01  0.19632500148E+02  0.51100000000E-03 0. -1.
        -11    1    3    3    0    0 -0.11088241277E+02  0.91311041851E+00  0.42676772970E+01  0.11916204724E+02  0.51100000000E-03 0.  1.
        -12    1    3    3    0    0 -0.90664911466E+01 -0.82700557360E+01  0.10634649369E+02  0.16238560613E+02  0.00000000000E+00 0.  1.
</event>
<event>
 7    1  0.1542786E-009  0.4778726E+02  0.7816164E-02  0.1312668E+00
        -11   -1    0    0    0    0  0.00000000000E+00  0.00000000000E+00  0.45593999997E+02  0.45594000000E+02  0.51100000000E-03 0.  1.
         11   -1    0    0    0    0 -0.00000000000E+00 -0.00000000000E+00 -0.45593999997E+02  0.45594000000E+02  0.51100000000E-03 0. -1.
    9900012    2    1    2    0    0 -0.16849781414E+02 -0.20191915830E+02 -0.34525289911E+02  0.47787259891E+02  0.19999949147E+02 0.  0.
        -12    1    1    2    0    0  0.16849781414E+02  0.20191915830E+02  0.34525289911E+02  0.43400740109E+02  0.00000000000E+00 0.  1.
         11    1    3    3    0    0  0.13333850891E+01 -0.79918692906E+01 -0.16235294206E+02  0.18144769736E+02  0.51100000000E-03 0. -1.
        -11    1    3    3    0    0 -0.56324724044E+01 -0.50053155531E+01 -0.18798041356E+01  0.77660538900E+01  0.51100000000E-03 0.  1.
         12    1    3    3    0    0 -0.12550694099E+02 -0.71947309858E+01 -0.16410191569E+02  0.21876436265E+02  0.00000000000E+00 0. -1.
</event>
<event>
 7    1  0.1542786E-009  0.4778727E+02  0.7816164E-02  0.1312668E+00
        -11   -1    0    0    0    0  0.00000000000E+00  0.00000000000E+00  0.45593999997E+02  0.45594000000E+02  0.51100000000E-03 0. -1.
         11   -1    0    0    0    0 -0.00000000000E+00 -0.00000000000E+00 -0.45593999997E+02  0.45594000000E+02  0.51100000000E-03 0.  1.
    9900012    2    1    2    0    0 -0.39970069829E+02 -0.15338698792E+02  0.71232679403E+01  0.47787272945E+02  0.20000008667E+02 0.  0.
        -12    1    1    2    0    0  0.39970069829E+02  0.15338698792E+02 -0.71232679403E+01  0.43400727055E+02  0.00000000000E+00 0.  1.
         11    1    3    3    0    0 -0.13339045373E+02 -0.10731677204E+02  0.58705694258E+00  0.17130197407E+02  0.51100000000E-03 0. -1.
        -11    1    3    3    0    0 -0.25911284066E+01  0.30836082962E+01 -0.12936848857E+01  0.42303909262E+01  0.51100000000E-03 0.  1.
         12    1    3    3    0    0 -0.24039896049E+02 -0.76906298837E+01  0.78298958833E+01  0.26426684612E+02  0.00000000000E+00 0. -1.
</event>
<event>
 7    1  0.1542786E-009  0.4778727E+02  0.7816164E-02  0.1312668E+00
        -11   -1    0    0    0    0  0.00000000000E+00  0.00000000000E+00  0.45593999997E+02  0.45594000000E+02  0.51100000000E-03 0.  1.
         11   -1    0    0    0    0 -0.00000000000E+00 -0.00000000000E+00 -0.45593999997E+02  0.45594000000E+02  0.51100000000E-03 0. -1.
    9900012    2    1    2    0    0  0.21282600980E+02 -0.60317224169E+01 -0.37340225633E+02  0.47787271549E+02  0.20000002299E+02 0.  0.
        -12    1    1    2    0    0 -0.21282600980E+02  0.60317224169E+01  0.37340225633E+02  0.43400728451E+02  0.00000000000E+00 0.  1.
         11    1    3    3    0    0  0.33240787600E+01  0.25497268977E+01 -0.74855961038E+01  0.85781557543E+01  0.51100000000E-03 0. -1.
        -11    1    3    3    0    0  0.11004807763E+02 -0.12797732937E+02 -0.16701276139E+02  0.23744902341E+02  0.51100000000E-03 0.  1.
        -12    1    3    3    0    0  0.69537144571E+01  0.42162836226E+01 -0.13153353390E+02  0.15464213454E+02  0.00000000000E+00 0.  1.
</event>
<event>
 7    1  0.1542786E-009  0.4778727E+02  0.7816164E-02  0.1312668E+00
        -11   -1    0    0    0    0  0.00000000000E+00  0.00000000000E+00  0.45593999997E+02  0.45594000000E+02  0.51100000000E-03 0. -1.
         11   -1    0    0    0    0 -0.00000000000E+00 -0.00000000000E+00 -0.45593999997E+02  0.45594000000E+02  0.51100000000E-03 0.  1.
    9900012    2    1    2    0    0  0.33173200671E+02  0.27977265610E+02  0.65947111035E+00  0.47787268026E+02  0.19999986237E+02 0.  0.
        -12    1    1    2    0    0 -0.33173200671E+02 -0.27977265610E+02 -0.65947111035E+00  0.43400731974E+02  0.00000000000E+00 0.  1.
         11    1    3    3    0    0  0.17194605766E+02  0.17308201796E+02  0.77472876726E+01  0.25597827709E+02  0.51100000000E-03 0. -1.
        -11    1    3    3    0    0  0.73490659616E+00  0.17004313971E+01  0.16334248638E+01  0.24697432434E+01  0.51100000000E-03 0.  1.
        -12    1    3    3    0    0  0.15243688308E+02  0.89686324170E+01 -0.87212414260E+01  0.19719697074E+02  0.00000000000E+00 0.  1.
</event>
<event>
 7    1  0.1542786E-009  0.4778727E+02  0.7816164E-02  0.1312668E+00
        -11   -1    0    0    0    0  0.00000000000E+00  0.00000000000E+00  0.45593999997E+02  0.45594000000E+02  0.51100000000E-03 0.  1.
         11   -1    0    0    0    0 -0.00000000000E+00 -0.00000000000E+00 -0.45593999997E+02  0.45594000000E+02  0.51100000000E-03 0. -1.
    9900012    2    1    2    0    0  0.23248515207E+02 -0.99053720845E+01 -0.35284750293E+02  0.47787268916E+02  0.19999990294E+02 0.  0.
        -12    1    1    2    0    0 -0.23248515207E+02  0.99053720845E+01  0.35284750293E+02  0.43400731084E+02  0.00000000000E+00 0.  1.
         11    1    3    3    0    0  0.19258106638E+01 -0.24877246325E+01 -0.52887901361E+01  0.61537648578E+01  0.51100000000E-03 0. -1.
        -11    1    3    3    0    0  0.99060163516E+01 -0.12622171454E+02 -0.13928014695E+02  0.21247069581E+02  0.51100000000E-03 0.  1.
         12    1    3    3    0    0  0.11416688191E+02  0.52045240016E+01 -0.16067945461E+02  0.20386434477E+02  0.00000000000E+00 0. -1.
</event>
<event>
 7    1  0.1542786E-009  0.4778727E+02  0.7816164E-02  0.1312668E+00
        -11   -1    0    0    0    0  0.00000000000E+00  0.00000000000E+00  0.45593999997E+02  0.45594000000E+02  0.51100000000E-03 0.  1.
         11   -1    0    0    0    0 -0.00000000000E+00 -0.00000000000E+00 -0.45593999997E+02  0.45594000000E+02  0.51100000000E-03 0. -1.
    9900012    2    1    2    0    0 -0.66857852686E+01  0.31645599543E+02 -0.28939235647E+02  0.47787273567E+02  0.20000011501E+02 0.  0.
        -12    1    1    2    0    0  0.66857852686E+01 -0.31645599543E+02  0.28939235647E+02  0.43400726433E+02  0.00000000000E+00 0.  1.
         11    1    3    3    0    0 -0.83103589335E+01  0.10219711201E+02 -0.19486734170E+02  0.23520998523E+02  0.51100000000E-03 0. -1.
        -11    1    3    3    0    0  0.30767871586E+01  0.51041804780E+01 -0.23302505817E+01  0.63991675713E+01  0.51100000000E-03 0.  1.
        -12    1    3    3    0    0 -0.14522134936E+01  0.16321707864E+02 -0.71222508956E+01  0.17867107473E+02  0.00000000000E+00 0.  1.
</event>
<event>
 7    1  0.1542786E-009  0.4778727E+02  0.7816164E-02  0.1312668E+00
        -11   -1    0    0    0    0  0.00000000000E+00  0.00000000000E+00  0.45593999997E+02  0.45594000000E+02  0.51100000000E-03 0.  1.
         11   -1    0    0    0    0 -0.00000000000E+00 -0.00000000000E+00 -0.45593999997E+02  0.45594000000E+02  0.51100000000E-03 0. -1.
    9900012    2    1    2    0    0 -0.11600637663E+02 -0.37515807443E+02 -0.18482772426E+02  0.47787268684E+02  0.19999989237E+02 0.  0.
        -12    1    1    2    0    0  0.11600637663E+02  0.37515807443E+02  0.18482772426E+02  0.43400731316E+02  0.00000000000E+00 0.  1.
         11    1    3    3    0    0  0.39387985018E+01 -0.17065159007E+02 -0.80953062133E+01  0.19294241849E+02  0.51100000000E-03 0. -1.
        -11    1    3    3    0    0 -0.45332989653E+01 -0.70188485453E+01 -0.19540565362E+00  0.83578237622E+01  0.51100000000E-03 0.  1.
         12    1    3    3    0    0 -0.11006137199E+02 -0.13431799890E+02 -0.10192060559E+02  0.20135203073E+02  0.00000000000E+00 0. -1.
</event>
<event>
 7    1  0.1542786E-009  0.4778727E+02  0.7816164E-02  0.1312668E+00
        -11   -1    0    0    0    0  0.00000000000E+00  0.00000000000E+00  0.45593999997E+02  0.45594000000E+02  0.51100000000E-03 0.  1.
         11   -1    0    0    0    0 -0.00000000000E+00 -0.00000000000E+00 -0.45593999997E+02  0.45594000000E+02  0.51100000000E-03 0. -1.
    9900012    2    1    2    0    0  0.29318062445E+02  0.59978768236E+01 -0.31434058261E+02  0.47787270390E+02  0.19999997014E+02 0.  0.
        -12    1    1    2    0    0 -0.29318062445E+02 -0.59978768236E+01  0.31434058261E+02  0.43400729610E+02  0.00000000000E+00 0.  1.
         11    1    3    3    0    0  0.10605270875E+02  0.83224424296E-01 -0.13993447192E+02  0.17558338794E+02  0.51100000000E-03 0. -1.
        -11    1    3    3    0    0  0.15501099354E+02  0.20439941190E+01 -0.43858040176E+01  0.16238758274E+02  0.51100000000E-03 0.  1.
        -12    1    3    3    0    0  0.32116922170E+01  0.38706582803E+01 -0.13054807051E+02  0.13990173322E+02  0.00000000000E+00 0.  1.
</event>
<event>
 7    1  0.1542786E-009  0.4778727E+02  0.7816164E-02  0.1312668E+00
        -11   -1    0    0    0    0  0.00000000000E+00  0.00000000000E+00  0.45593999997E+02  0.45594000000E+02  0.51100000000E-03 0. -1.
         11   -1    0    0    0    0 -0.00000000000E+00 -0.00000000000E+00 -0.45593999997E+02  0.45594000000E+02  0.51100000000E-03 0.  1.
    9900012    2    1    2    0    0  0.35774999261E+02  0.17092250716E+02 -0.17652984755E+02  0.47787268700E+02  0.19999989309E+02 0.  0.
        -12    1    1    2    0    0 -0.35774999261E+02 -0.17092250716E+02  0.17652984755E+02  0.43400731300E+02  0.00000000000E+00 0.  1.
         11    1    3    3    0    0  0.34562574371E+01  0.48590582086E+01 -0.20884773168E+01  0.63180614045E+01  0.51100000000E-03 0. -1.
        -11    1    3    3    0    0  0.29538447583E+02  0.94095164981E+01 -0.18884178464E+02  0.36299739433E+02  0.51100000000E-03 0.  1.
        -12    1    3    3    0    0  0.27802942404E+01  0.28236760089E+01  0.33196710252E+01  0.51694678626E+01  0.00000000000E+00 0.  1.
</event>
<event>
 7    1  0.1542786E-009  0.4778727E+02  0.7816164E-02  0.1312668E+00
        -11   -1    0    0    0    0  0.00000000000E+00  0.00000000000E+00  0.45593999997E+02  0.45594000000E+02  0.51100000000E-03 0.  1.
         11   -1    0    0    0    0 -0.00000000000E+00 -0.00000000000E+00 -0.45593999997E+02  0.45594000000E+02  0.51100000000E-03 0. -1.
    9900012    2    1    2    0    0  0.38441869942E+02  0.58594708901E+00 -0.20137095252E+02  0.47787270700E+02  0.19999998428E+02 0.  0.
        -12    1    1    2    0    0 -0.38441869942E+02 -0.58594708901E+00  0.20137095252E+02  0.43400729300E+02  0.00000000000E+00 0.  1.
         11    1    3    3    0    0  0.11225849946E+02 -0.79225279484E-01 -0.13384344161E+02  0.17469019793E+02  0.51100000000E-03 0. -1.
        -11    1    3    3    0    0  0.24141405574E+02  0.26703203261E+01 -0.91267465799E+01  0.25946783560E+02  0.51100000000E-03 0.  1.
        -12    1    3    3    0    0  0.30746144219E+01 -0.20051479576E+01  0.23739954891E+01  0.43714673460E+01  0.00000000000E+00 0.  1.
</event>
<event>
 7    1  0.1542786E-009  0.4778727E+02  0.7816164E-02  0.1312668E+00
        -11   -1    0    0    0    0  0.00000000000E+00  0.00000000000E+00  0.45593999997E+02  0.45594000000E+02  0.51100000000E-03 0.  1.
         11   -1    0    0    0    0 -0.00000000000E+00 -0.00000000000E+00 -0.45593999997E+02  0.45594000000E+02  0.51100000000E-03 0. -1.
    9900012    2    1    2    0    0  0.21464061032E+02  0.37387987515E+02 -0.50056168335E+01  0.47787265832E+02  0.19999976235E+02 0.  0.
        -12    1    1    2    0    0 -0.21464061032E+02 -0.37387987515E+02  0.50056168335E+01  0.43400734168E+02  0.00000000000E+00 0.  1.
         11    1    3    3    0    0  0.23904170747E+01  0.74704729495E+01 -0.53916014157E+01  0.95179528244E+01  0.51100000000E-03 0. -1.
        -11    1    3    3    0    0  0.98488616451E+01  0.25491135153E+02  0.35553250232E+01  0.27557909634E+02  0.51100000000E-03 0.  1.
        -12    1    3    3    0    0  0.92247823123E+01  0.44263794126E+01 -0.31693404411E+01  0.10711403374E+02  0.00000000000E+00 0.  1.
</event>
<event>
 7    1  0.1542786E-009  0.4778727E+02  0.7816164E-02  0.1312668E+00
        -11   -1    0    0    0    0  0.00000000000E+00  0.00000000000E+00  0.45593999997E+02  0.45594000000E+02  0.51100000000E-03 0. -1.
         11   -1    0    0    0    0 -0.00000000000E+00 -0.00000000000E+00 -0.45593999997E+02  0.45594000000E+02  0.51100000000E-03 0.  1.
    9900012    2    1    2    0    0  0.43385782354E+02 -0.10754937645E+01 -0.37484066888E+00  0.47787270711E+02  0.19999998479E+02 0.  0.
        -12    1    1    2    0    0 -0.43385782354E+02  0.10754937645E+01  0.37484066888E+00  0.43400729289E+02  0.00000000000E+00 0.  1.
         11    1    3    3    0    0  0.15632613169E+02  0.41076260831E+01  0.38314415999E+01  0.16611174899E+02  0.51100000000E-03 0.  1.
        -11    1    3    3    0    0  0.22661223485E+02 -0.70017161559E+01 -0.74622986095E+01  0.24864452131E+02  0.51100000000E-03 0. -1.
         12    1    3    3    0    0  0.50919457003E+01  0.18185963083E+01  0.32560163407E+01  0.63116436812E+01  0.00000000000E+00 0. -1.
</event>
<event>
 7    1  0.1542786E-009  0.4778727E+02  0.7816164E-02  0.1312668E+00
        -11   -1    0    0    0    0  0.00000000000E+00  0.00000000000E+00  0.45593999997E+02  0.45594000000E+02  0.51100000000E-03 0.  1.
         11   -1    0    0    0    0 -0.00000000000E+00 -0.00000000000E+00 -0.45593999997E+02  0.45594000000E+02  0.51100000000E-03 0. -1.
    9900012    2    1    2    0    0  0.28914667162E+02  0.54246032464E+00 -0.32361569306E+02  0.47787269496E+02  0.19999992940E+02 0.  0.
        -12    1    1    2    0    0 -0.28914667162E+02 -0.54246032464E+00  0.32361569306E+02  0.43400730504E+02  0.00000000000E+00 0.  1.
         11    1    3    3    0    0  0.19305060324E+02  0.60522255961E-01 -0.75248565909E+01  0.20719857240E+02  0.51100000000E-03 0. -1.
        -11    1    3    3    0    0  0.16706420607E+00 -0.65134794372E+00 -0.52610936260E+01  0.53038920610E+01  0.51100000000E-03 0.  1.
         12    1    3    3    0    0  0.94425426319E+01  0.11332860124E+01 -0.19575619089E+02  0.21763520195E+02  0.00000000000E+00 0. -1.
</event>
<event>
 7    1  0.1542786E-009  0.4778727E+02  0.7816164E-02  0.1312668E+00
        -11   -1    0    0    0    0  0.00000000000E+00  0.00000000000E+00  0.45593999997E+02  0.45594000000E+02  0.51100000000E-03 0.  1.
         11   -1    0    0    0    0 -0.00000000000E+00 -0.00000000000E+00 -0.45593999997E+02  0.45594000000E+02  0.51100000000E-03 0. -1.
    9900012    2    1    2    0    0  0.38027039159E+02  0.12895829034E+02 -0.16470129703E+02  0.47787270904E+02  0.19999999358E+02 0.  0.
        -12    1    1    2    0    0 -0.38027039159E+02 -0.12895829034E+02  0.16470129703E+02  0.43400729096E+02  0.00000000000E+00 0.  1.
         11    1    3    3    0    0 -0.86036439568E+00  0.89369284837E+00 -0.37149645475E+00  0.12949608788E+01  0.51100000000E-03 0. -1.
        -11    1    3    3    0    0  0.44537637012E+01 -0.34233868873E+01 -0.41873672588E+00  0.56330213556E+01  0.51100000000E-03 0.  1.
         12    1    3    3    0    0  0.34433639853E+02  0.15425523073E+02 -0.15679896522E+02  0.40859288669E+02  0.00000000000E+00 0. -1.
</event>
<event>
 7    1  0.1542786E-009  0.4778727E+02  0.7816164E-02  0.1312668E+00
        -11   -1    0    0    0    0  0.00000000000E+00  0.00000000000E+00  0.45593999997E+02  0.45594000000E+02  0.51100000000E-03 0.  1.
         11   -1    0    0    0    0 -0.00000000000E+00 -0.00000000000E+00 -0.45593999997E+02  0.45594000000E+02  0.51100000000E-03 0. -1.
    9900012    2    1    2    0    0  0.30115018357E+02  0.74267742401E+01 -0.30357074558E+02  0.47787270951E+02  0.19999999576E+02 0.  0.
        -12    1    1    2    0    0 -0.30115018357E+02 -0.74267742401E+01  0.30357074558E+02  0.43400729049E+02  0.00000000000E+00 0.  1.
         11    1    3    3    0    0  0.50660869832E+01  0.83954799626E+01 -0.12375022429E+02  0.15788936047E+02  0.51100000000E-03 0. -1.
        -11    1    3    3    0    0  0.41209776453E+01 -0.22574358753E+01 -0.55003385431E+00  0.47308573204E+01  0.51100000000E-03 0.  1.
         12    1    3    3    0    0  0.20927953728E+02  0.12887301527E+01 -0.17432018275E+02  0.27267477584E+02  0.00000000000E+00 0. -1.
</event>
<event>
 7    1  0.1542786E-009  0.4778726E+02  0.7816164E-02  0.1312668E+00
        -11   -1    0    0    0    0  0.00000000000E+00  0.00000000000E+00  0.45593999997E+02  0.45594000000E+02  0.51100000000E-03 0. -1.
         11   -1    0    0    0    0 -0.00000000000E+00 -0.00000000000E+00 -0.45593999997E+02  0.45594000000E+02  0.51100000000E-03 0.  1.
    9900012    2    1    2    0    0 -0.29559799953E+02  0.14282858954E+02  0.28387358231E+02  0.47787263364E+02  0.19999964984E+02 0.  0.
        -12    1    1    2    0    0  0.29559799953E+02 -0.14282858954E+02 -0.28387358231E+02  0.43400736636E+02  0.00000000000E+00 0.  1.
         11    1    3    3    0    0 -0.10524713741E+02  0.91198341011E+01  0.51711678445E+01  0.14855367734E+02  0.51100000000E-03 0. -1.
        -11    1    3    3    0    0 -0.80131074779E+01 -0.39620425384E+01  0.74115384813E+01  0.11612001354E+02  0.51100000000E-03 0.  1.
         12    1    3    3    0    0 -0.11021978734E+02  0.91250673915E+01  0.15804651905E+02  0.21319894277E+02  0.00000000000E+00 0. -1.
</event>
<event>
 7    1  0.1542786E-009  0.4778728E+02  0.7816164E-02  0.1312668E+00
        -11   -1    0    0    0    0  0.00000000000E+00  0.00000000000E+00  0.45593999997E+02  0.45594000000E+02  0.51100000000E-03 0.  1.
         11   -1    0    0    0    0 -0.00000000000E+00 -0.00000000000E+00 -0.45593999997E+02  0.45594000000E+02  0.51100000000E-03 0. -1.
    9900012    2    1    2    0    0 -0.16817212533E+02  0.68833441677E+01 -0.39413494707E+02  0.47787278470E+02  0.20000033854E+02 0.  0.
        -12    1    1    2    0    0  0.16817212533E+02 -0.68833441677E+01  0.39413494707E+02  0.43400721530E+02  0.00000000000E+00 0.  1.
         11    1    3    3    0    0 -0.47564366492E+01  0.16979972476E+01 -0.13061134839E+02  0.14003575536E+02  0.51100000000E-03 0. -1.
        -11    1    3    3    0    0 -0.49062751137E+01 -0.25048785678E+01 -0.10173481014E+00  0.55096553761E+01  0.51100000000E-03 0.  1.
        -12    1    3    3    0    0 -0.71545007700E+01  0.76902254879E+01 -0.26250625059E+02  0.28274047558E+02  0.00000000000E+00 0.  1.
</event>
<event>
 7    1  0.1542786E-009  0.4778727E+02  0.7816164E-02  0.1312668E+00
        -11   -1    0    0    0    0  0.00000000000E+00  0.00000000000E+00  0.45593999997E+02  0.45594000000E+02  0.51100000000E-03 0.  1.
         11   -1    0    0    0    0 -0.00000000000E+00 -0.00000000000E+00 -0.45593999997E+02  0.45594000000E+02  0.51100000000E-03 0. -1.
    9900012    2    1    2    0    0 -0.35910170407E+02 -0.61994692525E+01 -0.23572221315E+02  0.47787269875E+02  0.19999994669E+02 0.  0.
        -12    1    1    2    0    0  0.35910170407E+02  0.61994692525E+01  0.23572221315E+02  0.43400730125E+02  0.00000000000E+00 0.  1.
         11    1    3    3    0    0 -0.35825808768E+02 -0.84124663135E+01 -0.19640845442E+02  0.41713558627E+02  0.51100000000E-03 0. -1.
        -11    1    3    3    0    0 -0.10272789310E+01  0.30371090779E+01 -0.20226313703E+01  0.37908272810E+01  0.51100000000E-03 0.  1.
         12    1    3    3    0    0  0.94291729194E+00 -0.82411201688E+00 -0.19087445020E+01  0.22828839676E+01  0.00000000000E+00 0. -1.
</event>
<event>
 7    1  0.1542786E-009  0.4778728E+02  0.7816164E-02  0.1312668E+00
        -11   -1    0    0    0    0  0.00000000000E+00  0.00000000000E+00  0.45593999997E+02  0.45594000000E+02  0.51100000000E-03 0. -1.
         11   -1    0    0    0    0 -0.00000000000E+00 -0.00000000000E+00 -0.45593999997E+02  0.45594000000E+02  0.51100000000E-03 0.  1.
    9900012    2    1    2    0    0  0.71634533962E+01  0.37263818114E+02  0.21064543063E+02  0.47787283653E+02  0.20000057488E+02 0.  0.
        -12    1    1    2    0    0 -0.71634533962E+01 -0.37263818114E+02 -0.21064543063E+02  0.43400716347E+02  0.00000000000E+00 0.  1.
         11    1    3    3    0    0 -0.29072457203E+01  0.12665525585E+02  0.35393447874E+01  0.13468280433E+02  0.51100000000E-03 0. -1.
        -11    1    3    3    0    0  0.34780146178E+00  0.97322517541E+01  0.55805924419E+00  0.97544410625E+01  0.51100000000E-03 0.  1.
        -12    1    3    3    0    0  0.97228976547E+01  0.14866040774E+02  0.16967139031E+02  0.24564562158E+02  0.00000000000E+00 0.  1.
</event>
<event>
 7    1  0.1542786E-009  0.4778727E+02  0.7816164E-02  0.1312668E+00
        -11   -1    0    0    0    0  0.00000000000E+00  0.00000000000E+00  0.45593999997E+02  0.45594000000E+02  0.51100000000E-03 0.  1.
         11   -1    0    0    0    0 -0.00000000000E+00 -0.00000000000E+00 -0.45593999997E+02  0.45594000000E+02  0.51100000000E-03 0. -1.
    9900012    2    1    2    0    0  0.27301084275E+02  0.71598905893E+01 -0.32969830763E+02  0.47787274471E+02  0.20000015625E+02 0.  0.
        -12    1    1    2    0    0 -0.27301084275E+02 -0.71598905893E+01  0.32969830763E+02  0.43400725529E+02  0.00000000000E+00 0.  1.
         11    1    3    3    0    0  0.98875275594E+01  0.38876869753E+01 -0.10779439509E+02  0.15135178481E+02  0.51100000000E-03 0. -1.
        -11    1    3    3    0    0  0.56574209037E+01  0.91824704675E+01 -0.95405998706E+01  0.14399556289E+02  0.51100000000E-03 0.  1.
        -12    1    3    3    0    0  0.11756135812E+02 -0.59102668535E+01 -0.12649791383E+02  0.18252539702E+02  0.00000000000E+00 0.  1.
</event>
<event>
 7    1  0.1542786E-009  0.4778727E+02  0.7816164E-02  0.1312668E+00
        -11   -1    0    0    0    0  0.00000000000E+00  0.00000000000E+00  0.45593999997E+02  0.45594000000E+02  0.51100000000E-03 0.  1.
         11   -1    0    0    0    0 -0.00000000000E+00 -0.00000000000E+00 -0.45593999997E+02  0.45594000000E+02  0.51100000000E-03 0. -1.
    9900012    2    1    2    0    0 -0.21113245696E+01 -0.26552388376E+02 -0.34265669429E+02  0.47787272802E+02  0.20000008012E+02 0.  0.
        -12    1    1    2    0    0  0.21113245696E+01  0.26552388376E+02  0.34265669429E+02  0.43400727198E+02  0.00000000000E+00 0.  1.
         11    1    3    3    0    0  0.13139005207E+01 -0.92471784077E+01 -0.18835815088E+02  0.21024380452E+02  0.51100000000E-03 0. -1.
        -11    1    3    3    0    0 -0.70789351873E+01 -0.45539401332E+01 -0.77153770664E+01  0.11418263338E+02  0.51100000000E-03 0.  1.
        -12    1    3    3    0    0  0.36537100969E+01 -0.12751269835E+02 -0.77144772747E+01  0.15344629012E+02  0.00000000000E+00 0.  1.
</event>
<event>
 7    1  0.1542786E-009  0.4778727E+02  0.7816164E-02  0.1312668E+00
        -11   -1    0    0    0    0  0.00000000000E+00  0.00000000000E+00  0.45593999997E+02  0.45594000000E+02  0.51100000000E-03 0. -1.
         11   -1    0    0    0    0 -0.00000000000E+00 -0.00000000000E+00 -0.45593999997E+02  0.45594000000E+02  0.51100000000E-03 0.  1.
    9900012    2    1    2    0    0  0.33964373904E+02  0.15694905610E+02 -0.21993511321E+02  0.47787270778E+02  0.19999998784E+02 0.  0.
        -12    1    1    2    0    0 -0.33964373904E+02 -0.15694905610E+02  0.21993511321E+02  0.43400729222E+02  0.00000000000E+00 0.  1.
         11    1    3    3    0    0  0.25979099900E+02  0.46459164815E+01 -0.81136116034E+01  0.27610303604E+02  0.51100000000E-03 0. -1.
        -11    1    3    3    0    0  0.47836933169E+01  0.22653310195E+01 -0.51969469949E+01  0.74177964859E+01  0.51100000000E-03 0.  1.
        -12    1    3    3    0    0  0.32015806871E+01  0.87836581088E+01 -0.86829527223E+01  0.12759170688E+02  0.00000000000E+00 0.  1.
</event>
<event>
 7    1  0.1542786E-009  0.4778727E+02  0.7816164E-02  0.1312668E+00
        -11   -1    0    0    0    0  0.00000000000E+00  0.00000000000E+00  0.45593999997E+02  0.45594000000E+02  0.51100000000E-03 0. -1.
         11   -1    0    0    0    0 -0.00000000000E+00 -0.00000000000E+00 -0.45593999997E+02  0.45594000000E+02  0.51100000000E-03 0.  1.
    9900012    2    1    2    0    0  0.18035058244E+02 -0.23337583061E+01  0.39407023950E+02  0.47787270855E+02  0.19999999136E+02 0.  0.
        -12    1    1    2    0    0 -0.18035058244E+02  0.23337583061E+01 -0.39407023950E+02  0.43400729145E+02  0.00000000000E+00 0.  1.
         11    1    3    3    0    0 -0.83745752434E+00  0.15210241233E+00 -0.98671098983E-01  0.85685850396E+00  0.51100000000E-03 0. -1.
        -11    1    3    3    0    0  0.34417556098E+01 -0.80441643674E+01  0.16507568366E+02  0.18682988938E+02  0.51100000000E-03 0.  1.
         12    1    3    3    0    0  0.15430760158E+02  0.55583036490E+01  0.22998126684E+02  0.28247423413E+02  0.00000000000E+00 0. -1.
</event>
<event>
 7    1  0.1542786E-009  0.4778727E+02  0.7816164E-02  0.1312668E+00
        -11   -1    0    0    0    0  0.00000000000E+00  0.00000000000E+00  0.45593999997E+02  0.45594000000E+02  0.51100000000E-03 0.  1.
         11   -1    0    0    0    0 -0.00000000000E+00 -0.00000000000E+00 -0.45593999997E+02  0.45594000000E+02  0.51100000000E-03 0. -1.
    9900012    2    1    2    0    0  0.91253340568E+01 -0.47897024532E+01 -0.42159340535E+02  0.47787274596E+02  0.20000016193E+02 0.  0.
        -12    1    1    2    0    0 -0.91253340568E+01  0.47897024532E+01  0.42159340535E+02  0.43400725404E+02  0.00000000000E+00 0.  1.
         11    1    3    3    0    0  0.23920515845E+01 -0.18642763609E+01 -0.22303405618E+02  0.22508650327E+02  0.51100000000E-03 0. -1.
        -11    1    3    3    0    0  0.47118865332E+01 -0.13467803044E+01 -0.21618239196E+02  0.22166730884E+02  0.51100000000E-03 0.  1.
        -12    1    3    3    0    0  0.20213959391E+01 -0.15786457879E+01  0.17623042788E+01  0.31118933847E+01  0.00000000000E+00 0.  1.
</event>
<event>
 7    1  0.1542786E-009  0.4778726E+02  0.7816164E-02  0.1312668E+00
        -11   -1    0    0    0    0  0.00000000000E+00  0.00000000000E+00  0.45593999997E+02  0.45594000000E+02  0.51100000000E-03 0.  1.
         11   -1    0    0    0    0 -0.00000000000E+00 -0.00000000000E+00 -0.45593999997E+02  0.45594000000E+02  0.51100000000E-03 0. -1.
    9900012    2    1    2    0    0 -0.33642497351E+02 -0.27408792284E+02  0.75123015463E+00  0.47787264186E+02  0.19999968730E+02 0.  0.
        -12    1    1    2    0    0  0.33642497351E+02  0.27408792284E+02 -0.75123015463E+00  0.43400735814E+02  0.00000000000E+00 0.  1.
         11    1    3    3    0    0 -0.20598024473E+02 -0.12605650382E+02  0.13738493508E+00  0.24149532265E+02  0.51100000000E-03 0. -1.
        -11    1    3    3    0    0 -0.60223362171E+01 -0.11961361327E+02 -0.49085728388E+01  0.14263126792E+02  0.51100000000E-03 0.  1.
         12    1    3    3    0    0 -0.70221366602E+01 -0.28417805742E+01  0.55224180583E+01  0.93746051286E+01  0.00000000000E+00 0. -1.
</event>
<event>
 7    1  0.1542786E-009  0.4778727E+02  0.7816164E-02  0.1312668E+00
        -11   -1    0    0    0    0  0.00000000000E+00  0.00000000000E+00  0.45593999997E+02  0.45594000000E+02  0.51100000000E-03 0.  1.
         11   -1    0    0    0    0 -0.00000000000E+00 -0.00000000000E+00 -0.45593999997E+02  0.45594000000E+02  0.51100000000E-03 0. -1.
    9900012    2    1    2    0    0 -0.11293946933E+02  0.29407665509E+02 -0.29853963842E+02  0.47787272068E+02  0.20000004665E+02 0.  0.
        -12    1    1    2    0    0  0.11293946933E+02 -0.29407665509E+02  0.29853963842E+02  0.43400727932E+02  0.00000000000E+00 0.  1.
         11    1    3    3    0    0  0.16070546434E+01  0.15568818210E+02 -0.89792188358E+01  0.18044309248E+02  0.51100000000E-03 0. -1.
        -11    1    3    3    0    0 -0.20305561428E+01 -0.13078532149E+01 -0.35402060401E+01  0.42856384995E+01  0.51100000000E-03 0.  1.
        -12    1    3    3    0    0 -0.10870445433E+02  0.15146700514E+02 -0.17334538966E+02  0.25457324320E+02  0.00000000000E+00 0.  1.
</event>
<event>
 7    1  0.1542786E-009  0.4778727E+02  0.7816164E-02  0.1312668E+00
        -11   -1    0    0    0    0  0.00000000000E+00  0.00000000000E+00  0.45593999997E+02  0.45594000000E+02  0.51100000000E-03 0.  1.
         11   -1    0    0    0    0 -0.00000000000E+00 -0.00000000000E+00 -0.45593999997E+02  0.45594000000E+02  0.51100000000E-03 0. -1.
    9900012    2    1    2    0    0 -0.22016606130E+02  0.32733299096E+02 -0.18094847068E+02  0.47787270679E+02  0.19999998334E+02 0.  0.
        -12    1    1    2    0    0  0.22016606130E+02 -0.32733299096E+02  0.18094847068E+02  0.43400729321E+02  0.00000000000E+00 0.  1.
         11    1    3    3    0    0 -0.42805926310E+01  0.15982563487E+02 -0.15796839550E+02  0.22875881380E+02  0.51100000000E-03 0. -1.
        -11    1    3    3    0    0 -0.94110685074E+01  0.83425334622E+01 -0.34000537788E+01  0.13027910077E+02  0.51100000000E-03 0.  1.
        -12    1    3    3    0    0 -0.83249449913E+01  0.84082021465E+01  0.11020462611E+01  0.11883479221E+02  0.00000000000E+00 0.  1.
</event>
<event>
 7    1  0.1542786E-009  0.4778727E+02  0.7816164E-02  0.1312668E+00
        -11   -1    0    0    0    0  0.00000000000E+00  0.00000000000E+00  0.45593999997E+02  0.45594000000E+02  0.51100000000E-03 0. -1.
         11   -1    0    0    0    0 -0.00000000000E+00 -0.00000000000E+00 -0.45593999997E+02  0.45594000000E+02  0.51100000000E-03 0.  1.
    9900012    2    1    2    0    0 -0.34450117860E+02  0.19165289471E+01  0.26327546167E+02  0.47787269696E+02  0.19999993851E+02 0.  0.
        -12    1    1    2    0    0  0.34450117860E+02 -0.19165289471E+01 -0.26327546167E+02  0.43400730304E+02  0.00000000000E+00 0.  1.
         11    1    3    3    0    0 -0.79745839501E+00 -0.15409042757E+01  0.71164992508E+01  0.73249496740E+01  0.51100000000E-03 0. -1.
        -11    1    3    3    0    0 -0.16701838894E+02  0.44078876866E+01  0.15219329351E+02  0.23021921780E+02  0.51100000000E-03 0.  1.
        -12    1    3    3    0    0 -0.16950820571E+02 -0.95045446384E+00  0.39917175658E+01  0.17440398242E+02  0.00000000000E+00 0.  1.
</event>
<event>
 7    1  0.1542786E-009  0.4778727E+02  0.7816164E-02  0.1312668E+00
        -11   -1    0    0    0    0  0.00000000000E+00  0.00000000000E+00  0.45593999997E+02  0.45594000000E+02  0.51100000000E-03 0.  1.
         11   -1    0    0    0    0 -0.00000000000E+00 -0.00000000000E+00 -0.45593999997E+02  0.45594000000E+02  0.51100000000E-03 0. -1.
    9900012    2    1    2    0    0 -0.27424472247E+02  0.43497841972E+01 -0.33355672469E+02  0.47787272051E+02  0.20000004591E+02 0.  0.
        -12    1    1    2    0    0  0.27424472247E+02 -0.43497841972E+01  0.33355672469E+02  0.43400727949E+02  0.00000000000E+00 0.  1.
         11    1    3    3    0    0 -0.92537308199E+01 -0.89262784266E+00 -0.93342777158E+01  0.13174105635E+02  0.51100000000E-03 0. -1.
        -11    1    3    3    0    0  0.27465616533E+01  0.19083928010E+01 -0.56935339079E+01  0.66031729207E+01  0.51100000000E-03 0.  1.
         12    1    3    3    0    0 -0.20917303080E+02  0.33340192389E+01 -0.18327860846E+02  0.28009993495E+02  0.00000000000E+00 0. -1.
</event>
<event>
 7    1  0.1542786E-009  0.4778727E+02  0.7816164E-02  0.1312668E+00
        -11   -1    0    0    0    0  0.00000000000E+00  0.00000000000E+00  0.45593999997E+02  0.45594000000E+02  0.51100000000E-03 0.  1.
         11   -1    0    0    0    0 -0.00000000000E+00 -0.00000000000E+00 -0.45593999997E+02  0.45594000000E+02  0.51100000000E-03 0. -1.
    9900012    2    1    2    0    0  0.12312282751E+02 -0.37809174391E+02 -0.17392451056E+02  0.47787270416E+02  0.19999997133E+02 0.  0.
        -12    1    1    2    0    0 -0.12312282751E+02  0.37809174391E+02  0.17392451056E+02  0.43400729584E+02  0.00000000000E+00 0.  1.
         11    1    3    3    0    0 -0.21058654359E+00 -0.96622767536E+01 -0.55353348698E+01  0.11137498424E+02  0.51100000000E-03 0. -1.
        -11    1    3    3    0    0  0.16031280963E+02 -0.21947234374E+02 -0.11516756150E+02  0.29518108653E+02  0.51100000000E-03 0.  1.
        -12    1    3    3    0    0 -0.35084116686E+01 -0.61996632638E+01 -0.34036003672E+00  0.71316633386E+01  0.00000000000E+00 0.  1.
</event>
<event>
 7    1  0.1542786E-009  0.4778727E+02  0.7816164E-02  0.1312668E+00
        -11   -1    0    0    0    0  0.00000000000E+00  0.00000000000E+00  0.45593999997E+02  0.45594000000E+02  0.51100000000E-03 0.  1.
         11   -1    0    0    0    0 -0.00000000000E+00 -0.00000000000E+00 -0.45593999997E+02  0.45594000000E+02  0.51100000000E-03 0. -1.
    9900012    2    1    2    0    0  0.18470956564E+01 -0.30987601344E+02 -0.30331170037E+02  0.47787273332E+02  0.20000010432E+02 0.  0.
        -12    1    1    2    0    0 -0.18470956564E+01  0.30987601344E+02  0.30331170037E+02  0.43400726668E+02  0.00000000000E+00 0.  1.
         11    1    3    3    0    0  0.45931810281E+01 -0.10697161631E+02 -0.21689823410E+02  0.24616559848E+02  0.51100000000E-03 0. -1.
        -11    1    3    3    0    0 -0.37174798347E+01 -0.52813332844E+01 -0.26181786611E+01  0.69690026076E+01  0.51100000000E-03 0.  1.
        -12    1    3    3    0    0  0.97139446291E+00 -0.15009106429E+02 -0.60231679659E+01  0.16201710877E+02  0.00000000000E+00 0.  1.
</event>
<event>
 7    1  0.1542786E-009  0.4778727E+02  0.7816164E-02  0.1312668E+00
        -11   -1    0    0    0    0  0.00000000000E+00  0.00000000000E+00  0.45593999997E+02  0.45594000000E+02  0.51100000000E-03 0.  1.
         11   -1    0    0    0    0 -0.00000000000E+00 -0.00000000000E+00 -0.45593999997E+02  0.45594000000E+02  0.51100000000E-03 0. -1.
    9900012    2    1    2    0    0  0.15560193188E+02 -0.35808827562E+02 -0.18953414741E+02  0.47787266438E+02  0.19999978998E+02 0.  0.
        -12    1    1    2    0    0 -0.15560193188E+02  0.35808827562E+02  0.18953414741E+02  0.43400733562E+02  0.00000000000E+00 0.  1.
         11    1    3    3    0    0  0.32496029284E+01 -0.87815711007E+01 -0.13166330842E+02  0.16156366494E+02  0.51100000000E-03 0. -1.
        -11    1    3    3    0    0  0.91191643815E+01 -0.98418026160E+01 -0.42959826817E+01  0.14088140587E+02  0.51100000000E-03 0.  1.
        -12    1    3    3    0    0  0.31914258779E+01 -0.17185453845E+02 -0.14911012165E+01  0.17542759356E+02  0.00000000000E+00 0.  1.
</event>
<event>
 7    1  0.1542786E-009  0.4778725E+02  0.7816164E-02  0.1312668E+00
        -11   -1    0    0    0    0  0.00000000000E+00  0.00000000000E+00  0.45593999997E+02  0.45594000000E+02  0.51100000000E-03 0.  1.
         11   -1    0    0    0    0 -0.00000000000E+00 -0.00000000000E+00 -0.45593999997E+02  0.45594000000E+02  0.51100000000E-03 0. -1.
    9900012    2    1    2    0    0 -0.23974746980E+02  0.35344550078E+02 -0.77200447178E+01  0.47787253423E+02  0.19999919658E+02 0.  0.
        -12    1    1    2    0    0  0.23974746980E+02 -0.35344550078E+02  0.77200447178E+01  0.43400746577E+02  0.00000000000E+00 0.  1.
         11    1    3    3    0    0 -0.72258007155E+00  0.31021978439E+01 -0.55454047350E+01  0.63950971344E+01  0.51100000000E-03 0. -1.
        -11    1    3    3    0    0 -0.84098718161E+01  0.95275995904E+01  0.44434346573E+01  0.13462734111E+02  0.51100000000E-03 0.  1.
         12    1    3    3    0    0 -0.14842295092E+02  0.22714752644E+02 -0.66180746401E+01  0.27929422178E+02  0.00000000000E+00 0. -1.
</event>
<event>
 7    1  0.1542786E-009  0.4778731E+02  0.7816164E-02  0.1312668E+00
        -11   -1    0    0    0    0  0.00000000000E+00  0.00000000000E+00  0.45593999997E+02  0.45594000000E+02  0.51100000000E-03 0.  1.
         11   -1    0    0    0    0 -0.00000000000E+00 -0.00000000000E+00 -0.45593999997E+02  0.45594000000E+02  0.51100000000E-03 0. -1.
    9900012    2    1    2    0    0 -0.38793781994E+02  0.13240999699E+02 -0.14259679567E+02  0.47787308118E+02  0.20000169035E+02 0.  0.
        -12    1    1    2    0    0  0.38793781994E+02 -0.13240999699E+02  0.14259679567E+02  0.43400691882E+02  0.00000000000E+00 0.  1.
         11    1    3    3    0    0 -0.93298081576E+01  0.46246508130E+01 -0.18407886561E+01  0.10574555241E+02  0.51100000000E-03 0. -1.
        -11    1    3    3    0    0 -0.24184260840E+02  0.28392830685E+01 -0.23550224787E+01  0.24463976207E+02  0.51100000000E-03 0.  1.
         12    1    3    3    0    0 -0.52797129966E+01  0.57770658173E+01 -0.10063868432E+02  0.12748776671E+02  0.00000000000E+00 0. -1.
</event>
<event>
 7    1  0.1542786E-009  0.4778727E+02  0.7816164E-02  0.1312668E+00
        -11   -1    0    0    0    0  0.00000000000E+00  0.00000000000E+00  0.45593999997E+02  0.45594000000E+02  0.51100000000E-03 0.  1.
         11   -1    0    0    0    0 -0.00000000000E+00 -0.00000000000E+00 -0.45593999997E+02  0.45594000000E+02  0.51100000000E-03 0. -1.
    9900012    2    1    2    0    0 -0.13114265381E+02  0.37132280669E+02 -0.18243711459E+02  0.47787271527E+02  0.20000002201E+02 0.  0.
        -12    1    1    2    0    0  0.13114265381E+02 -0.37132280669E+02  0.18243711459E+02  0.43400728473E+02  0.00000000000E+00 0.  1.
         11    1    3    3    0    0 -0.34953863361E+01  0.15316861161E+02 -0.41705235996E+01  0.16254760190E+02  0.51100000000E-03 0. -1.
        -11    1    3    3    0    0 -0.86790904094E+01  0.74443650562E+01 -0.12663507007E+02  0.17061933987E+02  0.51100000000E-03 0.  1.
        -12    1    3    3    0    0 -0.93978863553E+00  0.14371054451E+02 -0.14096808529E+01  0.14470577350E+02  0.00000000000E+00 0.  1.
</event>
<event>
 7    1  0.1542786E-009  0.4778727E+02  0.7816164E-02  0.1312668E+00
        -11   -1    0    0    0    0  0.00000000000E+00  0.00000000000E+00  0.45593999997E+02  0.45594000000E+02  0.51100000000E-03 0. -1.
         11   -1    0    0    0    0 -0.00000000000E+00 -0.00000000000E+00 -0.45593999997E+02  0.45594000000E+02  0.51100000000E-03 0.  1.
    9900012    2    1    2    0    0  0.29271180475E+02  0.10451833150E+01  0.32027007019E+02  0.47787267366E+02  0.19999983229E+02 0.  0.
        -12    1    1    2    0    0 -0.29271180475E+02 -0.10451833150E+01 -0.32027007019E+02  0.43400732634E+02  0.00000000000E+00 0.  1.
         11    1    3    3    0    0  0.13011433792E+02 -0.29492285035E+01  0.17302449116E+02  0.21848800969E+02  0.51100000000E-03 0. -1.
        -11    1    3    3    0    0  0.17700479078E+02  0.59131871255E+01  0.11506180035E+02  0.21924071721E+02  0.51100000000E-03 0.  1.
        -12    1    3    3    0    0 -0.14407323957E+01 -0.19187753069E+01  0.32183778684E+01  0.40143946765E+01  0.00000000000E+00 0.  1.
</event>
<event>
 7    1  0.1542786E-009  0.4778729E+02  0.7816164E-02  0.1312668E+00
        -11   -1    0    0    0    0  0.00000000000E+00  0.00000000000E+00  0.45593999997E+02  0.45594000000E+02  0.51100000000E-03 0.  1.
         11   -1    0    0    0    0 -0.00000000000E+00 -0.00000000000E+00 -0.45593999997E+02  0.45594000000E+02  0.51100000000E-03 0. -1.
    9900012    2    1    2    0    0  0.44725948922E+01  0.32638211401E+01 -0.43046075690E+02  0.47787294178E+02  0.20000105476E+02 0.  0.
        -12    1    1    2    0    0 -0.44725948922E+01 -0.32638211401E+01  0.43046075690E+02  0.43400705822E+02  0.00000000000E+00 0.  1.
         11    1    3    3    0    0  0.60634434178E+01  0.99979994278E+01 -0.30050141836E+02  0.32244943220E+02  0.51100000000E-03 0. -1.
        -11    1    3    3    0    0  0.15248473106E+01 -0.29169546665E+01 -0.73204284286E+01  0.80263601020E+01  0.51100000000E-03 0.  1.
         12    1    3    3    0    0 -0.31156958361E+01 -0.38172236211E+01 -0.56755054253E+01  0.75159908561E+01  0.00000000000E+00 0. -1.
</event>
<event>
 7    1  0.1542786E-009  0.4778727E+02  0.7816164E-02  0.1312668E+00
        -11   -1    0    0    0    0  0.00000000000E+00  0.00000000000E+00  0.45593999997E+02  0.45594000000E+02  0.51100000000E-03 0. -1.
         11   -1    0    0    0    0 -0.00000000000E+00 -0.00000000000E+00 -0.45593999997E+02  0.45594000000E+02  0.51100000000E-03 0.  1.
    9900012    2    1    2    0    0  0.24464563627E+02 -0.79120980158E+00  0.35839679324E+02  0.47787268434E+02  0.19999988099E+02 0.  0.
        -12    1    1    2    0    0 -0.24464563627E+02  0.79120980158E+00 -0.35839679324E+02  0.43400731566E+02  0.00000000000E+00 0.  1.
         11    1    3    3    0    0  0.10333596587E+02 -0.30209136001E+01  0.12383156319E+02  0.16408890824E+02  0.51100000000E-03 0. -1.
        -11    1    3    3    0    0  0.42844870871E+01  0.23675615696E+01  0.20529635172E+02  0.21105167565E+02  0.51100000000E-03 0.  1.
        -12    1    3    3    0    0  0.98464799537E+01 -0.13785777108E+00  0.29268878319E+01  0.10273210045E+02  0.00000000000E+00 0.  1.
</event>
<event>
 7    1  0.1542786E-009  0.4778728E+02  0.7816164E-02  0.1312668E+00
        -11   -1    0    0    0    0  0.00000000000E+00  0.00000000000E+00  0.45593999997E+02  0.45594000000E+02  0.51100000000E-03 0.  1.
         11   -1    0    0    0    0 -0.00000000000E+00 -0.00000000000E+00 -0.45593999997E+02  0.45594000000E+02  0.51100000000E-03 0. -1.
    9900012    2    1    2    0    0 -0.35387722995E+02 -0.16083398872E+02 -0.19304291229E+02  0.47787282058E+02  0.20000050216E+02 0.  0.
        -12    1    1    2    0    0  0.35387722995E+02  0.16083398872E+02  0.19304291229E+02  0.43400717942E+02  0.00000000000E+00 0.  1.
         11    1    3    3    0    0 -0.12120949743E+02 -0.99836301726E+01 -0.16011514075E+02  0.22426744689E+02  0.51100000000E-03 0. -1.
        -11    1    3    3    0    0 -0.16970882971E+02 -0.61902152775E+01 -0.51704785017E+01  0.18789983560E+02  0.51100000000E-03 0.  1.
        -12    1    3    3    0    0 -0.62958902808E+01  0.90446577917E-01  0.18777013479E+01  0.65705538095E+01  0.00000000000E+00 0.  1.
</event>
<event>
 7    1  0.1542786E-009  0.4778726E+02  0.7816164E-02  0.1312668E+00
        -11   -1    0    0    0    0  0.00000000000E+00  0.00000000000E+00  0.45593999997E+02  0.45594000000E+02  0.51100000000E-03 0. -1.
         11   -1    0    0    0    0 -0.00000000000E+00 -0.00000000000E+00 -0.45593999997E+02  0.45594000000E+02  0.51100000000E-03 0.  1.
    9900012    2    1    2    0    0 -0.29505994063E+02 -0.14257053721E+02  0.28456232627E+02  0.47787257589E+02  0.19999938651E+02 0.  0.
        -12    1    1    2    0    0  0.29505994063E+02  0.14257053721E+02 -0.28456232627E+02  0.43400742411E+02  0.00000000000E+00 0.  1.
         11    1    3    3    0    0 -0.11718368742E+01  0.36893099931E+01  0.33872995408E+01  0.51437348615E+01  0.51100000000E-03 0.  1.
        -11    1    3    3    0    0 -0.18399403710E+02 -0.70136985699E+01  0.15248746180E+02  0.24904904835E+02  0.51100000000E-03 0. -1.
        -12    1    3    3    0    0 -0.99347534792E+01 -0.10932665145E+02  0.98201869068E+01  0.17738617893E+02  0.00000000000E+00 0.  1.
</event>
<event>
 7    1  0.1542786E-009  0.4778728E+02  0.7816164E-02  0.1312668E+00
        -11   -1    0    0    0    0  0.00000000000E+00  0.00000000000E+00  0.45593999997E+02  0.45594000000E+02  0.51100000000E-03 0.  1.
         11   -1    0    0    0    0 -0.00000000000E+00 -0.00000000000E+00 -0.45593999997E+02  0.45594000000E+02  0.51100000000E-03 0. -1.
    9900012    2    1    2    0    0 -0.75912835376E+00  0.40713710228E+02 -0.15014666431E+02  0.47787277835E+02  0.20000030960E+02 0.  0.
        -12    1    1    2    0    0  0.75912835376E+00 -0.40713710228E+02  0.15014666431E+02  0.43400722165E+02  0.00000000000E+00 0.  1.
         11    1    3    3    0    0 -0.43533002329E+01  0.32199539433E+02 -0.18320151345E+02  0.37301333866E+02  0.51100000000E-03 0. -1.
        -11    1    3    3    0    0  0.86246548914E+00  0.62528038734E+01  0.14206603486E+01  0.64699056474E+01  0.51100000000E-03 0.  1.
        -12    1    3    3    0    0  0.27317063901E+01  0.22613669220E+01  0.18848245653E+01  0.40160383214E+01  0.00000000000E+00 0.  1.
</event>
<event>
 7    1  0.1542786E-009  0.4778728E+02  0.7816164E-02  0.1312668E+00
        -11   -1    0    0    0    0  0.00000000000E+00  0.00000000000E+00  0.45593999997E+02  0.45594000000E+02  0.51100000000E-03 0.  1.
         11   -1    0    0    0    0 -0.00000000000E+00 -0.00000000000E+00 -0.45593999997E+02  0.45594000000E+02  0.51100000000E-03 0. -1.
    9900012    2    1    2    0    0 -0.42256837962E+02  0.97772413843E+01  0.15453105867E+01  0.47787276637E+02  0.20000025497E+02 0.  0.
        -12    1    1    2    0    0  0.42256837962E+02 -0.97772413843E+01 -0.15453105867E+01  0.43400723363E+02  0.00000000000E+00 0.  1.
         11    1    3    3    0    0 -0.21371956001E+02  0.88260042464E+01  0.11413694809E+01  0.23150844019E+02  0.51100000000E-03 0. -1.
        -11    1    3    3    0    0 -0.24901964181E+01  0.16199069823E+01  0.48617157885E+01  0.56974957219E+01  0.51100000000E-03 0.  1.
         12    1    3    3    0    0 -0.18394685544E+02 -0.66866984428E+00 -0.44577746827E+01  0.18938936896E+02  0.00000000000E+00 0. -1.
</event>
<event>
 7    1  0.1542786E-009  0.4778728E+02  0.7816164E-02  0.1312668E+00
        -11   -1    0    0    0    0  0.00000000000E+00  0.00000000000E+00  0.45593999997E+02  0.45594000000E+02  0.51100000000E-03 0.  1.
         11   -1    0    0    0    0 -0.00000000000E+00 -0.00000000000E+00 -0.45593999997E+02  0.45594000000E+02  0.51100000000E-03 0. -1.
    9900012    2    1    2    0    0  0.25332032842E+00 -0.11600386920E+02 -0.41820919192E+02  0.47787280767E+02  0.20000044329E+02 0.  0.
        -12    1    1    2    0    0 -0.25332032842E+00  0.11600386920E+02  0.41820919192E+02  0.43400719233E+02  0.00000000000E+00 0.  1.
         11    1    3    3    0    0  0.44210629389E+01 -0.21116934057E+01 -0.16427967265E+02  0.17143020600E+02  0.51100000000E-03 0. -1.
        -11    1    3    3    0    0 -0.77340572344E+01 -0.65216971010E+01 -0.23588698956E+02  0.25666610472E+02  0.51100000000E-03 0.  1.
        -12    1    3    3    0    0  0.35663146240E+01 -0.29669964133E+01 -0.18042529703E+01  0.49776496959E+01  0.00000000000E+00 0.  1.
</event>
<event>
 7    1  0.1542786E-009  0.4778727E+02  0.7816164E-02  0.1312668E+00
        -11   -1    0    0    0    0  0.00000000000E+00  0.00000000000E+00  0.45593999997E+02  0.45594000000E+02  0.51100000000E-03 0.  1.
         11   -1    0    0    0    0 -0.00000000000E+00 -0.00000000000E+00 -0.45593999997E+02  0.45594000000E+02  0.51100000000E-03 0. -1.
    9900012    2    1    2    0    0 -0.14707985148E+02 -0.37638581591E+02 -0.15831477473E+02  0.47787270395E+02  0.19999997039E+02 0.  0.
        -12    1    1    2    0    0  0.14707985148E+02  0.37638581591E+02  0.15831477473E+02  0.43400729605E+02  0.00000000000E+00 0.  1.
         11    1    3    3    0    0  0.19801026345E+01 -0.11450954089E+02 -0.10233521423E+02  0.15484512165E+02  0.51100000000E-03 0. -1.
        -11    1    3    3    0    0 -0.95012347481E+01 -0.16969631480E+02 -0.66813499688E+01  0.20564102022E+02  0.51100000000E-03 0.  1.
        -12    1    3    3    0    0 -0.71868530348E+01 -0.92179960216E+01  0.10833939193E+01  0.11738656209E+02  0.00000000000E+00 0.  1.
</event>
<event>
 7    1  0.1542786E-009  0.4778727E+02  0.7816164E-02  0.1312668E+00
        -11   -1    0    0    0    0  0.00000000000E+00  0.00000000000E+00  0.45593999997E+02  0.45594000000E+02  0.51100000000E-03 0.  1.
         11   -1    0    0    0    0 -0.00000000000E+00 -0.00000000000E+00 -0.45593999997E+02  0.45594000000E+02  0.51100000000E-03 0. -1.
    9900012    2    1    2    0    0  0.19142288179E+01  0.20907644450E+01 -0.43308053551E+02  0.47787273389E+02  0.20000010691E+02 0.  0.
        -12    1    1    2    0    0 -0.19142288179E+01 -0.20907644450E+01  0.43308053551E+02  0.43400726611E+02  0.00000000000E+00 0.  1.
         11    1    3    3    0    0  0.37546713210E+01  0.22775703805E+01 -0.90963039744E+01  0.10100872726E+02  0.51100000000E-03 0. -1.
        -11    1    3    3    0    0 -0.60910674976E+01 -0.92995209538E+00 -0.44181784585E+01  0.75819664542E+01  0.51100000000E-03 0.  1.
        -12    1    3    3    0    0  0.42506249945E+01  0.74314615992E+00 -0.29793571119E+02  0.30104434209E+02  0.00000000000E+00 0.  1.
</event>
<event>
 7    1  0.1542786E-009  0.4778725E+02  0.7816164E-02  0.1312668E+00
        -11   -1    0    0    0    0  0.00000000000E+00  0.00000000000E+00  0.45593999997E+02  0.45594000000E+02  0.51100000000E-03 0.  1.
         11   -1    0    0    0    0 -0.00000000000E+00 -0.00000000000E+00 -0.45593999997E+02  0.45594000000E+02  0.51100000000E-03 0. -1.
    9900012    2    1    2    0    0 -0.17315953041E+02 -0.10411123918E+02 -0.38410821996E+02  0.47787251419E+02  0.19999910521E+02 0.  0.
        -12    1    1    2    0    0  0.17315953041E+02  0.10411123918E+02  0.38410821996E+02  0.43400748581E+02  0.00000000000E+00 0.  1.
         11    1    3    3    0    0 -0.54045495844E+01  0.20585689935E+01 -0.50455679692E+01  0.76749344560E+01  0.51100000000E-03 0. -1.
        -11    1    3    3    0    0 -0.28386534226E+01  0.58082028585E+00 -0.17198515643E+02  0.17440878591E+02  0.51100000000E-03 0.  1.
        -12    1    3    3    0    0 -0.90727500338E+01 -0.13050513197E+02 -0.16166738384E+02  0.22671438372E+02  0.00000000000E+00 0.  1.
</event>
<event>
 7    1  0.1542786E-009  0.4778727E+02  0.7816164E-02  0.1312668E+00
        -11   -1    0    0    0    0  0.00000000000E+00  0.00000000000E+00  0.45593999997E+02  0.45594000000E+02  0.51100000000E-03 0.  1.
         11   -1    0    0    0    0 -0.00000000000E+00 -0.00000000000E+00 -0.45593999997E+02  0.45594000000E+02  0.51100000000E-03 0. -1.
    9900012    2    1    2    0    0 -0.28041547240E+02  0.32761276568E+02 -0.48983669211E+01  0.47787267143E+02  0.19999982214E+02 0.  0.
        -12    1    1    2    0    0  0.28041547240E+02 -0.32761276568E+02  0.48983669211E+01  0.43400732857E+02  0.00000000000E+00 0.  1.
         11    1    3    3    0    0 -0.12938768921E+02  0.11078193376E+02  0.30297729414E+01  0.17300798652E+02  0.51100000000E-03 0. -1.
        -11    1    3    3    0    0  0.13556417799E+01  0.56083692244E+01 -0.43004489691E+01  0.71962095293E+01  0.51100000000E-03 0.  1.
         12    1    3    3    0    0 -0.16458420098E+02  0.16074713969E+02 -0.36276908933E+01  0.23290258962E+02  0.00000000000E+00 0. -1.
</event>
<event>
 7    1  0.1542786E-009  0.4778727E+02  0.7816164E-02  0.1312668E+00
        -11   -1    0    0    0    0  0.00000000000E+00  0.00000000000E+00  0.45593999997E+02  0.45594000000E+02  0.51100000000E-03 0. -1.
         11   -1    0    0    0    0 -0.00000000000E+00 -0.00000000000E+00 -0.45593999997E+02  0.45594000000E+02  0.51100000000E-03 0.  1.
    9900012    2    1    2    0    0  0.13665522656E+02  0.10675359683E+02  0.39785850812E+02  0.47787265691E+02  0.19999975589E+02 0.  0.
        -12    1    1    2    0    0 -0.13665522656E+02 -0.10675359683E+02 -0.39785850812E+02  0.43400734309E+02  0.00000000000E+00 0.  1.
         11    1    3    3    0    0  0.59533595434E+00  0.87757467509E+01  0.15504328071E+02  0.17825609250E+02  0.51100000000E-03 0.  1.
        -11    1    3    3    0    0  0.38809344847E+01 -0.19308981082E+01  0.17216679403E+02  0.17753987436E+02  0.51100000000E-03 0. -1.
        -12    1    3    3    0    0  0.91892522165E+01  0.38305110398E+01  0.70648433376E+01  0.12207669004E+02  0.00000000000E+00 0.  1.
</event>
<event>
 7    1  0.1542786E-009  0.4778729E+02  0.7816164E-02  0.1312668E+00
        -11   -1    0    0    0    0  0.00000000000E+00  0.00000000000E+00  0.45593999997E+02  0.45594000000E+02  0.51100000000E-03 0.  1.
         11   -1    0    0    0    0 -0.00000000000E+00 -0.00000000000E+00 -0.45593999997E+02  0.45594000000E+02  0.51100000000E-03 0. -1.
    9900012    2    1    2    0    0  0.39840983087E+02 -0.17153995913E+02 -0.14347470142E+01  0.47787285627E+02  0.20000066486E+02 0.  0.
        -12    1    1    2    0    0 -0.39840983087E+02  0.17153995913E+02  0.14347470142E+01  0.43400714373E+02  0.00000000000E+00 0.  1.
         11    1    3    3    0    0  0.16118376488E+00 -0.18984224158E+00  0.19006006122E+01  0.19168472111E+01  0.51100000000E-03 0. -1.
        -11    1    3    3    0    0  0.26228113079E+02 -0.18657697119E+02 -0.26175075792E+01  0.32293574030E+02  0.51100000000E-03 0.  1.
         12    1    3    3    0    0  0.13451686243E+02  0.16935434479E+01 -0.71784004720E+00  0.13576864385E+02  0.00000000000E+00 0. -1.
</event>
<event>
 7    1  0.1542786E-009  0.4778727E+02  0.7816164E-02  0.1312668E+00
        -11   -1    0    0    0    0  0.00000000000E+00  0.00000000000E+00  0.45593999997E+02  0.45594000000E+02  0.51100000000E-03 0.  1.
         11   -1    0    0    0    0 -0.00000000000E+00 -0.00000000000E+00 -0.45593999997E+02  0.45594000000E+02  0.51100000000E-03 0. -1.
    9900012    2    1    2    0    0 -0.62018495974E+01  0.25401011761E+02 -0.34640281942E+02  0.47787268786E+02  0.19999989701E+02 0.  0.
        -12    1    1    2    0    0  0.62018495974E+01 -0.25401011761E+02  0.34640281942E+02  0.43400731214E+02  0.00000000000E+00 0.  1.
         11    1    3    3    0    0 -0.49879674517E+01  0.85543438131E+01 -0.96859156532E+01  0.13851843909E+02  0.51100000000E-03 0.  1.
        -11    1    3    3    0    0  0.43728533139E+01  0.25748521040E+01 -0.53214926931E+00  0.51024398642E+01  0.51100000000E-03 0. -1.
         12    1    3    3    0    0 -0.55867354596E+01  0.14271815844E+02 -0.24422217020E+02  0.28832985013E+02  0.00000000000E+00 0. -1.
</event>
<event>
 7    1  0.1542786E-009  0.4778727E+02  0.7816164E-02  0.1312668E+00
        -11   -1    0    0    0    0  0.00000000000E+00  0.00000000000E+00  0.45593999997E+02  0.45594000000E+02  0.51100000000E-03 0. -1.
         11   -1    0    0    0    0 -0.00000000000E+00 -0.00000000000E+00 -0.45593999997E+02  0.45594000000E+02  0.51100000000E-03 0.  1.
    9900012    2    1    2    0    0  0.38816972902E+02  0.11857932553E+02  0.15370589592E+02  0.47787274498E+02  0.20000015744E+02 0.  0.
        -12    1    1    2    0    0 -0.38816972902E+02 -0.11857932553E+02 -0.15370589592E+02  0.43400725502E+02  0.00000000000E+00 0.  1.
         11    1    3    3    0    0  0.21406486516E+02  0.44147079902E+01  0.14004535074E+02  0.25958704022E+02  0.51100000000E-03 0. -1.
        -11    1    3    3    0    0  0.61530265024E+01  0.16122340316E+01  0.55873968617E+01  0.84662883050E+01  0.51100000000E-03 0.  1.
        -12    1    3    3    0    0  0.11257459884E+02  0.58309905315E+01 -0.42213423441E+01  0.13362282170E+02  0.00000000000E+00 0.  1.
</event>
<event>
 7    1  0.1542786E-009  0.4778727E+02  0.7816164E-02  0.1312668E+00
        -11   -1    0    0    0    0  0.00000000000E+00  0.00000000000E+00  0.45593999997E+02  0.45594000000E+02  0.51100000000E-03 0. -1.
         11   -1    0    0    0    0 -0.00000000000E+00 -0.00000000000E+00 -0.45593999997E+02  0.45594000000E+02  0.51100000000E-03 0.  1.
    9900012    2    1    2    0    0  0.18511286213E+02 -0.35242765409E+02  0.17288819460E+02  0.47787268332E+02  0.19999987634E+02 0.  0.
        -12    1    1    2    0    0 -0.18511286213E+02  0.35242765409E+02 -0.17288819460E+02  0.43400731668E+02  0.00000000000E+00 0.  1.
         11    1    3    3    0    0  0.60800277326E+01 -0.62833634697E+01  0.22381625844E+01  0.90253402006E+01  0.51100000000E-03 0. -1.
        -11    1    3    3    0    0  0.55294245705E-01 -0.67467015102E+01 -0.31952095770E+01  0.74652798490E+01  0.51100000000E-03 0.  1.
        -12    1    3    3    0    0  0.12375964235E+02 -0.22212700430E+02  0.18245866453E+02  0.31296648283E+02  0.00000000000E+00 0.  1.
</event>
<event>
 7    1  0.1542786E-009  0.4778727E+02  0.7816164E-02  0.1312668E+00
        -11   -1    0    0    0    0  0.00000000000E+00  0.00000000000E+00  0.45593999997E+02  0.45594000000E+02  0.51100000000E-03 0. -1.
         11   -1    0    0    0    0 -0.00000000000E+00 -0.00000000000E+00 -0.45593999997E+02  0.45594000000E+02  0.51100000000E-03 0.  1.
    9900012    2    1    2    0    0  0.21849323655E+02  0.99291766364E+01  0.36161332791E+02  0.47787268645E+02  0.19999989062E+02 0.  0.
        -12    1    1    2    0    0 -0.21849323655E+02 -0.99291766364E+01 -0.36161332791E+02  0.43400731355E+02  0.00000000000E+00 0.  1.
         11    1    3    3    0    0  0.72987377698E+01  0.22246502165E+01  0.82498305663E+01  0.11237452836E+02  0.51100000000E-03 0. -1.
        -11    1    3    3    0    0  0.11667521678E+02  0.37668949184E+01  0.51962303614E+01  0.13316207030E+02  0.51100000000E-03 0.  1.
         12    1    3    3    0    0  0.28830642074E+01  0.39376315015E+01  0.22715271864E+02  0.23233608779E+02  0.00000000000E+00 0. -1.
</event>
<event>
 7    1  0.1542786E-009  0.4778727E+02  0.7816164E-02  0.1312668E+00
        -11   -1    0    0    0    0  0.00000000000E+00  0.00000000000E+00  0.45593999997E+02  0.45594000000E+02  0.51100000000E-03 0.  1.
         11   -1    0    0    0    0 -0.00000000000E+00 -0.00000000000E+00 -0.45593999997E+02  0.45594000000E+02  0.51100000000E-03 0. -1.
    9900012    2    1    2    0    0  0.29189561464E+01 -0.33903524138E+02 -0.26937968179E+02  0.47787269781E+02  0.19999994238E+02 0.  0.
        -12    1    1    2    0    0 -0.29189561464E+01  0.33903524138E+02  0.26937968179E+02  0.43400730219E+02  0.00000000000E+00 0.  1.
         11    1    3    3    0    0  0.52025445275E+01 -0.82974036253E+01 -0.43596441110E+01  0.10720068727E+02  0.51100000000E-03 0. -1.
        -11    1    3    3    0    0 -0.40770728770E+01 -0.55408437031E+00 -0.46481577859E+01  0.62076488140E+01  0.51100000000E-03 0.  1.
         12    1    3    3    0    0  0.17934844959E+01 -0.25052036142E+02 -0.17930166282E+02  0.30859552239E+02  0.00000000000E+00 0. -1.
</event>
<event>
 7    1  0.1542786E-009  0.4778727E+02  0.7816164E-02  0.1312668E+00
        -11   -1    0    0    0    0  0.00000000000E+00  0.00000000000E+00  0.45593999997E+02  0.45594000000E+02  0.51100000000E-03 0.  1.
         11   -1    0    0    0    0 -0.00000000000E+00 -0.00000000000E+00 -0.45593999997E+02  0.45594000000E+02  0.51100000000E-03 0. -1.
    9900012    2    1    2    0    0 -0.33230860014E+02  0.21955912087E+01 -0.27830063715E+02  0.47787272766E+02  0.20000007851E+02 0.  0.
        -12    1    1    2    0    0  0.33230860014E+02 -0.21955912087E+01  0.27830063715E+02  0.43400727234E+02  0.00000000000E+00 0.  1.
         11    1    3    3    0    0 -0.29719199221E-01 -0.54898654683E+00  0.46332330346E+00  0.71898414729E+00  0.51100000000E-03 0. -1.
        -11    1    3    3    0    0 -0.89811961224E+01 -0.70718170488E+01 -0.75035404109E+01  0.13673902118E+02  0.51100000000E-03 0.  1.
         12    1    3    3    0    0 -0.24219944693E+02  0.98163948042E+01 -0.20789846607E+02  0.33394386502E+02  0.00000000000E+00 0. -1.
</event>
<event>
 7    1  0.1542786E-009  0.4778727E+02  0.7816164E-02  0.1312668E+00
        -11   -1    0    0    0    0  0.00000000000E+00  0.00000000000E+00  0.45593999997E+02  0.45594000000E+02  0.51100000000E-03 0. -1.
         11   -1    0    0    0    0 -0.00000000000E+00 -0.00000000000E+00 -0.45593999997E+02  0.45594000000E+02  0.51100000000E-03 0.  1.
    9900012    2    1    2    0    0 -0.10392171908E+02 -0.32592529701E+02  0.26708669393E+02  0.47787271319E+02  0.20000001254E+02 0.  0.
        -12    1    1    2    0    0  0.10392171908E+02  0.32592529701E+02 -0.26708669393E+02  0.43400728681E+02  0.00000000000E+00 0.  1.
         11    1    3    3    0    0 -0.37987312799E+01 -0.23202835446E+01  0.10866877108E+02  0.11743214781E+02  0.51100000000E-03 0. -1.
        -11    1    3    3    0    0 -0.25213670101E+01 -0.16920940212E+02  0.13710491202E+02  0.21923801644E+02  0.51100000000E-03 0.  1.
        -12    1    3    3    0    0 -0.40720736178E+01 -0.13351305945E+02  0.21313010832E+01  0.14120254895E+02  0.00000000000E+00 0.  1.
</event>
<event>
 7    1  0.1542786E-009  0.4778727E+02  0.7816164E-02  0.1312668E+00
        -11   -1    0    0    0    0  0.00000000000E+00  0.00000000000E+00  0.45593999997E+02  0.45594000000E+02  0.51100000000E-03 0.  1.
         11   -1    0    0    0    0 -0.00000000000E+00 -0.00000000000E+00 -0.45593999997E+02  0.45594000000E+02  0.51100000000E-03 0. -1.
    9900012    2    1    2    0    0 -0.28186339502E+02  0.16302080996E+01 -0.32962038596E+02  0.47787270728E+02  0.19999998556E+02 0.  0.
        -12    1    1    2    0    0  0.28186339502E+02 -0.16302080996E+01  0.32962038596E+02  0.43400729272E+02  0.00000000000E+00 0.  1.
         11    1    3    3    0    0 -0.26950985785E+02  0.28961944904E+01 -0.32194362126E+02  0.42085870910E+02  0.51100000000E-03 0. -1.
        -11    1    3    3    0    0  0.66562431697E+00  0.13027689215E+01 -0.18216876230E+01  0.23364093501E+01  0.51100000000E-03 0.  1.
         12    1    3    3    0    0 -0.19009780338E+01 -0.25687553123E+01  0.10540111526E+01  0.33649904680E+01  0.00000000000E+00 0. -1.
</event>
<event>
 7    1  0.1542786E-009  0.4778728E+02  0.7816164E-02  0.1312668E+00
        -11   -1    0    0    0    0  0.00000000000E+00  0.00000000000E+00  0.45593999997E+02  0.45594000000E+02  0.51100000000E-03 0.  1.
         11   -1    0    0    0    0 -0.00000000000E+00 -0.00000000000E+00 -0.45593999997E+02  0.45594000000E+02  0.51100000000E-03 0. -1.
    9900012    2    1    2    0    0 -0.31472519808E+02 -0.12115871982E+02 -0.27318657530E+02  0.47787275281E+02  0.20000019315E+02 0.  0.
        -12    1    1    2    0    0  0.31472519808E+02  0.12115871982E+02  0.27318657530E+02  0.43400724719E+02  0.00000000000E+00 0.  1.
         11    1    3    3    0    0 -0.10715166833E+02 -0.58422919070E+01 -0.11538699553E+02  0.16795498284E+02  0.51100000000E-03 0. -1.
        -11    1    3    3    0    0  0.22529498818E+01 -0.20335273600E+01 -0.57877010708E+00  0.30896588472E+01  0.51100000000E-03 0.  1.
        -12    1    3    3    0    0 -0.23010302856E+02 -0.42400527149E+01 -0.15201187870E+02  0.27902118149E+02  0.00000000000E+00 0.  1.
</event>
<event>
 7    1  0.1542786E-009  0.4778728E+02  0.7816164E-02  0.1312668E+00
        -11   -1    0    0    0    0  0.00000000000E+00  0.00000000000E+00  0.45593999997E+02  0.45594000000E+02  0.51100000000E-03 0. -1.
         11   -1    0    0    0    0 -0.00000000000E+00 -0.00000000000E+00 -0.45593999997E+02  0.45594000000E+02  0.51100000000E-03 0.  1.
    9900012    2    1    2    0    0  0.35359773107E+02  0.79950502658E+00  0.25152933996E+02  0.47787275916E+02  0.20000022210E+02 0.  0.
        -12    1    1    2    0    0 -0.35359773107E+02 -0.79950502658E+00 -0.25152933996E+02  0.43400724084E+02  0.00000000000E+00 0.  1.
         11    1    3    3    0    0  0.61005735163E+01 -0.49130542562E+01  0.86116817986E+01  0.11641140967E+02  0.51100000000E-03 0. -1.
        -11    1    3    3    0    0  0.44193066242E+01  0.32121969868E+01 -0.11048515423E+01  0.55739732429E+01  0.51100000000E-03 0.  1.
         12    1    3    3    0    0  0.24839892966E+02  0.25003622960E+01  0.17646103739E+02  0.30572161706E+02  0.00000000000E+00 0. -1.
</event>
<event>
 7    1  0.1542786E-009  0.4778727E+02  0.7816164E-02  0.1312668E+00
        -11   -1    0    0    0    0  0.00000000000E+00  0.00000000000E+00  0.45593999997E+02  0.45594000000E+02  0.51100000000E-03 0.  1.
         11   -1    0    0    0    0 -0.00000000000E+00 -0.00000000000E+00 -0.45593999997E+02  0.45594000000E+02  0.51100000000E-03 0. -1.
    9900012    2    1    2    0    0 -0.60334851026E+01 -0.98547788133E+01 -0.41834241590E+02  0.47787269853E+02  0.19999994566E+02 0.  0.
        -12    1    1    2    0    0  0.60334851026E+01  0.98547788133E+01  0.41834241590E+02  0.43400730147E+02  0.00000000000E+00 0.  1.
         11    1    3    3    0    0 -0.72398719645E+01 -0.13590843946E+02 -0.28249094636E+02  0.32173562645E+02  0.51100000000E-03 0.  1.
        -11    1    3    3    0    0  0.28716771081E+00  0.95858369061E+00 -0.12426920242E+02  0.12467144619E+02  0.51100000000E-03 0. -1.
        -12    1    3    3    0    0  0.91921915110E+00  0.27774814424E+01 -0.11582267113E+01  0.31465625888E+01  0.00000000000E+00 0.  1.
</event>
<event>
 7    1  0.1542786E-009  0.4778728E+02  0.7816164E-02  0.1312668E+00
        -11   -1    0    0    0    0  0.00000000000E+00  0.00000000000E+00  0.45593999997E+02  0.45594000000E+02  0.51100000000E-03 0.  1.
         11   -1    0    0    0    0 -0.00000000000E+00 -0.00000000000E+00 -0.45593999997E+02  0.45594000000E+02  0.51100000000E-03 0. -1.
    9900012    2    1    2    0    0 -0.42814363248E+02  0.70067052884E+01 -0.12079155222E+01  0.47787277895E+02  0.20000031234E+02 0.  0.
        -12    1    1    2    0    0  0.42814363248E+02 -0.70067052884E+01  0.12079155222E+01  0.43400722105E+02  0.00000000000E+00 0.  1.
         11    1    3    3    0    0 -0.15145249328E+02  0.14164874104E+01  0.12870042113E+01  0.15265693364E+02  0.51100000000E-03 0. -1.
        -11    1    3    3    0    0 -0.41553924210E+01  0.60276681649E+01 -0.50075838175E+01  0.88699473295E+01  0.51100000000E-03 0.  1.
        -12    1    3    3    0    0 -0.23513721499E+02 -0.43745028680E+00  0.25126640839E+01  0.23651637201E+02  0.00000000000E+00 0.  1.
</event>
<event>
 7    1  0.1542786E-009  0.4778728E+02  0.7816164E-02  0.1312668E+00
        -11   -1    0    0    0    0  0.00000000000E+00  0.00000000000E+00  0.45593999997E+02  0.45594000000E+02  0.51100000000E-03 0. -1.
         11   -1    0    0    0    0 -0.00000000000E+00 -0.00000000000E+00 -0.45593999997E+02  0.45594000000E+02  0.51100000000E-03 0.  1.
    9900012    2    1    2    0    0 -0.13080419470E+02 -0.24137246819E+02  0.33614264114E+02  0.47787276395E+02  0.20000024395E+02 0.  0.
        -12    1    1    2    0    0  0.13080419470E+02  0.24137246819E+02 -0.33614264114E+02  0.43400723605E+02  0.00000000000E+00 0.  1.
         11    1    3    3    0    0 -0.44056628944E+01 -0.49729547225E+01  0.11680523104E+02  0.13437810999E+02  0.51100000000E-03 0. -1.
        -11    1    3    3    0    0 -0.12017966880E+02 -0.81399846932E+01  0.15146041158E+02  0.20978404176E+02  0.51100000000E-03 0.  1.
        -12    1    3    3    0    0  0.33432103042E+01 -0.11024307404E+02  0.67876998519E+01  0.13371061220E+02  0.00000000000E+00 0.  1.
</event>
<event>
 7    1  0.1542786E-009  0.4778727E+02  0.7816164E-02  0.1312668E+00
        -11   -1    0    0    0    0  0.00000000000E+00  0.00000000000E+00  0.45593999997E+02  0.45594000000E+02  0.51100000000E-03 0.  1.
         11   -1    0    0    0    0 -0.00000000000E+00 -0.00000000000E+00 -0.45593999997E+02  0.45594000000E+02  0.51100000000E-03 0. -1.
    9900012    2    1    2    0    0  0.81312569300E+01  0.42468982205E+02  0.37271217513E+01  0.47787271604E+02  0.20000002550E+02 0.  0.
        -12    1    1    2    0    0 -0.81312569300E+01 -0.42468982205E+02 -0.37271217513E+01  0.43400728396E+02  0.00000000000E+00 0.  1.
         11    1    3    3    0    0  0.77623384707E+00  0.19657373198E+02  0.84036514850E+01  0.21392433676E+02  0.51100000000E-03 0.  1.
        -11    1    3    3    0    0  0.23479964420E+01  0.49543555233E+00 -0.24277283359E+01  0.34135624810E+01  0.51100000000E-03 0. -1.
         12    1    3    3    0    0  0.50070266410E+01  0.22316173454E+02 -0.22488013978E+01  0.22981275447E+02  0.00000000000E+00 0. -1.
</event>
<event>
 7    1  0.1542786E-009  0.4778726E+02  0.7816164E-02  0.1312668E+00
        -11   -1    0    0    0    0  0.00000000000E+00  0.00000000000E+00  0.45593999997E+02  0.45594000000E+02  0.51100000000E-03 0.  1.
         11   -1    0    0    0    0 -0.00000000000E+00 -0.00000000000E+00 -0.45593999997E+02  0.45594000000E+02  0.51100000000E-03 0. -1.
    9900012    2    1    2    0    0  0.18595384225E+02  0.28223172170E+02 -0.27226609334E+02  0.47787262475E+02  0.19999960930E+02 0.  0.
        -12    1    1    2    0    0 -0.18595384225E+02 -0.28223172170E+02  0.27226609334E+02  0.43400737525E+02  0.00000000000E+00 0.  1.
         11    1    3    3    0    0  0.59540646051E+01  0.15506509684E+02 -0.15477731005E+02  0.22703807725E+02  0.51100000000E-03 0. -1.
        -11    1    3    3    0    0 -0.30537900548E+00  0.52129978655E+01 -0.81718819811E+01  0.96978481354E+01  0.51100000000E-03 0.  1.
        -12    1    3    3    0    0  0.12946698625E+02  0.75036646211E+01 -0.35769963486E+01  0.15385606615E+02  0.00000000000E+00 0.  1.
</event>
<event>
 7    1  0.1542786E-009  0.4778726E+02  0.7816164E-02  0.1312668E+00
        -11   -1    0    0    0    0  0.00000000000E+00  0.00000000000E+00  0.45593999997E+02  0.45594000000E+02  0.51100000000E-03 0. -1.
         11   -1    0    0    0    0 -0.00000000000E+00 -0.00000000000E+00 -0.45593999997E+02  0.45594000000E+02  0.51100000000E-03 0.  1.
    9900012    2    1    2    0    0 -0.11087688749E+02  0.64342173232E+01  0.41464297324E+02  0.47787263290E+02  0.19999964645E+02 0.  0.
        -12    1    1    2    0    0  0.11087688749E+02 -0.64342173232E+01 -0.41464297324E+02  0.43400736710E+02  0.00000000000E+00 0.  1.
         11    1    3    3    0    0  0.52735416058E+00 -0.23457756605E+00  0.65843163096E+01  0.66095650819E+01  0.51100000000E-03 0. -1.
        -11    1    3    3    0    0 -0.10371041914E+02  0.11980794250E+02  0.21340439227E+02  0.26580298868E+02  0.51100000000E-03 0.  1.
        -12    1    3    3    0    0 -0.12440009957E+01 -0.53119993607E+01  0.13539541788E+02  0.14597399340E+02  0.00000000000E+00 0.  1.
</event>
<event>
 7    1  0.1542786E-009  0.4778727E+02  0.7816164E-02  0.1312668E+00
        -11   -1    0    0    0    0  0.00000000000E+00  0.00000000000E+00  0.45593999997E+02  0.45594000000E+02  0.51100000000E-03 0. -1.
         11   -1    0    0    0    0 -0.00000000000E+00 -0.00000000000E+00 -0.45593999997E+02  0.45594000000E+02  0.51100000000E-03 0.  1.
    9900012    2    1    2    0    0 -0.14707857055E+02  0.31645875638E+02  0.25803887429E+02  0.47787272926E+02  0.20000008581E+02 0.  0.
        -12    1    1    2    0    0  0.14707857055E+02 -0.31645875638E+02 -0.25803887429E+02  0.43400727074E+02  0.00000000000E+00 0.  1.
         11    1    3    3    0    0 -0.17325585945E+02  0.31132661299E+02  0.24751528386E+02  0.43382677253E+02  0.51100000000E-03 0. -1.
        -11    1    3    3    0    0  0.10938527696E+01 -0.53414535939E+00  0.19888969283E+01  0.23318525680E+01  0.51100000000E-03 0.  1.
         12    1    3    3    0    0  0.15238761210E+01  0.10473596986E+01 -0.93653788555E+00  0.20727431055E+01  0.00000000000E+00 0. -1.
</event>
<event>
 7    1  0.1542786E-009  0.4778727E+02  0.7816164E-02  0.1312668E+00
        -11   -1    0    0    0    0  0.00000000000E+00  0.00000000000E+00  0.45593999997E+02  0.45594000000E+02  0.51100000000E-03 0. -1.
         11   -1    0    0    0    0 -0.00000000000E+00 -0.00000000000E+00 -0.45593999997E+02  0.45594000000E+02  0.51100000000E-03 0.  1.
    9900012    2    1    2    0    0 -0.38897799159E+02 -0.13936697226E+02 -0.13279796549E+02  0.47787270682E+02  0.19999998345E+02 0.  0.
        -12    1    1    2    0    0  0.38897799159E+02  0.13936697226E+02  0.13279796549E+02  0.43400729318E+02  0.00000000000E+00 0.  1.
         11    1    3    3    0    0 -0.15881861982E+02 -0.32977553707E+01 -0.22658321554E+01  0.16378117295E+02  0.51100000000E-03 0. -1.
        -11    1    3    3    0    0  0.47631452978E+00  0.16476426491E+01  0.13248243962E+01  0.21672013687E+01  0.51100000000E-03 0.  1.
         12    1    3    3    0    0 -0.23492251707E+02 -0.12286584504E+02 -0.12338788790E+02  0.29241952018E+02  0.00000000000E+00 0. -1.
</event>
<event>
 7    1  0.1542786E-009  0.4778728E+02  0.7816164E-02  0.1312668E+00
        -11   -1    0    0    0    0  0.00000000000E+00  0.00000000000E+00  0.45593999997E+02  0.45594000000E+02  0.51100000000E-03 0.  1.
         11   -1    0    0    0    0 -0.00000000000E+00 -0.00000000000E+00 -0.45593999997E+02  0.45594000000E+02  0.51100000000E-03 0. -1.
    9900012    2    1    2    0    0 -0.32227776709E+02 -0.44647956547E+00 -0.29065339002E+02  0.47787275733E+02  0.20000021376E+02 0.  0.
        -12    1    1    2    0    0  0.32227776709E+02  0.44647956547E+00  0.29065339002E+02  0.43400724267E+02  0.00000000000E+00 0.  1.
         11    1    3    3    0    0 -0.16754783921E+02 -0.25618339449E+01 -0.13971827129E+02  0.21965830988E+02  0.51100000000E-03 0. -1.
        -11    1    3    3    0    0 -0.86354134739E+01 -0.57352009765E+01 -0.91892485559E+01  0.13852984710E+02  0.51100000000E-03 0.  1.
        -12    1    3    3    0    0 -0.68375793139E+01  0.78505553559E+01 -0.59042633175E+01  0.11968460034E+02  0.00000000000E+00 0.  1.
</event>
<event>
 7    1  0.1542786E-009  0.4778728E+02  0.7816164E-02  0.1312668E+00
        -11   -1    0    0    0    0  0.00000000000E+00  0.00000000000E+00  0.45593999997E+02  0.45594000000E+02  0.51100000000E-03 0.  1.
         11   -1    0    0    0    0 -0.00000000000E+00 -0.00000000000E+00 -0.45593999997E+02  0.45594000000E+02  0.51100000000E-03 0. -1.
    9900012    2    1    2    0    0  0.14828824815E+02 -0.37748237538E+02 -0.15453120526E+02  0.47787280921E+02  0.20000045030E+02 0.  0.
        -12    1    1    2    0    0 -0.14828824815E+02  0.37748237538E+02  0.15453120526E+02  0.43400719079E+02  0.00000000000E+00 0.  1.
         11    1    3    3    0    0  0.97460320028E+01 -0.11973563266E+02 -0.39997992399E+01  0.15948346350E+02  0.51100000000E-03 0. -1.
        -11    1    3    3    0    0 -0.20853248329E+01 -0.20954338482E+02 -0.85234189251E+01  0.22717428361E+02  0.51100000000E-03 0.  1.
        -12    1    3    3    0    0  0.71681176446E+01 -0.48203357903E+01 -0.29299023607E+01  0.91215062102E+01  0.00000000000E+00 0.  1.
</event>
<event>
 7    1  0.1542786E-009  0.4778727E+02  0.7816164E-02  0.1312668E+00
        -11   -1    0    0    0    0  0.00000000000E+00  0.00000000000E+00  0.45593999997E+02  0.45594000000E+02  0.51100000000E-03 0.  1.
         11   -1    0    0    0    0 -0.00000000000E+00 -0.00000000000E+00 -0.45593999997E+02  0.45594000000E+02  0.51100000000E-03 0. -1.
    9900012    2    1    2    0    0 -0.33148562259E+02 -0.27821085501E+02 -0.32837485141E+01  0.47787274400E+02  0.20000015300E+02 0.  0.
        -12    1    1    2    0    0  0.33148562259E+02  0.27821085501E+02  0.32837485141E+01  0.43400725600E+02  0.00000000000E+00 0.  1.
         11    1    3    3    0    0 -0.64034133646E+01 -0.82826157054E+01  0.30879830382E+01  0.10915175910E+02  0.51100000000E-03 0. -1.
        -11    1    3    3    0    0  0.11975284139E+01 -0.42072958900E+01 -0.15298381906E+01  0.46342009191E+01  0.51100000000E-03 0.  1.
         12    1    3    3    0    0 -0.27942677308E+02 -0.15331173906E+02 -0.48418933617E+01  0.32237897571E+02  0.00000000000E+00 0. -1.
</event>
<event>
 7    1  0.1542786E-009  0.4778727E+02  0.7816164E-02  0.1312668E+00
        -11   -1    0    0    0    0  0.00000000000E+00  0.00000000000E+00  0.45593999997E+02  0.45594000000E+02  0.51100000000E-03 0.  1.
         11   -1    0    0    0    0 -0.00000000000E+00 -0.00000000000E+00 -0.45593999997E+02  0.45594000000E+02  0.51100000000E-03 0. -1.
    9900012    2    1    2    0    0  0.12425736216E+02 -0.36547807359E+02 -0.19836381094E+02  0.47787272377E+02  0.20000006075E+02 0.  0.
        -12    1    1    2    0    0 -0.12425736216E+02  0.36547807359E+02  0.19836381094E+02  0.43400727623E+02  0.00000000000E+00 0.  1.
         11    1    3    3    0    0  0.48249212675E+01 -0.14707531268E+02 -0.27528207443E+00  0.15481186056E+02  0.51100000000E-03 0. -1.
        -11    1    3    3    0    0  0.32131365797E+00 -0.82861090017E+00  0.14578824371E+01  0.17074132342E+01  0.51100000000E-03 0.  1.
         12    1    3    3    0    0  0.72795012909E+01 -0.21011665191E+02 -0.21018981457E+02  0.30598673086E+02  0.00000000000E+00 0. -1.
</event>
<event>
 7    1  0.1542786E-009  0.4778727E+02  0.7816164E-02  0.1312668E+00
        -11   -1    0    0    0    0  0.00000000000E+00  0.00000000000E+00  0.45593999997E+02  0.45594000000E+02  0.51100000000E-03 0.  1.
         11   -1    0    0    0    0 -0.00000000000E+00 -0.00000000000E+00 -0.45593999997E+02  0.45594000000E+02  0.51100000000E-03 0. -1.
    9900012    2    1    2    0    0  0.33281805801E+01  0.22544759513E+02 -0.36936164168E+02  0.47787272000E+02  0.20000004359E+02 0.  0.
        -12    1    1    2    0    0 -0.33281805801E+01 -0.22544759513E+02  0.36936164168E+02  0.43400728000E+02  0.00000000000E+00 0.  1.
         11    1    3    3    0    0  0.11515178089E+00 -0.62588387331E+00 -0.56595722104E+01  0.56952391013E+01  0.51100000000E-03 0. -1.
        -11    1    3    3    0    0  0.25674953062E+01  0.14012630461E+02 -0.64799641003E+01  0.15650424262E+02  0.51100000000E-03 0.  1.
        -12    1    3    3    0    0  0.64553349303E+00  0.91580129252E+01 -0.24796627857E+02  0.26441608637E+02  0.00000000000E+00 0.  1.
</event>
<event>
 7    1  0.1542786E-009  0.4778728E+02  0.7816164E-02  0.1312668E+00
        -11   -1    0    0    0    0  0.00000000000E+00  0.00000000000E+00  0.45593999997E+02  0.45594000000E+02  0.51100000000E-03 0.  1.
         11   -1    0    0    0    0 -0.00000000000E+00 -0.00000000000E+00 -0.45593999997E+02  0.45594000000E+02  0.51100000000E-03 0. -1.
    9900012    2    1    2    0    0  0.25176087095E+02  0.19345881008E+02 -0.29589261878E+02  0.47787275445E+02  0.20000020065E+02 0.  0.
        -12    1    1    2    0    0 -0.25176087095E+02 -0.19345881008E+02  0.29589261878E+02  0.43400724555E+02  0.00000000000E+00 0.  1.
         11    1    3    3    0    0 -0.85469658828E+00  0.82913631597E+00 -0.17248179759E+01  0.20959414590E+01  0.51100000000E-03 0. -1.
        -11    1    3    3    0    0  0.13965010809E+01  0.17080158264E+01  0.23600896508E+01  0.32307207791E+01  0.51100000000E-03 0.  1.
         12    1    3    3    0    0  0.24634282602E+02  0.16808728866E+02 -0.30224533553E+02  0.42460613207E+02  0.00000000000E+00 0. -1.
</event>
<event>
 7    1  0.1542786E-009  0.4778727E+02  0.7816164E-02  0.1312668E+00
        -11   -1    0    0    0    0  0.00000000000E+00  0.00000000000E+00  0.45593999997E+02  0.45594000000E+02  0.51100000000E-03 0.  1.
         11   -1    0    0    0    0 -0.00000000000E+00 -0.00000000000E+00 -0.45593999997E+02  0.45594000000E+02  0.51100000000E-03 0. -1.
    9900012    2    1    2    0    0 -0.57434814347E+00 -0.28082204650E+02 -0.33086001941E+02  0.47787267077E+02  0.19999981910E+02 0.  0.
        -12    1    1    2    0    0  0.57434814347E+00  0.28082204650E+02  0.33086001941E+02  0.43400732923E+02  0.00000000000E+00 0.  1.
         11    1    3    3    0    0  0.27780147384E+01 -0.28163935927E+02 -0.27970052085E+02  0.39790054872E+02  0.51100000000E-03 0. -1.
        -11    1    3    3    0    0 -0.32030291184E+01 -0.14432859025E+01 -0.53966199217E+01  0.64394080916E+01  0.51100000000E-03 0.  1.
         12    1    3    3    0    0 -0.14933376347E+00  0.15250171793E+01  0.28067006528E+00  0.15578041134E+01  0.00000000000E+00 0. -1.
</event>
<event>
 7    1  0.1542786E-009  0.4778725E+02  0.7816164E-02  0.1312668E+00
        -11   -1    0    0    0    0  0.00000000000E+00  0.00000000000E+00  0.45593999997E+02  0.45594000000E+02  0.51100000000E-03 0. -1.
         11   -1    0    0    0    0 -0.00000000000E+00 -0.00000000000E+00 -0.45593999997E+02  0.45594000000E+02  0.51100000000E-03 0.  1.
    9900012    2    1    2    0    0  0.66796550943E+01  0.42788624255E+02  0.28531917041E+01  0.47787252763E+02  0.19999916649E+02 0.  0.
        -12    1    1    2    0    0 -0.66796550943E+01 -0.42788624255E+02 -0.28531917041E+01  0.43400747237E+02  0.00000000000E+00 0.  1.
         11    1    3    3    0    0  0.35393074018E+01  0.17145737647E+02  0.14534345802E+01  0.17567455384E+02  0.51100000000E-03 0. -1.
        -11    1    3    3    0    0 -0.47907073220E+01  0.34197604616E+01  0.29285967635E+01  0.65743682224E+01  0.51100000000E-03 0.  1.
        -12    1    3    3    0    0  0.79310550144E+01  0.22223126146E+02 -0.15288396396E+01  0.23645429157E+02  0.00000000000E+00 0.  1.
</event>
<event>
 7    1  0.1542786E-009  0.4778727E+02  0.7816164E-02  0.1312668E+00
        -11   -1    0    0    0    0  0.00000000000E+00  0.00000000000E+00  0.45593999997E+02  0.45594000000E+02  0.51100000000E-03 0.  1.
         11   -1    0    0    0    0 -0.00000000000E+00 -0.00000000000E+00 -0.45593999997E+02  0.45594000000E+02  0.51100000000E-03 0. -1.
    9900012    2    1    2    0    0  0.71517975533E+01  0.82318949464E+01 -0.42008460516E+02  0.47787273536E+02  0.20000011361E+02 0.  0.
        -12    1    1    2    0    0 -0.71517975533E+01 -0.82318949464E+01  0.42008460516E+02  0.43400726464E+02  0.00000000000E+00 0.  1.
         11    1    3    3    0    0  0.84746900670E+01 -0.29077863722E+01 -0.14612707913E+02  0.17140794209E+02  0.51100000000E-03 0.  1.
        -11    1    3    3    0    0 -0.88713984579E+00  0.24638066939E+01 -0.16525193516E+02  0.16731389110E+02  0.51100000000E-03 0. -1.
        -12    1    3    3    0    0 -0.43575266784E+00  0.86758746246E+01 -0.10870559086E+02  0.13915090217E+02  0.00000000000E+00 0.  1.
</event>
<event>
 7    1  0.1542786E-009  0.4778728E+02  0.7816164E-02  0.1312668E+00
        -11   -1    0    0    0    0  0.00000000000E+00  0.00000000000E+00  0.45593999997E+02  0.45594000000E+02  0.51100000000E-03 0. -1.
         11   -1    0    0    0    0 -0.00000000000E+00 -0.00000000000E+00 -0.45593999997E+02  0.45594000000E+02  0.51100000000E-03 0.  1.
    9900012    2    1    2    0    0 -0.12284800808E+02  0.28414722049E+02  0.30418905424E+02  0.47787279186E+02  0.20000037119E+02 0.  0.
        -12    1    1    2    0    0  0.12284800808E+02 -0.28414722049E+02 -0.30418905424E+02  0.43400720814E+02  0.00000000000E+00 0.  1.
         11    1    3    3    0    0  0.28549170100E+01  0.53950002471E+01  0.92503497327E+01  0.11082668868E+02  0.51100000000E-03 0. -1.
        -11    1    3    3    0    0 -0.15355102132E+02  0.23497984444E+02  0.17673851519E+02  0.33170762159E+02  0.51100000000E-03 0.  1.
        -12    1    3    3    0    0  0.21538431411E+00 -0.47826264242E+00  0.34947041720E+01  0.35338481586E+01  0.00000000000E+00 0.  1.
</event>
<event>
 7    1  0.1542786E-009  0.4778727E+02  0.7816164E-02  0.1312668E+00
        -11   -1    0    0    0    0  0.00000000000E+00  0.00000000000E+00  0.45593999997E+02  0.45594000000E+02  0.51100000000E-03 0.  1.
         11   -1    0    0    0    0 -0.00000000000E+00 -0.00000000000E+00 -0.45593999997E+02  0.45594000000E+02  0.51100000000E-03 0. -1.
    9900012    2    1    2    0    0  0.59903663077E+01 -0.42392090317E+02  0.71168250656E+01  0.47787274096E+02  0.20000013915E+02 0.  0.
        -12    1    1    2    0    0 -0.59903663077E+01  0.42392090317E+02 -0.71168250656E+01  0.43400725904E+02  0.00000000000E+00 0.  1.
         11    1    3    3    0    0  0.68807655828E+01 -0.11643328189E+02 -0.29232808886E+01  0.13836820362E+02  0.51100000000E-03 0. -1.
        -11    1    3    3    0    0 -0.94728906261E+00 -0.19517648199E+01  0.39647528669E+01  0.45195141373E+01  0.51100000000E-03 0.  1.
        -12    1    3    3    0    0  0.56889787461E-01 -0.28796997308E+02  0.60753530873E+01  0.29430939597E+02  0.00000000000E+00 0.  1.
</event>
<event>
 7    1  0.1542786E-009  0.4778727E+02  0.7816164E-02  0.1312668E+00
        -11   -1    0    0    0    0  0.00000000000E+00  0.00000000000E+00  0.45593999997E+02  0.45594000000E+02  0.51100000000E-03 0.  1.
         11   -1    0    0    0    0 -0.00000000000E+00 -0.00000000000E+00 -0.45593999997E+02  0.45594000000E+02  0.51100000000E-03 0. -1.
    9900012    2    1    2    0    0 -0.26539933486E+02 -0.34147647843E+02  0.36322496031E+01  0.47787272359E+02  0.20000005992E+02 0.  0.
        -12    1    1    2    0    0  0.26539933486E+02  0.34147647843E+02 -0.36322496031E+01  0.43400727641E+02  0.00000000000E+00 0.  1.
         11    1    3    3    0    0 -0.97494450004E+01 -0.10388369507E+02  0.70166089952E+01  0.15880891061E+02  0.51100000000E-03 0. -1.
        -11    1    3    3    0    0  0.11559519945E+01 -0.73415580997E+00 -0.23199927070E+01  0.26939888991E+01  0.51100000000E-03 0.  1.
         12    1    3    3    0    0 -0.17946440480E+02 -0.23025122525E+02 -0.10643666851E+01  0.29212392399E+02  0.00000000000E+00 0. -1.
</event>
<event>
 7    1  0.1542786E-009  0.4778729E+02  0.7816164E-02  0.1312668E+00
        -11   -1    0    0    0    0  0.00000000000E+00  0.00000000000E+00  0.45593999997E+02  0.45594000000E+02  0.51100000000E-03 0.  1.
         11   -1    0    0    0    0 -0.00000000000E+00 -0.00000000000E+00 -0.45593999997E+02  0.45594000000E+02  0.51100000000E-03 0. -1.
    9900012    2    1    2    0    0 -0.16810511931E+02  0.12286433456E+02 -0.38079808123E+02  0.47787290960E+02  0.20000090803E+02 0.  0.
        -12    1    1    2    0    0  0.16810511931E+02 -0.12286433456E+02  0.38079808123E+02  0.43400709040E+02  0.00000000000E+00 0.  1.
         11    1    3    3    0    0 -0.11093058463E+02  0.70177527518E+01 -0.24261657995E+02  0.27585011304E+02  0.51100000000E-03 0. -1.
        -11    1    3    3    0    0 -0.75939790219E+01  0.31064462986E+01 -0.25735522065E+01  0.85989358185E+01  0.51100000000E-03 0.  1.
        -12    1    3    3    0    0  0.18765255532E+01  0.21622344061E+01 -0.11244597922E+02  0.11603343837E+02  0.00000000000E+00 0.  1.
</event>
<event>
 7    1  0.1542786E-009  0.4778727E+02  0.7816164E-02  0.1312668E+00
        -11   -1    0    0    0    0  0.00000000000E+00  0.00000000000E+00  0.45593999997E+02  0.45594000000E+02  0.51100000000E-03 0. -1.
         11   -1    0    0    0    0 -0.00000000000E+00 -0.00000000000E+00 -0.45593999997E+02  0.45594000000E+02  0.51100000000E-03 0.  1.
    9900012    2    1    2    0    0 -0.15927184575E+02 -0.24437870608E+02  0.32136257634E+02  0.47787265179E+02  0.19999973255E+02 0.  0.
        -12    1    1    2    0    0  0.15927184575E+02  0.24437870608E+02 -0.32136257634E+02  0.43400734821E+02  0.00000000000E+00 0.  1.
         11    1    3    3    0    0 -0.14936205050E+02 -0.23630742059E+02  0.31139609969E+02  0.41847072788E+02  0.51100000000E-03 0. -1.
        -11    1    3    3    0    0 -0.59349368443E+00  0.98020790431E+00  0.30088239727E+01  0.32196372853E+01  0.51100000000E-03 0.  1.
         12    1    3    3    0    0 -0.39748583979E+00 -0.17873364528E+01 -0.20121763080E+01  0.27205551056E+01  0.00000000000E+00 0. -1.
</event>
<event>
 7    1  0.1542786E-009  0.4778727E+02  0.7816164E-02  0.1312668E+00
        -11   -1    0    0    0    0  0.00000000000E+00  0.00000000000E+00  0.45593999997E+02  0.45594000000E+02  0.51100000000E-03 0.  1.
         11   -1    0    0    0    0 -0.00000000000E+00 -0.00000000000E+00 -0.45593999997E+02  0.45594000000E+02  0.51100000000E-03 0. -1.
    9900012    2    1    2    0    0  0.29603313063E+02  0.26835603536E+00 -0.31736342648E+02  0.47787267242E+02  0.19999982661E+02 0.  0.
        -12    1    1    2    0    0 -0.29603313063E+02 -0.26835603536E+00  0.31736342648E+02  0.43400732758E+02  0.00000000000E+00 0.  1.
         11    1    3    3    0    0  0.92153495835E+01 -0.15471410665E+01 -0.17150325036E+02  0.19530744034E+02  0.51100000000E-03 0. -1.
        -11    1    3    3    0    0  0.21689215222E+02  0.33702102528E+01 -0.14329672870E+02  0.26212971959E+02  0.51100000000E-03 0.  1.
         12    1    3    3    0    0 -0.13012517423E+01 -0.15547131510E+01 -0.25634474255E+00  0.20435512486E+01  0.00000000000E+00 0. -1.
</event>
<event>
 7    1  0.1542786E-009  0.4778727E+02  0.7816164E-02  0.1312668E+00
        -11   -1    0    0    0    0  0.00000000000E+00  0.00000000000E+00  0.45593999997E+02  0.45594000000E+02  0.51100000000E-03 0. -1.
         11   -1    0    0    0    0 -0.00000000000E+00 -0.00000000000E+00 -0.45593999997E+02  0.45594000000E+02  0.51100000000E-03 0.  1.
    9900012    2    1    2    0    0 -0.35248405034E+01 -0.39510304537E+02  0.17610645124E+02  0.47787268591E+02  0.19999988813E+02 0.  0.
        -12    1    1    2    0    0  0.35248405034E+01  0.39510304537E+02 -0.17610645124E+02  0.43400731409E+02  0.00000000000E+00 0.  1.
         11    1    3    3    0    0  0.11231423792E+01 -0.47025619618E+01 -0.37522654160E+01  0.61200517826E+01  0.51100000000E-03 0.  1.
        -11    1    3    3    0    0 -0.33684398266E+01 -0.84054958620E+01  0.78302376890E+01  0.11971272701E+02  0.51100000000E-03 0. -1.
        -12    1    3    3    0    0 -0.12795430560E+01 -0.26402246713E+02  0.13532672851E+02  0.29695944107E+02  0.00000000000E+00 0.  1.
</event>
<event>
 7    1  0.1542786E-009  0.4778727E+02  0.7816164E-02  0.1312668E+00
        -11   -1    0    0    0    0  0.00000000000E+00  0.00000000000E+00  0.45593999997E+02  0.45594000000E+02  0.51100000000E-03 0.  1.
         11   -1    0    0    0    0 -0.00000000000E+00 -0.00000000000E+00 -0.45593999997E+02  0.45594000000E+02  0.51100000000E-03 0. -1.
    9900012    2    1    2    0    0  0.38635129973E+02  0.16173489947E+02 -0.11374018157E+02  0.47787270351E+02  0.19999996836E+02 0.  0.
        -12    1    1    2    0    0 -0.38635129973E+02 -0.16173489947E+02  0.11374018157E+02  0.43400729649E+02  0.00000000000E+00 0.  1.
         11    1    3    3    0    0  0.77375095198E+01  0.15190712227E+01 -0.80791845814E+01  0.11289369102E+02  0.51100000000E-03 0. -1.
        -11    1    3    3    0    0  0.28798496043E+02  0.92605025427E+01 -0.45060522086E+01  0.30584551467E+02  0.51100000000E-03 0.  1.
        -12    1    3    3    0    0  0.20991244095E+01  0.53939161817E+01  0.12112186330E+01  0.59133497815E+01  0.00000000000E+00 0.  1.
</event>
<event>
 7    1  0.1542786E-009  0.4778727E+02  0.7816164E-02  0.1312668E+00
        -11   -1    0    0    0    0  0.00000000000E+00  0.00000000000E+00  0.45593999997E+02  0.45594000000E+02  0.51100000000E-03 0.  1.
         11   -1    0    0    0    0 -0.00000000000E+00 -0.00000000000E+00 -0.45593999997E+02  0.45594000000E+02  0.51100000000E-03 0. -1.
    9900012    2    1    2    0    0  0.19427751327E+02  0.21035091176E+02 -0.32614578610E+02  0.47787270510E+02  0.19999997562E+02 0.  0.
        -12    1    1    2    0    0 -0.19427751327E+02 -0.21035091176E+02  0.32614578610E+02  0.43400729490E+02  0.00000000000E+00 0.  1.
         11    1    3    3    0    0  0.22497291065E+01  0.10994314506E+02 -0.48241821778E+01  0.12215112216E+02  0.51100000000E-03 0.  1.
        -11    1    3    3    0    0  0.25944939802E+01 -0.11677148124E+00 -0.10353835481E+02  0.10674593389E+02  0.51100000000E-03 0. -1.
        -12    1    3    3    0    0  0.14583528240E+02  0.10157548152E+02 -0.17436560951E+02  0.24897564905E+02  0.00000000000E+00 0.  1.
</event>
<event>
 7    1  0.1542786E-009  0.4778727E+02  0.7816164E-02  0.1312668E+00
        -11   -1    0    0    0    0  0.00000000000E+00  0.00000000000E+00  0.45593999997E+02  0.45594000000E+02  0.51100000000E-03 0.  1.
         11   -1    0    0    0    0 -0.00000000000E+00 -0.00000000000E+00 -0.45593999997E+02  0.45594000000E+02  0.51100000000E-03 0. -1.
    9900012    2    1    2    0    0  0.97182664238E+01 -0.20938869499E+02 -0.36752445031E+02  0.47787272196E+02  0.20000005252E+02 0.  0.
        -12    1    1    2    0    0 -0.97182664238E+01  0.20938869499E+02  0.36752445031E+02  0.43400727804E+02  0.00000000000E+00 0.  1.
         11    1    3    3    0    0 -0.44472166151E+01 -0.64553380417E+01 -0.10072565151E+02  0.12763451486E+02  0.51100000000E-03 0. -1.
        -11    1    3    3    0    0  0.42073349748E+01 -0.33225645630E+01 -0.12245341096E+01  0.54991441982E+01  0.51100000000E-03 0.  1.
         12    1    3    3    0    0  0.99581480641E+01 -0.11160966894E+02 -0.25455345770E+02  0.29524676512E+02  0.00000000000E+00 0. -1.
</event>
<event>
 7    1  0.1542786E-009  0.4778727E+02  0.7816164E-02  0.1312668E+00
        -11   -1    0    0    0    0  0.00000000000E+00  0.00000000000E+00  0.45593999997E+02  0.45594000000E+02  0.51100000000E-03 0.  1.
         11   -1    0    0    0    0 -0.00000000000E+00 -0.00000000000E+00 -0.45593999997E+02  0.45594000000E+02  0.51100000000E-03 0. -1.
    9900012    2    1    2    0    0 -0.32689034928E+02  0.28538077527E+02 -0.79274285371E+00  0.47787270574E+02  0.19999997854E+02 0.  0.
        -12    1    1    2    0    0  0.32689034928E+02 -0.28538077527E+02  0.79274285371E+00  0.43400729426E+02  0.00000000000E+00 0.  1.
         11    1    3    3    0    0 -0.16542696869E+02  0.13759543571E+02 -0.78946334156E+01  0.22919666141E+02  0.51100000000E-03 0. -1.
        -11    1    3    3    0    0 -0.59191806918E+01  0.10431471817E+02  0.63594160018E+00  0.12010692166E+02  0.51100000000E-03 0.  1.
        -12    1    3    3    0    0 -0.10227157367E+02  0.43470621390E+01  0.64659489617E+01  0.12856912266E+02  0.00000000000E+00 0.  1.
</event>
<event>
 7    1  0.1542786E-009  0.4778728E+02  0.7816164E-02  0.1312668E+00
        -11   -1    0    0    0    0  0.00000000000E+00  0.00000000000E+00  0.45593999997E+02  0.45594000000E+02  0.51100000000E-03 0.  1.
         11   -1    0    0    0    0 -0.00000000000E+00 -0.00000000000E+00 -0.45593999997E+02  0.45594000000E+02  0.51100000000E-03 0. -1.
    9900012    2    1    2    0    0  0.11411410576E+02 -0.12161942718E+02 -0.40068559591E+02  0.47787278696E+02  0.20000034885E+02 0.  0.
        -12    1    1    2    0    0 -0.11411410576E+02  0.12161942718E+02  0.40068559591E+02  0.43400721304E+02  0.00000000000E+00 0.  1.
         11    1    3    3    0    0  0.29720047421E+01 -0.37755883150E+00 -0.11059523185E+02  0.11458115735E+02  0.51100000000E-03 0. -1.
        -11    1    3    3    0    0  0.29095532014E+01  0.38707913742E+01 -0.98575078395E+01  0.10982667561E+02  0.51100000000E-03 0.  1.
         12    1    3    3    0    0  0.55298526326E+01 -0.15655175261E+02 -0.19151528567E+02  0.25346495399E+02  0.00000000000E+00 0. -1.
</event>
<event>
 7    1  0.1542786E-009  0.4778726E+02  0.7816164E-02  0.1312668E+00
        -11   -1    0    0    0    0  0.00000000000E+00  0.00000000000E+00  0.45593999997E+02  0.45594000000E+02  0.51100000000E-03 0.  1.
         11   -1    0    0    0    0 -0.00000000000E+00 -0.00000000000E+00 -0.45593999997E+02  0.45594000000E+02  0.51100000000E-03 0. -1.
    9900012    2    1    2    0    0 -0.24350544383E+02  0.22834907442E+02 -0.27735217123E+02  0.47787259471E+02  0.19999947232E+02 0.  0.
        -12    1    1    2    0    0  0.24350544383E+02 -0.22834907442E+02  0.27735217123E+02  0.43400740529E+02  0.00000000000E+00 0.  1.
         11    1    3    3    0    0 -0.64165365151E+01  0.13032783132E+02 -0.12684125600E+02  0.19285030970E+02  0.51100000000E-03 0. -1.
        -11    1    3    3    0    0 -0.42152160739E+01 -0.15804761193E+01 -0.82968492782E+01  0.94394734769E+01  0.51100000000E-03 0.  1.
         12    1    3    3    0    0 -0.13718791794E+02  0.11382600429E+02 -0.67542422443E+01  0.19062755024E+02  0.00000000000E+00 0. -1.
</event>
<event>
 7    1  0.1542786E-009  0.4778727E+02  0.7816164E-02  0.1312668E+00
        -11   -1    0    0    0    0  0.00000000000E+00  0.00000000000E+00  0.45593999997E+02  0.45594000000E+02  0.51100000000E-03 0.  1.
         11   -1    0    0    0    0 -0.00000000000E+00 -0.00000000000E+00 -0.45593999997E+02  0.45594000000E+02  0.51100000000E-03 0. -1.
    9900012    2    1    2    0    0  0.39501423669E+02  0.16348960517E+01 -0.17904975757E+02  0.47787268280E+02  0.19999987394E+02 0.  0.
        -12    1    1    2    0    0 -0.39501423669E+02 -0.16348960517E+01  0.17904975757E+02  0.43400731720E+02  0.00000000000E+00 0.  1.
         11    1    3    3    0    0  0.23382944331E+02  0.59470643518E+01 -0.48401586933E+01  0.24608063647E+02  0.51100000000E-03 0. -1.
        -11    1    3    3    0    0  0.15376281994E+01  0.12015787954E+01 -0.55318675340E+01  0.58659739819E+01  0.51100000000E-03 0.  1.
         12    1    3    3    0    0  0.14580851138E+02 -0.55137470955E+01 -0.75329495299E+01  0.17313230651E+02  0.00000000000E+00 0. -1.
</event>
<event>
 7    1  0.1542786E-009  0.4778727E+02  0.7816164E-02  0.1312668E+00
        -11   -1    0    0    0    0  0.00000000000E+00  0.00000000000E+00  0.45593999997E+02  0.45594000000E+02  0.51100000000E-03 0.  1.
         11   -1    0    0    0    0 -0.00000000000E+00 -0.00000000000E+00 -0.45593999997E+02  0.45594000000E+02  0.51100000000E-03 0. -1.
    9900012    2    1    2    0    0  0.21275229591E+02  0.25047503043E+02 -0.28348018837E+02  0.47787274490E+02  0.20000015709E+02 0.  0.
        -12    1    1    2    0    0 -0.21275229591E+02 -0.25047503043E+02  0.28348018837E+02  0.43400725510E+02  0.00000000000E+00 0.  1.
         11    1    3    3    0    0  0.85537272628E+01  0.10512302717E+02 -0.54519700526E+01  0.14608173610E+02  0.51100000000E-03 0. -1.
        -11    1    3    3    0    0  0.74535265847E+01 -0.50143907064E+00 -0.10992900837E+02  0.13290988254E+02  0.51100000000E-03 0.  1.
        -12    1    3    3    0    0  0.52679757436E+01  0.15036639396E+02 -0.11903147947E+02  0.19888112626E+02  0.00000000000E+00 0.  1.
</event>
<event>
 7    1  0.1542786E-009  0.4778727E+02  0.7816164E-02  0.1312668E+00
        -11   -1    0    0    0    0  0.00000000000E+00  0.00000000000E+00  0.45593999997E+02  0.45594000000E+02  0.51100000000E-03 0.  1.
         11   -1    0    0    0    0 -0.00000000000E+00 -0.00000000000E+00 -0.45593999997E+02  0.45594000000E+02  0.51100000000E-03 0. -1.
    9900012    2    1    2    0    0 -0.15339557657E+02  0.32531988407E+02 -0.24289731326E+02  0.47787270206E+02  0.19999996175E+02 0.  0.
        -12    1    1    2    0    0  0.15339557657E+02 -0.32531988407E+02  0.24289731326E+02  0.43400729794E+02  0.00000000000E+00 0.  1.
         11    1    3    3    0    0 -0.33683748255E+01  0.20084923108E+02 -0.69048731315E+01  0.21504124219E+02  0.51100000000E-03 0.  1.
        -11    1    3    3    0    0 -0.10718827791E+02  0.98472635443E+01 -0.83101926275E+01  0.16760703156E+02  0.51100000000E-03 0. -1.
        -12    1    3    3    0    0 -0.12523550403E+01  0.25998017552E+01 -0.90746655666E+01  0.95224428305E+01  0.00000000000E+00 0.  1.
</event>
<event>
 7    1  0.1542786E-009  0.4778727E+02  0.7816164E-02  0.1312668E+00
        -11   -1    0    0    0    0  0.00000000000E+00  0.00000000000E+00  0.45593999997E+02  0.45594000000E+02  0.51100000000E-03 0.  1.
         11   -1    0    0    0    0 -0.00000000000E+00 -0.00000000000E+00 -0.45593999997E+02  0.45594000000E+02  0.51100000000E-03 0. -1.
    9900012    2    1    2    0    0 -0.12956349585E+02  0.24267267587E+02 -0.33568675396E+02  0.47787271451E+02  0.20000001854E+02 0.  0.
        -12    1    1    2    0    0  0.12956349585E+02 -0.24267267587E+02  0.33568675396E+02  0.43400728549E+02  0.00000000000E+00 0.  1.
         11    1    3    3    0    0 -0.37529008481E+01  0.39305099721E-01 -0.14303081041E+01  0.40164152176E+01  0.51100000000E-03 0. -1.
        -11    1    3    3    0    0 -0.63955019884E+00  0.11508304954E+02 -0.23491844775E+02  0.26167095341E+02  0.51100000000E-03 0.  1.
        -12    1    3    3    0    0 -0.85638985377E+01  0.12719657533E+02 -0.86465225174E+01  0.17603760893E+02  0.00000000000E+00 0.  1.
</event>
<event>
 7    1  0.1542786E-009  0.4778728E+02  0.7816164E-02  0.1312668E+00
        -11   -1    0    0    0    0  0.00000000000E+00  0.00000000000E+00  0.45593999997E+02  0.45594000000E+02  0.51100000000E-03 0.  1.
         11   -1    0    0    0    0 -0.00000000000E+00 -0.00000000000E+00 -0.45593999997E+02  0.45594000000E+02  0.51100000000E-03 0. -1.
    9900012    2    1    2    0    0  0.33739006302E+02  0.20826430100E+02  0.17651119167E+02  0.47787277139E+02  0.20000027790E+02 0.  0.
        -12    1    1    2    0    0 -0.33739006302E+02 -0.20826430100E+02 -0.17651119167E+02  0.43400722861E+02  0.00000000000E+00 0.  1.
         11    1    3    3    0    0  0.20065296084E+02  0.17258632683E+02  0.19712308366E+01  0.26539824044E+02  0.51100000000E-03 0. -1.
        -11    1    3    3    0    0  0.67720547444E+01  0.24298206105E+01  0.64208036198E+01  0.96432086489E+01  0.51100000000E-03 0.  1.
         12    1    3    3    0    0  0.69016554739E+01  0.11379768060E+01  0.92590847104E+01  0.11604244446E+02  0.00000000000E+00 0. -1.
</event>
<event>
 7    1  0.1542786E-009  0.4778727E+02  0.7816164E-02  0.1312668E+00
        -11   -1    0    0    0    0  0.00000000000E+00  0.00000000000E+00  0.45593999997E+02  0.45594000000E+02  0.51100000000E-03 0.  1.
         11   -1    0    0    0    0 -0.00000000000E+00 -0.00000000000E+00 -0.45593999997E+02  0.45594000000E+02  0.51100000000E-03 0. -1.
    9900012    2    1    2    0    0  0.11439088737E+02  0.36002144700E+02 -0.21368581521E+02  0.47787269011E+02  0.19999990730E+02 0.  0.
        -12    1    1    2    0    0 -0.11439088737E+02 -0.36002144700E+02  0.21368581521E+02  0.43400730989E+02  0.00000000000E+00 0.  1.
         11    1    3    3    0    0 -0.21527427130E+01  0.57452384248E+01 -0.43966989586E+01  0.75480479423E+01  0.51100000000E-03 0. -1.
        -11    1    3    3    0    0  0.12658969811E+02  0.25246458543E+02 -0.70873120607E+01  0.29118090222E+02  0.51100000000E-03 0.  1.
         12    1    3    3    0    0  0.93286163927E+00  0.50104477317E+01 -0.98845705020E+01  0.11121130847E+02  0.00000000000E+00 0. -1.
</event>
<event>
 7    1  0.1542786E-009  0.4778727E+02  0.7816164E-02  0.1312668E+00
        -11   -1    0    0    0    0  0.00000000000E+00  0.00000000000E+00  0.45593999997E+02  0.45594000000E+02  0.51100000000E-03 0.  1.
         11   -1    0    0    0    0 -0.00000000000E+00 -0.00000000000E+00 -0.45593999997E+02  0.45594000000E+02  0.51100000000E-03 0. -1.
    9900012    2    1    2    0    0  0.33949268510E+02  0.31046446628E+01 -0.26859481332E+02  0.47787269727E+02  0.19999993994E+02 0.  0.
        -12    1    1    2    0    0 -0.33949268510E+02 -0.31046446628E+01  0.26859481332E+02  0.43400730273E+02  0.00000000000E+00 0.  1.
         11    1    3    3    0    0  0.20368558027E+02  0.56636566102E+01 -0.23091739816E+02  0.31307884155E+02  0.51100000000E-03 0. -1.
        -11    1    3    3    0    0  0.47866783080E+01 -0.22363005061E+01 -0.53716616505E+01  0.75344593918E+01  0.51100000000E-03 0.  1.
        -12    1    3    3    0    0  0.87940321750E+01 -0.32271144128E+00  0.16039201351E+01  0.89449261801E+01  0.00000000000E+00 0.  1.
</event>
<event>
 7    1  0.1542786E-009  0.4778727E+02  0.7816164E-02  0.1312668E+00
        -11   -1    0    0    0    0  0.00000000000E+00  0.00000000000E+00  0.45593999997E+02  0.45594000000E+02  0.51100000000E-03 0.  1.
         11   -1    0    0    0    0 -0.00000000000E+00 -0.00000000000E+00 -0.45593999997E+02  0.45594000000E+02  0.51100000000E-03 0. -1.
    9900012    2    1    2    0    0  0.28192888837E+02  0.28633345159E+01 -0.32872259329E+02  0.47787273060E+02  0.20000009190E+02 0.  0.
        -12    1    1    2    0    0 -0.28192888837E+02 -0.28633345159E+01  0.32872259329E+02  0.43400726940E+02  0.00000000000E+00 0.  1.
         11    1    3    3    0    0  0.15911854414E+02 -0.76419791249E+01 -0.16293696831E+02  0.24022312806E+02  0.51100000000E-03 0. -1.
        -11    1    3    3    0    0  0.90189116325E+00  0.31527664962E+01 -0.19002175063E+01  0.37900093776E+01  0.51100000000E-03 0.  1.
         12    1    3    3    0    0  0.11379143260E+02  0.73525471446E+01 -0.14678344991E+02  0.19974950876E+02  0.00000000000E+00 0. -1.
</event>
<event>
 7    1  0.1542786E-009  0.4778728E+02  0.7816164E-02  0.1312668E+00
        -11   -1    0    0    0    0  0.00000000000E+00  0.00000000000E+00  0.45593999997E+02  0.45594000000E+02  0.51100000000E-03 0.  1.
         11   -1    0    0    0    0 -0.00000000000E+00 -0.00000000000E+00 -0.45593999997E+02  0.45594000000E+02  0.51100000000E-03 0. -1.
    9900012    2    1    2    0    0  0.30480213550E+02  0.27645957830E+02 -0.13794215358E+02  0.47787276737E+02  0.20000025955E+02 0.  0.
        -12    1    1    2    0    0 -0.30480213550E+02 -0.27645957830E+02  0.13794215358E+02  0.43400723263E+02  0.00000000000E+00 0.  1.
         11    1    3    3    0    0  0.16878391107E+02  0.12042147889E+02 -0.14752917355E+02  0.25446846227E+02  0.51100000000E-03 0. -1.
        -11    1    3    3    0    0 -0.11850090050E-03  0.50445422028E+01 -0.44314648815E+00  0.50639693049E+01  0.51100000000E-03 0.  1.
         12    1    3    3    0    0  0.13601940943E+02  0.10559267739E+02  0.14018484847E+01  0.17276461205E+02  0.00000000000E+00 0. -1.
</event>
<event>
 7    1  0.1542786E-009  0.4778727E+02  0.7816164E-02  0.1312668E+00
        -11   -1    0    0    0    0  0.00000000000E+00  0.00000000000E+00  0.45593999997E+02  0.45594000000E+02  0.51100000000E-03 0.  1.
         11   -1    0    0    0    0 -0.00000000000E+00 -0.00000000000E+00 -0.45593999997E+02  0.45594000000E+02  0.51100000000E-03 0. -1.
    9900012    2    1    2    0    0  0.30241925992E+02  0.30284618215E+02 -0.72035753869E+01  0.47787266291E+02  0.19999978326E+02 0.  0.
        -12    1    1    2    0    0 -0.30241925992E+02 -0.30284618215E+02  0.72035753869E+01  0.43400733709E+02  0.00000000000E+00 0.  1.
         11    1    3    3    0    0  0.42695582324E+01  0.11292500798E+02 -0.52628057665E+00  0.12084149671E+02  0.51100000000E-03 0. -1.
        -11    1    3    3    0    0  0.23079529834E+02  0.17151573419E+02 -0.64216692378E+00  0.28762015692E+02  0.51100000000E-03 0.  1.
        -12    1    3    3    0    0  0.28928379258E+01  0.18405439990E+01 -0.60351278865E+01  0.69411009274E+01  0.00000000000E+00 0.  1.
</event>
<event>
 7    1  0.1542786E-009  0.4778727E+02  0.7816164E-02  0.1312668E+00
        -11   -1    0    0    0    0  0.00000000000E+00  0.00000000000E+00  0.45593999997E+02  0.45594000000E+02  0.51100000000E-03 0.  1.
         11   -1    0    0    0    0 -0.00000000000E+00 -0.00000000000E+00 -0.45593999997E+02  0.45594000000E+02  0.51100000000E-03 0. -1.
    9900012    2    1    2    0    0  0.21903084489E+02  0.23277107828E+02 -0.29360764154E+02  0.47787270390E+02  0.19999997017E+02 0.  0.
        -12    1    1    2    0    0 -0.21903084489E+02 -0.23277107828E+02  0.29360764154E+02  0.43400729610E+02  0.00000000000E+00 0.  1.
         11    1    3    3    0    0 -0.11804748802E+01  0.94927293141E+00 -0.36723344877E+01  0.39724905150E+01  0.51100000000E-03 0. -1.
        -11    1    3    3    0    0  0.33191733178E+01  0.38634574400E+00 -0.96450172703E+01  0.10207474367E+02  0.51100000000E-03 0.  1.
         12    1    3    3    0    0  0.19764386051E+02  0.21941489153E+02 -0.16043412396E+02  0.33607305508E+02  0.00000000000E+00 0. -1.
</event>
<event>
 7    1  0.1542786E-009  0.4778727E+02  0.7816164E-02  0.1312668E+00
        -11   -1    0    0    0    0  0.00000000000E+00  0.00000000000E+00  0.45593999997E+02  0.45594000000E+02  0.51100000000E-03 0.  1.
         11   -1    0    0    0    0 -0.00000000000E+00 -0.00000000000E+00 -0.45593999997E+02  0.45594000000E+02  0.51100000000E-03 0. -1.
    9900012    2    1    2    0    0  0.24388872434E+01  0.63908529122E+01 -0.42858280229E+02  0.47787270097E+02  0.19999995679E+02 0.  0.
        -12    1    1    2    0    0 -0.24388872434E+01 -0.63908529122E+01  0.42858280229E+02  0.43400729903E+02  0.00000000000E+00 0.  1.
         11    1    3    3    0    0  0.31147838321E+00  0.67347463887E+01 -0.19360021439E+02  0.20500347755E+02  0.51100000000E-03 0. -1.
        -11    1    3    3    0    0  0.19046523244E+01  0.17370988413E+01  0.95144289683E+00  0.27478094382E+01  0.51100000000E-03 0.  1.
         12    1    3    3    0    0  0.22275653578E+00 -0.20809923179E+01 -0.24449701687E+02  0.24539112904E+02  0.00000000000E+00 0. -1.
</event>
<event>
 7    1  0.1542786E-009  0.4778731E+02  0.7816164E-02  0.1312668E+00
        -11   -1    0    0    0    0  0.00000000000E+00  0.00000000000E+00  0.45593999997E+02  0.45594000000E+02  0.51100000000E-03 0.  1.
         11   -1    0    0    0    0 -0.00000000000E+00 -0.00000000000E+00 -0.45593999997E+02  0.45594000000E+02  0.51100000000E-03 0. -1.
    9900012    2    1    2    0    0 -0.94050253462E+01  0.30865338027E+02 -0.29025780114E+02  0.47787314470E+02  0.20000197992E+02 0.  0.
        -12    1    1    2    0    0  0.94050253462E+01 -0.30865338027E+02  0.29025780114E+02  0.43400685530E+02  0.00000000000E+00 0.  1.
         11    1    3    3    0    0 -0.12703584440E+02  0.13680215569E+02 -0.17110255511E+02  0.25323708250E+02  0.51100000000E-03 0. -1.
        -11    1    3    3    0    0 -0.10835938871E+00  0.12426771998E+02 -0.10887106675E+02  0.16521667472E+02  0.51100000000E-03 0.  1.
        -12    1    3    3    0    0  0.34069184823E+01  0.47583504605E+01 -0.10284179284E+01  0.59419387481E+01  0.00000000000E+00 0.  1.
</event>
<event>
 7    1  0.1542786E-009  0.4778727E+02  0.7816164E-02  0.1312668E+00
        -11   -1    0    0    0    0  0.00000000000E+00  0.00000000000E+00  0.45593999997E+02  0.45594000000E+02  0.51100000000E-03 0.  1.
         11   -1    0    0    0    0 -0.00000000000E+00 -0.00000000000E+00 -0.45593999997E+02  0.45594000000E+02  0.51100000000E-03 0. -1.
    9900012    2    1    2    0    0 -0.66376220239E+01  0.35707893828E+02 -0.23759452089E+02  0.47787271074E+02  0.20000000136E+02 0.  0.
        -12    1    1    2    0    0  0.66376220239E+01 -0.35707893828E+02  0.23759452089E+02  0.43400728926E+02  0.00000000000E+00 0.  1.
         11    1    3    3    0    0 -0.11219886556E+02  0.15866938383E+02 -0.76574732822E+01  0.20887376219E+02  0.51100000000E-03 0. -1.
        -11    1    3    3    0    0  0.20586337522E+01  0.11174927558E+02 -0.45505489568E+01  0.12240280835E+02  0.51100000000E-03 0.  1.
        -12    1    3    3    0    0  0.25236307804E+01  0.86660278870E+01 -0.11551429850E+02  0.14659614020E+02  0.00000000000E+00 0.  1.
</event>
<event>
 7    1  0.1542786E-009  0.4778727E+02  0.7816164E-02  0.1312668E+00
        -11   -1    0    0    0    0  0.00000000000E+00  0.00000000000E+00  0.45593999997E+02  0.45594000000E+02  0.51100000000E-03 0.  1.
         11   -1    0    0    0    0 -0.00000000000E+00 -0.00000000000E+00 -0.45593999997E+02  0.45594000000E+02  0.51100000000E-03 0. -1.
    9900012    2    1    2    0    0 -0.26749354985E+02 -0.32622310050E+02  0.10192185312E+02  0.47787265599E+02  0.19999975171E+02 0.  0.
        -12    1    1    2    0    0  0.26749354985E+02  0.32622310050E+02 -0.10192185312E+02  0.43400734401E+02  0.00000000000E+00 0.  1.
         11    1    3    3    0    0 -0.88123503758E+01 -0.22009834200E+02  0.56154742314E+01  0.24364397628E+02  0.51100000000E-03 0. -1.
        -11    1    3    3    0    0 -0.49222191493E+01 -0.62328712890E+01 -0.20106695356E+01  0.81926624550E+01  0.51100000000E-03 0.  1.
        -12    1    3    3    0    0 -0.13014785460E+02 -0.43796045616E+01  0.65873806157E+01  0.15230205516E+02  0.00000000000E+00 0.  1.
</event>
<event>
 7    1  0.1568567E-009  0.4778727E+02  0.7816164E-02  0.1312668E+00
        -11   -1    0    0    0    0  0.00000000000E+00  0.00000000000E+00  0.45593999997E+02  0.45594000000E+02  0.51100000000E-03 0. -1.
         11   -1    0    0    0    0 -0.00000000000E+00 -0.00000000000E+00 -0.45593999997E+02  0.45594000000E+02  0.51100000000E-03 0.  1.
    9900012    2    1    2    0    0 -0.23307548684E+02 -0.22389284360E+02  0.28967241703E+02  0.47787274526E+02  0.20000015873E+02 0.  0.
        -12    1    1    2    0    0  0.23307548684E+02  0.22389284360E+02 -0.28967241703E+02  0.43400725474E+02  0.00000000000E+00 0.  1.
         11    1    3    3    0    0 -0.17938695939E+02 -0.11465438251E+02  0.13624186662E+02  0.25275908465E+02  0.51100000000E-03 0. -1.
        -11    1    3    3    0    0 -0.11430074325E+00 -0.22966738865E+01 -0.15889546226E+01  0.27950943911E+01  0.51100000000E-03 0.  1.
        -12    1    3    3    0    0 -0.52545520017E+01 -0.86271722230E+01  0.16932009664E+02  0.19716271670E+02  0.00000000000E+00 0.  1.
</event>
<event>
 7    1  0.1542786E-009  0.4778727E+02  0.7816164E-02  0.1312668E+00
        -11   -1    0    0    0    0  0.00000000000E+00  0.00000000000E+00  0.45593999997E+02  0.45594000000E+02  0.51100000000E-03 0. -1.
         11   -1    0    0    0    0 -0.00000000000E+00 -0.00000000000E+00 -0.45593999997E+02  0.45594000000E+02  0.51100000000E-03 0.  1.
    9900012    2    1    2    0    0 -0.27695245993E+02  0.32647770111E+02 -0.71217820288E+01  0.47787270478E+02  0.19999997416E+02 0.  0.
        -12    1    1    2    0    0  0.27695245993E+02 -0.32647770111E+02  0.71217820288E+01  0.43400729522E+02  0.00000000000E+00 0.  1.
         11    1    3    3    0    0 -0.26538716501E+02  0.26207894485E+02 -0.10167301930E+02  0.38659167550E+02  0.51100000000E-03 0. -1.
        -11    1    3    3    0    0  0.10282571103E+01  0.38270897818E+01 -0.74498332227E+00  0.40322362647E+01  0.51100000000E-03 0.  1.
        -12    1    3    3    0    0 -0.21847866019E+01  0.26127858443E+01  0.37905032232E+01  0.50958666632E+01  0.00000000000E+00 0.  1.
</event>
<event>
 7    1  0.1542786E-009  0.4778727E+02  0.7816164E-02  0.1312668E+00
        -11   -1    0    0    0    0  0.00000000000E+00  0.00000000000E+00  0.45593999997E+02  0.45594000000E+02  0.51100000000E-03 0. -1.
         11   -1    0    0    0    0 -0.00000000000E+00 -0.00000000000E+00 -0.45593999997E+02  0.45594000000E+02  0.51100000000E-03 0.  1.
    9900012    2    1    2    0    0  0.39353720268E+02 -0.17808961620E+02  0.42129945943E+01  0.47787265716E+02  0.19999975707E+02 0.  0.
        -12    1    1    2    0    0 -0.39353720268E+02  0.17808961620E+02 -0.42129945943E+01  0.43400734284E+02  0.00000000000E+00 0.  1.
         11    1    3    3    0    0  0.22632265495E+02 -0.96670746433E+01  0.67204127740E+01  0.25511482154E+02  0.51100000000E-03 0. -1.
        -11    1    3    3    0    0  0.16821215702E+02 -0.92369497472E+01 -0.47574900281E+01  0.19771399798E+02  0.51100000000E-03 0.  1.
        -12    1    3    3    0    0 -0.99760929698E-01  0.10950627703E+01  0.22500718484E+01  0.25043837639E+01  0.00000000000E+00 0.  1.
</event>
<event>
 7    1  0.1542786E-009  0.4778726E+02  0.7816164E-02  0.1312668E+00
        -11   -1    0    0    0    0  0.00000000000E+00  0.00000000000E+00  0.45593999997E+02  0.45594000000E+02  0.51100000000E-03 0.  1.
         11   -1    0    0    0    0 -0.00000000000E+00 -0.00000000000E+00 -0.45593999997E+02  0.45594000000E+02  0.51100000000E-03 0. -1.
    9900012    2    1    2    0    0 -0.16968080825E+02  0.38679136081E+02 -0.99816177308E+01  0.47787262363E+02  0.19999960419E+02 0.  0.
        -12    1    1    2    0    0  0.16968080825E+02 -0.38679136081E+02  0.99816177308E+01  0.43400737637E+02  0.00000000000E+00 0.  1.
         11    1    3    3    0    0 -0.86587675624E+01  0.46197661641E+01 -0.52715374372E+00  0.98282443214E+01  0.51100000000E-03 0. -1.
        -11    1    3    3    0    0 -0.14596972189E+01 -0.14135127059E+00 -0.16671880469E+01  0.22204081601E+01  0.51100000000E-03 0.  1.
         12    1    3    3    0    0 -0.68496160437E+01  0.34200721188E+02 -0.77872759402E+01  0.35738609882E+02  0.00000000000E+00 0. -1.
</event>
<event>
 7    1  0.1542786E-009  0.4778727E+02  0.7816164E-02  0.1312668E+00
        -11   -1    0    0    0    0  0.00000000000E+00  0.00000000000E+00  0.45593999997E+02  0.45594000000E+02  0.51100000000E-03 0.  1.
         11   -1    0    0    0    0 -0.00000000000E+00 -0.00000000000E+00 -0.45593999997E+02  0.45594000000E+02  0.51100000000E-03 0. -1.
    9900012    2    1    2    0    0  0.60296565436E+01  0.37201124898E+02 -0.21525398531E+02  0.47787271508E+02  0.20000002112E+02 0.  0.
        -12    1    1    2    0    0 -0.60296565436E+01 -0.37201124898E+02  0.21525398531E+02  0.43400728492E+02  0.00000000000E+00 0.  1.
         11    1    3    3    0    0  0.86631770772E+01  0.17408353994E+02 -0.10686509497E+02  0.22187900111E+02  0.51100000000E-03 0. -1.
        -11    1    3    3    0    0 -0.43184074103E+01  0.12835983037E+01 -0.30899812406E+01  0.54629892454E+01  0.51100000000E-03 0.  1.
         12    1    3    3    0    0  0.16848868768E+01  0.18509172601E+02 -0.77489077935E+01  0.20136382152E+02  0.00000000000E+00 0. -1.
</event>
<event>
 7    1  0.1542786E-009  0.4778728E+02  0.7816164E-02  0.1312668E+00
        -11   -1    0    0    0    0  0.00000000000E+00  0.00000000000E+00  0.45593999997E+02  0.45594000000E+02  0.51100000000E-03 0.  1.
         11   -1    0    0    0    0 -0.00000000000E+00 -0.00000000000E+00 -0.45593999997E+02  0.45594000000E+02  0.51100000000E-03 0. -1.
    9900012    2    1    2    0    0  0.23305363230E+02  0.11038413098E+02 -0.34908969363E+02  0.47787278105E+02  0.20000032194E+02 0.  0.
        -12    1    1    2    0    0 -0.23305363230E+02 -0.11038413098E+02  0.34908969363E+02  0.43400721895E+02  0.00000000000E+00 0.  1.
         11    1    3    3    0    0  0.20879416440E+02  0.85776864328E+01 -0.33157471593E+02  0.40111652398E+02  0.51100000000E-03 0. -1.
        -11    1    3    3    0    0 -0.11341416053E+01  0.32235081473E+01 -0.21115873254E+01  0.40169743900E+01  0.51100000000E-03 0.  1.
        -12    1    3    3    0    0  0.35600883959E+01 -0.76278148191E+00  0.36008955551E+00  0.36586513175E+01  0.00000000000E+00 0.  1.
</event>
<event>
 7    1  0.2959273E-009  0.4778727E+02  0.7816164E-02  0.1312668E+00
        -11   -1    0    0    0    0  0.00000000000E+00  0.00000000000E+00  0.45593999997E+02  0.45594000000E+02  0.51100000000E-03 0.  1.
         11   -1    0    0    0    0 -0.00000000000E+00 -0.00000000000E+00 -0.45593999997E+02  0.45594000000E+02  0.51100000000E-03 0. -1.
    9900012    2    1    2    0    0  0.17532706663E+02  0.38946311265E+02 -0.77079372122E+01  0.47787271202E+02  0.20000000719E+02 0.  0.
        -12    1    1    2    0    0 -0.17532706663E+02 -0.38946311265E+02  0.77079372122E+01  0.43400728798E+02  0.00000000000E+00 0.  1.
         11    1    3    3    0    0  0.65388203493E+01  0.18568032019E+02 -0.54697222529E+01  0.20431491536E+02  0.51100000000E-03 0. -1.
        -11    1    3    3    0    0  0.80289904329E+01  0.32278162191E+01 -0.45854592661E+01  0.97933611113E+01  0.51100000000E-03 0.  1.
        -12    1    3    3    0    0  0.29648958813E+01  0.17150463027E+02  0.23472443068E+01  0.17562418554E+02  0.00000000000E+00 0.  1.
</event>
<event>
 7    1  0.1542786E-009  0.4778727E+02  0.7816164E-02  0.1312668E+00
        -11   -1    0    0    0    0  0.00000000000E+00  0.00000000000E+00  0.45593999997E+02  0.45594000000E+02  0.51100000000E-03 0. -1.
         11   -1    0    0    0    0 -0.00000000000E+00 -0.00000000000E+00 -0.45593999997E+02  0.45594000000E+02  0.51100000000E-03 0.  1.
    9900012    2    1    2    0    0 -0.33400170711E+02  0.19671726205E+02  0.19521156555E+02  0.47787265344E+02  0.19999974010E+02 0.  0.
        -12    1    1    2    0    0  0.33400170711E+02 -0.19671726205E+02 -0.19521156555E+02  0.43400734656E+02  0.00000000000E+00 0.  1.
         11    1    3    3    0    0 -0.18134645412E+02  0.14677219463E+02  0.99716484387E+01  0.25371635900E+02  0.51100000000E-03 0. -1.
        -11    1    3    3    0    0 -0.56947974718E+01  0.76989161518E+01  0.77261889520E+01  0.12304390442E+02  0.51100000000E-03 0.  1.
         12    1    3    3    0    0 -0.95707278268E+01 -0.27044094097E+01  0.18233191643E+01  0.10111239002E+02  0.00000000000E+00 0. -1.
</event>
<event>
 7    1  0.1542786E-009  0.4778727E+02  0.7816164E-02  0.1312668E+00
        -11   -1    0    0    0    0  0.00000000000E+00  0.00000000000E+00  0.45593999997E+02  0.45594000000E+02  0.51100000000E-03 0. -1.
         11   -1    0    0    0    0 -0.00000000000E+00 -0.00000000000E+00 -0.45593999997E+02  0.45594000000E+02  0.51100000000E-03 0.  1.
    9900012    2    1    2    0    0 -0.23973877173E+02  0.14070025894E+02  0.33330328318E+02  0.47787271882E+02  0.20000003821E+02 0.  0.
        -12    1    1    2    0    0  0.23973877173E+02 -0.14070025894E+02 -0.33330328318E+02  0.43400728118E+02  0.00000000000E+00 0.  1.
         11    1    3    3    0    0 -0.90159272794E+01  0.72057850673E+01  0.27020548377E+01  0.11853749776E+02  0.51100000000E-03 0. -1.
        -11    1    3    3    0    0 -0.13404872511E+02  0.78178130786E+01  0.20872802463E+02  0.26009280868E+02  0.51100000000E-03 0.  1.
        -12    1    3    3    0    0 -0.15530773830E+01 -0.95357225142E+00  0.97554710167E+01  0.99242412382E+01  0.00000000000E+00 0.  1.
</event>
<event>
 7    1  0.1542786E-009  0.4778726E+02  0.7816164E-02  0.1312668E+00
        -11   -1    0    0    0    0  0.00000000000E+00  0.00000000000E+00  0.45593999997E+02  0.45594000000E+02  0.51100000000E-03 0.  1.
         11   -1    0    0    0    0 -0.00000000000E+00 -0.00000000000E+00 -0.45593999997E+02  0.45594000000E+02  0.51100000000E-03 0. -1.
    9900012    2    1    2    0    0  0.35599691159E+02  0.98861456757E+01  0.22771691696E+02  0.47787264642E+02  0.19999970807E+02 0.  0.
        -12    1    1    2    0    0 -0.35599691159E+02 -0.98861456757E+01 -0.22771691696E+02  0.43400735358E+02  0.00000000000E+00 0.  1.
         11    1    3    3    0    0  0.26831411069E+02  0.10606470112E+02  0.76136698391E+01  0.29839400075E+02  0.51100000000E-03 0. -1.
        -11    1    3    3    0    0  0.36437604026E+00 -0.11356982089E+01  0.20467922482E+01  0.23689531631E+01  0.51100000000E-03 0.  1.
         12    1    3    3    0    0  0.84039040503E+01  0.41537377292E+00  0.13111229609E+02  0.15578911403E+02  0.00000000000E+00 0. -1.
</event>
<event>
 7    1  0.1683355E-009  0.4778727E+02  0.7816164E-02  0.1312668E+00
        -11   -1    0    0    0    0  0.00000000000E+00  0.00000000000E+00  0.45593999997E+02  0.45594000000E+02  0.51100000000E-03 0.  1.
         11   -1    0    0    0    0 -0.00000000000E+00 -0.00000000000E+00 -0.45593999997E+02  0.45594000000E+02  0.51100000000E-03 0. -1.
    9900012    2    1    2    0    0 -0.10763998151E+02  0.41937322206E+02  0.30034490426E+01  0.47787270097E+02  0.19999995678E+02 0.  0.
        -12    1    1    2    0    0  0.10763998151E+02 -0.41937322206E+02 -0.30034490426E+01  0.43400729903E+02  0.00000000000E+00 0.  1.
         11    1    3    3    0    0 -0.63296072346E+01  0.12891340253E+02  0.19753602360E+01  0.14496642010E+02  0.51100000000E-03 0. -1.
        -11    1    3    3    0    0  0.30108486002E+01  0.26767300488E+01  0.40644383695E+01  0.57227399529E+01  0.51100000000E-03 0.  1.
        -12    1    3    3    0    0 -0.74452395169E+01  0.26369251904E+02 -0.30363495629E+01  0.27567888133E+02  0.00000000000E+00 0.  1.
</event>
<event>
 7    1  0.1542786E-009  0.4778727E+02  0.7816164E-02  0.1312668E+00
        -11   -1    0    0    0    0  0.00000000000E+00  0.00000000000E+00  0.45593999997E+02  0.45594000000E+02  0.51100000000E-03 0.  1.
         11   -1    0    0    0    0 -0.00000000000E+00 -0.00000000000E+00 -0.45593999997E+02  0.45594000000E+02  0.51100000000E-03 0. -1.
    9900012    2    1    2    0    0 -0.16420373449E+02  0.18064347531E+02 -0.35884173485E+02  0.47787271635E+02  0.20000002693E+02 0.  0.
        -12    1    1    2    0    0  0.16420373449E+02 -0.18064347531E+02  0.35884173485E+02  0.43400728365E+02  0.00000000000E+00 0.  1.
         11    1    3    3    0    0 -0.15268906086E+02  0.77982172589E+01 -0.17643316017E+02  0.24601591123E+02  0.51100000000E-03 0. -1.
        -11    1    3    3    0    0  0.87437538169E+00 -0.18341464060E+01 -0.22725148921E+01  0.30484339492E+01  0.51100000000E-03 0.  1.
        -12    1    3    3    0    0 -0.20258427455E+01  0.12100276678E+02 -0.15968342575E+02  0.20137246562E+02  0.00000000000E+00 0.  1.
</event>
<event>
 7    1  0.1542786E-009  0.4778727E+02  0.7816164E-02  0.1312668E+00
        -11   -1    0    0    0    0  0.00000000000E+00  0.00000000000E+00  0.45593999997E+02  0.45594000000E+02  0.51100000000E-03 0. -1.
         11   -1    0    0    0    0 -0.00000000000E+00 -0.00000000000E+00 -0.45593999997E+02  0.45594000000E+02  0.51100000000E-03 0.  1.
    9900012    2    1    2    0    0 -0.28378810526E+02  0.17244981069E+02 -0.27944178397E+02  0.47787269992E+02  0.19999995202E+02 0.  0.
        -12    1    1    2    0    0  0.28378810526E+02 -0.17244981069E+02  0.27944178397E+02  0.43400730008E+02  0.00000000000E+00 0.  1.
         11    1    3    3    0    0  0.38678947971E+00  0.47909440670E+01 -0.62941461275E+01  0.79195345122E+01  0.51100000000E-03 0.  1.
        -11    1    3    3    0    0 -0.13485549575E+02  0.10794992753E+02 -0.15837831044E+02  0.23435631169E+02  0.51100000000E-03 0. -1.
         12    1    3    3    0    0 -0.15280050431E+02  0.16590442489E+01 -0.58122012257E+01  0.16432104311E+02  0.00000000000E+00 0. -1.
</event>
<event>
 7    1  0.1542786E-009  0.4778725E+02  0.7816164E-02  0.1312668E+00
        -11   -1    0    0    0    0  0.00000000000E+00  0.00000000000E+00  0.45593999997E+02  0.45594000000E+02  0.51100000000E-03 0.  1.
         11   -1    0    0    0    0 -0.00000000000E+00 -0.00000000000E+00 -0.45593999997E+02  0.45594000000E+02  0.51100000000E-03 0. -1.
    9900012    2    1    2    0    0 -0.27356941517E+02  0.17705113874E+02 -0.28666215484E+02  0.47787248662E+02  0.19999897951E+02 0.  0.
        -12    1    1    2    0    0  0.27356941517E+02 -0.17705113874E+02  0.28666215484E+02  0.43400751338E+02  0.00000000000E+00 0.  1.
         11    1    3    3    0    0  0.12653446494E+01 -0.11606030853E+01 -0.29100499987E+01  0.33788293623E+01  0.51100000000E-03 0. -1.
        -11    1    3    3    0    0 -0.21707086441E+02  0.87298751717E+01 -0.13249799852E+02  0.26888018124E+02  0.51100000000E-03 0.  1.
         12    1    3    3    0    0 -0.69151997254E+01  0.10135841787E+02 -0.12506365634E+02  0.17520401176E+02  0.00000000000E+00 0. -1.
</event>
<event>
 7    1  0.1542786E-009  0.4778727E+02  0.7816164E-02  0.1312668E+00
        -11   -1    0    0    0    0  0.00000000000E+00  0.00000000000E+00  0.45593999997E+02  0.45594000000E+02  0.51100000000E-03 0.  1.
         11   -1    0    0    0    0 -0.00000000000E+00 -0.00000000000E+00 -0.45593999997E+02  0.45594000000E+02  0.51100000000E-03 0. -1.
    9900012    2    1    2    0    0 -0.12643402832E+02  0.16742985977E+02 -0.37992628954E+02  0.47787273400E+02  0.20000010738E+02 0.  0.
        -12    1    1    2    0    0  0.12643402832E+02 -0.16742985977E+02  0.37992628954E+02  0.43400726600E+02  0.00000000000E+00 0.  1.
         11    1    3    3    0    0 -0.49931912741E+00  0.75018940873E+01 -0.25230902347E+02  0.26327289416E+02  0.51100000000E-03 0. -1.
        -11    1    3    3    0    0 -0.27021806496E+01  0.27535774855E+01  0.55062035341E+00  0.38970697025E+01  0.51100000000E-03 0.  1.
        -12    1    3    3    0    0 -0.94419030553E+01  0.64875144037E+01 -0.13312346961E+02  0.17562914281E+02  0.00000000000E+00 0.  1.
</event>
<event>
 7    1  0.1542786E-009  0.4778727E+02  0.7816164E-02  0.1312668E+00
        -11   -1    0    0    0    0  0.00000000000E+00  0.00000000000E+00  0.45593999997E+02  0.45594000000E+02  0.51100000000E-03 0.  1.
         11   -1    0    0    0    0 -0.00000000000E+00 -0.00000000000E+00 -0.45593999997E+02  0.45594000000E+02  0.51100000000E-03 0. -1.
    9900012    2    1    2    0    0  0.39737435660E+02 -0.43208793246E+01 -0.16908275365E+02  0.47787267670E+02  0.19999984613E+02 0.  0.
        -12    1    1    2    0    0 -0.39737435660E+02  0.43208793246E+01  0.16908275365E+02  0.43400732330E+02  0.00000000000E+00 0.  1.
         11    1    3    3    0    0  0.74972479470E+00 -0.15384214550E+01 -0.24913645139E+01  0.30225362270E+01  0.51100000000E-03 0. -1.
        -11    1    3    3    0    0  0.87483710993E+01 -0.61787006556E+01  0.80470586725E+00  0.10740479062E+02  0.51100000000E-03 0.  1.
         12    1    3    3    0    0  0.30239339766E+02  0.33962427860E+01 -0.15221616719E+02  0.34024252381E+02  0.00000000000E+00 0. -1.
</event>
<event>
 7    1  0.1542786E-009  0.4778727E+02  0.7816164E-02  0.1312668E+00
        -11   -1    0    0    0    0  0.00000000000E+00  0.00000000000E+00  0.45593999997E+02  0.45594000000E+02  0.51100000000E-03 0.  1.
         11   -1    0    0    0    0 -0.00000000000E+00 -0.00000000000E+00 -0.45593999997E+02  0.45594000000E+02  0.51100000000E-03 0. -1.
    9900012    2    1    2    0    0  0.27212702236E+02 -0.72134907256E+00 -0.33801953816E+02  0.47787267412E+02  0.19999983436E+02 0.  0.
        -12    1    1    2    0    0 -0.27212702236E+02  0.72134907256E+00  0.33801953816E+02  0.43400732588E+02  0.00000000000E+00 0.  1.
         11    1    3    3    0    0  0.23874274673E+02 -0.22440295082E+01 -0.21370292572E+02  0.32120181576E+02  0.51100000000E-03 0.  1.
        -11    1    3    3    0    0  0.44559405843E+01  0.23905257186E+01 -0.13143880332E+02  0.14083025604E+02  0.51100000000E-03 0. -1.
        -12    1    3    3    0    0 -0.11175130216E+01 -0.86784528290E+00  0.71221908850E+00  0.15840602319E+01  0.00000000000E+00 0.  1.
</event>
<event>
 7    1  0.1542786E-009  0.4778727E+02  0.7816164E-02  0.1312668E+00
        -11   -1    0    0    0    0  0.00000000000E+00  0.00000000000E+00  0.45593999997E+02  0.45594000000E+02  0.51100000000E-03 0.  1.
         11   -1    0    0    0    0 -0.00000000000E+00 -0.00000000000E+00 -0.45593999997E+02  0.45594000000E+02  0.51100000000E-03 0. -1.
    9900012    2    1    2    0    0  0.31406533550E+02 -0.23933122098E+02 -0.18012739093E+02  0.47787268985E+02  0.19999990612E+02 0.  0.
        -12    1    1    2    0    0 -0.31406533550E+02  0.23933122098E+02  0.18012739093E+02  0.43400731015E+02  0.00000000000E+00 0.  1.
         11    1    3    3    0    0  0.21888618577E+02 -0.18921434306E+02 -0.16104325598E+02  0.33113163585E+02  0.51100000000E-03 0. -1.
        -11    1    3    3    0    0  0.17310713003E+01  0.24336986989E+01 -0.24849645894E+01  0.38851700703E+01  0.51100000000E-03 0.  1.
        -12    1    3    3    0    0  0.77868436734E+01 -0.74453864903E+01  0.57655109488E+00  0.10788935330E+02  0.00000000000E+00 0.  1.
</event>
<event>
 7    1  0.1542786E-009  0.4778726E+02  0.7816164E-02  0.1312668E+00
        -11   -1    0    0    0    0  0.00000000000E+00  0.00000000000E+00  0.45593999997E+02  0.45594000000E+02  0.51100000000E-03 0.  1.
         11   -1    0    0    0    0 -0.00000000000E+00 -0.00000000000E+00 -0.45593999997E+02  0.45594000000E+02  0.51100000000E-03 0. -1.
    9900012    2    1    2    0    0  0.31722741611E+02 -0.57748213940E+01 -0.29050696765E+02  0.47787264062E+02  0.19999968163E+02 0.  0.
        -12    1    1    2    0    0 -0.31722741611E+02  0.57748213940E+01  0.29050696765E+02  0.43400735938E+02  0.00000000000E+00 0.  1.
         11    1    3    3    0    0  0.28034165929E+02 -0.89519999640E+01 -0.24614411007E+02  0.38365635563E+02  0.51100000000E-03 0. -1.
        -11    1    3    3    0    0 -0.49956042861E+00 -0.38584504683E+00 -0.38390501576E+01  0.38905967917E+01  0.51100000000E-03 0.  1.
         12    1    3    3    0    0  0.41881361110E+01  0.35630236167E+01 -0.59723559965E+00  0.55310317066E+01  0.00000000000E+00 0. -1.
</event>
<event>
 7    1  0.1542786E-009  0.4778730E+02  0.7816164E-02  0.1312668E+00
        -11   -1    0    0    0    0  0.00000000000E+00  0.00000000000E+00  0.45593999997E+02  0.45594000000E+02  0.51100000000E-03 0.  1.
         11   -1    0    0    0    0 -0.00000000000E+00 -0.00000000000E+00 -0.45593999997E+02  0.45594000000E+02  0.51100000000E-03 0. -1.
    9900012    2    1    2    0    0  0.13001233864E+02  0.14930290800E+02 -0.38622204311E+02  0.47787304946E+02  0.20000154569E+02 0.  0.
        -12    1    1    2    0    0 -0.13001233864E+02 -0.14930290800E+02  0.38622204311E+02  0.43400695054E+02  0.00000000000E+00 0.  1.
         11    1    3    3    0    0  0.45087055858E+01  0.49414938435E+01 -0.14243808521E+02  0.15736355007E+02  0.51100000000E-03 0. -1.
        -11    1    3    3    0    0  0.37214295380E+01  0.59534180940E+01 -0.14233987931E+00  0.70222849352E+01  0.51100000000E-03 0.  1.
         12    1    3    3    0    0  0.47710987405E+01  0.40353788625E+01 -0.24236055910E+02  0.25028665003E+02  0.00000000000E+00 0. -1.
</event>
<event>
 7    1  0.1542786E-009  0.4778727E+02  0.7816164E-02  0.1312668E+00
        -11   -1    0    0    0    0  0.00000000000E+00  0.00000000000E+00  0.45593999997E+02  0.45594000000E+02  0.51100000000E-03 0. -1.
         11   -1    0    0    0    0 -0.00000000000E+00 -0.00000000000E+00 -0.45593999997E+02  0.45594000000E+02  0.51100000000E-03 0.  1.
    9900012    2    1    2    0    0 -0.31121429187E+02  0.23534671785E+02  0.19005240186E+02  0.47787270914E+02  0.19999999404E+02 0.  0.
        -12    1    1    2    0    0  0.31121429187E+02 -0.23534671785E+02 -0.19005240186E+02  0.43400729086E+02  0.00000000000E+00 0.  1.
         11    1    3    3    0    0 -0.34933142032E+01  0.69316363438E+01  0.21714476610E+01  0.80601496097E+01  0.51100000000E-03 0. -1.
        -11    1    3    3    0    0 -0.16301410350E+02  0.15523458907E+02  0.45166787376E+01  0.22958966504E+02  0.51100000000E-03 0.  1.
        -12    1    3    3    0    0 -0.11326704634E+02  0.10795765341E+01  0.12317113787E+02  0.16768154800E+02  0.00000000000E+00 0.  1.
</event>
<event>
 7    1  0.1542786E-009  0.4778727E+02  0.7816164E-02  0.1312668E+00
        -11   -1    0    0    0    0  0.00000000000E+00  0.00000000000E+00  0.45593999997E+02  0.45594000000E+02  0.51100000000E-03 0. -1.
         11   -1    0    0    0    0 -0.00000000000E+00 -0.00000000000E+00 -0.45593999997E+02  0.45594000000E+02  0.51100000000E-03 0.  1.
    9900012    2    1    2    0    0  0.32903992145E+01 -0.36934649923E+02  0.22552783311E+02  0.47787272736E+02  0.20000007714E+02 0.  0.
        -12    1    1    2    0    0 -0.32903992145E+01  0.36934649923E+02 -0.22552783311E+02  0.43400727264E+02  0.00000000000E+00 0.  1.
         11    1    3    3    0    0  0.80307744792E+01 -0.21556520176E+02  0.11920165628E+02  0.25908825711E+02  0.51100000000E-03 0. -1.
        -11    1    3    3    0    0  0.80614910074E+00  0.99536537230E+00 -0.43381074105E+00  0.13523389432E+01  0.51100000000E-03 0.  1.
         12    1    3    3    0    0 -0.55465243655E+01 -0.16373495119E+02  0.11066428424E+02  0.20526108083E+02  0.00000000000E+00 0. -1.
</event>
<event>
 7    1  0.1542786E-009  0.4778727E+02  0.7816164E-02  0.1312668E+00
        -11   -1    0    0    0    0  0.00000000000E+00  0.00000000000E+00  0.45593999997E+02  0.45594000000E+02  0.51100000000E-03 0. -1.
         11   -1    0    0    0    0 -0.00000000000E+00 -0.00000000000E+00 -0.45593999997E+02  0.45594000000E+02  0.51100000000E-03 0.  1.
    9900012    2    1    2    0    0 -0.80315643625E+01  0.41957369428E+02 -0.76613680508E+01  0.47787269178E+02  0.19999991491E+02 0.  0.
        -12    1    1    2    0    0  0.80315643625E+01 -0.41957369428E+02  0.76613680508E+01  0.43400730822E+02  0.00000000000E+00 0.  1.
         11    1    3    3    0    0  0.20111367277E+01  0.15705810708E+02 -0.39223697820E+01  0.16312637613E+02  0.51100000000E-03 0. -1.
        -11    1    3    3    0    0 -0.21987129575E+01 -0.11020942419E+01 -0.16087710253E+01  0.29388934755E+01  0.51100000000E-03 0.  1.
        -12    1    3    3    0    0 -0.78439881327E+01  0.27353652962E+02 -0.21302272435E+01  0.28535738090E+02  0.00000000000E+00 0.  1.
</event>
<event>
 7    1  0.1542786E-009  0.4778727E+02  0.7816164E-02  0.1312668E+00
        -11   -1    0    0    0    0  0.00000000000E+00  0.00000000000E+00  0.45593999997E+02  0.45594000000E+02  0.51100000000E-03 0.  1.
         11   -1    0    0    0    0 -0.00000000000E+00 -0.00000000000E+00 -0.45593999997E+02  0.45594000000E+02  0.51100000000E-03 0. -1.
    9900012    2    1    2    0    0 -0.15608856084E+02  0.24514021917E+02 -0.32234298250E+02  0.47787266798E+02  0.19999980639E+02 0.  0.
        -12    1    1    2    0    0  0.15608856084E+02 -0.24514021917E+02  0.32234298250E+02  0.43400733202E+02  0.00000000000E+00 0.  1.
         11    1    3    3    0    0 -0.18243930595E+01 -0.10839645676E+00 -0.58589761314E+01  0.61374067322E+01  0.51100000000E-03 0. -1.
        -11    1    3    3    0    0 -0.58196836604E+01  0.23430214477E+02 -0.20645698375E+02  0.31766153843E+02  0.51100000000E-03 0.  1.
         12    1    3    3    0    0 -0.79647793643E+01  0.11922038966E+01 -0.57296237431E+01  0.98837062224E+01  0.00000000000E+00 0. -1.
</event>
<event>
 7    1  0.1542786E-009  0.4778727E+02  0.7816164E-02  0.1312668E+00
        -11   -1    0    0    0    0  0.00000000000E+00  0.00000000000E+00  0.45593999997E+02  0.45594000000E+02  0.51100000000E-03 0.  1.
         11   -1    0    0    0    0 -0.00000000000E+00 -0.00000000000E+00 -0.45593999997E+02  0.45594000000E+02  0.51100000000E-03 0. -1.
    9900012    2    1    2    0    0  0.41379215792E+02 -0.12781538669E+02  0.28312521722E+01  0.47787271675E+02  0.20000002874E+02 0.  0.
        -12    1    1    2    0    0 -0.41379215792E+02  0.12781538669E+02 -0.28312521722E+01  0.43400728325E+02  0.00000000000E+00 0.  1.
         11    1    3    3    0    0  0.15784837881E+02 -0.27128187276E+01  0.64220496020E+01  0.17255816809E+02  0.51100000000E-03 0.  1.
        -11    1    3    3    0    0  0.26965322328E+02 -0.99098007302E+01 -0.26277355955E+01  0.28848531217E+02  0.51100000000E-03 0. -1.
         12    1    3    3    0    0 -0.13709444175E+01 -0.15891921106E+00 -0.96306183423E+00  0.16829236489E+01  0.00000000000E+00 0. -1.
</event>
<event>
 7    1  0.1542786E-009  0.4778727E+02  0.7816164E-02  0.1312668E+00
        -11   -1    0    0    0    0  0.00000000000E+00  0.00000000000E+00  0.45593999997E+02  0.45594000000E+02  0.51100000000E-03 0.  1.
         11   -1    0    0    0    0 -0.00000000000E+00 -0.00000000000E+00 -0.45593999997E+02  0.45594000000E+02  0.51100000000E-03 0. -1.
    9900012    2    1    2    0    0 -0.12965377810E+02 -0.35569065786E+02 -0.21221773759E+02  0.47787272539E+02  0.20000006814E+02 0.  0.
        -12    1    1    2    0    0  0.12965377810E+02  0.35569065786E+02  0.21221773759E+02  0.43400727461E+02  0.00000000000E+00 0.  1.
         11    1    3    3    0    0 -0.20680016457E+01 -0.12048002710E+02 -0.10496318817E+02  0.16112222351E+02  0.51100000000E-03 0. -1.
        -11    1    3    3    0    0 -0.19877517763E+01 -0.59827285900E+01  0.36736798496E+01  0.72965829266E+01  0.51100000000E-03 0.  1.
         12    1    3    3    0    0 -0.89096243879E+01 -0.17538334486E+02 -0.14399134792E+02  0.24378467261E+02  0.00000000000E+00 0. -1.
</event>
<event>
 7    1  0.1542786E-009  0.4778727E+02  0.7816164E-02  0.1312668E+00
        -11   -1    0    0    0    0  0.00000000000E+00  0.00000000000E+00  0.45593999997E+02  0.45594000000E+02  0.51100000000E-03 0. -1.
         11   -1    0    0    0    0 -0.00000000000E+00 -0.00000000000E+00 -0.45593999997E+02  0.45594000000E+02  0.51100000000E-03 0.  1.
    9900012    2    1    2    0    0  0.25951154993E+02 -0.34734704735E+02  0.19133660721E+01  0.47787272722E+02  0.20000007650E+02 0.  0.
        -12    1    1    2    0    0 -0.25951154993E+02  0.34734704735E+02 -0.19133660721E+01  0.43400727278E+02  0.00000000000E+00 0.  1.
         11    1    3    3    0    0  0.16805721591E+02 -0.24589287587E+02  0.72138740289E+01  0.30644825354E+02  0.51100000000E-03 0. -1.
        -11    1    3    3    0    0  0.67996184007E+01 -0.77891388835E+01  0.61369462445E+00  0.10357708062E+02  0.51100000000E-03 0.  1.
        -12    1    3    3    0    0  0.23458150014E+01 -0.23562782649E+01 -0.59142025813E+01  0.67847393063E+01  0.00000000000E+00 0.  1.
</event>
<event>
 7    1  0.1542786E-009  0.4778729E+02  0.7816164E-02  0.1312668E+00
        -11   -1    0    0    0    0  0.00000000000E+00  0.00000000000E+00  0.45593999997E+02  0.45594000000E+02  0.51100000000E-03 0.  1.
         11   -1    0    0    0    0 -0.00000000000E+00 -0.00000000000E+00 -0.45593999997E+02  0.45594000000E+02  0.51100000000E-03 0. -1.
    9900012    2    1    2    0    0 -0.27526954282E+02 -0.24097232996E+02 -0.23349769071E+02  0.47787290723E+02  0.20000089720E+02 0.  0.
        -12    1    1    2    0    0  0.27526954282E+02  0.24097232996E+02  0.23349769071E+02  0.43400709277E+02  0.00000000000E+00 0.  1.
         11    1    3    3    0    0 -0.22699109615E+02 -0.16172637108E+02 -0.11730608229E+02  0.30239228463E+02  0.51100000000E-03 0. -1.
        -11    1    3    3    0    0 -0.54573701438E+01 -0.15668128345E+01 -0.90039265923E+01  0.10644645869E+02  0.51100000000E-03 0.  1.
         12    1    3    3    0    0  0.62952547654E+00 -0.63577830533E+01 -0.26152342498E+01  0.69034163904E+01  0.00000000000E+00 0. -1.
</event>
<event>
 7    1  0.1542786E-009  0.4778727E+02  0.7816164E-02  0.1312668E+00
        -11   -1    0    0    0    0  0.00000000000E+00  0.00000000000E+00  0.45593999997E+02  0.45594000000E+02  0.51100000000E-03 0.  1.
         11   -1    0    0    0    0 -0.00000000000E+00 -0.00000000000E+00 -0.45593999997E+02  0.45594000000E+02  0.51100000000E-03 0. -1.
    9900012    2    1    2    0    0  0.32128101255E+02 -0.12845084207E+02 -0.26199476529E+02  0.47787266724E+02  0.19999980301E+02 0.  0.
        -12    1    1    2    0    0 -0.32128101255E+02  0.12845084207E+02  0.26199476529E+02  0.43400733276E+02  0.00000000000E+00 0.  1.
         11    1    3    3    0    0  0.17525348040E+02 -0.32038370742E+01 -0.13029514088E+02  0.22071942224E+02  0.51100000000E-03 0. -1.
        -11    1    3    3    0    0  0.29265293079E+01 -0.49455145598E+01 -0.11712321390E+02  0.13046116688E+02  0.51100000000E-03 0.  1.
         12    1    3    3    0    0  0.11676223907E+02 -0.46957325728E+01 -0.14576410505E+01  0.12669207811E+02  0.00000000000E+00 0. -1.
</event>
<event>
 7    1  0.1542786E-009  0.4778731E+02  0.7816164E-02  0.1312668E+00
        -11   -1    0    0    0    0  0.00000000000E+00  0.00000000000E+00  0.45593999997E+02  0.45594000000E+02  0.51100000000E-03 0. -1.
         11   -1    0    0    0    0 -0.00000000000E+00 -0.00000000000E+00 -0.45593999997E+02  0.45594000000E+02  0.51100000000E-03 0.  1.
    9900012    2    1    2    0    0 -0.30134089738E+01 -0.22787262980E+02  0.36814127666E+02  0.47787308950E+02  0.20000172828E+02 0.  0.
        -12    1    1    2    0    0  0.30134089738E+01  0.22787262980E+02 -0.36814127666E+02  0.43400691050E+02  0.00000000000E+00 0.  1.
         11    1    3    3    0    0 -0.13338802061E+01 -0.15726132708E+02  0.21850980376E+02  0.26954699590E+02  0.51100000000E-03 0. -1.
        -11    1    3    3    0    0  0.42625728153E+01 -0.17980500949E+01  0.11056906021E+02  0.11985728270E+02  0.51100000000E-03 0.  1.
        -12    1    3    3    0    0 -0.59421015830E+01 -0.52630801771E+01  0.39062412701E+01  0.88468810907E+01  0.00000000000E+00 0.  1.
</event>
<event>
 7    1  0.1542786E-009  0.4778728E+02  0.7816164E-02  0.1312668E+00
        -11   -1    0    0    0    0  0.00000000000E+00  0.00000000000E+00  0.45593999997E+02  0.45594000000E+02  0.51100000000E-03 0.  1.
         11   -1    0    0    0    0 -0.00000000000E+00 -0.00000000000E+00 -0.45593999997E+02  0.45594000000E+02  0.51100000000E-03 0. -1.
    9900012    2    1    2    0    0 -0.51291183771E+01  0.41723197238E+02 -0.10793019308E+02  0.47787282162E+02  0.20000050689E+02 0.  0.
        -12    1    1    2    0    0  0.51291183771E+01 -0.41723197238E+02  0.10793019308E+02  0.43400717838E+02  0.00000000000E+00 0.  1.
         11    1    3    3    0    0 -0.96333221354E+00  0.29537299270E+02  0.17867476437E+01  0.29606967500E+02  0.51100000000E-03 0.  1.
        -11    1    3    3    0    0 -0.32781253307E+01  0.58157377917E+01 -0.68771438953E+01  0.95845719864E+01  0.51100000000E-03 0. -1.
        -12    1    3    3    0    0 -0.88766083287E+00  0.63701601762E+01 -0.57026230567E+01  0.85957426759E+01  0.00000000000E+00 0.  1.
</event>
<event>
 7    1  0.1542786E-009  0.4778727E+02  0.7816164E-02  0.1312668E+00
        -11   -1    0    0    0    0  0.00000000000E+00  0.00000000000E+00  0.45593999997E+02  0.45594000000E+02  0.51100000000E-03 0.  1.
         11   -1    0    0    0    0 -0.00000000000E+00 -0.00000000000E+00 -0.45593999997E+02  0.45594000000E+02  0.51100000000E-03 0. -1.
    9900012    2    1    2    0    0 -0.39452407181E+02 -0.67917138008E+01 -0.16763167950E+02  0.47787267190E+02  0.19999982425E+02 0.  0.
        -12    1    1    2    0    0  0.39452407181E+02  0.67917138008E+01  0.16763167950E+02  0.43400732810E+02  0.00000000000E+00 0.  1.
         11    1    3    3    0    0  0.65088082780E+00 -0.69395973863E+00 -0.35339798919E+00  0.10149464866E+01  0.51100000000E-03 0. -1.
        -11    1    3    3    0    0 -0.38851945222E+02 -0.18585275695E+01 -0.12456478660E+02  0.40842277522E+02  0.51100000000E-03 0.  1.
        -12    1    3    3    0    0 -0.12513427866E+01 -0.42392264926E+01 -0.39532913008E+01  0.59300431815E+01  0.00000000000E+00 0.  1.
</event>
<event>
 7    1  0.1542786E-009  0.4778728E+02  0.7816164E-02  0.1312668E+00
        -11   -1    0    0    0    0  0.00000000000E+00  0.00000000000E+00  0.45593999997E+02  0.45594000000E+02  0.51100000000E-03 0. -1.
         11   -1    0    0    0    0 -0.00000000000E+00 -0.00000000000E+00 -0.45593999997E+02  0.45594000000E+02  0.51100000000E-03 0.  1.
    9900012    2    1    2    0    0 -0.18186418512E+02  0.18913267413E+01  0.39361147359E+02  0.47787275852E+02  0.20000021921E+02 0.  0.
        -12    1    1    2    0    0  0.18186418512E+02 -0.18913267413E+01 -0.39361147359E+02  0.43400724148E+02  0.00000000000E+00 0.  1.
         11    1    3    3    0    0 -0.92814575664E+00  0.81569561445E+01  0.14101813554E+02  0.16317430369E+02  0.51100000000E-03 0. -1.
        -11    1    3    3    0    0 -0.84484906622E+01 -0.16426311388E+01  0.93717436043E+01  0.12724182094E+02  0.51100000000E-03 0.  1.
        -12    1    3    3    0    0 -0.88097820933E+01 -0.46229982644E+01  0.15887590201E+02  0.18745663389E+02  0.00000000000E+00 0.  1.
</event>
<event>
 7    1  0.1542786E-009  0.4778727E+02  0.7816164E-02  0.1312668E+00
        -11   -1    0    0    0    0  0.00000000000E+00  0.00000000000E+00  0.45593999997E+02  0.45594000000E+02  0.51100000000E-03 0.  1.
         11   -1    0    0    0    0 -0.00000000000E+00 -0.00000000000E+00 -0.45593999997E+02  0.45594000000E+02  0.51100000000E-03 0. -1.
    9900012    2    1    2    0    0 -0.25794504921E+02  0.10848612040E+02 -0.33174908308E+02  0.47787269493E+02  0.19999992925E+02 0.  0.
        -12    1    1    2    0    0  0.25794504921E+02 -0.10848612040E+02  0.33174908308E+02  0.43400730507E+02  0.00000000000E+00 0.  1.
         11    1    3    3    0    0 -0.88540868826E+01 -0.20416028684E+01 -0.31920830987E+01  0.96308043053E+01  0.51100000000E-03 0. -1.
        -11    1    3    3    0    0 -0.30630869622E+01  0.24451379994E+01 -0.14050891752E+02  0.14587280791E+02  0.51100000000E-03 0.  1.
         12    1    3    3    0    0 -0.13877331076E+02  0.10445076909E+02 -0.15931933457E+02  0.23569184396E+02  0.00000000000E+00 0. -1.
</event>
<event>
 7    1  0.1542786E-009  0.4778721E+02  0.7816164E-02  0.1312668E+00
        -11   -1    0    0    0    0  0.00000000000E+00  0.00000000000E+00  0.45593999997E+02  0.45594000000E+02  0.51100000000E-03 0.  1.
         11   -1    0    0    0    0 -0.00000000000E+00 -0.00000000000E+00 -0.45593999997E+02  0.45594000000E+02  0.51100000000E-03 0. -1.
    9900012    2    1    2    0    0 -0.50654267860E+01 -0.42580031831E+02 -0.67015320216E+01  0.47787214400E+02  0.19999741734E+02 0.  0.
        -12    1    1    2    0    0  0.50654267860E+01  0.42580031831E+02  0.67015320216E+01  0.43400785600E+02  0.00000000000E+00 0.  1.
         11    1    3    3    0    0  0.18225622030E+01 -0.76180465070E+01  0.42820930765E+01  0.89270760578E+01  0.51100000000E-03 0. -1.
        -11    1    3    3    0    0 -0.69290216531E+01 -0.92519800895E+01 -0.37445781384E+01  0.12150405028E+02  0.51100000000E-03 0.  1.
         12    1    3    3    0    0  0.41032664200E-01 -0.25710005235E+02 -0.72390469596E+01  0.26709733314E+02  0.00000000000E+00 0. -1.
</event>
<event>
 7    1  0.1542786E-009  0.4778728E+02  0.7816164E-02  0.1312668E+00
        -11   -1    0    0    0    0  0.00000000000E+00  0.00000000000E+00  0.45593999997E+02  0.45594000000E+02  0.51100000000E-03 0.  1.
         11   -1    0    0    0    0 -0.00000000000E+00 -0.00000000000E+00 -0.45593999997E+02  0.45594000000E+02  0.51100000000E-03 0. -1.
    9900012    2    1    2    0    0  0.11533823415E+02  0.22816984230E+02 -0.35071055118E+02  0.47787276976E+02  0.20000027044E+02 0.  0.
        -12    1    1    2    0    0 -0.11533823415E+02 -0.22816984230E+02  0.35071055118E+02  0.43400723024E+02  0.00000000000E+00 0.  1.
         11    1    3    3    0    0  0.92722343540E+01  0.19167120018E+01 -0.99876920169E+01  0.13762343801E+02  0.51100000000E-03 0. -1.
        -11    1    3    3    0    0  0.10513766376E+01  0.80330655132E-01  0.37127390556E+00  0.11178955329E+01  0.51100000000E-03 0.  1.
        -12    1    3    3    0    0  0.12102124232E+01  0.20819941573E+02 -0.25454637007E+02  0.32907037642E+02  0.00000000000E+00 0.  1.
</event>
<event>
 7    1  0.1542786E-009  0.4778727E+02  0.7816164E-02  0.1312668E+00
        -11   -1    0    0    0    0  0.00000000000E+00  0.00000000000E+00  0.45593999997E+02  0.45594000000E+02  0.51100000000E-03 0.  1.
         11   -1    0    0    0    0 -0.00000000000E+00 -0.00000000000E+00 -0.45593999997E+02  0.45594000000E+02  0.51100000000E-03 0. -1.
    9900012    2    1    2    0    0  0.90518861364E+01 -0.42243475190E+02 -0.41443210688E+01  0.47787271483E+02  0.20000001998E+02 0.  0.
        -12    1    1    2    0    0 -0.90518861364E+01  0.42243475190E+02  0.41443210688E+01  0.43400728517E+02  0.00000000000E+00 0.  1.
         11    1    3    3    0    0  0.20329431101E+01 -0.15785070617E+02 -0.80953277479E+00  0.15936017559E+02  0.51100000000E-03 0.  1.
        -11    1    3    3    0    0  0.40945666883E+01 -0.22025104524E+02 -0.89483408256E+01  0.24123505331E+02  0.51100000000E-03 0. -1.
        -12    1    3    3    0    0  0.29243763379E+01 -0.44333000488E+01  0.56135525315E+01  0.77277485928E+01  0.00000000000E+00 0.  1.
</event>
<event>
 7    1  0.1542786E-009  0.4778727E+02  0.7816164E-02  0.1312668E+00
        -11   -1    0    0    0    0  0.00000000000E+00  0.00000000000E+00  0.45593999997E+02  0.45594000000E+02  0.51100000000E-03 0. -1.
         11   -1    0    0    0    0 -0.00000000000E+00 -0.00000000000E+00 -0.45593999997E+02  0.45594000000E+02  0.51100000000E-03 0.  1.
    9900012    2    1    2    0    0 -0.21853315124E+02 -0.66023340739E+01  0.36911584615E+02  0.47787271021E+02  0.19999999894E+02 0.  0.
        -12    1    1    2    0    0  0.21853315124E+02  0.66023340739E+01 -0.36911584615E+02  0.43400728979E+02  0.00000000000E+00 0.  1.
         11    1    3    3    0    0 -0.99632744141E+01 -0.45617292403E+01  0.98563993806E+01  0.14738548766E+02  0.51100000000E-03 0. -1.
        -11    1    3    3    0    0 -0.46612689278E+01  0.49462426358E+01  0.39739725062E+01  0.78730681421E+01  0.51100000000E-03 0.  1.
         12    1    3    3    0    0 -0.72287717818E+01 -0.69868474693E+01  0.23081212728E+02  0.25175654113E+02  0.00000000000E+00 0. -1.
</event>
<event>
 7    1  0.1542786E-009  0.4778727E+02  0.7816164E-02  0.1312668E+00
        -11   -1    0    0    0    0  0.00000000000E+00  0.00000000000E+00  0.45593999997E+02  0.45594000000E+02  0.51100000000E-03 0.  1.
         11   -1    0    0    0    0 -0.00000000000E+00 -0.00000000000E+00 -0.45593999997E+02  0.45594000000E+02  0.51100000000E-03 0. -1.
    9900012    2    1    2    0    0  0.29935384626E+02 -0.30330856185E+02 -0.82180070195E+01  0.47787265802E+02  0.19999976096E+02 0.  0.
        -12    1    1    2    0    0 -0.29935384626E+02  0.30330856185E+02  0.82180070195E+01  0.43400734198E+02  0.00000000000E+00 0.  1.
         11    1    3    3    0    0  0.15248363152E+02 -0.14518297240E+02 -0.20697098392E+01  0.21156021192E+02  0.51100000000E-03 0. -1.
        -11    1    3    3    0    0  0.14491762010E+02 -0.14204438531E+02 -0.19840570981E-01  0.20292304799E+02  0.51100000000E-03 0.  1.
        -12    1    3    3    0    0  0.19525946419E+00 -0.16081204130E+01 -0.61284566094E+01  0.63389398115E+01  0.00000000000E+00 0.  1.
</event>
<event>
 7    1  0.1542786E-009  0.4778727E+02  0.7816164E-02  0.1312668E+00
        -11   -1    0    0    0    0  0.00000000000E+00  0.00000000000E+00  0.45593999997E+02  0.45594000000E+02  0.51100000000E-03 0.  1.
         11   -1    0    0    0    0 -0.00000000000E+00 -0.00000000000E+00 -0.45593999997E+02  0.45594000000E+02  0.51100000000E-03 0. -1.
    9900012    2    1    2    0    0 -0.30998177335E+02 -0.10229285366E+02 -0.28602416932E+02  0.47787268076E+02  0.19999986466E+02 0.  0.
        -12    1    1    2    0    0  0.30998177335E+02  0.10229285366E+02  0.28602416932E+02  0.43400731924E+02  0.00000000000E+00 0.  1.
         11    1    3    3    0    0 -0.75048482130E+01  0.28666377086E+01 -0.89887192284E+01  0.12055597541E+02  0.51100000000E-03 0. -1.
        -11    1    3    3    0    0 -0.99757907005E+01 -0.10613302797E+02 -0.43699486912E+01  0.15207072308E+02  0.51100000000E-03 0.  1.
         12    1    3    3    0    0 -0.13517538421E+02 -0.24826202779E+01 -0.15243749012E+02  0.20524598227E+02  0.00000000000E+00 0. -1.
</event>
<event>
 7    1  0.1542786E-009  0.4778727E+02  0.7816164E-02  0.1312668E+00
        -11   -1    0    0    0    0  0.00000000000E+00  0.00000000000E+00  0.45593999997E+02  0.45594000000E+02  0.51100000000E-03 0. -1.
         11   -1    0    0    0    0 -0.00000000000E+00 -0.00000000000E+00 -0.45593999997E+02  0.45594000000E+02  0.51100000000E-03 0.  1.
    9900012    2    1    2    0    0 -0.37846059176E+02 -0.17305746337E+00 -0.21243092582E+02  0.47787272742E+02  0.20000007742E+02 0.  0.
        -12    1    1    2    0    0  0.37846059176E+02  0.17305746337E+00  0.21243092582E+02  0.43400727258E+02  0.00000000000E+00 0.  1.
         11    1    3    3    0    0 -0.10800410813E+02 -0.42022698740E+00 -0.12511328247E+01  0.10880753561E+02  0.51100000000E-03 0. -1.
        -11    1    3    3    0    0 -0.10749555569E+02 -0.47852486658E+01 -0.16861950115E+01  0.11886749076E+02  0.51100000000E-03 0.  1.
        -12    1    3    3    0    0 -0.16296092794E+02  0.50324181898E+01 -0.18305764746E+02  0.25019770105E+02  0.00000000000E+00 0.  1.
</event>
<event>
 7    1  0.1542786E-009  0.4778727E+02  0.7816164E-02  0.1312668E+00
        -11   -1    0    0    0    0  0.00000000000E+00  0.00000000000E+00  0.45593999997E+02  0.45594000000E+02  0.51100000000E-03 0.  1.
         11   -1    0    0    0    0 -0.00000000000E+00 -0.00000000000E+00 -0.45593999997E+02  0.45594000000E+02  0.51100000000E-03 0. -1.
    9900012    2    1    2    0    0  0.23474604899E+02 -0.15362084474E+02 -0.33114532650E+02  0.47787274347E+02  0.20000015060E+02 0.  0.
        -12    1    1    2    0    0 -0.23474604899E+02  0.15362084474E+02  0.33114532650E+02  0.43400725653E+02  0.00000000000E+00 0.  1.
         11    1    3    3    0    0  0.33098389420E+01 -0.11097564374E+02 -0.16015801837E+02  0.19764029892E+02  0.51100000000E-03 0. -1.
        -11    1    3    3    0    0 -0.27168082445E+00 -0.37845296756E+00 -0.26607213101E+01  0.27011988580E+01  0.51100000000E-03 0.  1.
        -12    1    3    3    0    0  0.20436446782E+02 -0.38860671327E+01 -0.14438009503E+02  0.25322045597E+02  0.00000000000E+00 0.  1.
</event>
<event>
 7    1  0.1542786E-009  0.4778727E+02  0.7816164E-02  0.1312668E+00
        -11   -1    0    0    0    0  0.00000000000E+00  0.00000000000E+00  0.45593999997E+02  0.45594000000E+02  0.51100000000E-03 0. -1.
         11   -1    0    0    0    0 -0.00000000000E+00 -0.00000000000E+00 -0.45593999997E+02  0.45594000000E+02  0.51100000000E-03 0.  1.
    9900012    2    1    2    0    0  0.17900251639E+01 -0.11177936304E+02  0.41898366163E+02  0.47787268010E+02  0.19999986166E+02 0.  0.
        -12    1    1    2    0    0 -0.17900251639E+01  0.11177936304E+02 -0.41898366163E+02  0.43400731990E+02  0.00000000000E+00 0.  1.
         11    1    3    3    0    0 -0.22632848233E+01  0.14469153476E+01  0.54673443174E+01  0.60916234585E+01  0.51100000000E-03 0. -1.
        -11    1    3    3    0    0  0.20226038025E+01 -0.13051575089E+02  0.37205963541E+02  0.39480606147E+02  0.51100000000E-03 0.  1.
        -12    1    3    3    0    0  0.20307061848E+01  0.42672343820E+00 -0.77494169559E+00  0.22150384044E+01  0.00000000000E+00 0.  1.
</event>
<event>
 7    1  0.1542786E-009  0.4778727E+02  0.7816164E-02  0.1312668E+00
        -11   -1    0    0    0    0  0.00000000000E+00  0.00000000000E+00  0.45593999997E+02  0.45594000000E+02  0.51100000000E-03 0.  1.
         11   -1    0    0    0    0 -0.00000000000E+00 -0.00000000000E+00 -0.45593999997E+02  0.45594000000E+02  0.51100000000E-03 0. -1.
    9900012    2    1    2    0    0  0.31675330482E+02  0.46880000923E+00 -0.29666087746E+02  0.47787273085E+02  0.20000009305E+02 0.  0.
        -12    1    1    2    0    0 -0.31675330482E+02 -0.46880000923E+00  0.29666087746E+02  0.43400726915E+02  0.00000000000E+00 0.  1.
         11    1    3    3    0    0  0.23285974200E+02 -0.49783668370E+01 -0.13743744306E+02  0.27493840012E+02  0.51100000000E-03 0. -1.
        -11    1    3    3    0    0 -0.25312378530E+00 -0.44590677394E+00 -0.55110420541E+01  0.55348432032E+01  0.51100000000E-03 0.  1.
        -12    1    3    3    0    0  0.86424800670E+01  0.58930736201E+01 -0.10411301386E+02  0.14758589870E+02  0.00000000000E+00 0.  1.
</event>
<event>
 7    1  0.1542786E-009  0.4778727E+02  0.7816164E-02  0.1312668E+00
        -11   -1    0    0    0    0  0.00000000000E+00  0.00000000000E+00  0.45593999997E+02  0.45594000000E+02  0.51100000000E-03 0. -1.
         11   -1    0    0    0    0 -0.00000000000E+00 -0.00000000000E+00 -0.45593999997E+02  0.45594000000E+02  0.51100000000E-03 0.  1.
    9900012    2    1    2    0    0 -0.36432889835E+02 -0.23585288273E+02 -0.43929817200E-01  0.47787271728E+02  0.20000003118E+02 0.  0.
        -12    1    1    2    0    0  0.36432889835E+02  0.23585288273E+02  0.43929817200E-01  0.43400728272E+02  0.00000000000E+00 0.  1.
         11    1    3    3    0    0 -0.57030328054E+01  0.27877863242E+01 -0.69715114475E+00  0.63861064624E+01  0.51100000000E-03 0.  1.
        -11    1    3    3    0    0 -0.21066061475E+02 -0.12663950457E+02 -0.54453845227E+00  0.24585587437E+02  0.51100000000E-03 0. -1.
        -12    1    3    3    0    0 -0.96637955554E+01 -0.13709124141E+02  0.11977597798E+01  0.16815577829E+02  0.00000000000E+00 0.  1.
</event>
<event>
 7    1  0.1542786E-009  0.4778727E+02  0.7816164E-02  0.1312668E+00
        -11   -1    0    0    0    0  0.00000000000E+00  0.00000000000E+00  0.45593999997E+02  0.45594000000E+02  0.51100000000E-03 0. -1.
         11   -1    0    0    0    0 -0.00000000000E+00 -0.00000000000E+00 -0.45593999997E+02  0.45594000000E+02  0.51100000000E-03 0.  1.
    9900012    2    1    2    0    0  0.18258388623E+01  0.38077493134E+02  0.20745943378E+02  0.47787270311E+02  0.19999996654E+02 0.  0.
        -12    1    1    2    0    0 -0.18258388623E+01 -0.38077493134E+02 -0.20745943378E+02  0.43400729689E+02  0.00000000000E+00 0.  1.
         11    1    3    3    0    0  0.47894566292E-01  0.16050494809E+02  0.14796039304E+02  0.21829875328E+02  0.51100000000E-03 0. -1.
        -11    1    3    3    0    0 -0.37927836956E+01  0.63510352565E+01 -0.17867203449E+01  0.76100740366E+01  0.51100000000E-03 0.  1.
         12    1    3    3    0    0  0.55707279916E+01  0.15675963069E+02  0.77366244196E+01  0.18347320946E+02  0.00000000000E+00 0. -1.
</event>
<event>
 7    1  0.1542786E-009  0.4778727E+02  0.7816164E-02  0.1312668E+00
        -11   -1    0    0    0    0  0.00000000000E+00  0.00000000000E+00  0.45593999997E+02  0.45594000000E+02  0.51100000000E-03 0. -1.
         11   -1    0    0    0    0 -0.00000000000E+00 -0.00000000000E+00 -0.45593999997E+02  0.45594000000E+02  0.51100000000E-03 0.  1.
    9900012    2    1    2    0    0 -0.46163471099E+01 -0.17147874563E+02  0.39601305874E+02  0.47787266255E+02  0.19999978164E+02 0.  0.
        -12    1    1    2    0    0  0.46163471099E+01  0.17147874563E+02 -0.39601305874E+02  0.43400733745E+02  0.00000000000E+00 0.  1.
         11    1    3    3    0    0 -0.61233200028E+00 -0.99100445696E+01  0.13347054795E+02  0.16635137686E+02  0.51100000000E-03 0. -1.
        -11    1    3    3    0    0 -0.94064670862E+01 -0.30736154297E+01  0.14332107262E+02  0.17416602243E+02  0.51100000000E-03 0.  1.
        -12    1    3    3    0    0  0.54024519766E+01 -0.41642145634E+01  0.11922143816E+02  0.13735526327E+02  0.00000000000E+00 0.  1.
</event>
<event>
 7    1  0.1542786E-009  0.4778727E+02  0.7816164E-02  0.1312668E+00
        -11   -1    0    0    0    0  0.00000000000E+00  0.00000000000E+00  0.45593999997E+02  0.45594000000E+02  0.51100000000E-03 0. -1.
         11   -1    0    0    0    0 -0.00000000000E+00 -0.00000000000E+00 -0.45593999997E+02  0.45594000000E+02  0.51100000000E-03 0.  1.
    9900012    2    1    2    0    0 -0.11427057415E+01 -0.31900283259E+02 -0.29405596483E+02  0.47787274742E+02  0.20000016859E+02 0.  0.
        -12    1    1    2    0    0  0.11427057415E+01  0.31900283259E+02  0.29405596483E+02  0.43400725258E+02  0.00000000000E+00 0.  1.
         11    1    3    3    0    0 -0.82741876497E+00 -0.11968978707E+02 -0.10243442450E+02  0.15775588312E+02  0.51100000000E-03 0. -1.
        -11    1    3    3    0    0  0.14572675265E+01 -0.21000876182E+01  0.27174473419E+01  0.37307528684E+01  0.51100000000E-03 0.  1.
        -12    1    3    3    0    0 -0.17725545030E+01 -0.17831216933E+02 -0.21879601375E+02  0.28280933562E+02  0.00000000000E+00 0.  1.
</event>
<event>
 7    1  0.1542786E-009  0.4778727E+02  0.7816164E-02  0.1312668E+00
        -11   -1    0    0    0    0  0.00000000000E+00  0.00000000000E+00  0.45593999997E+02  0.45594000000E+02  0.51100000000E-03 0. -1.
         11   -1    0    0    0    0 -0.00000000000E+00 -0.00000000000E+00 -0.45593999997E+02  0.45594000000E+02  0.51100000000E-03 0.  1.
    9900012    2    1    2    0    0  0.15678752283E+02  0.32604775797E+02  0.23973496164E+02  0.47787271939E+02  0.20000004076E+02 0.  0.
        -12    1    1    2    0    0 -0.15678752283E+02 -0.32604775797E+02 -0.23973496164E+02  0.43400728061E+02  0.00000000000E+00 0.  1.
         11    1    3    3    0    0  0.56721388224E+01  0.14450325818E+02  0.92370683920E+01  0.18064011399E+02  0.51100000000E-03 0. -1.
        -11    1    3    3    0    0 -0.12618404845E+01  0.71572146264E+00  0.76473723619E+01  0.77837524962E+01  0.51100000000E-03 0.  1.
         12    1    3    3    0    0  0.11268453946E+02  0.17438728516E+02  0.70890554099E+01  0.21939508044E+02  0.00000000000E+00 0. -1.
</event>
<event>
 7    1  0.1542786E-009  0.4778729E+02  0.7816164E-02  0.1312668E+00
        -11   -1    0    0    0    0  0.00000000000E+00  0.00000000000E+00  0.45593999997E+02  0.45594000000E+02  0.51100000000E-03 0. -1.
         11   -1    0    0    0    0 -0.00000000000E+00 -0.00000000000E+00 -0.45593999997E+02  0.45594000000E+02  0.51100000000E-03 0.  1.
    9900012    2    1    2    0    0 -0.41077130733E+02 -0.69144787195E+01  0.12185275593E+02  0.47787290023E+02  0.20000086530E+02 0.  0.
        -12    1    1    2    0    0  0.41077130733E+02  0.69144787195E+01 -0.12185275593E+02  0.43400709977E+02  0.00000000000E+00 0.  1.
         11    1    3    3    0    0 -0.26742168045E+02 -0.13316267075E+01  0.86797968323E+01  0.28147036341E+02  0.51100000000E-03 0. -1.
        -11    1    3    3    0    0 -0.37379948978E+01 -0.52772665172E+01 -0.30768300268E+01  0.71616360578E+01  0.51100000000E-03 0.  1.
         12    1    3    3    0    0 -0.10596967790E+02 -0.30558549480E+00  0.65823087880E+01  0.12478617624E+02  0.00000000000E+00 0. -1.
</event>
<event>
 7    1  0.1542786E-009  0.4778727E+02  0.7816164E-02  0.1312668E+00
        -11   -1    0    0    0    0  0.00000000000E+00  0.00000000000E+00  0.45593999997E+02  0.45594000000E+02  0.51100000000E-03 0. -1.
         11   -1    0    0    0    0 -0.00000000000E+00 -0.00000000000E+00 -0.45593999997E+02  0.45594000000E+02  0.51100000000E-03 0.  1.
    9900012    2    1    2    0    0  0.27855575773E+02 -0.71463306698E+01  0.32505693067E+02  0.47787271602E+02  0.20000002541E+02 0.  0.
        -12    1    1    2    0    0 -0.27855575773E+02  0.71463306698E+01 -0.32505693067E+02  0.43400728398E+02  0.00000000000E+00 0.  1.
         11    1    3    3    0    0  0.68533881182E+01 -0.22422452386E+01  0.11338693049E+02  0.13437356612E+02  0.51100000000E-03 0. -1.
        -11    1    3    3    0    0  0.12498424249E+02 -0.97405445825E+00  0.15768525607E+01  0.12635104078E+02  0.51100000000E-03 0.  1.
        -12    1    3    3    0    0  0.85037634062E+01 -0.39300309730E+01  0.19590147458E+02  0.21714810912E+02  0.00000000000E+00 0.  1.
</event>
<event>
 7    1  0.1542786E-009  0.4778727E+02  0.7816164E-02  0.1312668E+00
        -11   -1    0    0    0    0  0.00000000000E+00  0.00000000000E+00  0.45593999997E+02  0.45594000000E+02  0.51100000000E-03 0.  1.
         11   -1    0    0    0    0 -0.00000000000E+00 -0.00000000000E+00 -0.45593999997E+02  0.45594000000E+02  0.51100000000E-03 0. -1.
    9900012    2    1    2    0    0  0.89492829996E+00  0.78649610475E+01 -0.42672762496E+02  0.47787272264E+02  0.20000005561E+02 0.  0.
        -12    1    1    2    0    0 -0.89492829996E+00 -0.78649610475E+01  0.42672762496E+02  0.43400727736E+02  0.00000000000E+00 0.  1.
         11    1    3    3    0    0 -0.43149681028E+01  0.65244748472E+01 -0.12921264964E+02  0.15104529462E+02  0.51100000000E-03 0. -1.
        -11    1    3    3    0    0  0.45513226771E+01 -0.40584096255E+01 -0.24017529445E+02  0.24779567141E+02  0.51100000000E-03 0.  1.
         12    1    3    3    0    0  0.65857372564E+00  0.53988958259E+01 -0.57339680875E+01  0.79031756604E+01  0.00000000000E+00 0. -1.
</event>
<event>
 7    1  0.1542786E-009  0.4778726E+02  0.7816164E-02  0.1312668E+00
        -11   -1    0    0    0    0  0.00000000000E+00  0.00000000000E+00  0.45593999997E+02  0.45594000000E+02  0.51100000000E-03 0.  1.
         11   -1    0    0    0    0 -0.00000000000E+00 -0.00000000000E+00 -0.45593999997E+02  0.45594000000E+02  0.51100000000E-03 0. -1.
    9900012    2    1    2    0    0 -0.23591566486E+02  0.33422067536E+02  0.14492339159E+02  0.47787256896E+02  0.19999935492E+02 0.  0.
        -12    1    1    2    0    0  0.23591566486E+02 -0.33422067536E+02 -0.14492339159E+02  0.43400743104E+02  0.00000000000E+00 0.  1.
         11    1    3    3    0    0 -0.17744186856E+02  0.20424358859E+02  0.10415308883E+02  0.28991192825E+02  0.51100000000E-03 0. -1.
        -11    1    3    3    0    0 -0.15443016655E+01  0.11578902462E+01 -0.35705912284E+01  0.40589037236E+01  0.51100000000E-03 0.  1.
         12    1    3    3    0    0 -0.43030779642E+01  0.11839818431E+02  0.76476215044E+01  0.14737160348E+02  0.00000000000E+00 0. -1.
</event>
<event>
 7    1  0.1578390E-009  0.4778727E+02  0.7816164E-02  0.1312668E+00
        -11   -1    0    0    0    0  0.00000000000E+00  0.00000000000E+00  0.45593999997E+02  0.45594000000E+02  0.51100000000E-03 0.  1.
         11   -1    0    0    0    0 -0.00000000000E+00 -0.00000000000E+00 -0.45593999997E+02  0.45594000000E+02  0.51100000000E-03 0. -1.
    9900012    2    1    2    0    0  0.13288268100E+02  0.35489633066E+02 -0.21154933579E+02  0.47787270294E+02  0.19999996579E+02 0.  0.
        -12    1    1    2    0    0 -0.13288268100E+02 -0.35489633066E+02  0.21154933579E+02  0.43400729706E+02  0.00000000000E+00 0.  1.
         11    1    3    3    0    0  0.47112436503E+01  0.21823032681E+02 -0.56402490123E+01  0.23027222614E+02  0.51100000000E-03 0. -1.
        -11    1    3    3    0    0 -0.17609328400E+01  0.53654618914E+01 -0.70385671898E+01  0.90238846470E+01  0.51100000000E-03 0.  1.
        -12    1    3    3    0    0  0.10337957289E+02  0.83011384936E+01 -0.84761173770E+01  0.15736163033E+02  0.00000000000E+00 0.  1.
</event>
<event>
 7    1  0.1542786E-009  0.4778728E+02  0.7816164E-02  0.1312668E+00
        -11   -1    0    0    0    0  0.00000000000E+00  0.00000000000E+00  0.45593999997E+02  0.45594000000E+02  0.51100000000E-03 0.  1.
         11   -1    0    0    0    0 -0.00000000000E+00 -0.00000000000E+00 -0.45593999997E+02  0.45594000000E+02  0.51100000000E-03 0. -1.
    9900012    2    1    2    0    0  0.43271248467E+02  0.13859750033E+01 -0.30497396951E+01  0.47787276702E+02  0.20000025793E+02 0.  0.
        -12    1    1    2    0    0 -0.43271248467E+02 -0.13859750033E+01  0.30497396951E+01  0.43400723298E+02  0.00000000000E+00 0.  1.
         11    1    3    3    0    0  0.23831790953E+01  0.21294704906E+01 -0.34971174364E+01  0.47375117727E+01  0.51100000000E-03 0. -1.
        -11    1    3    3    0    0  0.12852216593E+02  0.59947404544E+01  0.92368814680E+00  0.14211600350E+02  0.51100000000E-03 0.  1.
        -12    1    3    3    0    0  0.28035852779E+02 -0.67382359416E+01 -0.47631040550E+00  0.28838164579E+02  0.00000000000E+00 0.  1.
</event>
<event>
 7    1  0.1542786E-009  0.4778727E+02  0.7816164E-02  0.1312668E+00
        -11   -1    0    0    0    0  0.00000000000E+00  0.00000000000E+00  0.45593999997E+02  0.45594000000E+02  0.51100000000E-03 0.  1.
         11   -1    0    0    0    0 -0.00000000000E+00 -0.00000000000E+00 -0.45593999997E+02  0.45594000000E+02  0.51100000000E-03 0. -1.
    9900012    2    1    2    0    0  0.29272689401E+02  0.17995909035E+02 -0.26511892783E+02  0.47787267913E+02  0.19999985724E+02 0.  0.
        -12    1    1    2    0    0 -0.29272689401E+02 -0.17995909035E+02  0.26511892783E+02  0.43400732087E+02  0.00000000000E+00 0.  1.
         11    1    3    3    0    0 -0.86024401066E+00 -0.99876188232E+00 -0.33126873874E+00  0.13591483708E+01  0.51100000000E-03 0.  1.
        -11    1    3    3    0    0  0.26297308673E+02  0.92616935317E+01 -0.19130037789E+02  0.33812508877E+02  0.51100000000E-03 0. -1.
         12    1    3    3    0    0  0.38356247385E+01  0.97329773855E+01 -0.70505862546E+01  0.12615610665E+02  0.00000000000E+00 0. -1.
</event>
<event>
 7    1  0.1542786E-009  0.4778732E+02  0.7816164E-02  0.1312668E+00
        -11   -1    0    0    0    0  0.00000000000E+00  0.00000000000E+00  0.45593999997E+02  0.45594000000E+02  0.51100000000E-03 0. -1.
         11   -1    0    0    0    0 -0.00000000000E+00 -0.00000000000E+00 -0.45593999997E+02  0.45594000000E+02  0.51100000000E-03 0.  1.
    9900012    2    1    2    0    0 -0.31141501069E+02  0.49987450847E+01  0.29813392144E+02  0.47787321521E+02  0.20000230143E+02 0.  0.
        -12    1    1    2    0    0  0.31141501069E+02 -0.49987450847E+01 -0.29813392144E+02  0.43400678479E+02  0.00000000000E+00 0.  1.
         11    1    3    3    0    0 -0.99935847995E+01  0.99981814731E+01  0.92531632500E+01  0.16895455019E+02  0.51100000000E-03 0. -1.
        -11    1    3    3    0    0 -0.37471731559E+01 -0.37506757121E+01  0.27962373542E+01  0.59939818618E+01  0.51100000000E-03 0.  1.
        -12    1    3    3    0    0 -0.17400743114E+02 -0.12487606763E+01  0.17763991540E+02  0.24897884640E+02  0.00000000000E+00 0.  1.
</event>
<event>
 7    1  0.1542786E-009  0.4778728E+02  0.7816164E-02  0.1312668E+00
        -11   -1    0    0    0    0  0.00000000000E+00  0.00000000000E+00  0.45593999997E+02  0.45594000000E+02  0.51100000000E-03 0. -1.
         11   -1    0    0    0    0 -0.00000000000E+00 -0.00000000000E+00 -0.45593999997E+02  0.45594000000E+02  0.51100000000E-03 0.  1.
    9900012    2    1    2    0    0  0.31635408870E+01 -0.27153135650E+02  0.33709372545E+02  0.47787279223E+02  0.20000037290E+02 0.  0.
        -12    1    1    2    0    0 -0.31635408870E+01  0.27153135650E+02 -0.33709372545E+02  0.43400720777E+02  0.00000000000E+00 0.  1.
         11    1    3    3    0    0  0.57426143159E+00 -0.19282970378E+02  0.13691086537E+02  0.23656047295E+02  0.51100000000E-03 0.  1.
        -11    1    3    3    0    0  0.16412915015E+01 -0.95786172145E+01  0.19932630262E+02  0.22175515664E+02  0.51100000000E-03 0. -1.
         12    1    3    3    0    0  0.94798795384E+00  0.17084519423E+01  0.85655745453E-01  0.19557162643E+01  0.00000000000E+00 0. -1.
</event>
<event>
 7    1  0.1542786E-009  0.4778728E+02  0.7816164E-02  0.1312668E+00
        -11   -1    0    0    0    0  0.00000000000E+00  0.00000000000E+00  0.45593999997E+02  0.45594000000E+02  0.51100000000E-03 0.  1.
         11   -1    0    0    0    0 -0.00000000000E+00 -0.00000000000E+00 -0.45593999997E+02  0.45594000000E+02  0.51100000000E-03 0. -1.
    9900012    2    1    2    0    0 -0.64628476409E+01 -0.23367224303E+02 -0.35997596535E+02  0.47787279642E+02  0.20000039202E+02 0.  0.
        -12    1    1    2    0    0  0.64628476409E+01  0.23367224303E+02  0.35997596535E+02  0.43400720358E+02  0.00000000000E+00 0.  1.
         11    1    3    3    0    0 -0.22020440370E-01  0.14894028308E+00 -0.71494355403E+01  0.71510206903E+01  0.51100000000E-03 0. -1.
        -11    1    3    3    0    0  0.18095472431E+01 -0.17035896493E+02 -0.12483431865E+02  0.21197459799E+02  0.51100000000E-03 0.  1.
         12    1    3    3    0    0 -0.82503744436E+01 -0.64802680925E+01 -0.16364729130E+02  0.19438799153E+02  0.00000000000E+00 0. -1.
</event>
<event>
 7    1  0.1542786E-009  0.4778727E+02  0.7816164E-02  0.1312668E+00
        -11   -1    0    0    0    0  0.00000000000E+00  0.00000000000E+00  0.45593999997E+02  0.45594000000E+02  0.51100000000E-03 0.  1.
         11   -1    0    0    0    0 -0.00000000000E+00 -0.00000000000E+00 -0.45593999997E+02  0.45594000000E+02  0.51100000000E-03 0. -1.
    9900012    2    1    2    0    0 -0.25494789263E+02  0.13742740879E+02 -0.32322994048E+02  0.47787272464E+02  0.20000006470E+02 0.  0.
        -12    1    1    2    0    0  0.25494789263E+02 -0.13742740879E+02  0.32322994048E+02  0.43400727536E+02  0.00000000000E+00 0.  1.
         11    1    3    3    0    0 -0.57807629722E+01 -0.43715336028E+01 -0.11854739075E+02  0.13894688387E+02  0.51100000000E-03 0. -1.
        -11    1    3    3    0    0 -0.59538337025E+01  0.52806267002E+01 -0.40945465092E+01  0.89497746051E+01  0.51100000000E-03 0.  1.
         12    1    3    3    0    0 -0.13760192589E+02  0.12833647781E+02 -0.16373708465E+02  0.24942809472E+02  0.00000000000E+00 0. -1.
</event>
<event>
 7    1  0.1542786E-009  0.4778727E+02  0.7816164E-02  0.1312668E+00
        -11   -1    0    0    0    0  0.00000000000E+00  0.00000000000E+00  0.45593999997E+02  0.45594000000E+02  0.51100000000E-03 0.  1.
         11   -1    0    0    0    0 -0.00000000000E+00 -0.00000000000E+00 -0.45593999997E+02  0.45594000000E+02  0.51100000000E-03 0. -1.
    9900012    2    1    2    0    0  0.38786831277E+01  0.26197301393E+02 -0.34384302441E+02  0.47787273768E+02  0.20000012420E+02 0.  0.
        -12    1    1    2    0    0 -0.38786831277E+01 -0.26197301393E+02  0.34384302441E+02  0.43400726232E+02  0.00000000000E+00 0.  1.
         11    1    3    3    0    0 -0.53994784202E+00 -0.12314234733E+01 -0.20863486457E+01  0.24820955612E+01  0.51100000000E-03 0. -1.
        -11    1    3    3    0    0  0.81611941437E+01  0.23327015220E+02 -0.30922523811E+02  0.39584810319E+02  0.51100000000E-03 0.  1.
         12    1    3    3    0    0 -0.37425631739E+01  0.41017096462E+01 -0.13754299850E+01  0.57203678882E+01  0.00000000000E+00 0. -1.
</event>
<event>
 7    1  0.1542786E-009  0.4778727E+02  0.7816164E-02  0.1312668E+00
        -11   -1    0    0    0    0  0.00000000000E+00  0.00000000000E+00  0.45593999997E+02  0.45594000000E+02  0.51100000000E-03 0. -1.
         11   -1    0    0    0    0 -0.00000000000E+00 -0.00000000000E+00 -0.45593999997E+02  0.45594000000E+02  0.51100000000E-03 0.  1.
    9900012    2    1    2    0    0  0.28858308234E+02  0.30304097691E+02  0.11510142145E+02  0.47787266559E+02  0.19999979550E+02 0.  0.
        -12    1    1    2    0    0 -0.28858308234E+02 -0.30304097691E+02 -0.11510142145E+02  0.43400733441E+02  0.00000000000E+00 0.  1.
         11    1    3    3    0    0  0.33786064591E+01  0.19808341333E+01  0.57333557981E+01  0.69433460549E+01  0.51100000000E-03 0.  1.
        -11    1    3    3    0    0  0.14460900854E+02  0.10590964453E+02 -0.30419824067E+01  0.18180754626E+02  0.51100000000E-03 0. -1.
         12    1    3    3    0    0  0.11018800921E+02  0.17732299105E+02  0.88187687534E+01  0.22663165878E+02  0.00000000000E+00 0. -1.
</event>
<event>
 7    1  0.1542786E-009  0.4778727E+02  0.7816164E-02  0.1312668E+00
        -11   -1    0    0    0    0  0.00000000000E+00  0.00000000000E+00  0.45593999997E+02  0.45594000000E+02  0.51100000000E-03 0.  1.
         11   -1    0    0    0    0 -0.00000000000E+00 -0.00000000000E+00 -0.45593999997E+02  0.45594000000E+02  0.51100000000E-03 0. -1.
    9900012    2    1    2    0    0 -0.30512216582E+02  0.24205973552E+02 -0.19149379577E+02  0.47787271268E+02  0.20000001018E+02 0.  0.
        -12    1    1    2    0    0  0.30512216582E+02 -0.24205973552E+02  0.19149379577E+02  0.43400728732E+02  0.00000000000E+00 0.  1.
         11    1    3    3    0    0 -0.21243894544E+02  0.84688482672E+01 -0.38350352934E+01  0.23189047896E+02  0.51100000000E-03 0. -1.
        -11    1    3    3    0    0 -0.17588760049E+01  0.10641495746E+00 -0.23964960971E+01  0.29745861474E+01  0.51100000000E-03 0.  1.
         12    1    3    3    0    0 -0.75094460333E+01  0.15630710327E+02 -0.12917848186E+02  0.21623637224E+02  0.00000000000E+00 0. -1.
</event>
<event>
 7    1  0.1542786E-009  0.4778726E+02  0.7816164E-02  0.1312668E+00
        -11   -1    0    0    0    0  0.00000000000E+00  0.00000000000E+00  0.45593999997E+02  0.45594000000E+02  0.51100000000E-03 0.  1.
         11   -1    0    0    0    0 -0.00000000000E+00 -0.00000000000E+00 -0.45593999997E+02  0.45594000000E+02  0.51100000000E-03 0. -1.
    9900012    2    1    2    0    0 -0.10678161417E+02  0.70154163347E+01 -0.41477526034E+02  0.47787258491E+02  0.19999942764E+02 0.  0.
        -12    1    1    2    0    0  0.10678161417E+02 -0.70154163347E+01  0.41477526034E+02  0.43400741509E+02  0.00000000000E+00 0.  1.
         11    1    3    3    0    0 -0.56341622360E+01  0.12863019959E+01 -0.21773421588E+02  0.22527322186E+02  0.51100000000E-03 0. -1.
        -11    1    3    3    0    0  0.45761343516E+01  0.18335596766E+01 -0.95110401439E+01  0.10712741553E+02  0.51100000000E-03 0.  1.
         12    1    3    3    0    0 -0.96201335327E+01  0.38955546622E+01 -0.10193064302E+02  0.14547194753E+02  0.00000000000E+00 0. -1.
</event>
<event>
 7    1  0.1542786E-009  0.4778726E+02  0.7816164E-02  0.1312668E+00
        -11   -1    0    0    0    0  0.00000000000E+00  0.00000000000E+00  0.45593999997E+02  0.45594000000E+02  0.51100000000E-03 0. -1.
         11   -1    0    0    0    0 -0.00000000000E+00 -0.00000000000E+00 -0.45593999997E+02  0.45594000000E+02  0.51100000000E-03 0.  1.
    9900012    2    1    2    0    0 -0.36395882792E+02 -0.18594322071E+02  0.14601884471E+02  0.47787261209E+02  0.19999955155E+02 0.  0.
        -12    1    1    2    0    0  0.36395882792E+02  0.18594322071E+02 -0.14601884471E+02  0.43400738791E+02  0.00000000000E+00 0.  1.
         11    1    3    3    0    0 -0.17420967839E+02 -0.96036577024E+00  0.34088299131E+01  0.17777304196E+02  0.51100000000E-03 0. -1.
        -11    1    3    3    0    0  0.11448467703E+01 -0.21600513533E+01  0.68558588201E+00  0.25390006379E+01  0.51100000000E-03 0.  1.
         12    1    3    3    0    0 -0.20119761724E+02 -0.15473904948E+02  0.10507468676E+02  0.27470956375E+02  0.00000000000E+00 0. -1.
</event>
<event>
 7    1  0.1542786E-009  0.4778728E+02  0.7816164E-02  0.1312668E+00
        -11   -1    0    0    0    0  0.00000000000E+00  0.00000000000E+00  0.45593999997E+02  0.45594000000E+02  0.51100000000E-03 0.  1.
         11   -1    0    0    0    0 -0.00000000000E+00 -0.00000000000E+00 -0.45593999997E+02  0.45594000000E+02  0.51100000000E-03 0. -1.
    9900012    2    1    2    0    0 -0.12026800720E+02 -0.20204968336E+02 -0.36479280282E+02  0.47787279143E+02  0.20000036924E+02 0.  0.
        -12    1    1    2    0    0  0.12026800720E+02  0.20204968336E+02  0.36479280282E+02  0.43400720857E+02  0.00000000000E+00 0.  1.
         11    1    3    3    0    0 -0.39402653547E+01 -0.29808785218E+01 -0.14935940473E+02  0.15731930775E+02  0.51100000000E-03 0. -1.
        -11    1    3    3    0    0  0.64012600527E+00 -0.68578245801E+00  0.18694067465E+01  0.20915880874E+01  0.51100000000E-03 0.  1.
         12    1    3    3    0    0 -0.87266613702E+01 -0.16538307356E+02 -0.23412746555E+02  0.29963760280E+02  0.00000000000E+00 0. -1.
</event>
<event>
 7    1  0.1542786E-009  0.4778726E+02  0.7816164E-02  0.1312668E+00
        -11   -1    0    0    0    0  0.00000000000E+00  0.00000000000E+00  0.45593999997E+02  0.45594000000E+02  0.51100000000E-03 0.  1.
         11   -1    0    0    0    0 -0.00000000000E+00 -0.00000000000E+00 -0.45593999997E+02  0.45594000000E+02  0.51100000000E-03 0. -1.
    9900012    2    1    2    0    0  0.25492465370E+02  0.19551146214E+02 -0.29180656490E+02  0.47787264729E+02  0.19999971203E+02 0.  0.
        -12    1    1    2    0    0 -0.25492465370E+02 -0.19551146214E+02  0.29180656490E+02  0.43400735271E+02  0.00000000000E+00 0.  1.
         11    1    3    3    0    0  0.13796732384E+02  0.17924597619E+02 -0.23388909282E+02  0.32537395439E+02  0.51100000000E-03 0. -1.
        -11    1    3    3    0    0  0.10853384551E+02  0.24393772725E+01 -0.73261993118E+01  0.13319899186E+02  0.51100000000E-03 0.  1.
        -12    1    3    3    0    0  0.84234843426E+00 -0.81282867739E+00  0.15344521038E+01  0.19299701040E+01  0.00000000000E+00 0.  1.
</event>
<event>
 7    1  0.1889145E-009  0.4778727E+02  0.7816164E-02  0.1312668E+00
        -11   -1    0    0    0    0  0.00000000000E+00  0.00000000000E+00  0.45593999997E+02  0.45594000000E+02  0.51100000000E-03 0. -1.
         11   -1    0    0    0    0 -0.00000000000E+00 -0.00000000000E+00 -0.45593999997E+02  0.45594000000E+02  0.51100000000E-03 0.  1.
    9900012    2    1    2    0    0  0.64480228474E+01  0.16362525901E+02  0.39677624765E+02  0.47787272362E+02  0.20000006009E+02 0.  0.
        -12    1    1    2    0    0 -0.64480228474E+01 -0.16362525901E+02 -0.39677624765E+02  0.43400727638E+02  0.00000000000E+00 0.  1.
         11    1    3    3    0    0  0.62274521771E+01  0.57872131065E+01  0.22987104131E+02  0.24508772975E+02  0.51100000000E-03 0. -1.
        -11    1    3    3    0    0  0.82501930226E+00  0.15353190948E+00 -0.18329424451E+01  0.20159134814E+01  0.51100000000E-03 0.  1.
         12    1    3    3    0    0 -0.60444863196E+00  0.10421780885E+02  0.18523463079E+02  0.21262585906E+02  0.00000000000E+00 0. -1.
</event>
<event>
 7    1  0.1542786E-009  0.4778727E+02  0.7816164E-02  0.1312668E+00
        -11   -1    0    0    0    0  0.00000000000E+00  0.00000000000E+00  0.45593999997E+02  0.45594000000E+02  0.51100000000E-03 0. -1.
         11   -1    0    0    0    0 -0.00000000000E+00 -0.00000000000E+00 -0.45593999997E+02  0.45594000000E+02  0.51100000000E-03 0.  1.
    9900012    2    1    2    0    0  0.41597208661E+02  0.62423326989E+01  0.10692470078E+02  0.47787269565E+02  0.19999993255E+02 0.  0.
        -12    1    1    2    0    0 -0.41597208661E+02 -0.62423326989E+01 -0.10692470078E+02  0.43400730435E+02  0.00000000000E+00 0.  1.
         11    1    3    3    0    0  0.20298268810E+02  0.49823943506E+01  0.11939567497E+02  0.24070671831E+02  0.51100000000E-03 0. -1.
        -11    1    3    3    0    0  0.84657371078E+01 -0.18084921704E+01  0.39751529398E+01  0.95258170182E+01  0.51100000000E-03 0.  1.
        -12    1    3    3    0    0  0.12833202744E+02  0.30684305188E+01 -0.52222503586E+01  0.14190780716E+02  0.00000000000E+00 0.  1.
</event>
<event>
 7    1  0.1542786E-009  0.4778727E+02  0.7816164E-02  0.1312668E+00
        -11   -1    0    0    0    0  0.00000000000E+00  0.00000000000E+00  0.45593999997E+02  0.45594000000E+02  0.51100000000E-03 0.  1.
         11   -1    0    0    0    0 -0.00000000000E+00 -0.00000000000E+00 -0.45593999997E+02  0.45594000000E+02  0.51100000000E-03 0. -1.
    9900012    2    1    2    0    0  0.35623078831E+02  0.11198418986E+02 -0.22118199766E+02  0.47787273116E+02  0.20000009443E+02 0.  0.
        -12    1    1    2    0    0 -0.35623078831E+02 -0.11198418986E+02  0.22118199766E+02  0.43400726884E+02  0.00000000000E+00 0.  1.
         11    1    3    3    0    0  0.13967307586E+02  0.25182332281E+01 -0.49028869935E+01  0.15015508014E+02  0.51100000000E-03 0. -1.
        -11    1    3    3    0    0  0.13902623843E+02  0.12255501071E+02 -0.15273720584E+02  0.24015969624E+02  0.51100000000E-03 0.  1.
        -12    1    3    3    0    0  0.77531474026E+01 -0.35753153123E+01 -0.19415921878E+01  0.87557954780E+01  0.00000000000E+00 0.  1.
</event>
<event>
 7    1  0.1542786E-009  0.4778727E+02  0.7816164E-02  0.1312668E+00
        -11   -1    0    0    0    0  0.00000000000E+00  0.00000000000E+00  0.45593999997E+02  0.45594000000E+02  0.51100000000E-03 0.  1.
         11   -1    0    0    0    0 -0.00000000000E+00 -0.00000000000E+00 -0.45593999997E+02  0.45594000000E+02  0.51100000000E-03 0. -1.
    9900012    2    1    2    0    0 -0.40585282212E+02  0.10553835571E+02 -0.11183679133E+02  0.47787271246E+02  0.20000000917E+02 0.  0.
        -12    1    1    2    0    0  0.40585282212E+02 -0.10553835571E+02  0.11183679133E+02  0.43400728754E+02  0.00000000000E+00 0.  1.
         11    1    3    3    0    0 -0.13418552751E+01 -0.89433493193E+00  0.19506373712E+01  0.25308885722E+01  0.51100000000E-03 0. -1.
        -11    1    3    3    0    0 -0.33064488335E+02  0.97110240453E+01 -0.48871137172E+01  0.34805865276E+02  0.51100000000E-03 0.  1.
         12    1    3    3    0    0 -0.61789386014E+01  0.17371464580E+01 -0.82472027872E+01  0.10450517397E+02  0.00000000000E+00 0. -1.
</event>
<event>
 7    1  0.1542786E-009  0.4778727E+02  0.7816164E-02  0.1312668E+00
        -11   -1    0    0    0    0  0.00000000000E+00  0.00000000000E+00  0.45593999997E+02  0.45594000000E+02  0.51100000000E-03 0.  1.
         11   -1    0    0    0    0 -0.00000000000E+00 -0.00000000000E+00 -0.45593999997E+02  0.45594000000E+02  0.51100000000E-03 0. -1.
    9900012    2    1    2    0    0  0.80958908766E+01  0.31968420311E+02 -0.28215239085E+02  0.47787273475E+02  0.20000011083E+02 0.  0.
        -12    1    1    2    0    0 -0.80958908766E+01 -0.31968420311E+02  0.28215239085E+02  0.43400726525E+02  0.00000000000E+00 0.  1.
         11    1    3    3    0    0  0.10886225617E+02  0.19777759210E+02 -0.19086512586E+02  0.29562892797E+02  0.51100000000E-03 0. -1.
        -11    1    3    3    0    0 -0.23121656195E+01  0.46769740609E+01 -0.93334801328E+01  0.10692710034E+02  0.51100000000E-03 0.  1.
        -12    1    3    3    0    0 -0.47816912110E+00  0.75136870403E+01  0.20475363411E+00  0.75316706446E+01  0.00000000000E+00 0.  1.
</event>
<event>
 7    1  0.1542786E-009  0.4778727E+02  0.7816164E-02  0.1312668E+00
        -11   -1    0    0    0    0  0.00000000000E+00  0.00000000000E+00  0.45593999997E+02  0.45594000000E+02  0.51100000000E-03 0.  1.
         11   -1    0    0    0    0 -0.00000000000E+00 -0.00000000000E+00 -0.45593999997E+02  0.45594000000E+02  0.51100000000E-03 0. -1.
    9900012    2    1    2    0    0  0.10619443509E+02  0.12074565474E+02 -0.40311978462E+02  0.47787270520E+02  0.19999997611E+02 0.  0.
        -12    1    1    2    0    0 -0.10619443509E+02 -0.12074565474E+02  0.40311978462E+02  0.43400729480E+02  0.00000000000E+00 0.  1.
         11    1    3    3    0    0  0.78701889954E+01  0.71817737264E+01 -0.23276169667E+02  0.25598785583E+02  0.51100000000E-03 0. -1.
        -11    1    3    3    0    0  0.78890677752E+01  0.15855529147E+01 -0.86823711583E+01  0.11837860347E+02  0.51100000000E-03 0.  1.
         12    1    3    3    0    0 -0.51398132617E+01  0.33072388326E+01 -0.83534376370E+01  0.10350624591E+02  0.00000000000E+00 0. -1.
</event>
<event>
 7    1  0.1542786E-009  0.4778727E+02  0.7816164E-02  0.1312668E+00
        -11   -1    0    0    0    0  0.00000000000E+00  0.00000000000E+00  0.45593999997E+02  0.45594000000E+02  0.51100000000E-03 0. -1.
         11   -1    0    0    0    0 -0.00000000000E+00 -0.00000000000E+00 -0.45593999997E+02  0.45594000000E+02  0.51100000000E-03 0.  1.
    9900012    2    1    2    0    0  0.42342913951E+02  0.92639720099E+01  0.22090842130E+01  0.47787267376E+02  0.19999983274E+02 0.  0.
        -12    1    1    2    0    0 -0.42342913951E+02 -0.92639720099E+01 -0.22090842130E+01  0.43400732624E+02  0.00000000000E+00 0.  1.
         11    1    3    3    0    0  0.51971541442E+01 -0.13147851987E+01 -0.42568343984E+01  0.68454153032E+01  0.51100000000E-03 0. -1.
        -11    1    3    3    0    0  0.26327050225E+02  0.12726563322E+02  0.62900840603E+01  0.29910602556E+02  0.51100000000E-03 0.  1.
        -12    1    3    3    0    0  0.10818709582E+02 -0.21478061131E+01  0.17583455104E+00  0.11031249517E+02  0.00000000000E+00 0.  1.
</event>
<event>
 7    1  0.1542786E-009  0.4778727E+02  0.7816164E-02  0.1312668E+00
        -11   -1    0    0    0    0  0.00000000000E+00  0.00000000000E+00  0.45593999997E+02  0.45594000000E+02  0.51100000000E-03 0.  1.
         11   -1    0    0    0    0 -0.00000000000E+00 -0.00000000000E+00 -0.45593999997E+02  0.45594000000E+02  0.51100000000E-03 0. -1.
    9900012    2    1    2    0    0 -0.29306858572E+01  0.25129521084E+01 -0.43228686791E+02  0.47787271785E+02  0.20000003378E+02 0.  0.
        -12    1    1    2    0    0  0.29306858572E+01 -0.25129521084E+01  0.43228686791E+02  0.43400728215E+02  0.00000000000E+00 0.  1.
         11    1    3    3    0    0 -0.25165210551E+01  0.77342976955E+01 -0.12582136462E+02  0.14982069192E+02  0.51100000000E-03 0. -1.
        -11    1    3    3    0    0 -0.27560242622E+01  0.24465144591E+01 -0.98144646048E+01  0.10483549898E+02  0.51100000000E-03 0.  1.
        -12    1    3    3    0    0  0.23418594602E+01 -0.76678600462E+01 -0.20832085724E+02  0.22321652695E+02  0.00000000000E+00 0.  1.
</event>
<event>
 7    1  0.1542786E-009  0.4778727E+02  0.7816164E-02  0.1312668E+00
        -11   -1    0    0    0    0  0.00000000000E+00  0.00000000000E+00  0.45593999997E+02  0.45594000000E+02  0.51100000000E-03 0.  1.
         11   -1    0    0    0    0 -0.00000000000E+00 -0.00000000000E+00 -0.45593999997E+02  0.45594000000E+02  0.51100000000E-03 0. -1.
    9900012    2    1    2    0    0 -0.42749691971E+02 -0.11422073102E+01  0.74015108457E+01  0.47787272310E+02  0.20000005772E+02 0.  0.
        -12    1    1    2    0    0  0.42749691971E+02  0.11422073102E+01 -0.74015108457E+01  0.43400727690E+02  0.00000000000E+00 0.  1.
         11    1    3    3    0    0 -0.95053535982E+01  0.72883112319E+01  0.91549517358E+00  0.12012883056E+02  0.51100000000E-03 0. -1.
        -11    1    3    3    0    0 -0.11848514118E+02 -0.52848761679E+01  0.55991614131E+01  0.14130386113E+02  0.51100000000E-03 0.  1.
        -12    1    3    3    0    0 -0.21395824255E+02 -0.31456423741E+01  0.88685425905E+00  0.21644003141E+02  0.00000000000E+00 0.  1.
</event>
<event>
 7    1  0.1542786E-009  0.4778727E+02  0.7816164E-02  0.1312668E+00
        -11   -1    0    0    0    0  0.00000000000E+00  0.00000000000E+00  0.45593999997E+02  0.45594000000E+02  0.51100000000E-03 0. -1.
         11   -1    0    0    0    0 -0.00000000000E+00 -0.00000000000E+00 -0.45593999997E+02  0.45594000000E+02  0.51100000000E-03 0.  1.
    9900012    2    1    2    0    0  0.36006275961E+02 -0.62770247119E+01  0.23404496599E+02  0.47787269489E+02  0.19999992909E+02 0.  0.
        -12    1    1    2    0    0 -0.36006275961E+02  0.62770247119E+01 -0.23404496599E+02  0.43400730511E+02  0.00000000000E+00 0.  1.
         11    1    3    3    0    0  0.20146070751E+02 -0.34294373405E+01  0.94977167517E+01  0.22535124382E+02  0.51100000000E-03 0. -1.
        -11    1    3    3    0    0  0.93428327737E+01  0.39974664512E+01  0.11792601202E+02  0.15567071196E+02  0.51100000000E-03 0.  1.
        -12    1    3    3    0    0  0.65173724364E+01 -0.68450538226E+01  0.21141786457E+01  0.96850739107E+01  0.00000000000E+00 0.  1.
</event>
<event>
 7    1  0.1542786E-009  0.4778728E+02  0.7816164E-02  0.1312668E+00
        -11   -1    0    0    0    0  0.00000000000E+00  0.00000000000E+00  0.45593999997E+02  0.45594000000E+02  0.51100000000E-03 0.  1.
         11   -1    0    0    0    0 -0.00000000000E+00 -0.00000000000E+00 -0.45593999997E+02  0.45594000000E+02  0.51100000000E-03 0. -1.
    9900012    2    1    2    0    0  0.86616739149E+01 -0.35047753071E+02 -0.24088444748E+02  0.47787276956E+02  0.20000026954E+02 0.  0.
        -12    1    1    2    0    0 -0.86616739149E+01  0.35047753071E+02  0.24088444748E+02  0.43400723044E+02  0.00000000000E+00 0.  1.
         11    1    3    3    0    0 -0.48024209346E+01 -0.65205700890E+01 -0.87355649888E+01  0.11911808303E+02  0.51100000000E-03 0. -1.
        -11    1    3    3    0    0  0.74558465047E+01 -0.91703511178E+01 -0.32042205525E+01  0.12245489632E+02  0.51100000000E-03 0.  1.
        -12    1    3    3    0    0  0.60082483448E+01 -0.19356831864E+02 -0.12148659207E+02  0.23629979021E+02  0.00000000000E+00 0.  1.
</event>
<event>
 7    1  0.1542786E-009  0.4778731E+02  0.7816164E-02  0.1312668E+00
        -11   -1    0    0    0    0  0.00000000000E+00  0.00000000000E+00  0.45593999997E+02  0.45594000000E+02  0.51100000000E-03 0.  1.
         11   -1    0    0    0    0 -0.00000000000E+00 -0.00000000000E+00 -0.45593999997E+02  0.45594000000E+02  0.51100000000E-03 0. -1.
    9900012    2    1    2    0    0  0.42689954696E+02 -0.12617832425E+01  0.77198348316E+01  0.47787306702E+02  0.20000162579E+02 0.  0.
        -12    1    1    2    0    0 -0.42689954696E+02  0.12617832425E+01 -0.77198348316E+01  0.43400693298E+02  0.00000000000E+00 0.  1.
         11    1    3    3    0    0  0.19856784400E+02 -0.26850818103E+01  0.98322408000E+01  0.22319823262E+02  0.51100000000E-03 0. -1.
        -11    1    3    3    0    0 -0.90729757069E+00 -0.10197733629E+01 -0.76248788067E+00  0.15634943629E+01  0.51100000000E-03 0.  1.
         12    1    3    3    0    0  0.23740467867E+02  0.24430719307E+01 -0.13499180877E+01  0.23903989078E+02  0.00000000000E+00 0. -1.
</event>
<event>
 7    1  0.1542786E-009  0.4778727E+02  0.7816164E-02  0.1312668E+00
        -11   -1    0    0    0    0  0.00000000000E+00  0.00000000000E+00  0.45593999997E+02  0.45594000000E+02  0.51100000000E-03 0.  1.
         11   -1    0    0    0    0 -0.00000000000E+00 -0.00000000000E+00 -0.45593999997E+02  0.45594000000E+02  0.51100000000E-03 0. -1.
    9900012    2    1    2    0    0  0.30211880256E+02 -0.22622292533E+02 -0.21426566406E+02  0.47787267564E+02  0.19999984130E+02 0.  0.
        -12    1    1    2    0    0 -0.30211880256E+02  0.22622292533E+02  0.21426566406E+02  0.43400732436E+02  0.00000000000E+00 0.  1.
         11    1    3    3    0    0  0.19207852957E+02 -0.17259663405E+02 -0.12612327653E+02  0.28738622186E+02  0.51100000000E-03 0. -1.
        -11    1    3    3    0    0 -0.24550967541E+01 -0.10963206002E+01 -0.21144627891E+01  0.34205806639E+01  0.51100000000E-03 0.  1.
         12    1    3    3    0    0  0.13459124053E+02 -0.42663085283E+01 -0.66997759643E+01  0.15628064714E+02  0.00000000000E+00 0. -1.
</event>
<event>
 7    1  0.1542786E-009  0.4778727E+02  0.7816164E-02  0.1312668E+00
        -11   -1    0    0    0    0  0.00000000000E+00  0.00000000000E+00  0.45593999997E+02  0.45594000000E+02  0.51100000000E-03 0.  1.
         11   -1    0    0    0    0 -0.00000000000E+00 -0.00000000000E+00 -0.45593999997E+02  0.45594000000E+02  0.51100000000E-03 0. -1.
    9900012    2    1    2    0    0  0.23241972439E+02 -0.76208753211E+01 -0.35851865374E+02  0.47787271040E+02  0.19999999978E+02 0.  0.
        -12    1    1    2    0    0 -0.23241972439E+02  0.76208753211E+01  0.35851865374E+02  0.43400728960E+02  0.00000000000E+00 0.  1.
         11    1    3    3    0    0  0.10966874761E+02 -0.64669837701E+01 -0.16308513424E+02  0.20689655180E+02  0.51100000000E-03 0. -1.
        -11    1    3    3    0    0  0.93943458107E+01  0.39635912700E+01 -0.48838156127E+01  0.11305549264E+02  0.51100000000E-03 0.  1.
         12    1    3    3    0    0  0.28807518682E+01 -0.51174828209E+01 -0.14659536336E+02  0.15792066595E+02  0.00000000000E+00 0. -1.
</event>
<event>
 7    1  0.1542786E-009  0.4778727E+02  0.7816164E-02  0.1312668E+00
        -11   -1    0    0    0    0  0.00000000000E+00  0.00000000000E+00  0.45593999997E+02  0.45594000000E+02  0.51100000000E-03 0. -1.
         11   -1    0    0    0    0 -0.00000000000E+00 -0.00000000000E+00 -0.45593999997E+02  0.45594000000E+02  0.51100000000E-03 0.  1.
    9900012    2    1    2    0    0 -0.34694713599E+02 -0.19872358522E+02  0.16881634670E+02  0.47787269890E+02  0.19999994737E+02 0.  0.
        -12    1    1    2    0    0  0.34694713599E+02  0.19872358522E+02 -0.16881634670E+02  0.43400730110E+02  0.00000000000E+00 0.  1.
         11    1    3    3    0    0 -0.66782677382E+01 -0.61785994503E+01  0.10267881757E+02  0.13718737084E+02  0.51100000000E-03 0. -1.
        -11    1    3    3    0    0 -0.14595488376E+02 -0.92036279256E+01  0.93931651616E+01  0.19646032677E+02  0.51100000000E-03 0.  1.
        -12    1    3    3    0    0 -0.13420957486E+02 -0.44901311457E+01 -0.27794122486E+01  0.14422500129E+02  0.00000000000E+00 0.  1.
</event>
<event>
 7    1  0.1542786E-009  0.4778727E+02  0.7816164E-02  0.1312668E+00
        -11   -1    0    0    0    0  0.00000000000E+00  0.00000000000E+00  0.45593999997E+02  0.45594000000E+02  0.51100000000E-03 0.  1.
         11   -1    0    0    0    0 -0.00000000000E+00 -0.00000000000E+00 -0.45593999997E+02  0.45594000000E+02  0.51100000000E-03 0. -1.
    9900012    2    1    2    0    0  0.23854947239E+02 -0.28997820324E+02 -0.21764448876E+02  0.47787270442E+02  0.19999997251E+02 0.  0.
        -12    1    1    2    0    0 -0.23854947239E+02  0.28997820324E+02  0.21764448876E+02  0.43400729558E+02  0.00000000000E+00 0.  1.
         11    1    3    3    0    0  0.13067906122E+01 -0.18880851534E+01 -0.51394676987E+01  0.56290936871E+01  0.51100000000E-03 0. -1.
        -11    1    3    3    0    0  0.14909863475E+02 -0.10762196288E+02 -0.12131848807E+01  0.18428258615E+02  0.51100000000E-03 0.  1.
        -12    1    3    3    0    0  0.76382931521E+01 -0.16347538883E+02 -0.15411796297E+02  0.23729918139E+02  0.00000000000E+00 0.  1.
</event>
<event>
 7    1  0.1542786E-009  0.4778727E+02  0.7816164E-02  0.1312668E+00
        -11   -1    0    0    0    0  0.00000000000E+00  0.00000000000E+00  0.45593999997E+02  0.45594000000E+02  0.51100000000E-03 0. -1.
         11   -1    0    0    0    0 -0.00000000000E+00 -0.00000000000E+00 -0.45593999997E+02  0.45594000000E+02  0.51100000000E-03 0.  1.
    9900012    2    1    2    0    0  0.29796297212E+02  0.17496597355E+02  0.26261628178E+02  0.47787270039E+02  0.19999995418E+02 0.  0.
        -12    1    1    2    0    0 -0.29796297212E+02 -0.17496597355E+02 -0.26261628178E+02  0.43400729961E+02  0.00000000000E+00 0.  1.
         11    1    3    3    0    0  0.26608781721E+01  0.71048931964E+01  0.39509467268E+01  0.85539324453E+01  0.51100000000E-03 0. -1.
        -11    1    3    3    0    0  0.20575177958E+02  0.83622123372E+01  0.23421127219E+02  0.32277139645E+02  0.51100000000E-03 0.  1.
        -12    1    3    3    0    0  0.65602410821E+01  0.20294918210E+01 -0.11104457680E+01  0.69561979494E+01  0.00000000000E+00 0.  1.
</event>
<event>
 7    1  0.1542786E-009  0.4778727E+02  0.7816164E-02  0.1312668E+00
        -11   -1    0    0    0    0  0.00000000000E+00  0.00000000000E+00  0.45593999997E+02  0.45594000000E+02  0.51100000000E-03 0.  1.
         11   -1    0    0    0    0 -0.00000000000E+00 -0.00000000000E+00 -0.45593999997E+02  0.45594000000E+02  0.51100000000E-03 0. -1.
    9900012    2    1    2    0    0 -0.20124622528E+02  0.33766368605E+02 -0.18397148872E+02  0.47787272272E+02  0.20000005598E+02 0.  0.
        -12    1    1    2    0    0  0.20124622528E+02 -0.33766368605E+02  0.18397148872E+02  0.43400727728E+02  0.00000000000E+00 0.  1.
         11    1    3    3    0    0 -0.10222659042E+02  0.60049555708E+01 -0.91563283341E+01  0.14980006613E+02  0.51100000000E-03 0. -1.
        -11    1    3    3    0    0 -0.57967545802E+00  0.72041057170E+01 -0.71037831785E+01  0.10134046503E+02  0.51100000000E-03 0.  1.
        -12    1    3    3    0    0 -0.93222880275E+01  0.20557307318E+02 -0.21370373592E+01  0.22673219156E+02  0.00000000000E+00 0.  1.
</event>
<event>
 7    1  0.1542786E-009  0.4778727E+02  0.7816164E-02  0.1312668E+00
        -11   -1    0    0    0    0  0.00000000000E+00  0.00000000000E+00  0.45593999997E+02  0.45594000000E+02  0.51100000000E-03 0.  1.
         11   -1    0    0    0    0 -0.00000000000E+00 -0.00000000000E+00 -0.45593999997E+02  0.45594000000E+02  0.51100000000E-03 0. -1.
    9900012    2    1    2    0    0 -0.29978861396E+02  0.23402261137E+02 -0.20909932029E+02  0.47787271730E+02  0.20000003125E+02 0.  0.
        -12    1    1    2    0    0  0.29978861396E+02 -0.23402261137E+02  0.20909932029E+02  0.43400728270E+02  0.00000000000E+00 0.  1.
         11    1    3    3    0    0 -0.16803290909E+02  0.86358409862E+01 -0.14190630506E+02  0.23628422066E+02  0.51100000000E-03 0. -1.
        -11    1    3    3    0    0 -0.38501297404E+01  0.11864517883E+02 -0.71598306946E+01  0.14382401032E+02  0.51100000000E-03 0.  1.
         12    1    3    3    0    0 -0.93254407475E+01  0.29019022681E+01  0.44052917175E+00  0.97764486322E+01  0.00000000000E+00 0. -1.
</event>
<event>
 7    1  0.1542786E-009  0.4778727E+02  0.7816164E-02  0.1312668E+00
        -11   -1    0    0    0    0  0.00000000000E+00  0.00000000000E+00  0.45593999997E+02  0.45594000000E+02  0.51100000000E-03 0. -1.
         11   -1    0    0    0    0 -0.00000000000E+00 -0.00000000000E+00 -0.45593999997E+02  0.45594000000E+02  0.51100000000E-03 0.  1.
    9900012    2    1    2    0    0 -0.41522978058E+02  0.12069567428E+02 -0.37136539044E+01  0.47787269707E+02  0.19999993901E+02 0.  0.
        -12    1    1    2    0    0  0.41522978058E+02 -0.12069567428E+02  0.37136539044E+01  0.43400730293E+02  0.00000000000E+00 0.  1.
         11    1    3    3    0    0 -0.13125911833E+02 -0.29735016147E+01 -0.23695348321E+01  0.13665502877E+02  0.51100000000E-03 0.  1.
        -11    1    3    3    0    0 -0.77534765835E+01  0.51025328728E+01  0.47306946051E+01  0.10417855468E+02  0.51100000000E-03 0. -1.
         12    1    3    3    0    0 -0.20643589641E+02  0.99405361700E+01 -0.60748136774E+01  0.23703911361E+02  0.00000000000E+00 0. -1.
</event>
<event>
 7    1  0.1542786E-009  0.4778728E+02  0.7816164E-02  0.1312668E+00
        -11   -1    0    0    0    0  0.00000000000E+00  0.00000000000E+00  0.45593999997E+02  0.45594000000E+02  0.51100000000E-03 0. -1.
         11   -1    0    0    0    0 -0.00000000000E+00 -0.00000000000E+00 -0.45593999997E+02  0.45594000000E+02  0.51100000000E-03 0.  1.
    9900012    2    1    2    0    0  0.38349431476E+02  0.53924741100E+01 -0.19592476766E+02  0.47787276303E+02  0.20000023977E+02 0.  0.
        -12    1    1    2    0    0 -0.38349431476E+02 -0.53924741100E+01  0.19592476766E+02  0.43400723697E+02  0.00000000000E+00 0.  1.
         11    1    3    3    0    0  0.97268264056E+01 -0.18929961779E+01 -0.65705573196E+01  0.11889777551E+02  0.51100000000E-03 0. -1.
        -11    1    3    3    0    0  0.24820034964E+02  0.10572073966E+02 -0.66562823210E+01  0.27786849015E+02  0.51100000000E-03 0.  1.
        -12    1    3    3    0    0  0.38025701065E+01 -0.32866036786E+01 -0.63656371255E+01  0.81106497378E+01  0.00000000000E+00 0.  1.
</event>
<event>
 7    1  0.1542786E-009  0.4778727E+02  0.7816164E-02  0.1312668E+00
        -11   -1    0    0    0    0  0.00000000000E+00  0.00000000000E+00  0.45593999997E+02  0.45594000000E+02  0.51100000000E-03 0. -1.
         11   -1    0    0    0    0 -0.00000000000E+00 -0.00000000000E+00 -0.45593999997E+02  0.45594000000E+02  0.51100000000E-03 0.  1.
    9900012    2    1    2    0    0 -0.70770412354E+01  0.29512417272E+02  0.31025087967E+02  0.47787269946E+02  0.19999994992E+02 0.  0.
        -12    1    1    2    0    0  0.70770412354E+01 -0.29512417272E+02 -0.31025087967E+02  0.43400730054E+02  0.00000000000E+00 0.  1.
         11    1    3    3    0    0  0.16751304537E+01  0.16106389085E+02  0.80888170699E+01  0.18101126850E+02  0.51100000000E-03 0. -1.
        -11    1    3    3    0    0 -0.97745538155E+00 -0.12358851295E+01  0.50883961216E+01  0.53267819956E+01  0.51100000000E-03 0.  1.
        -12    1    3    3    0    0 -0.77747163076E+01  0.14641913316E+02  0.17847874775E+02  0.24359361100E+02  0.00000000000E+00 0.  1.
</event>
<event>
 7    1  0.1542786E-009  0.4778727E+02  0.7816164E-02  0.1312668E+00
        -11   -1    0    0    0    0  0.00000000000E+00  0.00000000000E+00  0.45593999997E+02  0.45594000000E+02  0.51100000000E-03 0.  1.
         11   -1    0    0    0    0 -0.00000000000E+00 -0.00000000000E+00 -0.45593999997E+02  0.45594000000E+02  0.51100000000E-03 0. -1.
    9900012    2    1    2    0    0 -0.16459354164E+02 -0.40157529549E+02  0.29261799319E+00  0.47787272538E+02  0.20000006811E+02 0.  0.
        -12    1    1    2    0    0  0.16459354164E+02  0.40157529549E+02 -0.29261799319E+00  0.43400727462E+02  0.00000000000E+00 0.  1.
         11    1    3    3    0    0 -0.98772795583E+01 -0.31088625828E+02  0.53292319655E+01  0.33052443494E+02  0.51100000000E-03 0. -1.
        -11    1    3    3    0    0 -0.64875402842E+01 -0.32463599601E+01 -0.35525197730E+00  0.72631423060E+01  0.51100000000E-03 0.  1.
        -12    1    3    3    0    0 -0.94534321130E-01 -0.58225437607E+01 -0.46813619950E+01  0.74716867381E+01  0.00000000000E+00 0.  1.
</event>
<event>
 7    1  0.1542786E-009  0.4778727E+02  0.7816164E-02  0.1312668E+00
        -11   -1    0    0    0    0  0.00000000000E+00  0.00000000000E+00  0.45593999997E+02  0.45594000000E+02  0.51100000000E-03 0.  1.
         11   -1    0    0    0    0 -0.00000000000E+00 -0.00000000000E+00 -0.45593999997E+02  0.45594000000E+02  0.51100000000E-03 0. -1.
    9900012    2    1    2    0    0 -0.26542403493E+02 -0.29683913726E+02  0.17262363605E+02  0.47787272881E+02  0.20000008373E+02 0.  0.
        -12    1    1    2    0    0  0.26542403493E+02  0.29683913726E+02 -0.17262363605E+02  0.43400727119E+02  0.00000000000E+00 0.  1.
         11    1    3    3    0    0 -0.10349007838E+02 -0.24287313752E+01  0.20470071014E+01  0.10825476324E+02  0.51100000000E-03 0. -1.
        -11    1    3    3    0    0 -0.16618702216E+02 -0.18962980684E+02  0.98180235272E+01  0.27058630527E+02  0.51100000000E-03 0.  1.
        -12    1    3    3    0    0  0.42530656066E+00 -0.82922016664E+01  0.53973329761E+01  0.99031660292E+01  0.00000000000E+00 0.  1.
</event>
<event>
 7    1  0.1542786E-009  0.4778727E+02  0.7816164E-02  0.1312668E+00
        -11   -1    0    0    0    0  0.00000000000E+00  0.00000000000E+00  0.45593999997E+02  0.45594000000E+02  0.51100000000E-03 0.  1.
         11   -1    0    0    0    0 -0.00000000000E+00 -0.00000000000E+00 -0.45593999997E+02  0.45594000000E+02  0.51100000000E-03 0. -1.
    9900012    2    1    2    0    0 -0.78059552044E+01 -0.42502983930E+02  0.40232805386E+01  0.47787269984E+02  0.19999995164E+02 0.  0.
        -12    1    1    2    0    0  0.78059552044E+01  0.42502983930E+02 -0.40232805386E+01  0.43400730016E+02  0.00000000000E+00 0.  1.
         11    1    3    3    0    0  0.29468874982E+00 -0.14001813084E+02 -0.12064412042E+00  0.14005433459E+02  0.51100000000E-03 0. -1.
        -11    1    3    3    0    0 -0.12246176890E+02 -0.18351041815E+02  0.54918975386E+01  0.22735226477E+02  0.51100000000E-03 0.  1.
        -12    1    3    3    0    0  0.41455329358E+01 -0.10150129031E+02 -0.13479728796E+01  0.11046610048E+02  0.00000000000E+00 0.  1.
</event>
<event>
 7    1  0.1949920E-009  0.4778727E+02  0.7816164E-02  0.1312668E+00
        -11   -1    0    0    0    0  0.00000000000E+00  0.00000000000E+00  0.45593999997E+02  0.45594000000E+02  0.51100000000E-03 0. -1.
         11   -1    0    0    0    0 -0.00000000000E+00 -0.00000000000E+00 -0.45593999997E+02  0.45594000000E+02  0.51100000000E-03 0.  1.
    9900012    2    1    2    0    0  0.12115221385E+02 -0.48287500237E+01  0.41394780907E+02  0.47787270717E+02  0.19999998506E+02 0.  0.
        -12    1    1    2    0    0 -0.12115221385E+02  0.48287500237E+01 -0.41394780907E+02  0.43400729283E+02  0.00000000000E+00 0.  1.
         11    1    3    3    0    0  0.53660501352E+01 -0.80207169882E+01  0.18491074120E+02  0.20857761563E+02  0.51100000000E-03 0. -1.
        -11    1    3    3    0    0  0.33515073252E+01  0.11028589365E+01 -0.15177843663E+00  0.35315628466E+01  0.51100000000E-03 0.  1.
        -12    1    3    3    0    0  0.33976639246E+01  0.20891080280E+01  0.23055485223E+02  0.23397946307E+02  0.00000000000E+00 0.  1.
</event>
<event>
 7    1  0.1542786E-009  0.4778727E+02  0.7816164E-02  0.1312668E+00
        -11   -1    0    0    0    0  0.00000000000E+00  0.00000000000E+00  0.45593999997E+02  0.45594000000E+02  0.51100000000E-03 0.  1.
         11   -1    0    0    0    0 -0.00000000000E+00 -0.00000000000E+00 -0.45593999997E+02  0.45594000000E+02  0.51100000000E-03 0. -1.
    9900012    2    1    2    0    0 -0.18396545617E+00  0.41144616091E+02 -0.13809775777E+02  0.47787272085E+02  0.20000004743E+02 0.  0.
        -12    1    1    2    0    0  0.18396545617E+00 -0.41144616091E+02  0.13809775777E+02  0.43400727915E+02  0.00000000000E+00 0.  1.
         11    1    3    3    0    0 -0.12781073348E+00  0.26172413629E+02 -0.57469898808E+01  0.26796258390E+02  0.51100000000E-03 0. -1.
        -11    1    3    3    0    0 -0.58202403574E+01  0.62988018314E+01 -0.15697809448E+01  0.87186188588E+01  0.51100000000E-03 0.  1.
        -12    1    3    3    0    0  0.57640856347E+01  0.86734006301E+01 -0.64930049518E+01  0.12272394836E+02  0.00000000000E+00 0.  1.
</event>
<event>
 7    1  0.1542786E-009  0.4778731E+02  0.7816164E-02  0.1312668E+00
        -11   -1    0    0    0    0  0.00000000000E+00  0.00000000000E+00  0.45593999997E+02  0.45594000000E+02  0.51100000000E-03 0.  1.
         11   -1    0    0    0    0 -0.00000000000E+00 -0.00000000000E+00 -0.45593999997E+02  0.45594000000E+02  0.51100000000E-03 0. -1.
    9900012    2    1    2    0    0 -0.87415310538E+01  0.30949268319E+02 -0.29143583242E+02  0.47787308545E+02  0.20000170978E+02 0.  0.
        -12    1    1    2    0    0  0.87415310538E+01 -0.30949268319E+02  0.29143583242E+02  0.43400691455E+02  0.00000000000E+00 0.  1.
         11    1    3    3    0    0 -0.87478247153E+01  0.12210622956E+02 -0.19267009200E+02  0.24430337575E+02  0.51100000000E-03 0. -1.
        -11    1    3    3    0    0  0.12777220882E+01 -0.56461036497E+00  0.39820472686E+00  0.14525583860E+01  0.51100000000E-03 0.  1.
         12    1    3    3    0    0 -0.12714284267E+01  0.19303255727E+02 -0.10274778768E+02  0.21904412584E+02  0.00000000000E+00 0. -1.
</event>
<event>
 7    1  0.1542786E-009  0.4778726E+02  0.7816164E-02  0.1312668E+00
        -11   -1    0    0    0    0  0.00000000000E+00  0.00000000000E+00  0.45593999997E+02  0.45594000000E+02  0.51100000000E-03 0.  1.
         11   -1    0    0    0    0 -0.00000000000E+00 -0.00000000000E+00 -0.45593999997E+02  0.45594000000E+02  0.51100000000E-03 0. -1.
    9900012    2    1    2    0    0  0.29134383448E+01  0.30494161980E+02 -0.30744788475E+02  0.47787262031E+02  0.19999958904E+02 0.  0.
        -12    1    1    2    0    0 -0.29134383448E+01 -0.30494161980E+02  0.30744788475E+02  0.43400737969E+02  0.00000000000E+00 0.  1.
         11    1    3    3    0    0 -0.85566327620E+00  0.21608344937E+02 -0.25156096653E+02  0.33173512471E+02  0.51100000000E-03 0. -1.
        -11    1    3    3    0    0 -0.34974651737E+00  0.12558813498E+01 -0.57957775535E+01  0.59405890535E+01  0.51100000000E-03 0.  1.
        -12    1    3    3    0    0  0.41188481383E+01  0.76299356936E+01  0.20708573143E+00  0.86731605068E+01  0.00000000000E+00 0.  1.
</event>
<event>
 7    1  0.1542786E-009  0.4778727E+02  0.7816164E-02  0.1312668E+00
        -11   -1    0    0    0    0  0.00000000000E+00  0.00000000000E+00  0.45593999997E+02  0.45594000000E+02  0.51100000000E-03 0. -1.
         11   -1    0    0    0    0 -0.00000000000E+00 -0.00000000000E+00 -0.45593999997E+02  0.45594000000E+02  0.51100000000E-03 0.  1.
    9900012    2    1    2    0    0  0.14642979735E+02  0.31160265000E+02  0.26424312845E+02  0.47787270977E+02  0.19999999693E+02 0.  0.
        -12    1    1    2    0    0 -0.14642979735E+02 -0.31160265000E+02 -0.26424312845E+02  0.43400729023E+02  0.00000000000E+00 0.  1.
         11    1    3    3    0    0  0.24798813879E+01  0.53180654845E+01  0.12502274551E+02  0.13810811033E+02  0.51100000000E-03 0. -1.
        -11    1    3    3    0    0  0.46344837291E+01  0.47300795105E+01 -0.14735720937E+01  0.67840626905E+01  0.51100000000E-03 0.  1.
         12    1    3    3    0    0  0.75286146183E+01  0.21112120005E+02  0.15395610388E+02  0.27192397253E+02  0.00000000000E+00 0. -1.
</event>
<event>
 7    1  0.1542786E-009  0.4778727E+02  0.7816164E-02  0.1312668E+00
        -11   -1    0    0    0    0  0.00000000000E+00  0.00000000000E+00  0.45593999997E+02  0.45594000000E+02  0.51100000000E-03 0. -1.
         11   -1    0    0    0    0 -0.00000000000E+00 -0.00000000000E+00 -0.45593999997E+02  0.45594000000E+02  0.51100000000E-03 0.  1.
    9900012    2    1    2    0    0  0.37689324077E+02 -0.50892865179E+01  0.20910217950E+02  0.47787271880E+02  0.20000003808E+02 0.  0.
        -12    1    1    2    0    0 -0.37689324077E+02  0.50892865179E+01 -0.20910217950E+02  0.43400728120E+02  0.00000000000E+00 0.  1.
         11    1    3    3    0    0  0.19180790679E+02 -0.85912538940E+00  0.12816992162E+02  0.23084975977E+02  0.51100000000E-03 0. -1.
        -11    1    3    3    0    0  0.21093498268E+00  0.51110867923E+00  0.56109215815E+01  0.56380995826E+01  0.51100000000E-03 0.  1.
        -12    1    3    3    0    0  0.18297598415E+02 -0.47412698077E+01  0.24823042063E+01  0.19064196320E+02  0.00000000000E+00 0.  1.
</event>
<event>
 7    1  0.1542786E-009  0.4778727E+02  0.7816164E-02  0.1312668E+00
        -11   -1    0    0    0    0  0.00000000000E+00  0.00000000000E+00  0.45593999997E+02  0.45594000000E+02  0.51100000000E-03 0.  1.
         11   -1    0    0    0    0 -0.00000000000E+00 -0.00000000000E+00 -0.45593999997E+02  0.45594000000E+02  0.51100000000E-03 0. -1.
    9900012    2    1    2    0    0 -0.10892203572E+01 -0.53675838292E+01 -0.43053756397E+02  0.47787270778E+02  0.19999998783E+02 0.  0.
        -12    1    1    2    0    0  0.10892203572E+01  0.53675838292E+01  0.43053756397E+02  0.43400729222E+02  0.00000000000E+00 0.  1.
         11    1    3    3    0    0  0.17113065403E+01 -0.29933096746E+01 -0.24224464444E+02  0.24468615628E+02  0.51100000000E-03 0. -1.
        -11    1    3    3    0    0  0.46769802999E+01  0.21701231589E+00 -0.11944014502E+02  0.12828901814E+02  0.51100000000E-03 0.  1.
         12    1    3    3    0    0 -0.74775071974E+01 -0.25912864705E+01 -0.68852774505E+01  0.10489753335E+02  0.00000000000E+00 0. -1.
</event>
<event>
 7    1  0.1542786E-009  0.4778727E+02  0.7816164E-02  0.1312668E+00
        -11   -1    0    0    0    0  0.00000000000E+00  0.00000000000E+00  0.45593999997E+02  0.45594000000E+02  0.51100000000E-03 0. -1.
         11   -1    0    0    0    0 -0.00000000000E+00 -0.00000000000E+00 -0.45593999997E+02  0.45594000000E+02  0.51100000000E-03 0.  1.
    9900012    2    1    2    0    0 -0.19785823624E+02 -0.23290199545E+02  0.30817380704E+02  0.47787272302E+02  0.20000005732E+02 0.  0.
        -12    1    1    2    0    0  0.19785823624E+02  0.23290199545E+02 -0.30817380704E+02  0.43400727698E+02  0.00000000000E+00 0.  1.
         11    1    3    3    0    0 -0.13565799702E+02 -0.10288194123E+02  0.26462718780E+02  0.31466702169E+02  0.51100000000E-03 0. -1.
        -11    1    3    3    0    0 -0.26661763781E+00 -0.76953973451E+01  0.28131048052E+01  0.81977914202E+01  0.51100000000E-03 0.  1.
        -12    1    3    3    0    0 -0.59534062842E+01 -0.53066080770E+01  0.15415571182E+01  0.81227787128E+01  0.00000000000E+00 0.  1.
</event>
<event>
 7    1  0.1542786E-009  0.4778727E+02  0.7816164E-02  0.1312668E+00
        -11   -1    0    0    0    0  0.00000000000E+00  0.00000000000E+00  0.45593999997E+02  0.45594000000E+02  0.51100000000E-03 0. -1.
         11   -1    0    0    0    0 -0.00000000000E+00 -0.00000000000E+00 -0.45593999997E+02  0.45594000000E+02  0.51100000000E-03 0.  1.
    9900012    2    1    2    0    0 -0.32062628557E+02 -0.14567244448E+01  0.29214536427E+02  0.47787270343E+02  0.19999996803E+02 0.  0.
        -12    1    1    2    0    0  0.32062628557E+02  0.14567244448E+01 -0.29214536427E+02  0.43400729657E+02  0.00000000000E+00 0.  1.
         11    1    3    3    0    0 -0.20015913960E+02  0.46215889051E+01  0.97010099474E+01  0.22717955232E+02  0.51100000000E-03 0. -1.
        -11    1    3    3    0    0 -0.12287482199E+02 -0.31798106661E+01  0.17064198851E+02  0.21266882643E+02  0.51100000000E-03 0.  1.
        -12    1    3    3    0    0  0.24076760184E+00 -0.28985026838E+01  0.24493276291E+01  0.38024324689E+01  0.00000000000E+00 0.  1.
</event>
<event>
 7    1  0.1542786E-009  0.4778727E+02  0.7816164E-02  0.1312668E+00
        -11   -1    0    0    0    0  0.00000000000E+00  0.00000000000E+00  0.45593999997E+02  0.45594000000E+02  0.51100000000E-03 0.  1.
         11   -1    0    0    0    0 -0.00000000000E+00 -0.00000000000E+00 -0.45593999997E+02  0.45594000000E+02  0.51100000000E-03 0. -1.
    9900012    2    1    2    0    0 -0.19827851331E+02  0.89665651835E+01 -0.37551037582E+02  0.47787269556E+02  0.19999993215E+02 0.  0.
        -12    1    1    2    0    0  0.19827851331E+02 -0.89665651835E+01  0.37551037582E+02  0.43400730444E+02  0.00000000000E+00 0.  1.
         11    1    3    3    0    0 -0.79397185038E+01  0.47790198894E+01 -0.20286608581E+02  0.22303018831E+02  0.51100000000E-03 0. -1.
        -11    1    3    3    0    0 -0.62210223570E+01  0.77286009713E+01 -0.41279879518E+01  0.10745821371E+02  0.51100000000E-03 0.  1.
        -12    1    3    3    0    0 -0.56671104703E+01 -0.35410556771E+01 -0.13136441049E+02  0.14738429354E+02  0.00000000000E+00 0.  1.
</event>
<event>
 7    1  0.1542786E-009  0.4778727E+02  0.7816164E-02  0.1312668E+00
        -11   -1    0    0    0    0  0.00000000000E+00  0.00000000000E+00  0.45593999997E+02  0.45594000000E+02  0.51100000000E-03 0.  1.
         11   -1    0    0    0    0 -0.00000000000E+00 -0.00000000000E+00 -0.45593999997E+02  0.45594000000E+02  0.51100000000E-03 0. -1.
    9900012    2    1    2    0    0  0.19917373852E+02  0.38166519500E+02  0.54989158391E+01  0.47787273424E+02  0.20000010850E+02 0.  0.
        -12    1    1    2    0    0 -0.19917373852E+02 -0.38166519500E+02 -0.54989158391E+01  0.43400726576E+02  0.00000000000E+00 0.  1.
         11    1    3    3    0    0  0.21206459513E+02  0.35233791631E+02  0.14740915723E+01  0.41149810984E+02  0.51100000000E-03 0. -1.
        -11    1    3    3    0    0 -0.16366581299E+01  0.30619193370E+01  0.10323743143E+01  0.36221260119E+01  0.51100000000E-03 0.  1.
        -12    1    3    3    0    0  0.34757246951E+00 -0.12919146841E+00  0.29924499525E+01  0.30153364282E+01  0.00000000000E+00 0.  1.
</event>
<event>
 7    1  0.1542786E-009  0.4778727E+02  0.7816164E-02  0.1312668E+00
        -11   -1    0    0    0    0  0.00000000000E+00  0.00000000000E+00  0.45593999997E+02  0.45594000000E+02  0.51100000000E-03 0.  1.
         11   -1    0    0    0    0 -0.00000000000E+00 -0.00000000000E+00 -0.45593999997E+02  0.45594000000E+02  0.51100000000E-03 0. -1.
    9900012    2    1    2    0    0  0.40775854859E+02 -0.10303896850E+02 -0.10713664772E+02  0.47787271404E+02  0.20000001640E+02 0.  0.
        -12    1    1    2    0    0 -0.40775854859E+02  0.10303896850E+02  0.10713664772E+02  0.43400728596E+02  0.00000000000E+00 0.  1.
         11    1    3    3    0    0  0.97606896910E-02  0.19047790686E+00 -0.17343306672E+01  0.17447865853E+01  0.51100000000E-03 0. -1.
        -11    1    3    3    0    0  0.41538571531E+02 -0.10428515229E+02 -0.63433570432E+01  0.43294861515E+02  0.51100000000E-03 0.  1.
        -12    1    3    3    0    0 -0.77247736154E+00 -0.65859528208E-01 -0.26359770619E+01  0.27476233043E+01  0.00000000000E+00 0.  1.
</event>
<event>
 7    1  0.1542786E-009  0.4778728E+02  0.7816164E-02  0.1312668E+00
        -11   -1    0    0    0    0  0.00000000000E+00  0.00000000000E+00  0.45593999997E+02  0.45594000000E+02  0.51100000000E-03 0. -1.
         11   -1    0    0    0    0 -0.00000000000E+00 -0.00000000000E+00 -0.45593999997E+02  0.45594000000E+02  0.51100000000E-03 0.  1.
    9900012    2    1    2    0    0 -0.30099477912E+00 -0.41711599686E+02  0.11986420630E+02  0.47787280815E+02  0.20000044547E+02 0.  0.
        -12    1    1    2    0    0  0.30099477912E+00  0.41711599686E+02 -0.11986420630E+02  0.43400719185E+02  0.00000000000E+00 0.  1.
         11    1    3    3    0    0  0.94567765616E+00 -0.14677885249E+02 -0.24670486435E+01  0.14913783923E+02  0.51100000000E-03 0. -1.
        -11    1    3    3    0    0 -0.46654282201E+01 -0.38316259100E+01  0.36232580244E+01  0.70409925837E+01  0.51100000000E-03 0.  1.
        -12    1    3    3    0    0  0.34187557848E+01 -0.23202088527E+02  0.10830211249E+02  0.25832504309E+02  0.00000000000E+00 0.  1.
</event>
<event>
 7    1  0.1542786E-009  0.4778727E+02  0.7816164E-02  0.1312668E+00
        -11   -1    0    0    0    0  0.00000000000E+00  0.00000000000E+00  0.45593999997E+02  0.45594000000E+02  0.51100000000E-03 0.  1.
         11   -1    0    0    0    0 -0.00000000000E+00 -0.00000000000E+00 -0.45593999997E+02  0.45594000000E+02  0.51100000000E-03 0. -1.
    9900012    2    1    2    0    0 -0.11545610890E+02  0.39889927618E+02 -0.12614115526E+02  0.47787269975E+02  0.19999995124E+02 0.  0.
        -12    1    1    2    0    0  0.11545610890E+02 -0.39889927618E+02  0.12614115526E+02  0.43400730025E+02  0.00000000000E+00 0.  1.
         11    1    3    3    0    0 -0.48253998861E+01  0.61767901576E+01  0.39152021911E+01  0.87616225192E+01  0.51100000000E-03 0. -1.
        -11    1    3    3    0    0  0.17365734082E+01  0.87304212750E+01 -0.30798560931E+01  0.94192067955E+01  0.51100000000E-03 0.  1.
         12    1    3    3    0    0 -0.84567844118E+01  0.24982716186E+02 -0.13449461624E+02  0.29606440660E+02  0.00000000000E+00 0. -1.
</event>
<event>
 7    1  0.1542786E-009  0.4778727E+02  0.7816164E-02  0.1312668E+00
        -11   -1    0    0    0    0  0.00000000000E+00  0.00000000000E+00  0.45593999997E+02  0.45594000000E+02  0.51100000000E-03 0.  1.
         11   -1    0    0    0    0 -0.00000000000E+00 -0.00000000000E+00 -0.45593999997E+02  0.45594000000E+02  0.51100000000E-03 0. -1.
    9900012    2    1    2    0    0 -0.19689656118E+01 -0.12331916971E+02 -0.41565253382E+02  0.47787270853E+02  0.19999999127E+02 0.  0.
        -12    1    1    2    0    0  0.19689656118E+01  0.12331916971E+02  0.41565253382E+02  0.43400729147E+02  0.00000000000E+00 0.  1.
         11    1    3    3    0    0 -0.27573766964E+00 -0.11010558021E+02 -0.13031200725E+02  0.17062256937E+02  0.51100000000E-03 0. -1.
        -11    1    3    3    0    0 -0.62312314327E+01 -0.24640932276E+01 -0.16043398511E+02  0.17386507316E+02  0.51100000000E-03 0.  1.
        -12    1    3    3    0    0  0.45380034906E+01  0.11427342777E+01 -0.12490654146E+02  0.13338506600E+02  0.00000000000E+00 0.  1.
</event>
<event>
 7    1  0.1542786E-009  0.4778727E+02  0.7816164E-02  0.1312668E+00
        -11   -1    0    0    0    0  0.00000000000E+00  0.00000000000E+00  0.45593999997E+02  0.45594000000E+02  0.51100000000E-03 0. -1.
         11   -1    0    0    0    0 -0.00000000000E+00 -0.00000000000E+00 -0.45593999997E+02  0.45594000000E+02  0.51100000000E-03 0.  1.
    9900012    2    1    2    0    0  0.21870164698E+02  0.20415647364E+02  0.31440744911E+02  0.47787271875E+02  0.20000003786E+02 0.  0.
        -12    1    1    2    0    0 -0.21870164698E+02 -0.20415647364E+02 -0.31440744911E+02  0.43400728125E+02  0.00000000000E+00 0.  1.
         11    1    3    3    0    0  0.11302069319E+02  0.17462292984E+02  0.19865875193E+02  0.28763196008E+02  0.51100000000E-03 0. -1.
        -11    1    3    3    0    0 -0.19381615331E+01 -0.66658055894E+00  0.19908903075E+01  0.28573491645E+01  0.51100000000E-03 0.  1.
        -12    1    3    3    0    0  0.12506256913E+02  0.36199349383E+01  0.95839794108E+01  0.16166726702E+02  0.00000000000E+00 0.  1.
</event>
<event>
 7    1  0.1542786E-009  0.4778727E+02  0.7816164E-02  0.1312668E+00
        -11   -1    0    0    0    0  0.00000000000E+00  0.00000000000E+00  0.45593999997E+02  0.45594000000E+02  0.51100000000E-03 0.  1.
         11   -1    0    0    0    0 -0.00000000000E+00 -0.00000000000E+00 -0.45593999997E+02  0.45594000000E+02  0.51100000000E-03 0. -1.
    9900012    2    1    2    0    0  0.30008471520E+02 -0.13015821307E+02 -0.28525480396E+02  0.47787274210E+02  0.20000014435E+02 0.  0.
        -12    1    1    2    0    0 -0.30008471520E+02  0.13015821307E+02  0.28525480396E+02  0.43400725790E+02  0.00000000000E+00 0.  1.
         11    1    3    3    0    0  0.32561272745E+01 -0.27235949968E+01  0.76326024056E+00  0.43131080430E+01  0.51100000000E-03 0. -1.
        -11    1    3    3    0    0  0.19954321042E+02 -0.12119154490E+02 -0.15591199105E+02  0.28073730133E+02  0.51100000000E-03 0.  1.
         12    1    3    3    0    0  0.67980232036E+01  0.18269281795E+01 -0.13697541531E+02  0.15400436035E+02  0.00000000000E+00 0. -1.
</event>
<event>
 7    1  0.1542786E-009  0.4778727E+02  0.7816164E-02  0.1312668E+00
        -11   -1    0    0    0    0  0.00000000000E+00  0.00000000000E+00  0.45593999997E+02  0.45594000000E+02  0.51100000000E-03 0.  1.
         11   -1    0    0    0    0 -0.00000000000E+00 -0.00000000000E+00 -0.45593999997E+02  0.45594000000E+02  0.51100000000E-03 0. -1.
    9900012    2    1    2    0    0  0.56125135955E+01  0.26657480058E+02 -0.33786120921E+02  0.47787268223E+02  0.19999987134E+02 0.  0.
        -12    1    1    2    0    0 -0.56125135955E+01 -0.26657480058E+02  0.33786120921E+02  0.43400731777E+02  0.00000000000E+00 0.  1.
         11    1    3    3    0    0  0.44442057370E+01  0.18453697656E+02 -0.19941402879E+02  0.27530882130E+02  0.51100000000E-03 0. -1.
        -11    1    3    3    0    0  0.37690668082E+01 -0.62646526628E+00 -0.91657206038E+01  0.99301942470E+01  0.51100000000E-03 0.  1.
         12    1    3    3    0    0 -0.26007589497E+01  0.88302476687E+01 -0.46789974386E+01  0.10326191846E+02  0.00000000000E+00 0. -1.
</event>
<event>
 7    1  0.2998033E-009  0.4778727E+02  0.7816164E-02  0.1312668E+00
        -11   -1    0    0    0    0  0.00000000000E+00  0.00000000000E+00  0.45593999997E+02  0.45594000000E+02  0.51100000000E-03 0. -1.
         11   -1    0    0    0    0 -0.00000000000E+00 -0.00000000000E+00 -0.45593999997E+02  0.45594000000E+02  0.51100000000E-03 0.  1.
    9900012    2    1    2    0    0 -0.11536987493E+01  0.67787722952E-01  0.43385339897E+02  0.47787270352E+02  0.19999996845E+02 0.  0.
        -12    1    1    2    0    0  0.11536987493E+01 -0.67787722952E-01 -0.43385339897E+02  0.43400729648E+02  0.00000000000E+00 0.  1.
         11    1    3    3    0    0 -0.45619212971E+01 -0.40464354245E+01  0.16270274578E+02  0.17375459725E+02  0.51100000000E-03 0. -1.
        -11    1    3    3    0    0  0.54466772910E+01  0.18403102793E-01  0.37736181150E+01  0.66262226136E+01  0.51100000000E-03 0.  1.
         12    1    3    3    0    0 -0.20384547432E+01  0.40958200446E+01  0.23341447204E+02  0.23785588014E+02  0.00000000000E+00 0. -1.
</event>
<event>
 7    1  0.1542786E-009  0.4778727E+02  0.7816164E-02  0.1312668E+00
        -11   -1    0    0    0    0  0.00000000000E+00  0.00000000000E+00  0.45593999997E+02  0.45594000000E+02  0.51100000000E-03 0. -1.
         11   -1    0    0    0    0 -0.00000000000E+00 -0.00000000000E+00 -0.45593999997E+02  0.45594000000E+02  0.51100000000E-03 0.  1.
    9900012    2    1    2    0    0 -0.54582071258E+01  0.24495717793E+01  0.42986401563E+02  0.47787272515E+02  0.20000006703E+02 0.  0.
        -12    1    1    2    0    0  0.54582071258E+01 -0.24495717793E+01 -0.42986401563E+02  0.43400727485E+02  0.00000000000E+00 0.  1.
         11    1    3    3    0    0  0.21670220066E+01  0.36975880704E+01  0.24292959557E+02  0.24668117606E+02  0.51100000000E-03 0. -1.
        -11    1    3    3    0    0  0.15527234288E+00 -0.48492517887E+01  0.50298310549E+01  0.69884585648E+01  0.51100000000E-03 0.  1.
        -12    1    3    3    0    0 -0.77805014752E+01  0.36012354975E+01  0.13663610951E+02  0.16130696344E+02  0.00000000000E+00 0.  1.
</event>
<event>
 7    1  0.2444190E-009  0.4778727E+02  0.7816164E-02  0.1312668E+00
        -11   -1    0    0    0    0  0.00000000000E+00  0.00000000000E+00  0.45593999997E+02  0.45594000000E+02  0.51100000000E-03 0. -1.
         11   -1    0    0    0    0 -0.00000000000E+00 -0.00000000000E+00 -0.45593999997E+02  0.45594000000E+02  0.51100000000E-03 0.  1.
    9900012    2    1    2    0    0  0.23833733799E+01 -0.37202672788E+02  0.22223957041E+02  0.47787267313E+02  0.19999982985E+02 0.  0.
        -12    1    1    2    0    0 -0.23833733799E+01  0.37202672788E+02 -0.22223957041E+02  0.43400732687E+02  0.00000000000E+00 0.  1.
         11    1    3    3    0    0 -0.12342711070E+00 -0.74951391957E+01  0.11770684860E+02  0.13954976466E+02  0.51100000000E-03 0. -1.
        -11    1    3    3    0    0  0.13633453498E+01 -0.53405476879E+01 -0.26788393312E+01  0.61283228190E+01  0.51100000000E-03 0.  1.
         12    1    3    3    0    0  0.11434551408E+01 -0.24366985905E+02  0.13132111512E+02  0.27703968028E+02  0.00000000000E+00 0. -1.
</event>
<event>
 7    1  0.1542786E-009  0.4778728E+02  0.7816164E-02  0.1312668E+00
        -11   -1    0    0    0    0  0.00000000000E+00  0.00000000000E+00  0.45593999997E+02  0.45594000000E+02  0.51100000000E-03 0.  1.
         11   -1    0    0    0    0 -0.00000000000E+00 -0.00000000000E+00 -0.45593999997E+02  0.45594000000E+02  0.51100000000E-03 0. -1.
    9900012    2    1    2    0    0  0.12782760136E+02 -0.18152622037E+02 -0.37292163426E+02  0.47787284608E+02  0.20000061843E+02 0.  0.
        -12    1    1    2    0    0 -0.12782760136E+02  0.18152622037E+02  0.37292163426E+02  0.43400715392E+02  0.00000000000E+00 0.  1.
         11    1    3    3    0    0  0.85884163921E+01 -0.40161898024E+01 -0.13617978407E+02  0.16593372557E+02  0.51100000000E-03 0. -1.
        -11    1    3    3    0    0  0.94607826207E+00 -0.15887316718E+02 -0.15456317104E+02  0.22185572683E+02  0.51100000000E-03 0.  1.
         12    1    3    3    0    0  0.32482654815E+01  0.17508844836E+01 -0.82178679151E+01  0.90083393687E+01  0.00000000000E+00 0. -1.
</event>
<event>
 7    1  0.1542786E-009  0.4778727E+02  0.7816164E-02  0.1312668E+00
        -11   -1    0    0    0    0  0.00000000000E+00  0.00000000000E+00  0.45593999997E+02  0.45594000000E+02  0.51100000000E-03 0.  1.
         11   -1    0    0    0    0 -0.00000000000E+00 -0.00000000000E+00 -0.45593999997E+02  0.45594000000E+02  0.51100000000E-03 0. -1.
    9900012    2    1    2    0    0  0.23141511413E+02  0.36492399314E+02 -0.40495350718E+01  0.47787268526E+02  0.19999988517E+02 0.  0.
        -12    1    1    2    0    0 -0.23141511413E+02 -0.36492399314E+02  0.40495350718E+01  0.43400731474E+02  0.00000000000E+00 0.  1.
         11    1    3    3    0    0  0.64188189566E+01  0.59999551032E+01 -0.61155512879E+01  0.10705170053E+02  0.51100000000E-03 0. -1.
        -11    1    3    3    0    0  0.10213844561E+02  0.86472235965E+01  0.45912422456E+01  0.14148378079E+02  0.51100000000E-03 0.  1.
         12    1    3    3    0    0  0.65088478948E+01  0.21845220615E+02 -0.25252260295E+01  0.22933720394E+02  0.00000000000E+00 0. -1.
</event>
<event>
 7    1  0.1542786E-009  0.4778727E+02  0.7816164E-02  0.1312668E+00
        -11   -1    0    0    0    0  0.00000000000E+00  0.00000000000E+00  0.45593999997E+02  0.45594000000E+02  0.51100000000E-03 0.  1.
         11   -1    0    0    0    0 -0.00000000000E+00 -0.00000000000E+00 -0.45593999997E+02  0.45594000000E+02  0.51100000000E-03 0. -1.
    9900012    2    1    2    0    0 -0.18268546083E+02 -0.16950347347E+02 -0.35532653502E+02  0.47787268255E+02  0.19999987281E+02 0.  0.
        -12    1    1    2    0    0  0.18268546083E+02  0.16950347347E+02  0.35532653502E+02  0.43400731745E+02  0.00000000000E+00 0.  1.
         11    1    3    3    0    0 -0.99716694825E+01 -0.10054426787E+02 -0.17322501173E+02  0.22373974555E+02  0.51100000000E-03 0. -1.
        -11    1    3    3    0    0  0.29916874621E+01 -0.50718498414E+01 -0.37621861224E+01  0.69876962846E+01  0.51100000000E-03 0.  1.
        -12    1    3    3    0    0 -0.11288564062E+02 -0.18240707186E+01 -0.14447966207E+02  0.18425597415E+02  0.00000000000E+00 0.  1.
</event>
<event>
 7    1  0.1542786E-009  0.4778722E+02  0.7816164E-02  0.1312668E+00
        -11   -1    0    0    0    0  0.00000000000E+00  0.00000000000E+00  0.45593999997E+02  0.45594000000E+02  0.51100000000E-03 0.  1.
         11   -1    0    0    0    0 -0.00000000000E+00 -0.00000000000E+00 -0.45593999997E+02  0.45594000000E+02  0.51100000000E-03 0. -1.
    9900012    2    1    2    0    0 -0.23751710021E+02 -0.36316184321E+02 -0.78681739522E+00  0.47787215973E+02  0.19999748904E+02 0.  0.
        -12    1    1    2    0    0  0.23751710021E+02  0.36316184321E+02  0.78681739522E+00  0.43400784027E+02  0.00000000000E+00 0.  1.
         11    1    3    3    0    0 -0.92908813635E+01 -0.59029215339E+01 -0.65466916825E+01  0.12807190613E+02  0.51100000000E-03 0. -1.
        -11    1    3    3    0    0 -0.23692945978E+01 -0.12974031271E+02  0.96371372744E+00  0.13223758495E+02  0.51100000000E-03 0.  1.
        -12    1    3    3    0    0 -0.12091534059E+02 -0.17439231516E+02  0.47961605598E+01  0.21756266865E+02  0.00000000000E+00 0.  1.
</event>
<event>
 7    1  0.1542786E-009  0.4778727E+02  0.7816164E-02  0.1312668E+00
        -11   -1    0    0    0    0  0.00000000000E+00  0.00000000000E+00  0.45593999997E+02  0.45594000000E+02  0.51100000000E-03 0.  1.
         11   -1    0    0    0    0 -0.00000000000E+00 -0.00000000000E+00 -0.45593999997E+02  0.45594000000E+02  0.51100000000E-03 0. -1.
    9900012    2    1    2    0    0  0.17768599603E+02  0.31692440820E+02 -0.23737933252E+02  0.47787269453E+02  0.19999992743E+02 0.  0.
        -12    1    1    2    0    0 -0.17768599603E+02 -0.31692440820E+02  0.23737933252E+02  0.43400730547E+02  0.00000000000E+00 0.  1.
         11    1    3    3    0    0  0.85801645995E+01  0.22566186724E+02 -0.15769246870E+02  0.28836108526E+02  0.51100000000E-03 0. -1.
        -11    1    3    3    0    0  0.10557726352E+01  0.11022356843E+01 -0.73530936983E+01  0.75098313268E+01  0.51100000000E-03 0.  1.
        -12    1    3    3    0    0  0.81326623679E+01  0.80240184119E+01 -0.61559268345E+00  0.11441329600E+02  0.00000000000E+00 0.  1.
</event>
<event>
 7    1 -0.1542786E-009  0.4778727E+02  0.7816164E-02  0.1312668E+00
        -11   -1    0    0    0    0  0.00000000000E+00  0.00000000000E+00  0.45593999997E+02  0.45594000000E+02  0.51100000000E-03 0.  1.
         11   -1    0    0    0    0 -0.00000000000E+00 -0.00000000000E+00 -0.45593999997E+02  0.45594000000E+02  0.51100000000E-03 0. -1.
    9900012    2    1    2    0    0 -0.34626091618E+01  0.20984916978E+02 -0.37832090097E+02  0.47787269086E+02  0.19999991071E+02 0.  0.
        -12    1    1    2    0    0  0.34626091618E+01 -0.20984916978E+02  0.37832090097E+02  0.43400730914E+02  0.00000000000E+00 0.  1.
         11    1    3    3    0    0 -0.14263273403E+01  0.74487384418E+01 -0.19450901892E+02  0.20877157343E+02  0.51100000000E-03 0. -1.
        -11    1    3    3    0    0 -0.70997570951E+01  0.30185737010E+01 -0.52023730630E+01  0.93049999326E+01  0.51100000000E-03 0.  1.
        -12    1    3    3    0    0  0.50634752736E+01  0.10517604835E+02 -0.13178815142E+02  0.17605111811E+02  0.00000000000E+00 0.  1.
</event>
<event>
 7    1  0.1542786E-009  0.4778727E+02  0.7816164E-02  0.1312668E+00
        -11   -1    0    0    0    0  0.00000000000E+00  0.00000000000E+00  0.45593999997E+02  0.45594000000E+02  0.51100000000E-03 0.  1.
         11   -1    0    0    0    0 -0.00000000000E+00 -0.00000000000E+00 -0.45593999997E+02  0.45594000000E+02  0.51100000000E-03 0. -1.
    9900012    2    1    2    0    0 -0.28816566014E+02 -0.81713782108E+01 -0.31407922859E+02  0.47787268243E+02  0.19999987227E+02 0.  0.
        -12    1    1    2    0    0  0.28816566014E+02  0.81713782108E+01  0.31407922859E+02  0.43400731757E+02  0.00000000000E+00 0.  1.
         11    1    3    3    0    0 -0.18137394664E+02 -0.66182732797E+01 -0.11132468399E+02  0.22286733259E+02  0.51100000000E-03 0. -1.
        -11    1    3    3    0    0 -0.94516622206E+01  0.36407387431E+01 -0.13288413176E+02  0.16708405738E+02  0.51100000000E-03 0.  1.
         12    1    3    3    0    0 -0.12275091294E+01 -0.51938436741E+01 -0.69870412841E+01  0.87921292461E+01  0.00000000000E+00 0. -1.
</event>
<event>
 7    1  0.1542786E-009  0.4778727E+02  0.7816164E-02  0.1312668E+00
        -11   -1    0    0    0    0  0.00000000000E+00  0.00000000000E+00  0.45593999997E+02  0.45594000000E+02  0.51100000000E-03 0.  1.
         11   -1    0    0    0    0 -0.00000000000E+00 -0.00000000000E+00 -0.45593999997E+02  0.45594000000E+02  0.51100000000E-03 0. -1.
    9900012    2    1    2    0    0 -0.34939216034E+02  0.50716659370E+01 -0.25241882561E+02  0.47787271346E+02  0.20000001377E+02 0.  0.
        -12    1    1    2    0    0  0.34939216034E+02 -0.50716659370E+01  0.25241882561E+02  0.43400728654E+02  0.00000000000E+00 0.  1.
         11    1    3    3    0    0 -0.68152247009E+01  0.75478875827E+01 -0.70104447774E+01  0.12351689396E+02  0.51100000000E-03 0. -1.
        -11    1    3    3    0    0 -0.18291639495E+02 -0.77404769300E+00 -0.52186764287E+01  0.19037274206E+02  0.51100000000E-03 0.  1.
        -12    1    3    3    0    0 -0.98323518377E+01 -0.17021739528E+01 -0.13012761355E+02  0.16398307745E+02  0.00000000000E+00 0.  1.
</event>
<event>
 7    1  0.1542786E-009  0.4778727E+02  0.7816164E-02  0.1312668E+00
        -11   -1    0    0    0    0  0.00000000000E+00  0.00000000000E+00  0.45593999997E+02  0.45594000000E+02  0.51100000000E-03 0.  1.
         11   -1    0    0    0    0 -0.00000000000E+00 -0.00000000000E+00 -0.45593999997E+02  0.45594000000E+02  0.51100000000E-03 0. -1.
    9900012    2    1    2    0    0  0.26676272637E+02 -0.34229121512E+01 -0.34062928594E+02  0.47787274732E+02  0.20000016812E+02 0.  0.
        -12    1    1    2    0    0 -0.26676272637E+02  0.34229121512E+01  0.34062928594E+02  0.43400725268E+02  0.00000000000E+00 0.  1.
         11    1    3    3    0    0  0.12938102879E+02 -0.57027299413E+01 -0.99286252027E+01  0.17276956722E+02  0.51100000000E-03 0. -1.
        -11    1    3    3    0    0  0.52144838475E+01 -0.29745015357E+01 -0.17494462144E+02  0.18495802420E+02  0.51100000000E-03 0.  1.
        -12    1    3    3    0    0  0.85236859102E+01  0.52543193258E+01 -0.66398412477E+01  0.12014515590E+02  0.00000000000E+00 0.  1.
</event>
<event>
 7    1  0.1542786E-009  0.4778727E+02  0.7816164E-02  0.1312668E+00
        -11   -1    0    0    0    0  0.00000000000E+00  0.00000000000E+00  0.45593999997E+02  0.45594000000E+02  0.51100000000E-03 0. -1.
         11   -1    0    0    0    0 -0.00000000000E+00 -0.00000000000E+00 -0.45593999997E+02  0.45594000000E+02  0.51100000000E-03 0.  1.
    9900012    2    1    2    0    0  0.36249010289E+02 -0.23435558470E+02  0.45174160746E+01  0.47787271945E+02  0.20000004106E+02 0.  0.
        -12    1    1    2    0    0 -0.36249010289E+02  0.23435558470E+02 -0.45174160746E+01  0.43400728055E+02  0.00000000000E+00 0.  1.
         11    1    3    3    0    0  0.24904309725E+02 -0.18534873955E+02  0.10355469645E+02  0.32726166094E+02  0.51100000000E-03 0. -1.
        -11    1    3    3    0    0  0.33238938867E+01 -0.37816394721E+01 -0.46915875499E+01  0.68818646940E+01  0.51100000000E-03 0.  1.
         12    1    3    3    0    0  0.80208066776E+01 -0.11190450428E+01 -0.11464660203E+01  0.81792411569E+01  0.00000000000E+00 0. -1.
</event>
<event>
 7    1  0.1542786E-009  0.4778726E+02  0.7816164E-02  0.1312668E+00
        -11   -1    0    0    0    0  0.00000000000E+00  0.00000000000E+00  0.45593999997E+02  0.45594000000E+02  0.51100000000E-03 0.  1.
         11   -1    0    0    0    0 -0.00000000000E+00 -0.00000000000E+00 -0.45593999997E+02  0.45594000000E+02  0.51100000000E-03 0. -1.
    9900012    2    1    2    0    0 -0.82303071099E+01  0.11781556192E+02 -0.40952181956E+02  0.47787260048E+02  0.19999949863E+02 0.  0.
        -12    1    1    2    0    0  0.82303071099E+01 -0.11781556192E+02  0.40952181956E+02  0.43400739952E+02  0.00000000000E+00 0.  1.
         11    1    3    3    0    0  0.18082308128E+00  0.65101747227E+01 -0.80816793900E+01  0.10379239564E+02  0.51100000000E-03 0. -1.
        -11    1    3    3    0    0 -0.11605995244E+02  0.32481918201E+01 -0.30849826064E+02  0.33120411292E+02  0.51100000000E-03 0.  1.
         12    1    3    3    0    0  0.31948650525E+01  0.20231896488E+01 -0.20206765021E+01  0.42876091922E+01  0.00000000000E+00 0. -1.
</event>
<event>
 7    1  0.1542786E-009  0.4778727E+02  0.7816164E-02  0.1312668E+00
        -11   -1    0    0    0    0  0.00000000000E+00  0.00000000000E+00  0.45593999997E+02  0.45594000000E+02  0.51100000000E-03 0. -1.
         11   -1    0    0    0    0 -0.00000000000E+00 -0.00000000000E+00 -0.45593999997E+02  0.45594000000E+02  0.51100000000E-03 0.  1.
    9900012    2    1    2    0    0  0.32916075850E+02  0.20082738775E+02  0.19920822418E+02  0.47787267151E+02  0.19999982246E+02 0.  0.
        -12    1    1    2    0    0 -0.32916075850E+02 -0.20082738775E+02 -0.19920822418E+02  0.43400732849E+02  0.00000000000E+00 0.  1.
         11    1    3    3    0    0  0.16670213413E+02  0.59151137241E+01  0.18645197934E+01  0.17786540415E+02  0.51100000000E-03 0. -1.
        -11    1    3    3    0    0  0.16782825611E+02  0.96590178079E+01  0.13808868906E+02  0.23783286594E+02  0.51100000000E-03 0.  1.
        -12    1    3    3    0    0 -0.53696317404E+00  0.45086072432E+01  0.42474337184E+01  0.62174401417E+01  0.00000000000E+00 0.  1.
</event>
<event>
 7    1  0.1542786E-009  0.4778727E+02  0.7816164E-02  0.1312668E+00
        -11   -1    0    0    0    0  0.00000000000E+00  0.00000000000E+00  0.45593999997E+02  0.45594000000E+02  0.51100000000E-03 0. -1.
         11   -1    0    0    0    0 -0.00000000000E+00 -0.00000000000E+00 -0.45593999997E+02  0.45594000000E+02  0.51100000000E-03 0.  1.
    9900012    2    1    2    0    0 -0.37230011720E+02  0.19914909947E+02  0.10047182464E+02  0.47787270901E+02  0.19999999346E+02 0.  0.
        -12    1    1    2    0    0  0.37230011720E+02 -0.19914909947E+02 -0.10047182464E+02  0.43400729099E+02  0.00000000000E+00 0.  1.
         11    1    3    3    0    0 -0.17011049718E+02  0.11017674952E+02  0.29571227949E+01  0.20481932266E+02  0.51100000000E-03 0. -1.
        -11    1    3    3    0    0  0.19600500553E+00  0.19938348848E+00 -0.29399695451E+01  0.29532343160E+01  0.51100000000E-03 0.  1.
        -12    1    3    3    0    0 -0.20414967008E+02  0.86978515057E+01  0.10030029214E+02  0.24352104319E+02  0.00000000000E+00 0.  1.
</event>
<event>
 7    1  0.1542786E-009  0.4778727E+02  0.7816164E-02  0.1312668E+00
        -11   -1    0    0    0    0  0.00000000000E+00  0.00000000000E+00  0.45593999997E+02  0.45594000000E+02  0.51100000000E-03 0.  1.
         11   -1    0    0    0    0 -0.00000000000E+00 -0.00000000000E+00 -0.45593999997E+02  0.45594000000E+02  0.51100000000E-03 0. -1.
    9900012    2    1    2    0    0 -0.40762705434E+00  0.37802722296E+02 -0.21316925088E+02  0.47787271112E+02  0.20000000307E+02 0.  0.
        -12    1    1    2    0    0  0.40762705434E+00 -0.37802722296E+02  0.21316925088E+02  0.43400728888E+02  0.00000000000E+00 0.  1.
         11    1    3    3    0    0  0.17020294582E+01  0.21118047615E+02 -0.12865624681E+02  0.24786954997E+02  0.51100000000E-03 0. -1.
        -11    1    3    3    0    0  0.48073412427E+01  0.11821892631E+02 -0.65038463435E+01  0.14323675950E+02  0.51100000000E-03 0.  1.
        -12    1    3    3    0    0 -0.69169977552E+01  0.48627820506E+01 -0.19474540640E+01  0.86766401647E+01  0.00000000000E+00 0.  1.
</event>
<event>
 7    1  0.1542786E-009  0.4778727E+02  0.7816164E-02  0.1312668E+00
        -11   -1    0    0    0    0  0.00000000000E+00  0.00000000000E+00  0.45593999997E+02  0.45594000000E+02  0.51100000000E-03 0.  1.
         11   -1    0    0    0    0 -0.00000000000E+00 -0.00000000000E+00 -0.45593999997E+02  0.45594000000E+02  0.51100000000E-03 0. -1.
    9900012    2    1    2    0    0  0.39456570943E+01  0.38749364928E+02 -0.19145288604E+02  0.47787267656E+02  0.19999984552E+02 0.  0.
        -12    1    1    2    0    0 -0.39456570943E+01 -0.38749364928E+02  0.19145288604E+02  0.43400732344E+02  0.00000000000E+00 0.  1.
         11    1    3    3    0    0  0.24378794880E+01  0.12728927266E+02 -0.24105162392E+01  0.13182542795E+02  0.51100000000E-03 0. -1.
        -11    1    3    3    0    0  0.92341834788E-01 -0.18410108721E+01 -0.29719380706E+01  0.34971794638E+01  0.51100000000E-03 0.  1.
        -12    1    3    3    0    0  0.14154357715E+01  0.27861448534E+02 -0.13762834295E+02  0.31107545397E+02  0.00000000000E+00 0.  1.
</event>
<event>
 7    1  0.1542786E-009  0.4778727E+02  0.7816164E-02  0.1312668E+00
        -11   -1    0    0    0    0  0.00000000000E+00  0.00000000000E+00  0.45593999997E+02  0.45594000000E+02  0.51100000000E-03 0.  1.
         11   -1    0    0    0    0 -0.00000000000E+00 -0.00000000000E+00 -0.45593999997E+02  0.45594000000E+02  0.51100000000E-03 0. -1.
    9900012    2    1    2    0    0 -0.17851078230E+02 -0.31038013893E+02 -0.24527617256E+02  0.47787270644E+02  0.19999998173E+02 0.  0.
        -12    1    1    2    0    0  0.17851078230E+02  0.31038013893E+02  0.24527617256E+02  0.43400729356E+02  0.00000000000E+00 0.  1.
         11    1    3    3    0    0 -0.11484061247E+02 -0.11777835425E+02 -0.17348369437E+02  0.23907467294E+02  0.51100000000E-03 0. -1.
        -11    1    3    3    0    0 -0.87883462610E+00  0.50815146980E+00  0.13265708996E+01  0.16704367181E+01  0.51100000000E-03 0.  1.
         12    1    3    3    0    0 -0.54881823564E+01 -0.19768329938E+02 -0.85058187189E+01  0.22209366632E+02  0.00000000000E+00 0. -1.
</event>
<event>
 7    1  0.1542786E-009  0.4778726E+02  0.7816164E-02  0.1312668E+00
        -11   -1    0    0    0    0  0.00000000000E+00  0.00000000000E+00  0.45593999997E+02  0.45594000000E+02  0.51100000000E-03 0. -1.
         11   -1    0    0    0    0 -0.00000000000E+00 -0.00000000000E+00 -0.45593999997E+02  0.45594000000E+02  0.51100000000E-03 0.  1.
    9900012    2    1    2    0    0  0.79223137341E+01  0.14722900004E+02  0.40051182371E+02  0.47787262118E+02  0.19999959301E+02 0.  0.
        -12    1    1    2    0    0 -0.79223137341E+01 -0.14722900004E+02 -0.40051182371E+02  0.43400737882E+02  0.00000000000E+00 0.  1.
         11    1    3    3    0    0  0.34486209122E+01  0.99672736393E+01  0.29237373405E+02  0.31081562604E+02  0.51100000000E-03 0. -1.
        -11    1    3    3    0    0 -0.36610957615E+01  0.11736098703E+01  0.32058823066E+01  0.50058629554E+01  0.51100000000E-03 0.  1.
         12    1    3    3    0    0  0.81347885835E+01  0.35820164939E+01  0.76079266588E+01  0.11699836559E+02  0.00000000000E+00 0. -1.
</event>
<event>
 7    1  0.1542786E-009  0.4778726E+02  0.7816164E-02  0.1312668E+00
        -11   -1    0    0    0    0  0.00000000000E+00  0.00000000000E+00  0.45593999997E+02  0.45594000000E+02  0.51100000000E-03 0. -1.
         11   -1    0    0    0    0 -0.00000000000E+00 -0.00000000000E+00 -0.45593999997E+02  0.45594000000E+02  0.51100000000E-03 0.  1.
    9900012    2    1    2    0    0 -0.36444048986E+02 -0.86213514075E+01  0.21934621295E+02  0.47787262472E+02  0.19999960916E+02 0.  0.
        -12    1    1    2    0    0  0.36444048986E+02  0.86213514075E+01 -0.21934621295E+02  0.43400737528E+02  0.00000000000E+00 0.  1.
         11    1    3    3    0    0 -0.27167626907E+02 -0.75748262349E+00  0.14701077328E+02  0.30899440231E+02  0.51100000000E-03 0. -1.
        -11    1    3    3    0    0 -0.88370876875E+01 -0.57041791987E+01  0.13492672464E+01  0.10604352950E+02  0.51100000000E-03 0.  1.
        -12    1    3    3    0    0 -0.43933439132E+00 -0.21596895853E+01  0.58842767203E+01  0.62834692912E+01  0.00000000000E+00 0.  1.
</event>
<event>
 7    1  0.1542786E-009  0.4778728E+02  0.7816164E-02  0.1312668E+00
        -11   -1    0    0    0    0  0.00000000000E+00  0.00000000000E+00  0.45593999997E+02  0.45594000000E+02  0.51100000000E-03 0. -1.
         11   -1    0    0    0    0 -0.00000000000E+00 -0.00000000000E+00 -0.45593999997E+02  0.45594000000E+02  0.51100000000E-03 0.  1.
    9900012    2    1    2    0    0 -0.30924215888E+02 -0.17191811583E+02  0.25134781150E+02  0.47787277227E+02  0.20000028187E+02 0.  0.
        -12    1    1    2    0    0  0.30924215888E+02  0.17191811583E+02 -0.25134781150E+02  0.43400722773E+02  0.00000000000E+00 0.  1.
         11    1    3    3    0    0 -0.14771465829E+02 -0.44297721928E+01  0.63426855298E+01  0.16674793684E+02  0.51100000000E-03 0. -1.
        -11    1    3    3    0    0 -0.70939848198E+01 -0.12420079529E+02  0.61818564412E+01  0.15581987853E+02  0.51100000000E-03 0.  1.
         12    1    3    3    0    0 -0.90587652396E+01 -0.34195986071E+00  0.12610239179E+02  0.15530495689E+02  0.00000000000E+00 0. -1.
</event>
<event>
 7    1  0.1542786E-009  0.4778727E+02  0.7816164E-02  0.1312668E+00
        -11   -1    0    0    0    0  0.00000000000E+00  0.00000000000E+00  0.45593999997E+02  0.45594000000E+02  0.51100000000E-03 0. -1.
         11   -1    0    0    0    0 -0.00000000000E+00 -0.00000000000E+00 -0.45593999997E+02  0.45594000000E+02  0.51100000000E-03 0.  1.
    9900012    2    1    2    0    0  0.12770063272E+02 -0.10737063805E+02  0.40065751704E+02  0.47787268269E+02  0.19999987347E+02 0.  0.
        -12    1    1    2    0    0 -0.12770063272E+02  0.10737063805E+02 -0.40065751704E+02  0.43400731731E+02  0.00000000000E+00 0.  1.
         11    1    3    3    0    0  0.87566743653E+01 -0.54089406073E+01  0.63330947397E+01  0.12084869618E+02  0.51100000000E-03 0. -1.
        -11    1    3    3    0    0  0.17254740168E+01 -0.77664461263E+01  0.19063728672E+02  0.20657219008E+02  0.51100000000E-03 0.  1.
        -12    1    3    3    0    0  0.22879148903E+01  0.24383229289E+01  0.14668928292E+02  0.15045179643E+02  0.00000000000E+00 0.  1.
</event>
<event>
 7    1  0.1542786E-009  0.4778727E+02  0.7816164E-02  0.1312668E+00
        -11   -1    0    0    0    0  0.00000000000E+00  0.00000000000E+00  0.45593999997E+02  0.45594000000E+02  0.51100000000E-03 0.  1.
         11   -1    0    0    0    0 -0.00000000000E+00 -0.00000000000E+00 -0.45593999997E+02  0.45594000000E+02  0.51100000000E-03 0. -1.
    9900012    2    1    2    0    0 -0.32464574832E+02  0.28770502335E+02 -0.13902309899E+01  0.47787272289E+02  0.20000005676E+02 0.  0.
        -12    1    1    2    0    0  0.32464574832E+02 -0.28770502335E+02  0.13902309899E+01  0.43400727711E+02  0.00000000000E+00 0.  1.
         11    1    3    3    0    0 -0.92722822022E+01  0.98342236761E+01  0.34434951167E+00  0.13520567643E+02  0.51100000000E-03 0. -1.
        -11    1    3    3    0    0  0.93976093502E+00 -0.20380036490E+01 -0.26582667319E+00  0.22599277797E+01  0.51100000000E-03 0.  1.
        -12    1    3    3    0    0 -0.24132053565E+02  0.20974282308E+02 -0.14687538284E+01  0.32006776866E+02  0.00000000000E+00 0.  1.
</event>
<event>
 7    1  0.1542786E-009  0.4778727E+02  0.7816164E-02  0.1312668E+00
        -11   -1    0    0    0    0  0.00000000000E+00  0.00000000000E+00  0.45593999997E+02  0.45594000000E+02  0.51100000000E-03 0.  1.
         11   -1    0    0    0    0 -0.00000000000E+00 -0.00000000000E+00 -0.45593999997E+02  0.45594000000E+02  0.51100000000E-03 0. -1.
    9900012    2    1    2    0    0  0.27435688914E+01 -0.30734519725E+02 -0.30520247463E+02  0.47787269843E+02  0.19999994521E+02 0.  0.
        -12    1    1    2    0    0 -0.27435688914E+01  0.30734519725E+02  0.30520247463E+02  0.43400730157E+02  0.00000000000E+00 0.  1.
         11    1    3    3    0    0 -0.49935900187E+01 -0.10097140401E+02 -0.20058245888E+02  0.23004812843E+02  0.51100000000E-03 0. -1.
        -11    1    3    3    0    0  0.32733763980E+01 -0.41558600766E+01 -0.15029290397E+01  0.54995419789E+01  0.51100000000E-03 0.  1.
         12    1    3    3    0    0  0.44637825121E+01 -0.16481519247E+02 -0.89590725345E+01  0.19282915021E+02  0.00000000000E+00 0. -1.
</event>
<event>
 7    1  0.1542786E-009  0.4778727E+02  0.7816164E-02  0.1312668E+00
        -11   -1    0    0    0    0  0.00000000000E+00  0.00000000000E+00  0.45593999997E+02  0.45594000000E+02  0.51100000000E-03 0.  1.
         11   -1    0    0    0    0 -0.00000000000E+00 -0.00000000000E+00 -0.45593999997E+02  0.45594000000E+02  0.51100000000E-03 0. -1.
    9900012    2    1    2    0    0  0.12115692762E+02  0.10767111825E+02 -0.40260432087E+02  0.47787273047E+02  0.20000009133E+02 0.  0.
        -12    1    1    2    0    0 -0.12115692762E+02 -0.10767111825E+02  0.40260432087E+02  0.43400726953E+02  0.00000000000E+00 0.  1.
         11    1    3    3    0    0 -0.13864560913E+00  0.97463544135E+01 -0.82744958998E+01  0.12785848803E+02  0.51100000000E-03 0. -1.
        -11    1    3    3    0    0  0.13426313497E+01 -0.17829088790E+00 -0.13000443979E+02  0.13070806804E+02  0.51100000000E-03 0.  1.
        -12    1    3    3    0    0  0.10911707021E+02  0.11990482995E+01 -0.18985492208E+02  0.21930617440E+02  0.00000000000E+00 0.  1.
</event>
<event>
 7    1  0.1542786E-009  0.4778728E+02  0.7816164E-02  0.1312668E+00
        -11   -1    0    0    0    0  0.00000000000E+00  0.00000000000E+00  0.45593999997E+02  0.45594000000E+02  0.51100000000E-03 0.  1.
         11   -1    0    0    0    0 -0.00000000000E+00 -0.00000000000E+00 -0.45593999997E+02  0.45594000000E+02  0.51100000000E-03 0. -1.
    9900012    2    1    2    0    0 -0.26432210230E+01  0.16363259525E+02 -0.40110844483E+02  0.47787277370E+02  0.20000028839E+02 0.  0.
        -12    1    1    2    0    0  0.26432210230E+01 -0.16363259525E+02  0.40110844483E+02  0.43400722630E+02  0.00000000000E+00 0.  1.
         11    1    3    3    0    0 -0.61377690993E+00  0.15020253988E+02 -0.13344062355E+02  0.20100963965E+02  0.51100000000E-03 0.  1.
        -11    1    3    3    0    0 -0.20511043917E+01  0.39557139166E+01 -0.17478727641E+02  0.18037755460E+02  0.51100000000E-03 0. -1.
        -12    1    3    3    0    0  0.21660278621E-01 -0.26127083792E+01 -0.92880544875E+01  0.96485579444E+01  0.00000000000E+00 0.  1.
</event>
<event>
 7    1  0.1542786E-009  0.4778728E+02  0.7816164E-02  0.1312668E+00
        -11   -1    0    0    0    0  0.00000000000E+00  0.00000000000E+00  0.45593999997E+02  0.45594000000E+02  0.51100000000E-03 0.  1.
         11   -1    0    0    0    0 -0.00000000000E+00 -0.00000000000E+00 -0.45593999997E+02  0.45594000000E+02  0.51100000000E-03 0. -1.
    9900012    2    1    2    0    0  0.16121515577E+02 -0.12908456688E+02 -0.38171864360E+02  0.47787277111E+02  0.20000027658E+02 0.  0.
        -12    1    1    2    0    0 -0.16121515577E+02  0.12908456688E+02  0.38171864360E+02  0.43400722889E+02  0.00000000000E+00 0.  1.
         11    1    3    3    0    0  0.15299659584E+02 -0.12041318669E+01 -0.25043252666E+02  0.29371653364E+02  0.51100000000E-03 0. -1.
        -11    1    3    3    0    0  0.78860874811E-01 -0.51788319353E+01 -0.21195077976E+01  0.55963231515E+01  0.51100000000E-03 0.  1.
         12    1    3    3    0    0  0.74299511817E+00 -0.65254928860E+01 -0.11009103897E+02  0.12819300596E+02  0.00000000000E+00 0. -1.
</event>
<event>
 7    1  0.1542786E-009  0.4778728E+02  0.7816164E-02  0.1312668E+00
        -11   -1    0    0    0    0  0.00000000000E+00  0.00000000000E+00  0.45593999997E+02  0.45594000000E+02  0.51100000000E-03 0. -1.
         11   -1    0    0    0    0 -0.00000000000E+00 -0.00000000000E+00 -0.45593999997E+02  0.45594000000E+02  0.51100000000E-03 0.  1.
    9900012    2    1    2    0    0 -0.20923682296E+02  0.23928754602E+02 -0.29550586277E+02  0.47787275041E+02  0.20000018223E+02 0.  0.
        -12    1    1    2    0    0  0.20923682296E+02 -0.23928754602E+02  0.29550586277E+02  0.43400724959E+02  0.00000000000E+00 0.  1.
         11    1    3    3    0    0 -0.11147233801E+02  0.37952510724E+01 -0.16271003042E+02  0.20085076359E+02  0.51100000000E-03 0. -1.
        -11    1    3    3    0    0 -0.34083145392E+01  0.10914157582E+02 -0.11747133954E+02  0.16393004609E+02  0.51100000000E-03 0.  1.
         12    1    3    3    0    0 -0.63681339561E+01  0.92193459476E+01 -0.15324492816E+01  0.11309194073E+02  0.00000000000E+00 0. -1.
</event>
<event>
 7    1 -0.1542786E-009  0.4778728E+02  0.7816164E-02  0.1312668E+00
        -11   -1    0    0    0    0  0.00000000000E+00  0.00000000000E+00  0.45593999997E+02  0.45594000000E+02  0.51100000000E-03 0.  1.
         11   -1    0    0    0    0 -0.00000000000E+00 -0.00000000000E+00 -0.45593999997E+02  0.45594000000E+02  0.51100000000E-03 0. -1.
    9900012    2    1    2    0    0 -0.57950903658E+01  0.23395486580E+02 -0.36092810974E+02  0.47787275712E+02  0.20000021282E+02 0.  0.
        -12    1    1    2    0    0  0.57950903658E+01 -0.23395486580E+02  0.36092810974E+02  0.43400724288E+02  0.00000000000E+00 0.  1.
         11    1    3    3    0    0 -0.19633605913E+01  0.35627570679E+01 -0.20138360798E+02  0.20545111307E+02  0.51100000000E-03 0. -1.
        -11    1    3    3    0    0  0.22059005732E+01  0.36654520040E+01 -0.96958135843E+00  0.43865275565E+01  0.51100000000E-03 0.  1.
         12    1    3    3    0    0 -0.60376303477E+01  0.16167277508E+02 -0.14984868818E+02  0.22855636848E+02  0.00000000000E+00 0. -1.
</event>
<event>
 7    1  0.1542786E-009  0.4778727E+02  0.7816164E-02  0.1312668E+00
        -11   -1    0    0    0    0  0.00000000000E+00  0.00000000000E+00  0.45593999997E+02  0.45594000000E+02  0.51100000000E-03 0.  1.
         11   -1    0    0    0    0 -0.00000000000E+00 -0.00000000000E+00 -0.45593999997E+02  0.45594000000E+02  0.51100000000E-03 0. -1.
    9900012    2    1    2    0    0 -0.12402942362E+02 -0.41520033189E+02  0.24242679823E+01  0.47787271774E+02  0.20000003327E+02 0.  0.
        -12    1    1    2    0    0  0.12402942362E+02  0.41520033189E+02 -0.24242679823E+01  0.43400728226E+02  0.00000000000E+00 0.  1.
         11    1    3    3    0    0  0.47556015269E+00  0.64445145320E+00 -0.29628606989E+01  0.30692049324E+01  0.51100000000E-03 0.  1.
        -11    1    3    3    0    0 -0.47759244666E+01 -0.23673041436E+02  0.40282015279E+01  0.24483642563E+02  0.51100000000E-03 0. -1.
        -12    1    3    3    0    0 -0.81025780480E+01 -0.18491443206E+02  0.13589271534E+01  0.20234424279E+02  0.00000000000E+00 0.  1.
</event>
<event>
 7    1  0.1542786E-009  0.4778727E+02  0.7816164E-02  0.1312668E+00
        -11   -1    0    0    0    0  0.00000000000E+00  0.00000000000E+00  0.45593999997E+02  0.45594000000E+02  0.51100000000E-03 0.  1.
         11   -1    0    0    0    0 -0.00000000000E+00 -0.00000000000E+00 -0.45593999997E+02  0.45594000000E+02  0.51100000000E-03 0. -1.
    9900012    2    1    2    0    0 -0.28850419009E+02 -0.11666448541E+02 -0.30251784410E+02  0.47787272373E+02  0.20000006059E+02 0.  0.
        -12    1    1    2    0    0  0.28850419009E+02  0.11666448541E+02  0.30251784410E+02  0.43400727627E+02  0.00000000000E+00 0.  1.
         11    1    3    3    0    0 -0.12224911058E+02  0.65599335352E+00 -0.88503016685E+01  0.15106509111E+02  0.51100000000E-03 0.  1.
        -11    1    3    3    0    0 -0.13859474075E+02 -0.27075943019E+01 -0.89953787602E+01  0.16743145698E+02  0.51100000000E-03 0. -1.
         12    1    3    3    0    0 -0.27660338754E+01 -0.96148475927E+01 -0.12406103981E+02  0.15937617564E+02  0.00000000000E+00 0. -1.
</event>
<event>
 7    1  0.1542786E-009  0.4778727E+02  0.7816164E-02  0.1312668E+00
        -11   -1    0    0    0    0  0.00000000000E+00  0.00000000000E+00  0.45593999997E+02  0.45594000000E+02  0.51100000000E-03 0. -1.
         11   -1    0    0    0    0 -0.00000000000E+00 -0.00000000000E+00 -0.45593999997E+02  0.45594000000E+02  0.51100000000E-03 0.  1.
    9900012    2    1    2    0    0 -0.39077534338E+02 -0.17099605987E+02 -0.80108387959E+01  0.47787265524E+02  0.19999974828E+02 0.  0.
        -12    1    1    2    0    0  0.39077534338E+02  0.17099605987E+02  0.80108387959E+01  0.43400734476E+02  0.00000000000E+00 0.  1.
         11    1    3    3    0    0 -0.50985122063E+01 -0.62951291284E+01  0.11986577473E+01  0.81890327950E+01  0.51100000000E-03 0.  1.
        -11    1    3    3    0    0 -0.45461390473E+01  0.28292119188E+01 -0.41375065455E+01  0.67668885756E+01  0.51100000000E-03 0. -1.
         12    1    3    3    0    0 -0.29432883085E+02 -0.13633688778E+02 -0.50719899978E+01  0.32831344153E+02  0.00000000000E+00 0. -1.
</event>
<event>
 7    1  0.1542786E-009  0.4778728E+02  0.7816164E-02  0.1312668E+00
        -11   -1    0    0    0    0  0.00000000000E+00  0.00000000000E+00  0.45593999997E+02  0.45594000000E+02  0.51100000000E-03 0.  1.
         11   -1    0    0    0    0 -0.00000000000E+00 -0.00000000000E+00 -0.45593999997E+02  0.45594000000E+02  0.51100000000E-03 0. -1.
    9900012    2    1    2    0    0  0.39045904877E+02  0.39783194618E+01 -0.18526006424E+02  0.47787278491E+02  0.20000033953E+02 0.  0.
        -12    1    1    2    0    0 -0.39045904877E+02 -0.39783194618E+01  0.18526006424E+02  0.43400721509E+02  0.00000000000E+00 0.  1.
         11    1    3    3    0    0  0.16534391015E+02 -0.13701982693E+00 -0.53489822532E+01  0.17378621121E+02  0.51100000000E-03 0.  1.
        -11    1    3    3    0    0  0.23575136679E+02  0.28322558780E+01 -0.14883231480E+02  0.28023549424E+02  0.51100000000E-03 0. -1.
        -12    1    3    3    0    0 -0.10636228161E+01  0.12830834108E+01  0.17062073088E+01  0.23851079461E+01  0.00000000000E+00 0.  1.
</event>
<event>
 7    1  0.1542786E-009  0.4778727E+02  0.7816164E-02  0.1312668E+00
        -11   -1    0    0    0    0  0.00000000000E+00  0.00000000000E+00  0.45593999997E+02  0.45594000000E+02  0.51100000000E-03 0.  1.
         11   -1    0    0    0    0 -0.00000000000E+00 -0.00000000000E+00 -0.45593999997E+02  0.45594000000E+02  0.51100000000E-03 0. -1.
    9900012    2    1    2    0    0 -0.20815856791E+01 -0.38421687171E+02 -0.20076455378E+02  0.47787272995E+02  0.20000008892E+02 0.  0.
        -12    1    1    2    0    0  0.20815856791E+01  0.38421687171E+02  0.20076455378E+02  0.43400727005E+02  0.00000000000E+00 0.  1.
         11    1    3    3    0    0 -0.15458471846E+01 -0.84054701851E+01 -0.13953085272E+02  0.16362461960E+02  0.51100000000E-03 0. -1.
        -11    1    3    3    0    0  0.11463357677E+00 -0.21254712106E+02 -0.74847269405E+01  0.22534353002E+02  0.51100000000E-03 0.  1.
        -12    1    3    3    0    0 -0.65037207125E+00 -0.87615048804E+01  0.13613568340E+01  0.88904580326E+01  0.00000000000E+00 0.  1.
</event>
<event>
 7    1  0.1542786E-009  0.4778727E+02  0.7816164E-02  0.1312668E+00
        -11   -1    0    0    0    0  0.00000000000E+00  0.00000000000E+00  0.45593999997E+02  0.45594000000E+02  0.51100000000E-03 0.  1.
         11   -1    0    0    0    0 -0.00000000000E+00 -0.00000000000E+00 -0.45593999997E+02  0.45594000000E+02  0.51100000000E-03 0. -1.
    9900012    2    1    2    0    0  0.24097200845E+02  0.14381364426E+02 -0.33107771197E+02  0.47787271377E+02  0.20000001518E+02 0.  0.
        -12    1    1    2    0    0 -0.24097200845E+02 -0.14381364426E+02  0.33107771197E+02  0.43400728623E+02  0.00000000000E+00 0.  1.
         11    1    3    3    0    0  0.28191650044E+01 -0.33897371184E+01 -0.19900269048E+01  0.48371702882E+01  0.51100000000E-03 0. -1.
        -11    1    3    3    0    0  0.69438728920E+01  0.11342507334E+02 -0.10047615943E+02  0.16668066168E+02  0.51100000000E-03 0.  1.
        -12    1    3    3    0    0  0.14334162949E+02  0.64285942102E+01 -0.21070128349E+02  0.26282034922E+02  0.00000000000E+00 0.  1.
</event>
<event>
 7    1  0.1542786E-009  0.4778727E+02  0.7816164E-02  0.1312668E+00
        -11   -1    0    0    0    0  0.00000000000E+00  0.00000000000E+00  0.45593999997E+02  0.45594000000E+02  0.51100000000E-03 0. -1.
         11   -1    0    0    0    0 -0.00000000000E+00 -0.00000000000E+00 -0.45593999997E+02  0.45594000000E+02  0.51100000000E-03 0.  1.
    9900012    2    1    2    0    0  0.59671065562E+01  0.41338777886E+02  0.11795009854E+02  0.47787272181E+02  0.20000005181E+02 0.  0.
        -12    1    1    2    0    0 -0.59671065562E+01 -0.41338777886E+02 -0.11795009854E+02  0.43400727819E+02  0.00000000000E+00 0.  1.
         11    1    3    3    0    0 -0.43015751010E+00  0.10079175028E+02  0.54332333693E+01  0.11458395605E+02  0.51100000000E-03 0. -1.
        -11    1    3    3    0    0  0.53492813218E+01  0.16663597469E+02 -0.45405001392E+01  0.18080554003E+02  0.51100000000E-03 0.  1.
        -12    1    3    3    0    0  0.10479827445E+01  0.14596005389E+02  0.10902276624E+02  0.18248322573E+02  0.00000000000E+00 0.  1.
</event>
<event>
 7    1  0.1542786E-009  0.4778727E+02  0.7816164E-02  0.1312668E+00
        -11   -1    0    0    0    0  0.00000000000E+00  0.00000000000E+00  0.45593999997E+02  0.45594000000E+02  0.51100000000E-03 0. -1.
         11   -1    0    0    0    0 -0.00000000000E+00 -0.00000000000E+00 -0.45593999997E+02  0.45594000000E+02  0.51100000000E-03 0.  1.
    9900012    2    1    2    0    0 -0.41208738304E+02  0.52910853510E+00 -0.13608205446E+02  0.47787270468E+02  0.19999997372E+02 0.  0.
        -12    1    1    2    0    0  0.41208738304E+02 -0.52910853510E+00  0.13608205446E+02  0.43400729532E+02  0.00000000000E+00 0.  1.
         11    1    3    3    0    0 -0.25511408424E+02 -0.14134788337E+00 -0.63709466131E+01  0.26295263832E+02  0.51100000000E-03 0. -1.
        -11    1    3    3    0    0 -0.63495407596E+01 -0.58918343478E+01 -0.44379385146E+01  0.97327117680E+01  0.51100000000E-03 0.  1.
        -12    1    3    3    0    0 -0.93477891206E+01  0.65622907663E+01 -0.27993203180E+01  0.11759294868E+02  0.00000000000E+00 0.  1.
</event>
<event>
 7    1  0.1542786E-009  0.4778727E+02  0.7816164E-02  0.1312668E+00
        -11   -1    0    0    0    0  0.00000000000E+00  0.00000000000E+00  0.45593999997E+02  0.45594000000E+02  0.51100000000E-03 0. -1.
         11   -1    0    0    0    0 -0.00000000000E+00 -0.00000000000E+00 -0.45593999997E+02  0.45594000000E+02  0.51100000000E-03 0.  1.
    9900012    2    1    2    0    0  0.24497476049E+01  0.37647571196E+02  0.21454198616E+02  0.47787268225E+02  0.19999987147E+02 0.  0.
        -12    1    1    2    0    0 -0.24497476049E+01 -0.37647571196E+02 -0.21454198616E+02  0.43400731775E+02  0.00000000000E+00 0.  1.
         11    1    3    3    0    0  0.43867083135E+01  0.86445600776E+01  0.36927117096E+01  0.10373415483E+02  0.51100000000E-03 0. -1.
        -11    1    3    3    0    0  0.36336135709E+01  0.22427858078E+02  0.17691604277E+02  0.28795916858E+02  0.51100000000E-03 0.  1.
        -12    1    3    3    0    0 -0.55705742795E+01  0.65751530408E+01  0.69882629558E-01  0.86179358837E+01  0.00000000000E+00 0.  1.
</event>
<event>
 7    1  0.1542786E-009  0.4778727E+02  0.7816164E-02  0.1312668E+00
        -11   -1    0    0    0    0  0.00000000000E+00  0.00000000000E+00  0.45593999997E+02  0.45594000000E+02  0.51100000000E-03 0.  1.
         11   -1    0    0    0    0 -0.00000000000E+00 -0.00000000000E+00 -0.45593999997E+02  0.45594000000E+02  0.51100000000E-03 0. -1.
    9900012    2    1    2    0    0  0.35361168700E+01  0.43164978908E+02  0.28113419375E+01  0.47787272240E+02  0.20000005451E+02 0.  0.
        -12    1    1    2    0    0 -0.35361168700E+01 -0.43164978908E+02 -0.28113419375E+01  0.43400727760E+02  0.00000000000E+00 0.  1.
         11    1    3    3    0    0 -0.28990162347E+01  0.19010053409E+02  0.32623560416E+01  0.19504599276E+02  0.51100000000E-03 0.  1.
        -11    1    3    3    0    0  0.82922954053E+01  0.22842578656E+02  0.26412533762E+01  0.24444258679E+02  0.51100000000E-03 0. -1.
         12    1    3    3    0    0 -0.18571623007E+01  0.13123468432E+01 -0.30922674802E+01  0.38384142842E+01  0.00000000000E+00 0. -1.
</event>
<event>
 7    1  0.1542786E-009  0.4778728E+02  0.7816164E-02  0.1312668E+00
        -11   -1    0    0    0    0  0.00000000000E+00  0.00000000000E+00  0.45593999997E+02  0.45594000000E+02  0.51100000000E-03 0.  1.
         11   -1    0    0    0    0 -0.00000000000E+00 -0.00000000000E+00 -0.45593999997E+02  0.45594000000E+02  0.51100000000E-03 0. -1.
    9900012    2    1    2    0    0  0.25035343626E+02  0.10087493340E+02  0.33986715431E+02  0.47787276756E+02  0.20000026040E+02 0.  0.
        -12    1    1    2    0    0 -0.25035343626E+02 -0.10087493340E+02 -0.33986715431E+02  0.43400723244E+02  0.00000000000E+00 0.  1.
         11    1    3    3    0    0 -0.21069291951E+01  0.48497960788E+01  0.47659169538E+01  0.71185417966E+01  0.51100000000E-03 0. -1.
        -11    1    3    3    0    0  0.11726881830E+02  0.22198404620E+01  0.16977536071E+02  0.20752931852E+02  0.51100000000E-03 0.  1.
        -12    1    3    3    0    0  0.15415390991E+02  0.30178567992E+01  0.12243262406E+02  0.19915803107E+02  0.00000000000E+00 0.  1.
</event>
<event>
 7    1  0.1542786E-009  0.4778727E+02  0.7816164E-02  0.1312668E+00
        -11   -1    0    0    0    0  0.00000000000E+00  0.00000000000E+00  0.45593999997E+02  0.45594000000E+02  0.51100000000E-03 0. -1.
         11   -1    0    0    0    0 -0.00000000000E+00 -0.00000000000E+00 -0.45593999997E+02  0.45594000000E+02  0.51100000000E-03 0.  1.
    9900012    2    1    2    0    0 -0.11651420332E+02  0.30320643298E+01  0.41697410365E+02  0.47787273728E+02  0.20000012234E+02 0.  0.
        -12    1    1    2    0    0  0.11651420332E+02 -0.30320643298E+01 -0.41697410365E+02  0.43400726272E+02  0.00000000000E+00 0.  1.
         11    1    3    3    0    0 -0.20953052089E+01  0.50974349334E+01  0.33809317676E+02  0.34255570478E+02  0.51100000000E-03 0. -1.
        -11    1    3    3    0    0 -0.60882478747E+01 -0.12320516962E+01  0.77905257328E+01  0.99637846735E+01  0.51100000000E-03 0.  1.
         12    1    3    3    0    0 -0.34678672484E+01 -0.83331890733E+00  0.97566955942E-01  0.35679185760E+01  0.00000000000E+00 0. -1.
</event>
<event>
 7    1  0.1542786E-009  0.4778727E+02  0.7816164E-02  0.1312668E+00
        -11   -1    0    0    0    0  0.00000000000E+00  0.00000000000E+00  0.45593999997E+02  0.45594000000E+02  0.51100000000E-03 0. -1.
         11   -1    0    0    0    0 -0.00000000000E+00 -0.00000000000E+00 -0.45593999997E+02  0.45594000000E+02  0.51100000000E-03 0.  1.
    9900012    2    1    2    0    0  0.10831299379E+02  0.30919367227E+02  0.28465756634E+02  0.47787267094E+02  0.19999981991E+02 0.  0.
        -12    1    1    2    0    0 -0.10831299379E+02 -0.30919367227E+02 -0.28465756634E+02  0.43400732906E+02  0.00000000000E+00 0.  1.
         11    1    3    3    0    0  0.90785789692E+01  0.16893099213E+02  0.13612907757E+02  0.23518262159E+02  0.51100000000E-03 0. -1.
        -11    1    3    3    0    0 -0.14392070838E+01  0.11340661273E+02  0.16251438894E+02  0.19869352821E+02  0.51100000000E-03 0.  1.
        -12    1    3    3    0    0  0.31919274934E+01  0.26856067416E+01 -0.13985900168E+01  0.43996521145E+01  0.00000000000E+00 0.  1.
</event>
<event>
 7    1  0.1542786E-009  0.4778723E+02  0.7816164E-02  0.1312668E+00
        -11   -1    0    0    0    0  0.00000000000E+00  0.00000000000E+00  0.45593999997E+02  0.45594000000E+02  0.51100000000E-03 0.  1.
         11   -1    0    0    0    0 -0.00000000000E+00 -0.00000000000E+00 -0.45593999997E+02  0.45594000000E+02  0.51100000000E-03 0. -1.
    9900012    2    1    2    0    0 -0.36910462430E+02  0.22821305077E+02 -0.65773696544E+00  0.47787230190E+02  0.19999813725E+02 0.  0.
        -12    1    1    2    0    0  0.36910462430E+02 -0.22821305077E+02  0.65773696544E+00  0.43400769810E+02  0.00000000000E+00 0.  1.
         11    1    3    3    0    0 -0.20664601067E+02  0.13275114538E+02 -0.18708862738E+01  0.24632389632E+02  0.51100000000E-03 0. -1.
        -11    1    3    3    0    0 -0.41180528378E+01  0.10070377246E+02  0.16692402447E+01  0.11007144057E+02  0.51100000000E-03 0.  1.
        -12    1    3    3    0    0 -0.12127808525E+02 -0.52418670623E+00 -0.45609093630E+00  0.12147696500E+02  0.00000000000E+00 0.  1.
</event>
<event>
 7    1  0.1542786E-009  0.4778727E+02  0.7816164E-02  0.1312668E+00
        -11   -1    0    0    0    0  0.00000000000E+00  0.00000000000E+00  0.45593999997E+02  0.45594000000E+02  0.51100000000E-03 0. -1.
         11   -1    0    0    0    0 -0.00000000000E+00 -0.00000000000E+00 -0.45593999997E+02  0.45594000000E+02  0.51100000000E-03 0.  1.
    9900012    2    1    2    0    0  0.42725766168E+02  0.38467148715E+01  0.65829322449E+01  0.47787270665E+02  0.19999998268E+02 0.  0.
        -12    1    1    2    0    0 -0.42725766168E+02 -0.38467148715E+01 -0.65829322449E+01  0.43400729335E+02  0.00000000000E+00 0.  1.
         11    1    3    3    0    0  0.37778658104E+02  0.10649476253E+01  0.20805450398E+01  0.37850888887E+02  0.51100000000E-03 0. -1.
        -11    1    3    3    0    0 -0.70890562237E+00  0.42165594728E+00 -0.12719330682E+01  0.15159666587E+01  0.51100000000E-03 0.  1.
         12    1    3    3    0    0  0.56560136859E+01  0.23601112989E+01  0.57743202734E+01  0.84204151191E+01  0.00000000000E+00 0. -1.
</event>
<event>
 7    1  0.1542786E-009  0.4778727E+02  0.7816164E-02  0.1312668E+00
        -11   -1    0    0    0    0  0.00000000000E+00  0.00000000000E+00  0.45593999997E+02  0.45594000000E+02  0.51100000000E-03 0.  1.
         11   -1    0    0    0    0 -0.00000000000E+00 -0.00000000000E+00 -0.45593999997E+02  0.45594000000E+02  0.51100000000E-03 0. -1.
    9900012    2    1    2    0    0 -0.25470248160E+02  0.42586419827E-01 -0.35140976181E+02  0.47787267726E+02  0.19999984872E+02 0.  0.
        -12    1    1    2    0    0  0.25470248160E+02 -0.42586419827E-01  0.35140976181E+02  0.43400732274E+02  0.00000000000E+00 0.  1.
         11    1    3    3    0    0 -0.37962211703E+01  0.60573639557E+01 -0.77494007919E+01  0.10543062466E+02  0.51100000000E-03 0. -1.
        -11    1    3    3    0    0 -0.10264682008E+02 -0.40957937584E+01 -0.51915648577E+01  0.12210305859E+02  0.51100000000E-03 0.  1.
         12    1    3    3    0    0 -0.11409344982E+02 -0.19189837775E+01 -0.22200010532E+02  0.25033899402E+02  0.00000000000E+00 0. -1.
</event>
<event>
 7    1  0.1542786E-009  0.4778727E+02  0.7816164E-02  0.1312668E+00
        -11   -1    0    0    0    0  0.00000000000E+00  0.00000000000E+00  0.45593999997E+02  0.45594000000E+02  0.51100000000E-03 0.  1.
         11   -1    0    0    0    0 -0.00000000000E+00 -0.00000000000E+00 -0.45593999997E+02  0.45594000000E+02  0.51100000000E-03 0. -1.
    9900012    2    1    2    0    0  0.46895363930E+01  0.43091819929E+02 -0.21739994675E+01  0.47787274545E+02  0.20000015960E+02 0.  0.
        -12    1    1    2    0    0 -0.46895363930E+01 -0.43091819929E+02  0.21739994675E+01  0.43400725455E+02  0.00000000000E+00 0.  1.
         11    1    3    3    0    0 -0.61378828652E+01  0.11386550196E+02 -0.32965628985E+01  0.13348949720E+02  0.51100000000E-03 0. -1.
        -11    1    3    3    0    0  0.76676567155E+01  0.23516621638E+02 -0.26662036238E+01  0.24878366000E+02  0.51100000000E-03 0.  1.
        -12    1    3    3    0    0  0.31597625428E+01  0.81886480942E+01  0.37887670548E+01  0.95599588248E+01  0.00000000000E+00 0.  1.
</event>
<event>
 7    1  0.1542786E-009  0.4778727E+02  0.7816164E-02  0.1312668E+00
        -11   -1    0    0    0    0  0.00000000000E+00  0.00000000000E+00  0.45593999997E+02  0.45594000000E+02  0.51100000000E-03 0. -1.
         11   -1    0    0    0    0 -0.00000000000E+00 -0.00000000000E+00 -0.45593999997E+02  0.45594000000E+02  0.51100000000E-03 0.  1.
    9900012    2    1    2    0    0  0.17090792705E+02 -0.29405364287E+02  0.26960205724E+02  0.47787270319E+02  0.19999996694E+02 0.  0.
        -12    1    1    2    0    0 -0.17090792705E+02  0.29405364287E+02 -0.26960205724E+02  0.43400729681E+02  0.00000000000E+00 0.  1.
         11    1    3    3    0    0  0.94076725325E+00 -0.12903230194E+02  0.70533520644E+01  0.14735269528E+02  0.51100000000E-03 0. -1.
        -11    1    3    3    0    0  0.96037097479E+01 -0.12523807070E+02  0.19891125877E+02  0.25391610295E+02  0.51100000000E-03 0.  1.
        -12    1    3    3    0    0  0.65463157035E+01 -0.39783270234E+01  0.15727782194E-01  0.76603904965E+01  0.00000000000E+00 0.  1.
</event>
<event>
 7    1  0.1542786E-009  0.4778727E+02  0.7816164E-02  0.1312668E+00
        -11   -1    0    0    0    0  0.00000000000E+00  0.00000000000E+00  0.45593999997E+02  0.45594000000E+02  0.51100000000E-03 0.  1.
         11   -1    0    0    0    0 -0.00000000000E+00 -0.00000000000E+00 -0.45593999997E+02  0.45594000000E+02  0.51100000000E-03 0. -1.
    9900012    2    1    2    0    0  0.20508372163E+01 -0.97893558203E+01 -0.42232521169E+02  0.47787271147E+02  0.20000000468E+02 0.  0.
        -12    1    1    2    0    0 -0.20508372163E+01  0.97893558203E+01  0.42232521169E+02  0.43400728853E+02  0.00000000000E+00 0.  1.
         11    1    3    3    0    0  0.48793018664E+01 -0.22844256806E+01 -0.70899287253E+01  0.89046772533E+01  0.51100000000E-03 0. -1.
        -11    1    3    3    0    0 -0.50479210393E+01 -0.11549830966E+00 -0.31016930633E+01  0.59258203482E+01  0.51100000000E-03 0.  1.
         12    1    3    3    0    0  0.22194563892E+01 -0.73894318301E+01 -0.32040899380E+02  0.32956773546E+02  0.00000000000E+00 0. -1.
</event>
<event>
 7    1  0.1542786E-009  0.4778727E+02  0.7816164E-02  0.1312668E+00
        -11   -1    0    0    0    0  0.00000000000E+00  0.00000000000E+00  0.45593999997E+02  0.45594000000E+02  0.51100000000E-03 0.  1.
         11   -1    0    0    0    0 -0.00000000000E+00 -0.00000000000E+00 -0.45593999997E+02  0.45594000000E+02  0.51100000000E-03 0. -1.
    9900012    2    1    2    0    0  0.35579206168E+02  0.21342603359E+01 -0.24762635616E+02  0.47787273031E+02  0.20000009059E+02 0.  0.
        -12    1    1    2    0    0 -0.35579206168E+02 -0.21342603359E+01  0.24762635616E+02  0.43400726969E+02  0.00000000000E+00 0.  1.
         11    1    3    3    0    0  0.90023596520E+01  0.28611943788E+00 -0.52580544163E+01  0.10429356650E+02  0.51100000000E-03 0. -1.
        -11    1    3    3    0    0  0.19447791266E+02  0.18876881030E+01 -0.35174802404E+01  0.19853277286E+02  0.51100000000E-03 0.  1.
         12    1    3    3    0    0  0.71290552505E+01 -0.39547204946E-01 -0.15987100960E+02  0.17504639095E+02  0.00000000000E+00 0. -1.
</event>
<event>
 7    1  0.1542786E-009  0.4778727E+02  0.7816164E-02  0.1312668E+00
        -11   -1    0    0    0    0  0.00000000000E+00  0.00000000000E+00  0.45593999997E+02  0.45594000000E+02  0.51100000000E-03 0.  1.
         11   -1    0    0    0    0 -0.00000000000E+00 -0.00000000000E+00 -0.45593999997E+02  0.45594000000E+02  0.51100000000E-03 0. -1.
    9900012    2    1    2    0    0 -0.40612447455E+02 -0.15023983461E+02 -0.29210054729E+01  0.47787271431E+02  0.20000001763E+02 0.  0.
        -12    1    1    2    0    0  0.40612447455E+02  0.15023983461E+02  0.29210054729E+01  0.43400728569E+02  0.00000000000E+00 0.  1.
         11    1    3    3    0    0 -0.10503729073E+02 -0.60217778810E+01 -0.56176438400E-01  0.12107571570E+02  0.51100000000E-03 0.  1.
        -11    1    3    3    0    0 -0.22832975944E+02 -0.55042408864E+01  0.54282171905E+01  0.24106161044E+02  0.51100000000E-03 0. -1.
         12    1    3    3    0    0 -0.72757424391E+01 -0.34979646939E+01 -0.82930462251E+01  0.11573538816E+02  0.00000000000E+00 0. -1.
</event>
<event>
 7    1  0.1542786E-009  0.4778725E+02  0.7816164E-02  0.1312668E+00
        -11   -1    0    0    0    0  0.00000000000E+00  0.00000000000E+00  0.45593999997E+02  0.45594000000E+02  0.51100000000E-03 0. -1.
         11   -1    0    0    0    0 -0.00000000000E+00 -0.00000000000E+00 -0.45593999997E+02  0.45594000000E+02  0.51100000000E-03 0.  1.
    9900012    2    1    2    0    0  0.22820301225E+02 -0.54034182118E+01  0.36519341303E+02  0.47787246947E+02  0.19999890128E+02 0.  0.
        -12    1    1    2    0    0 -0.22820301225E+02  0.54034182118E+01 -0.36519341303E+02  0.43400753053E+02  0.00000000000E+00 0.  1.
         11    1    3    3    0    0  0.78685184852E+00 -0.43631010631E+01  0.33479167241E+01  0.55555677811E+01  0.51100000000E-03 0. -1.
        -11    1    3    3    0    0  0.97460502194E+01  0.32574638146E+01  0.24561692667E+02  0.26624674877E+02  0.51100000000E-03 0.  1.
         12    1    3    3    0    0  0.12287399157E+02 -0.42977809633E+01  0.86097319122E+01  0.15607004288E+02  0.00000000000E+00 0. -1.
</event>
<event>
 7    1  0.1969291E-009  0.4778726E+02  0.7816164E-02  0.1312668E+00
        -11   -1    0    0    0    0  0.00000000000E+00  0.00000000000E+00  0.45593999997E+02  0.45594000000E+02  0.51100000000E-03 0.  1.
         11   -1    0    0    0    0 -0.00000000000E+00 -0.00000000000E+00 -0.45593999997E+02  0.45594000000E+02  0.51100000000E-03 0. -1.
    9900012    2    1    2    0    0  0.34749170869E+02 -0.23564841273E+02  0.10991719059E+02  0.47787256825E+02  0.19999935166E+02 0.  0.
        -12    1    1    2    0    0 -0.34749170869E+02  0.23564841273E+02 -0.10991719059E+02  0.43400743175E+02  0.00000000000E+00 0.  1.
         11    1    3    3    0    0  0.23817969809E+02 -0.18402002125E+02  0.10069933687E+02  0.31738508672E+02  0.51100000000E-03 0. -1.
        -11    1    3    3    0    0  0.11527328841E+02 -0.75172101796E+00  0.10171703897E+01  0.11596509412E+02  0.51100000000E-03 0.  1.
        -12    1    3    3    0    0 -0.59612778078E+00 -0.44111181309E+01 -0.95385017673E-01  0.44522387399E+01  0.00000000000E+00 0.  1.
</event>
<event>
 7    1  0.1542786E-009  0.4778727E+02  0.7816164E-02  0.1312668E+00
        -11   -1    0    0    0    0  0.00000000000E+00  0.00000000000E+00  0.45593999997E+02  0.45594000000E+02  0.51100000000E-03 0. -1.
         11   -1    0    0    0    0 -0.00000000000E+00 -0.00000000000E+00 -0.45593999997E+02  0.45594000000E+02  0.51100000000E-03 0.  1.
    9900012    2    1    2    0    0  0.26699626090E+02  0.34214737283E+02  0.32411346163E+00  0.47787270395E+02  0.19999997039E+02 0.  0.
        -12    1    1    2    0    0 -0.26699626090E+02 -0.34214737283E+02 -0.32411346163E+00  0.43400729605E+02  0.00000000000E+00 0.  1.
         11    1    3    3    0    0  0.11332701396E+01  0.45815555688E+00 -0.25877166351E+01  0.28619024037E+01  0.51100000000E-03 0. -1.
        -11    1    3    3    0    0  0.41222445175E+01  0.16789848781E+02 -0.92401828461E+00  0.17313166435E+02  0.51100000000E-03 0.  1.
         12    1    3    3    0    0  0.21444111433E+02  0.16966732945E+02  0.38358483813E+01  0.27612201556E+02  0.00000000000E+00 0. -1.
</event>
<event>
 7    1  0.1542786E-009  0.4778727E+02  0.7816164E-02  0.1312668E+00
        -11   -1    0    0    0    0  0.00000000000E+00  0.00000000000E+00  0.45593999997E+02  0.45594000000E+02  0.51100000000E-03 0.  1.
         11   -1    0    0    0    0 -0.00000000000E+00 -0.00000000000E+00 -0.45593999997E+02  0.45594000000E+02  0.51100000000E-03 0. -1.
    9900012    2    1    2    0    0 -0.21724820708E+02  0.17154812152E+02 -0.33427048371E+02  0.47787274458E+02  0.20000015563E+02 0.  0.
        -12    1    1    2    0    0  0.21724820708E+02 -0.17154812152E+02  0.33427048371E+02  0.43400725542E+02  0.00000000000E+00 0.  1.
         11    1    3    3    0    0 -0.67219889539E+01  0.12204768752E+02 -0.10448430174E+02  0.17415832141E+02  0.51100000000E-03 0. -1.
        -11    1    3    3    0    0 -0.10363855224E+02  0.32722209218E+00 -0.55671224829E+01  0.11769002609E+02  0.51100000000E-03 0.  1.
         12    1    3    3    0    0 -0.46389765301E+01  0.46228213076E+01 -0.17411495714E+02  0.18602439708E+02  0.00000000000E+00 0. -1.
</event>
<event>
 7    1  0.1542786E-009  0.4778727E+02  0.7816164E-02  0.1312668E+00
        -11   -1    0    0    0    0  0.00000000000E+00  0.00000000000E+00  0.45593999997E+02  0.45594000000E+02  0.51100000000E-03 0. -1.
         11   -1    0    0    0    0 -0.00000000000E+00 -0.00000000000E+00 -0.45593999997E+02  0.45594000000E+02  0.51100000000E-03 0.  1.
    9900012    2    1    2    0    0 -0.18646582124E+02  0.99528018750E+01  0.37906074354E+02  0.47787265410E+02  0.19999974309E+02 0.  0.
        -12    1    1    2    0    0  0.18646582124E+02 -0.99528018750E+01 -0.37906074354E+02  0.43400734590E+02  0.00000000000E+00 0.  1.
         11    1    3    3    0    0 -0.82873589386E+00 -0.20431829212E+01  0.13170495036E+02  0.13353776222E+02  0.51100000000E-03 0. -1.
        -11    1    3    3    0    0 -0.64193919690E+01  0.39790720721E+01  0.20776295133E+01  0.78331444812E+01  0.51100000000E-03 0.  1.
         12    1    3    3    0    0 -0.11398454262E+02  0.80169127241E+01  0.22657949804E+02  0.26600344707E+02  0.00000000000E+00 0. -1.
</event>
<event>
 7    1  0.1542786E-009  0.4778728E+02  0.7816164E-02  0.1312668E+00
        -11   -1    0    0    0    0  0.00000000000E+00  0.00000000000E+00  0.45593999997E+02  0.45594000000E+02  0.51100000000E-03 0. -1.
         11   -1    0    0    0    0 -0.00000000000E+00 -0.00000000000E+00 -0.45593999997E+02  0.45594000000E+02  0.51100000000E-03 0.  1.
    9900012    2    1    2    0    0  0.35749035876E+02 -0.14410784956E+02  0.19948881021E+02  0.47787284072E+02  0.20000059397E+02 0.  0.
        -12    1    1    2    0    0 -0.35749035876E+02  0.14410784956E+02 -0.19948881021E+02  0.43400715928E+02  0.00000000000E+00 0.  1.
         11    1    3    3    0    0  0.73940391924E+01 -0.10483834890E+02  0.68184291515E+01  0.14528371758E+02  0.51100000000E-03 0. -1.
        -11    1    3    3    0    0  0.68610875718E+01  0.15873064365E+01 -0.75485593096E+00  0.70826458424E+01  0.51100000000E-03 0.  1.
        -12    1    3    3    0    0  0.21493909112E+02 -0.55142565022E+01  0.13885307800E+02  0.26176266472E+02  0.00000000000E+00 0.  1.
</event>
<event>
 7    1  0.1542786E-009  0.4778728E+02  0.7816164E-02  0.1312668E+00
        -11   -1    0    0    0    0  0.00000000000E+00  0.00000000000E+00  0.45593999997E+02  0.45594000000E+02  0.51100000000E-03 0. -1.
         11   -1    0    0    0    0 -0.00000000000E+00 -0.00000000000E+00 -0.45593999997E+02  0.45594000000E+02  0.51100000000E-03 0.  1.
    9900012    2    1    2    0    0 -0.96463629799E+01  0.12603320580E+02  0.40394639664E+02  0.47787275099E+02  0.20000018487E+02 0.  0.
        -12    1    1    2    0    0  0.96463629799E+01 -0.12603320580E+02 -0.40394639664E+02  0.43400724901E+02  0.00000000000E+00 0.  1.
         11    1    3    3    0    0 -0.37321546394E+01  0.10999365200E+02  0.15312914366E+02  0.19219790834E+02  0.51100000000E-03 0. -1.
        -11    1    3    3    0    0 -0.94163591823E+01  0.25131381574E+01  0.20739951696E+02  0.22915699428E+02  0.51100000000E-03 0.  1.
         12    1    3    3    0    0  0.35021508418E+01 -0.90918277777E+00  0.43417736014E+01  0.56517848374E+01  0.00000000000E+00 0. -1.
</event>
<event>
 7    1  0.1542786E-009  0.4778728E+02  0.7816164E-02  0.1312668E+00
        -11   -1    0    0    0    0  0.00000000000E+00  0.00000000000E+00  0.45593999997E+02  0.45594000000E+02  0.51100000000E-03 0.  1.
         11   -1    0    0    0    0 -0.00000000000E+00 -0.00000000000E+00 -0.45593999997E+02  0.45594000000E+02  0.51100000000E-03 0. -1.
    9900012    2    1    2    0    0 -0.13536651441E+02 -0.15728321804E+02 -0.38118261345E+02  0.47787275502E+02  0.20000020322E+02 0.  0.
        -12    1    1    2    0    0  0.13536651441E+02  0.15728321804E+02  0.38118261345E+02  0.43400724498E+02  0.00000000000E+00 0.  1.
         11    1    3    3    0    0 -0.13665879160E+02 -0.15087888883E+01 -0.21307820901E+02  0.25358547453E+02  0.51100000000E-03 0. -1.
        -11    1    3    3    0    0 -0.38322688527E+00 -0.19255236129E-01 -0.14665722849E+01  0.15159380389E+01  0.51100000000E-03 0.  1.
        -12    1    3    3    0    0  0.51245460400E+00 -0.14200277680E+02 -0.15343868159E+02  0.20912790010E+02  0.00000000000E+00 0.  1.
</event>
<event>
 7    1  0.1542786E-009  0.4778727E+02  0.7816164E-02  0.1312668E+00
        -11   -1    0    0    0    0  0.00000000000E+00  0.00000000000E+00  0.45593999997E+02  0.45594000000E+02  0.51100000000E-03 0.  1.
         11   -1    0    0    0    0 -0.00000000000E+00 -0.00000000000E+00 -0.45593999997E+02  0.45594000000E+02  0.51100000000E-03 0. -1.
    9900012    2    1    2    0    0  0.26989768928E+02 -0.17134356316E+02 -0.29352846801E+02  0.47787269494E+02  0.19999992929E+02 0.  0.
        -12    1    1    2    0    0 -0.26989768928E+02  0.17134356316E+02  0.29352846801E+02  0.43400730506E+02  0.00000000000E+00 0.  1.
         11    1    3    3    0    0  0.14525486417E+01  0.61965724996E+00 -0.55132810009E+00  0.16726731895E+01  0.51100000000E-03 0. -1.
        -11    1    3    3    0    0  0.39928429022E+01  0.30984179175E+01 -0.85531666569E+01  0.99347696579E+01  0.51100000000E-03 0.  1.
         12    1    3    3    0    0  0.21544377384E+02 -0.20852431483E+02 -0.20248352044E+02  0.36179826646E+02  0.00000000000E+00 0. -1.
</event>
<event>
 7    1  0.1542786E-009  0.4778726E+02  0.7816164E-02  0.1312668E+00
        -11   -1    0    0    0    0  0.00000000000E+00  0.00000000000E+00  0.45593999997E+02  0.45594000000E+02  0.51100000000E-03 0.  1.
         11   -1    0    0    0    0 -0.00000000000E+00 -0.00000000000E+00 -0.45593999997E+02  0.45594000000E+02  0.51100000000E-03 0. -1.
    9900012    2    1    2    0    0  0.11297773513E+02 -0.17869458452E+02 -0.37903385502E+02  0.47787264243E+02  0.19999968991E+02 0.  0.
        -12    1    1    2    0    0 -0.11297773513E+02  0.17869458452E+02  0.37903385502E+02  0.43400735757E+02  0.00000000000E+00 0.  1.
         11    1    3    3    0    0  0.13617292054E+01  0.20869359843E+01 -0.23973380649E+01  0.34578661469E+01  0.51100000000E-03 0.  1.
        -11    1    3    3    0    0  0.60899976352E+01 -0.13957638016E+02 -0.10939798121E+02  0.18750544349E+02  0.51100000000E-03 0. -1.
         12    1    3    3    0    0  0.38460466729E+01 -0.59987564200E+01 -0.24566249316E+02  0.25578853748E+02  0.00000000000E+00 0. -1.
</event>
<event>
 7    1  0.1542786E-009  0.4778727E+02  0.7816164E-02  0.1312668E+00
        -11   -1    0    0    0    0  0.00000000000E+00  0.00000000000E+00  0.45593999997E+02  0.45594000000E+02  0.51100000000E-03 0.  1.
         11   -1    0    0    0    0 -0.00000000000E+00 -0.00000000000E+00 -0.45593999997E+02  0.45594000000E+02  0.51100000000E-03 0. -1.
    9900012    2    1    2    0    0 -0.20654004921E+01 -0.74424725585E+00 -0.43345165483E+02  0.47787272426E+02  0.20000006301E+02 0.  0.
        -12    1    1    2    0    0  0.20654004921E+01  0.74424725585E+00  0.43345165483E+02  0.43400727574E+02  0.00000000000E+00 0.  1.
         11    1    3    3    0    0  0.21292557088E+01  0.20305926866E+01 -0.52542312793E+01  0.60219584132E+01  0.51100000000E-03 0. -1.
        -11    1    3    3    0    0 -0.71129482311E+01 -0.35523359665E+01 -0.37915497582E+02  0.38740135267E+02  0.51100000000E-03 0.  1.
        -12    1    3    3    0    0  0.29182920302E+01  0.77749602407E+00 -0.17543662196E+00  0.30251787466E+01  0.00000000000E+00 0.  1.
</event>
<event>
 7    1  0.1542786E-009  0.4778727E+02  0.7816164E-02  0.1312668E+00
        -11   -1    0    0    0    0  0.00000000000E+00  0.00000000000E+00  0.45593999997E+02  0.45594000000E+02  0.51100000000E-03 0.  1.
         11   -1    0    0    0    0 -0.00000000000E+00 -0.00000000000E+00 -0.45593999997E+02  0.45594000000E+02  0.51100000000E-03 0. -1.
    9900012    2    1    2    0    0 -0.73873793603E+01  0.42083600493E+02 -0.76171168772E+01  0.47787271045E+02  0.20000000004E+02 0.  0.
        -12    1    1    2    0    0  0.73873793603E+01 -0.42083600493E+02  0.76171168772E+01  0.43400728955E+02  0.00000000000E+00 0.  1.
         11    1    3    3    0    0 -0.17479793065E+01  0.39400406312E+02 -0.30477098089E+01  0.39556743857E+02  0.51100000000E-03 0. -1.
        -11    1    3    3    0    0 -0.32519813489E+01  0.29100931031E+01 -0.23190861940E+01  0.49418807754E+01  0.51100000000E-03 0.  1.
         12    1    3    3    0    0 -0.23874187050E+01 -0.22689892203E+00 -0.22503208743E+01  0.32886464132E+01  0.00000000000E+00 0. -1.
</event>
<event>
 7    1  0.1542786E-009  0.4778727E+02  0.7816164E-02  0.1312668E+00
        -11   -1    0    0    0    0  0.00000000000E+00  0.00000000000E+00  0.45593999997E+02  0.45594000000E+02  0.51100000000E-03 0.  1.
         11   -1    0    0    0    0 -0.00000000000E+00 -0.00000000000E+00 -0.45593999997E+02  0.45594000000E+02  0.51100000000E-03 0. -1.
    9900012    2    1    2    0    0 -0.35379152165E+01 -0.40186541376E+02 -0.16004638050E+02  0.47787269695E+02  0.19999993848E+02 0.  0.
        -12    1    1    2    0    0  0.35379152165E+01  0.40186541376E+02  0.16004638050E+02  0.43400730305E+02  0.00000000000E+00 0.  1.
         11    1    3    3    0    0  0.27391949975E+01 -0.25974088036E+02 -0.17416564885E+02  0.31392565540E+02  0.51100000000E-03 0. -1.
        -11    1    3    3    0    0 -0.10701595357E+01 -0.85305138003E+01  0.25279224129E+00  0.86010936111E+01  0.51100000000E-03 0.  1.
         12    1    3    3    0    0 -0.52069506783E+01 -0.56819395397E+01  0.11591345932E+01  0.77936105435E+01  0.00000000000E+00 0. -1.
</event>
<event>
 7    1  0.1542786E-009  0.4778726E+02  0.7816164E-02  0.1312668E+00
        -11   -1    0    0    0    0  0.00000000000E+00  0.00000000000E+00  0.45593999997E+02  0.45594000000E+02  0.51100000000E-03 0.  1.
         11   -1    0    0    0    0 -0.00000000000E+00 -0.00000000000E+00 -0.45593999997E+02  0.45594000000E+02  0.51100000000E-03 0. -1.
    9900012    2    1    2    0    0 -0.82403903968E+01  0.15942165361E+02 -0.39516669002E+02  0.47787264991E+02  0.19999972402E+02 0.  0.
        -12    1    1    2    0    0  0.82403903968E+01 -0.15942165361E+02  0.39516669002E+02  0.43400735009E+02  0.00000000000E+00 0.  1.
         11    1    3    3    0    0  0.36457674792E+01 -0.13642729698E+01 -0.44978980450E+01  0.59484408321E+01  0.51100000000E-03 0.  1.
        -11    1    3    3    0    0 -0.29021757305E+01  0.87647881801E+01 -0.22016812647E+02  0.23874341356E+02  0.51100000000E-03 0. -1.
        -12    1    3    3    0    0 -0.89839821455E+01  0.85416501510E+01 -0.13001958310E+02  0.17964482803E+02  0.00000000000E+00 0.  1.
</event>
<event>
 7    1  0.1542786E-009  0.4778727E+02  0.7816164E-02  0.1312668E+00
        -11   -1    0    0    0    0  0.00000000000E+00  0.00000000000E+00  0.45593999997E+02  0.45594000000E+02  0.51100000000E-03 0.  1.
         11   -1    0    0    0    0 -0.00000000000E+00 -0.00000000000E+00 -0.45593999997E+02  0.45594000000E+02  0.51100000000E-03 0. -1.
    9900012    2    1    2    0    0  0.14994193012E+02  0.39928401630E+02 -0.80324416952E+01  0.47787271891E+02  0.20000003858E+02 0.  0.
        -12    1    1    2    0    0 -0.14994193012E+02 -0.39928401630E+02  0.80324416952E+01  0.43400728109E+02  0.00000000000E+00 0.  1.
         11    1    3    3    0    0  0.13446937879E+01  0.14838972499E+01  0.25935521551E+01  0.32766851349E+01  0.51100000000E-03 0.  1.
        -11    1    3    3    0    0  0.14119770018E+02  0.33684070784E+02 -0.45932594365E+01  0.36811446079E+02  0.51100000000E-03 0. -1.
        -12    1    3    3    0    0 -0.47027079442E+00  0.47604335966E+01 -0.60327344137E+01  0.76991406763E+01  0.00000000000E+00 0.  1.
</event>
<event>
 7    1  0.1542786E-009  0.4778727E+02  0.7816164E-02  0.1312668E+00
        -11   -1    0    0    0    0  0.00000000000E+00  0.00000000000E+00  0.45593999997E+02  0.45594000000E+02  0.51100000000E-03 0.  1.
         11   -1    0    0    0    0 -0.00000000000E+00 -0.00000000000E+00 -0.45593999997E+02  0.45594000000E+02  0.51100000000E-03 0. -1.
    9900012    2    1    2    0    0 -0.38291035736E+02  0.41144456996E+01 -0.20012272890E+02  0.47787272502E+02  0.20000006643E+02 0.  0.
        -12    1    1    2    0    0  0.38291035736E+02 -0.41144456996E+01  0.20012272890E+02  0.43400727498E+02  0.00000000000E+00 0.  1.
         11    1    3    3    0    0 -0.16390345992E+02 -0.25749314450E+01 -0.16716959592E+02  0.23552716445E+02  0.51100000000E-03 0. -1.
        -11    1    3    3    0    0 -0.71715681149E+01 -0.10062295362E+01  0.23392245387E+00  0.72455922520E+01  0.51100000000E-03 0.  1.
         12    1    3    3    0    0 -0.14729121629E+02  0.76956066808E+01 -0.35292357519E+01  0.16988963804E+02  0.00000000000E+00 0. -1.
</event>
<event>
 7    1  0.1542786E-009  0.4778727E+02  0.7816164E-02  0.1312668E+00
        -11   -1    0    0    0    0  0.00000000000E+00  0.00000000000E+00  0.45593999997E+02  0.45594000000E+02  0.51100000000E-03 0.  1.
         11   -1    0    0    0    0 -0.00000000000E+00 -0.00000000000E+00 -0.45593999997E+02  0.45594000000E+02  0.51100000000E-03 0. -1.
    9900012    2    1    2    0    0 -0.30196000368E+02  0.29774524250E+02  0.92359498758E+01  0.47787268409E+02  0.19999987983E+02 0.  0.
        -12    1    1    2    0    0  0.30196000368E+02 -0.29774524250E+02 -0.92359498758E+01  0.43400731591E+02  0.00000000000E+00 0.  1.
         11    1    3    3    0    0 -0.10745038018E+02  0.11356809184E+02  0.81002469956E+01  0.17608150342E+02  0.51100000000E-03 0. -1.
        -11    1    3    3    0    0  0.14227004292E+01  0.48214837558E+00 -0.19768827260E+01  0.24828630934E+01  0.51100000000E-03 0.  1.
         12    1    3    3    0    0 -0.20873662780E+02  0.17935566691E+02  0.31125856062E+01  0.27696254973E+02  0.00000000000E+00 0. -1.
</event>
<event>
 7    1  0.1542786E-009  0.4778728E+02  0.7816164E-02  0.1312668E+00
        -11   -1    0    0    0    0  0.00000000000E+00  0.00000000000E+00  0.45593999997E+02  0.45594000000E+02  0.51100000000E-03 0. -1.
         11   -1    0    0    0    0 -0.00000000000E+00 -0.00000000000E+00 -0.45593999997E+02  0.45594000000E+02  0.51100000000E-03 0.  1.
    9900012    2    1    2    0    0 -0.27521095372E+02  0.33458093849E+02  0.26015495677E+01  0.47787276566E+02  0.20000025174E+02 0.  0.
        -12    1    1    2    0    0  0.27521095372E+02 -0.33458093849E+02 -0.26015495677E+01  0.43400723434E+02  0.00000000000E+00 0.  1.
         11    1    3    3    0    0 -0.18706403092E+02  0.19451121686E+02 -0.56139255233E+01  0.27564321351E+02  0.51100000000E-03 0. -1.
        -11    1    3    3    0    0  0.97464618429E+00 -0.39300004818E+00  0.66784106165E+00  0.12451490542E+01  0.51100000000E-03 0.  1.
         12    1    3    3    0    0 -0.97893384640E+01  0.14399972211E+02  0.75476340294E+01  0.18977806161E+02  0.00000000000E+00 0. -1.
</event>
<event>
 7    1  0.1542786E-009  0.4778727E+02  0.7816164E-02  0.1312668E+00
        -11   -1    0    0    0    0  0.00000000000E+00  0.00000000000E+00  0.45593999997E+02  0.45594000000E+02  0.51100000000E-03 0.  1.
         11   -1    0    0    0    0 -0.00000000000E+00 -0.00000000000E+00 -0.45593999997E+02  0.45594000000E+02  0.51100000000E-03 0. -1.
    9900012    2    1    2    0    0 -0.17209831568E+02  0.30263157885E+02 -0.25914987586E+02  0.47787267179E+02  0.19999982376E+02 0.  0.
        -12    1    1    2    0    0  0.17209831568E+02 -0.30263157885E+02  0.25914987586E+02  0.43400732821E+02  0.00000000000E+00 0.  1.
         11    1    3    3    0    0 -0.41593812863E+01  0.13006764830E+02 -0.73045571087E+01  0.15486540571E+02  0.51100000000E-03 0. -1.
        -11    1    3    3    0    0 -0.25773149035E+01  0.97278894707E+01 -0.51209909057E+00  0.10076538662E+02  0.51100000000E-03 0.  1.
         12    1    3    3    0    0 -0.10473135378E+02  0.75285035843E+01 -0.18098331387E+02  0.22224187946E+02  0.00000000000E+00 0. -1.
</event>
<event>
 7    1  0.1542786E-009  0.4778727E+02  0.7816164E-02  0.1312668E+00
        -11   -1    0    0    0    0  0.00000000000E+00  0.00000000000E+00  0.45593999997E+02  0.45594000000E+02  0.51100000000E-03 0. -1.
         11   -1    0    0    0    0 -0.00000000000E+00 -0.00000000000E+00 -0.45593999997E+02  0.45594000000E+02  0.51100000000E-03 0.  1.
    9900012    2    1    2    0    0  0.21987548942E+02  0.29020620299E+02  0.23621481813E+02  0.47787272886E+02  0.20000008397E+02 0.  0.
        -12    1    1    2    0    0 -0.21987548942E+02 -0.29020620299E+02 -0.23621481813E+02  0.43400727114E+02  0.00000000000E+00 0.  1.
         11    1    3    3    0    0  0.95361318379E+01  0.79248848824E+01  0.25975878056E+01  0.12668428217E+02  0.51100000000E-03 0. -1.
        -11    1    3    3    0    0 -0.30059215393E+01  0.32847881988E+01  0.23303524533E+01  0.50255288905E+01  0.51100000000E-03 0.  1.
        -12    1    3    3    0    0  0.15457338643E+02  0.17810947217E+02  0.18693541554E+02  0.30093315778E+02  0.00000000000E+00 0.  1.
</event>
<event>
 7    1  0.1542786E-009  0.4778727E+02  0.7816164E-02  0.1312668E+00
        -11   -1    0    0    0    0  0.00000000000E+00  0.00000000000E+00  0.45593999997E+02  0.45594000000E+02  0.51100000000E-03 0.  1.
         11   -1    0    0    0    0 -0.00000000000E+00 -0.00000000000E+00 -0.45593999997E+02  0.45594000000E+02  0.51100000000E-03 0. -1.
    9900012    2    1    2    0    0  0.16665219887E+02  0.28098239690E+02 -0.28572412544E+02  0.47787269751E+02  0.19999994104E+02 0.  0.
        -12    1    1    2    0    0 -0.16665219887E+02 -0.28098239690E+02  0.28572412544E+02  0.43400730249E+02  0.00000000000E+00 0.  1.
         11    1    3    3    0    0  0.75579287885E+00  0.13806575823E+02 -0.80975275443E+01  0.16023817005E+02  0.51100000000E-03 0.  1.
        -11    1    3    3    0    0  0.99532682250E+01  0.13805194396E+02 -0.19192215913E+02  0.25651356544E+02  0.51100000000E-03 0. -1.
         12    1    3    3    0    0  0.59561587826E+01  0.48646947116E+00 -0.12826690869E+01  0.61120962015E+01  0.00000000000E+00 0. -1.
</event>
<event>
 7    1  0.1542786E-009  0.4778727E+02  0.7816164E-02  0.1312668E+00
        -11   -1    0    0    0    0  0.00000000000E+00  0.00000000000E+00  0.45593999997E+02  0.45594000000E+02  0.51100000000E-03 0. -1.
         11   -1    0    0    0    0 -0.00000000000E+00 -0.00000000000E+00 -0.45593999997E+02  0.45594000000E+02  0.51100000000E-03 0.  1.
    9900012    2    1    2    0    0 -0.23869161355E+02  0.48568694430E+01  0.35920703129E+02  0.47787274685E+02  0.20000016597E+02 0.  0.
        -12    1    1    2    0    0  0.23869161355E+02 -0.48568694430E+01 -0.35920703129E+02  0.43400725315E+02  0.00000000000E+00 0.  1.
         11    1    3    3    0    0  0.10345417532E+01  0.33377917583E+01  0.94717652322E+01  0.10095814347E+02  0.51100000000E-03 0. -1.
        -11    1    3    3    0    0 -0.12552526346E+02  0.53172070329E+01  0.10766557666E+02  0.17371164974E+02  0.51100000000E-03 0.  1.
         12    1    3    3    0    0 -0.12351176762E+02 -0.37981293483E+01  0.15682380231E+02  0.20320295364E+02  0.00000000000E+00 0. -1.
</event>
<event>
 7    1  0.1542786E-009  0.4778727E+02  0.7816164E-02  0.1312668E+00
        -11   -1    0    0    0    0  0.00000000000E+00  0.00000000000E+00  0.45593999997E+02  0.45594000000E+02  0.51100000000E-03 0.  1.
         11   -1    0    0    0    0 -0.00000000000E+00 -0.00000000000E+00 -0.45593999997E+02  0.45594000000E+02  0.51100000000E-03 0. -1.
    9900012    2    1    2    0    0 -0.30759207381E+02  0.10034586053E+02 -0.28927522674E+02  0.47787270467E+02  0.19999997368E+02 0.  0.
        -12    1    1    2    0    0  0.30759207381E+02 -0.10034586053E+02  0.28927522674E+02  0.43400729533E+02  0.00000000000E+00 0.  1.
         11    1    3    3    0    0 -0.11301082849E+02  0.20842581550E+01 -0.17171033184E+02  0.20661630780E+02  0.51100000000E-03 0. -1.
        -11    1    3    3    0    0 -0.11934722358E+02  0.61905585163E+01 -0.13661687100E+02  0.19167741316E+02  0.51100000000E-03 0.  1.
        -12    1    3    3    0    0 -0.75234021735E+01  0.17597693815E+01  0.19051976102E+01  0.79578983705E+01  0.00000000000E+00 0.  1.
</event>
<event>
 7    1  0.1542786E-009  0.4778727E+02  0.7816164E-02  0.1312668E+00
        -11   -1    0    0    0    0  0.00000000000E+00  0.00000000000E+00  0.45593999997E+02  0.45594000000E+02  0.51100000000E-03 0. -1.
         11   -1    0    0    0    0 -0.00000000000E+00 -0.00000000000E+00 -0.45593999997E+02  0.45594000000E+02  0.51100000000E-03 0.  1.
    9900012    2    1    2    0    0  0.41165032028E+02  0.82563239888E+01 -0.10995300981E+02  0.47787269691E+02  0.19999993829E+02 0.  0.
        -12    1    1    2    0    0 -0.41165032028E+02 -0.82563239888E+01  0.10995300981E+02  0.43400730309E+02  0.00000000000E+00 0.  1.
         11    1    3    3    0    0  0.34685167265E+02  0.68257455858E+01 -0.14917391669E+02  0.38369000579E+02  0.51100000000E-03 0. -1.
        -11    1    3    3    0    0  0.56002236753E+01 -0.12426535152E+01  0.28645196158E+01  0.64118769376E+01  0.51100000000E-03 0.  1.
        -12    1    3    3    0    0  0.87964108812E+00  0.26732319182E+01  0.10575710718E+01  0.30063921741E+01  0.00000000000E+00 0.  1.
</event>
<event>
 7    1  0.1542786E-009  0.4778727E+02  0.7816164E-02  0.1312668E+00
        -11   -1    0    0    0    0  0.00000000000E+00  0.00000000000E+00  0.45593999997E+02  0.45594000000E+02  0.51100000000E-03 0.  1.
         11   -1    0    0    0    0 -0.00000000000E+00 -0.00000000000E+00 -0.45593999997E+02  0.45594000000E+02  0.51100000000E-03 0. -1.
    9900012    2    1    2    0    0 -0.14377550452E+02 -0.83341730377E+01 -0.40093025922E+02  0.47787272762E+02  0.20000007829E+02 0.  0.
        -12    1    1    2    0    0  0.14377550452E+02  0.83341730377E+01  0.40093025922E+02  0.43400727238E+02  0.00000000000E+00 0.  1.
         11    1    3    3    0    0  0.24296940015E+01 -0.22033611244E+01 -0.11755724768E+02  0.12204723604E+02  0.51100000000E-03 0. -1.
        -11    1    3    3    0    0 -0.11755774514E+01 -0.24241790807E+01  0.33639462869E+00  0.27151037120E+01  0.51100000000E-03 0.  1.
         12    1    3    3    0    0 -0.15631667002E+02 -0.37066328326E+01 -0.28673695783E+02  0.32867445445E+02  0.00000000000E+00 0. -1.
</event>
<event>
 7    1  0.1542786E-009  0.4778728E+02  0.7816164E-02  0.1312668E+00
        -11   -1    0    0    0    0  0.00000000000E+00  0.00000000000E+00  0.45593999997E+02  0.45594000000E+02  0.51100000000E-03 0.  1.
         11   -1    0    0    0    0 -0.00000000000E+00 -0.00000000000E+00 -0.45593999997E+02  0.45594000000E+02  0.51100000000E-03 0. -1.
    9900012    2    1    2    0    0  0.21636516319E+01  0.31839248681E+02 -0.29414344509E+02  0.47787276413E+02  0.20000024480E+02 0.  0.
        -12    1    1    2    0    0 -0.21636516319E+01 -0.31839248681E+02  0.29414344509E+02  0.43400723587E+02  0.00000000000E+00 0.  1.
         11    1    3    3    0    0  0.35299588273E+01  0.11793983236E+02 -0.48053158674E+01  0.13215510233E+02  0.51100000000E-03 0. -1.
        -11    1    3    3    0    0 -0.37371470246E+01  0.21240565857E+02 -0.21103784120E+02  0.30174452940E+02  0.51100000000E-03 0.  1.
        -12    1    3    3    0    0  0.23708398293E+01 -0.11953004118E+01 -0.35052445219E+01  0.43973132398E+01  0.00000000000E+00 0.  1.
</event>
<event>
 7    1  0.1542786E-009  0.4778727E+02  0.7816164E-02  0.1312668E+00
        -11   -1    0    0    0    0  0.00000000000E+00  0.00000000000E+00  0.45593999997E+02  0.45594000000E+02  0.51100000000E-03 0.  1.
         11   -1    0    0    0    0 -0.00000000000E+00 -0.00000000000E+00 -0.45593999997E+02  0.45594000000E+02  0.51100000000E-03 0. -1.
    9900012    2    1    2    0    0 -0.15147749732E+02 -0.31230243904E+02 -0.26054572402E+02  0.47787271903E+02  0.20000003914E+02 0.  0.
        -12    1    1    2    0    0  0.15147749732E+02  0.31230243904E+02  0.26054572402E+02  0.43400728097E+02  0.00000000000E+00 0.  1.
         11    1    3    3    0    0 -0.43083163208E+01 -0.25140972357E+01 -0.10278115232E+02  0.11424619355E+02  0.51100000000E-03 0. -1.
        -11    1    3    3    0    0 -0.46261492394E+01 -0.80585241231E+01  0.55125724974E+00  0.93083270594E+01  0.51100000000E-03 0.  1.
         12    1    3    3    0    0 -0.62132841722E+01 -0.20657622546E+02 -0.16327714420E+02  0.27054325488E+02  0.00000000000E+00 0. -1.
</event>
<event>
 7    1  0.1542786E-009  0.4778727E+02  0.7816164E-02  0.1312668E+00
        -11   -1    0    0    0    0  0.00000000000E+00  0.00000000000E+00  0.45593999997E+02  0.45594000000E+02  0.51100000000E-03 0.  1.
         11   -1    0    0    0    0 -0.00000000000E+00 -0.00000000000E+00 -0.45593999997E+02  0.45594000000E+02  0.51100000000E-03 0. -1.
    9900012    2    1    2    0    0  0.29194997804E+02  0.13849884415E+02 -0.28973368441E+02  0.47787271044E+02  0.19999999998E+02 0.  0.
        -12    1    1    2    0    0 -0.29194997804E+02 -0.13849884415E+02  0.28973368441E+02  0.43400728956E+02  0.00000000000E+00 0.  1.
         11    1    3    3    0    0  0.40028571011E+01 -0.43202089063E+01 -0.31832993793E+01  0.66948088222E+01  0.51100000000E-03 0. -1.
        -11    1    3    3    0    0  0.47994851613E+01  0.20232315049E+01 -0.81205512377E+01  0.96473766486E+01  0.51100000000E-03 0.  1.
        -12    1    3    3    0    0  0.20392655542E+02  0.16146861816E+02 -0.17669517824E+02  0.31445085573E+02  0.00000000000E+00 0.  1.
</event>
<event>
 7    1  0.1542786E-009  0.4778727E+02  0.7816164E-02  0.1312668E+00
        -11   -1    0    0    0    0  0.00000000000E+00  0.00000000000E+00  0.45593999997E+02  0.45594000000E+02  0.51100000000E-03 0.  1.
         11   -1    0    0    0    0 -0.00000000000E+00 -0.00000000000E+00 -0.45593999997E+02  0.45594000000E+02  0.51100000000E-03 0. -1.
    9900012    2    1    2    0    0 -0.72704874437E+01 -0.22798898779E+02 -0.36207370215E+02  0.47787269234E+02  0.19999991743E+02 0.  0.
        -12    1    1    2    0    0  0.72704874437E+01  0.22798898779E+02  0.36207370215E+02  0.43400730766E+02  0.00000000000E+00 0.  1.
         11    1    3    3    0    0 -0.17664393912E+01 -0.92537543135E+01 -0.15579738464E+02  0.18206606710E+02  0.51100000000E-03 0. -1.
        -11    1    3    3    0    0 -0.59981159018E+01 -0.95939868143E+01 -0.22496764596E+02  0.25181866391E+02  0.51100000000E-03 0.  1.
        -12    1    3    3    0    0  0.49406784930E+00 -0.39511576510E+01  0.18691328457E+01  0.43987961327E+01  0.00000000000E+00 0.  1.
</event>
<event>
 7    1  0.1542786E-009  0.4778726E+02  0.7816164E-02  0.1312668E+00
        -11   -1    0    0    0    0  0.00000000000E+00  0.00000000000E+00  0.45593999997E+02  0.45594000000E+02  0.51100000000E-03 0.  1.
         11   -1    0    0    0    0 -0.00000000000E+00 -0.00000000000E+00 -0.45593999997E+02  0.45594000000E+02  0.51100000000E-03 0. -1.
    9900012    2    1    2    0    0 -0.11751057235E+02  0.20626389934E+02 -0.36333026406E+02  0.47787261347E+02  0.19999955784E+02 0.  0.
        -12    1    1    2    0    0  0.11751057235E+02 -0.20626389934E+02  0.36333026406E+02  0.43400738653E+02  0.00000000000E+00 0.  1.
         11    1    3    3    0    0 -0.87035294901E+01  0.11150830918E+01 -0.88526247449E+01  0.12464501636E+02  0.51100000000E-03 0. -1.
        -11    1    3    3    0    0  0.25981212104E+01  0.27318451913E+01 -0.88638948169E+01  0.96323332355E+01  0.51100000000E-03 0.  1.
        -12    1    3    3    0    0 -0.56456489552E+01  0.16779461651E+02 -0.18616506844E+02  0.25690426476E+02  0.00000000000E+00 0.  1.
</event>
<event>
 7    1  0.1542786E-009  0.4778727E+02  0.7816164E-02  0.1312668E+00
        -11   -1    0    0    0    0  0.00000000000E+00  0.00000000000E+00  0.45593999997E+02  0.45594000000E+02  0.51100000000E-03 0.  1.
         11   -1    0    0    0    0 -0.00000000000E+00 -0.00000000000E+00 -0.45593999997E+02  0.45594000000E+02  0.51100000000E-03 0. -1.
    9900012    2    1    2    0    0 -0.16055598785E+02  0.30254639739E+02 -0.26655167986E+02  0.47787268918E+02  0.19999990306E+02 0.  0.
        -12    1    1    2    0    0  0.16055598785E+02 -0.30254639739E+02  0.26655167986E+02  0.43400731082E+02  0.00000000000E+00 0.  1.
         11    1    3    3    0    0 -0.82421237524E+01  0.18028850447E+02 -0.12509296461E+02  0.23440446895E+02  0.51100000000E-03 0. -1.
        -11    1    3    3    0    0 -0.11358628966E+02  0.85430175462E+01 -0.12633461877E+02  0.19015939631E+02  0.51100000000E-03 0.  1.
        -12    1    3    3    0    0  0.35451539341E+01  0.36827717450E+01 -0.15124096484E+01  0.53308823928E+01  0.00000000000E+00 0.  1.
</event>
<event>
 7    1  0.1542786E-009  0.4778727E+02  0.7816164E-02  0.1312668E+00
        -11   -1    0    0    0    0  0.00000000000E+00  0.00000000000E+00  0.45593999997E+02  0.45594000000E+02  0.51100000000E-03 0.  1.
         11   -1    0    0    0    0 -0.00000000000E+00 -0.00000000000E+00 -0.45593999997E+02  0.45594000000E+02  0.51100000000E-03 0. -1.
    9900012    2    1    2    0    0  0.10606580268E+02  0.42075699125E+02  0.87136601395E+00  0.47787270967E+02  0.19999999649E+02 0.  0.
        -12    1    1    2    0    0 -0.10606580268E+02 -0.42075699125E+02 -0.87136601395E+00  0.43400729033E+02  0.00000000000E+00 0.  1.
         11    1    3    3    0    0  0.12958641710E+02  0.27806763229E+02  0.43283933828E+00  0.30681098846E+02  0.51100000000E-03 0. -1.
        -11    1    3    3    0    0  0.39186953844E+00  0.54857572133E+01  0.44435862822E+01  0.70705412273E+01  0.51100000000E-03 0.  1.
        -12    1    3    3    0    0 -0.27439309800E+01  0.87831786825E+01 -0.40050596066E+01  0.10035630894E+02  0.00000000000E+00 0.  1.
</event>
<event>
 7    1  0.1542786E-009  0.4778727E+02  0.7816164E-02  0.1312668E+00
        -11   -1    0    0    0    0  0.00000000000E+00  0.00000000000E+00  0.45593999997E+02  0.45594000000E+02  0.51100000000E-03 0. -1.
         11   -1    0    0    0    0 -0.00000000000E+00 -0.00000000000E+00 -0.45593999997E+02  0.45594000000E+02  0.51100000000E-03 0.  1.
    9900012    2    1    2    0    0  0.35177015428E+01 -0.39840267273E+02 -0.16852364248E+02  0.47787270729E+02  0.19999998561E+02 0.  0.
        -12    1    1    2    0    0 -0.35177015428E+01  0.39840267273E+02  0.16852364248E+02  0.43400729271E+02  0.00000000000E+00 0.  1.
         11    1    3    3    0    0  0.98292844204E+00 -0.24407633980E+02 -0.80775516018E+01  0.25728303188E+02  0.51100000000E-03 0. -1.
        -11    1    3    3    0    0 -0.50588727932E+01 -0.65556951474E+01 -0.54502140164E+01  0.99133327337E+01  0.51100000000E-03 0.  1.
         12    1    3    3    0    0  0.75936458939E+01 -0.88769381457E+01 -0.33245986301E+01  0.12145634807E+02  0.00000000000E+00 0. -1.
</event>
<event>
 7    1  0.1543867E-009  0.4778727E+02  0.7816164E-02  0.1312668E+00
        -11   -1    0    0    0    0  0.00000000000E+00  0.00000000000E+00  0.45593999997E+02  0.45594000000E+02  0.51100000000E-03 0. -1.
         11   -1    0    0    0    0 -0.00000000000E+00 -0.00000000000E+00 -0.45593999997E+02  0.45594000000E+02  0.51100000000E-03 0.  1.
    9900012    2    1    2    0    0  0.15904722540E+02  0.30764394083E+02  0.26157502388E+02  0.47787273352E+02  0.20000010523E+02 0.  0.
        -12    1    1    2    0    0 -0.15904722540E+02 -0.30764394083E+02 -0.26157502388E+02  0.43400726648E+02  0.00000000000E+00 0.  1.
         11    1    3    3    0    0  0.45929460186E+01  0.53708552815E+01  0.89461588430E+01  0.11400657783E+02  0.51100000000E-03 0. -1.
        -11    1    3    3    0    0  0.20983893438E+01  0.42195347417E+01 -0.30937426691E+01  0.56372826112E+01  0.51100000000E-03 0.  1.
        -12    1    3    3    0    0  0.92133871776E+01  0.21174004060E+02  0.20305086214E+02  0.30749332958E+02  0.00000000000E+00 0.  1.
</event>
<event>
 7    1  0.1542786E-009  0.4778727E+02  0.7816164E-02  0.1312668E+00
        -11   -1    0    0    0    0  0.00000000000E+00  0.00000000000E+00  0.45593999997E+02  0.45594000000E+02  0.51100000000E-03 0.  1.
         11   -1    0    0    0    0 -0.00000000000E+00 -0.00000000000E+00 -0.45593999997E+02  0.45594000000E+02  0.51100000000E-03 0. -1.
    9900012    2    1    2    0    0  0.16094955669E+02 -0.27816757352E+02 -0.29168539711E+02  0.47787270785E+02  0.19999998815E+02 0.  0.
        -12    1    1    2    0    0 -0.16094955669E+02  0.27816757352E+02  0.29168539711E+02  0.43400729215E+02  0.00000000000E+00 0.  1.
         11    1    3    3    0    0  0.82157232745E+00 -0.96268747278E+01 -0.12044864993E+01  0.97366568237E+01  0.51100000000E-03 0. -1.
        -11    1    3    3    0    0  0.35156200800E+01  0.34979457547E+00 -0.62075597693E+01  0.71425303179E+01  0.51100000000E-03 0.  1.
         12    1    3    3    0    0  0.11757763262E+02 -0.18539677199E+02 -0.21756493442E+02  0.30908083643E+02  0.00000000000E+00 0. -1.
</event>
<event>
 7    1  0.1542786E-009  0.4778727E+02  0.7816164E-02  0.1312668E+00
        -11   -1    0    0    0    0  0.00000000000E+00  0.00000000000E+00  0.45593999997E+02  0.45594000000E+02  0.51100000000E-03 0.  1.
         11   -1    0    0    0    0 -0.00000000000E+00 -0.00000000000E+00 -0.45593999997E+02  0.45594000000E+02  0.51100000000E-03 0. -1.
    9900012    2    1    2    0    0  0.89947875335E+01  0.26742250592E+02 -0.32978312684E+02  0.47787271008E+02  0.19999999834E+02 0.  0.
        -12    1    1    2    0    0 -0.89947875335E+01 -0.26742250592E+02  0.32978312684E+02  0.43400728992E+02  0.00000000000E+00 0.  1.
         11    1    3    3    0    0 -0.72146574860E+00  0.13166003471E+02 -0.15128801775E+02  0.20068502775E+02  0.51100000000E-03 0. -1.
        -11    1    3    3    0    0  0.11722011294E+02  0.13792776500E+02 -0.18202676791E+02  0.25670677338E+02  0.51100000000E-03 0.  1.
        -12    1    3    3    0    0 -0.20057580119E+01 -0.21652937944E+00  0.35316588125E+00  0.20480908950E+01  0.00000000000E+00 0.  1.
</event>
<event>
 7    1  0.1542786E-009  0.4778728E+02  0.7816164E-02  0.1312668E+00
        -11   -1    0    0    0    0  0.00000000000E+00  0.00000000000E+00  0.45593999997E+02  0.45594000000E+02  0.51100000000E-03 0.  1.
         11   -1    0    0    0    0 -0.00000000000E+00 -0.00000000000E+00 -0.45593999997E+02  0.45594000000E+02  0.51100000000E-03 0. -1.
    9900012    2    1    2    0    0 -0.24597830036E+02  0.29250866596E+02 -0.20565885994E+02  0.47787284501E+02  0.20000061354E+02 0.  0.
        -12    1    1    2    0    0  0.24597830036E+02 -0.29250866596E+02  0.20565885994E+02  0.43400715499E+02  0.00000000000E+00 0.  1.
         11    1    3    3    0    0 -0.11986919795E+02  0.10290216821E+02 -0.97944899065E+01  0.18587814320E+02  0.51100000000E-03 0. -1.
        -11    1    3    3    0    0 -0.32018031556E+01 -0.19809235157E+01  0.16667409904E+00  0.37687374462E+01  0.51100000000E-03 0.  1.
        -12    1    3    3    0    0 -0.94091070855E+01  0.20941573290E+02 -0.10938070186E+02  0.25430732735E+02  0.00000000000E+00 0.  1.
</event>
<event>
 7    1  0.1542786E-009  0.4778727E+02  0.7816164E-02  0.1312668E+00
        -11   -1    0    0    0    0  0.00000000000E+00  0.00000000000E+00  0.45593999997E+02  0.45594000000E+02  0.51100000000E-03 0.  1.
         11   -1    0    0    0    0 -0.00000000000E+00 -0.00000000000E+00 -0.45593999997E+02  0.45594000000E+02  0.51100000000E-03 0. -1.
    9900012    2    1    2    0    0  0.45371130813E+00 -0.39012983650E+02 -0.19010644646E+02  0.47787270085E+02  0.19999995627E+02 0.  0.
        -12    1    1    2    0    0 -0.45371130813E+00  0.39012983650E+02  0.19010644646E+02  0.43400729915E+02  0.00000000000E+00 0.  1.
         11    1    3    3    0    0 -0.67286090445E+01 -0.16295250881E+02 -0.73423329316E+01  0.19097623781E+02  0.51100000000E-03 0. -1.
        -11    1    3    3    0    0  0.52776483770E+01 -0.22380424724E+02 -0.76558621736E+01  0.24235288508E+02  0.51100000000E-03 0.  1.
        -12    1    3    3    0    0  0.19046719756E+01 -0.33730804581E+00 -0.40124495412E+01  0.44543577959E+01  0.00000000000E+00 0.  1.
</event>
<event>
 7    1  0.1542786E-009  0.4778727E+02  0.7816164E-02  0.1312668E+00
        -11   -1    0    0    0    0  0.00000000000E+00  0.00000000000E+00  0.45593999997E+02  0.45594000000E+02  0.51100000000E-03 0. -1.
         11   -1    0    0    0    0 -0.00000000000E+00 -0.00000000000E+00 -0.45593999997E+02  0.45594000000E+02  0.51100000000E-03 0.  1.
    9900012    2    1    2    0    0  0.12896985140E+01 -0.89044464806E+00  0.43372422688E+02  0.47787271161E+02  0.20000000533E+02 0.  0.
        -12    1    1    2    0    0 -0.12896985140E+01  0.89044464806E+00 -0.43372422688E+02  0.43400728839E+02  0.00000000000E+00 0.  1.
         11    1    3    3    0    0 -0.40432025896E+01 -0.41282951381E+00  0.18344905422E+02  0.18789717151E+02  0.51100000000E-03 0. -1.
        -11    1    3    3    0    0  0.70675293806E+01 -0.40875663557E+01  0.77329580561E+01  0.11245301722E+02  0.51100000000E-03 0.  1.
         12    1    3    3    0    0 -0.17346282770E+01  0.36099512215E+01  0.17294559209E+02  0.17752252289E+02  0.00000000000E+00 0. -1.
</event>
<event>
 7    1  0.1542786E-009  0.4778727E+02  0.7816164E-02  0.1312668E+00
        -11   -1    0    0    0    0  0.00000000000E+00  0.00000000000E+00  0.45593999997E+02  0.45594000000E+02  0.51100000000E-03 0. -1.
         11   -1    0    0    0    0 -0.00000000000E+00 -0.00000000000E+00 -0.45593999997E+02  0.45594000000E+02  0.51100000000E-03 0.  1.
    9900012    2    1    2    0    0 -0.36309241648E+02 -0.23426152169E+02 -0.40592557499E+01  0.47787271990E+02  0.20000004312E+02 0.  0.
        -12    1    1    2    0    0  0.36309241648E+02  0.23426152169E+02  0.40592557499E+01  0.43400728010E+02  0.00000000000E+00 0.  1.
         11    1    3    3    0    0 -0.26591363801E+02 -0.13933965131E+02  0.51394594849E+01  0.30457676489E+02  0.51100000000E-03 0.  1.
        -11    1    3    3    0    0 -0.47464209332E+01 -0.15231258365E+01 -0.49352392231E+01  0.70146283180E+01  0.51100000000E-03 0. -1.
        -12    1    3    3    0    0 -0.49714569143E+01 -0.79690612016E+01 -0.42634760117E+01  0.10314967183E+02  0.00000000000E+00 0.  1.
</event>
<event>
 7    1  0.1542786E-009  0.4778727E+02  0.7816164E-02  0.1312668E+00
        -11   -1    0    0    0    0  0.00000000000E+00  0.00000000000E+00  0.45593999997E+02  0.45594000000E+02  0.51100000000E-03 0.  1.
         11   -1    0    0    0    0 -0.00000000000E+00 -0.00000000000E+00 -0.45593999997E+02  0.45594000000E+02  0.51100000000E-03 0. -1.
    9900012    2    1    2    0    0  0.15072412932E+02 -0.66680557322E+01 -0.40149504651E+02  0.47787270484E+02  0.19999997445E+02 0.  0.
        -12    1    1    2    0    0 -0.15072412932E+02  0.66680557322E+01  0.40149504651E+02  0.43400729516E+02  0.00000000000E+00 0.  1.
         11    1    3    3    0    0  0.10765114542E+02  0.19429729019E+00 -0.23045247835E+02  0.25436369446E+02  0.51100000000E-03 0. -1.
        -11    1    3    3    0    0 -0.33308263458E+00  0.19101202894E+01  0.62147148098E+00  0.20361067321E+01  0.51100000000E-03 0.  1.
         12    1    3    3    0    0  0.46403810243E+01 -0.87724733118E+01 -0.17725728296E+02  0.20314794306E+02  0.00000000000E+00 0. -1.
</event>
<event>
 7    1  0.1542786E-009  0.4778728E+02  0.7816164E-02  0.1312668E+00
        -11   -1    0    0    0    0  0.00000000000E+00  0.00000000000E+00  0.45593999997E+02  0.45594000000E+02  0.51100000000E-03 0.  1.
         11   -1    0    0    0    0 -0.00000000000E+00 -0.00000000000E+00 -0.45593999997E+02  0.45594000000E+02  0.51100000000E-03 0. -1.
    9900012    2    1    2    0    0 -0.39392430506E+02  0.45798225450E+01 -0.17631916697E+02  0.47787276019E+02  0.20000022679E+02 0.  0.
        -12    1    1    2    0    0  0.39392430506E+02 -0.45798225450E+01  0.17631916697E+02  0.43400723981E+02  0.00000000000E+00 0.  1.
         11    1    3    3    0    0 -0.22347119291E+02  0.92797574259E+01 -0.10665457711E+02  0.26443517673E+02  0.51100000000E-03 0. -1.
        -11    1    3    3    0    0  0.81758571102E+00  0.32866954098E+00  0.83444857756E+00  0.12135793142E+01  0.51100000000E-03 0.  1.
         12    1    3    3    0    0 -0.17862896926E+02 -0.50286044218E+01 -0.78009075635E+01  0.20130179032E+02  0.00000000000E+00 0. -1.
</event>
<event>
 7    1  0.1542786E-009  0.4778727E+02  0.7816164E-02  0.1312668E+00
        -11   -1    0    0    0    0  0.00000000000E+00  0.00000000000E+00  0.45593999997E+02  0.45594000000E+02  0.51100000000E-03 0. -1.
         11   -1    0    0    0    0 -0.00000000000E+00 -0.00000000000E+00 -0.45593999997E+02  0.45594000000E+02  0.51100000000E-03 0.  1.
    9900012    2    1    2    0    0 -0.72776882933E+01 -0.40541111859E+02  0.13677607703E+02  0.47787269014E+02  0.19999990743E+02 0.  0.
        -12    1    1    2    0    0  0.72776882933E+01  0.40541111859E+02 -0.13677607703E+02  0.43400730986E+02  0.00000000000E+00 0.  1.
         11    1    3    3    0    0 -0.68928060674E+01 -0.32265070224E+02  0.74352521476E+01  0.33820533804E+02  0.51100000000E-03 0. -1.
        -11    1    3    3    0    0 -0.45110307195E+01 -0.19118804793E+01  0.27230437018E+01  0.56053235752E+01  0.51100000000E-03 0.  1.
         12    1    3    3    0    0  0.41261484936E+01 -0.63641611557E+01  0.35193118538E+01  0.83614116351E+01  0.00000000000E+00 0. -1.
</event>
<event>
 7    1  0.1542786E-009  0.4778727E+02  0.7816164E-02  0.1312668E+00
        -11   -1    0    0    0    0  0.00000000000E+00  0.00000000000E+00  0.45593999997E+02  0.45594000000E+02  0.51100000000E-03 0.  1.
         11   -1    0    0    0    0 -0.00000000000E+00 -0.00000000000E+00 -0.45593999997E+02  0.45594000000E+02  0.51100000000E-03 0. -1.
    9900012    2    1    2    0    0  0.20197445382E+02 -0.85618156909E+01 -0.37448391014E+02  0.47787268700E+02  0.19999989310E+02 0.  0.
        -12    1    1    2    0    0 -0.20197445382E+02  0.85618156909E+01  0.37448391014E+02  0.43400731300E+02  0.00000000000E+00 0.  1.
         11    1    3    3    0    0  0.45776301259E+01 -0.29827784130E+01 -0.11846181947E+02  0.13045447161E+02  0.51100000000E-03 0. -1.
        -11    1    3    3    0    0  0.18110985850E+02 -0.93710380803E+00 -0.20997289479E+02  0.27744767754E+02  0.51100000000E-03 0.  1.
        -12    1    3    3    0    0 -0.24911705939E+01 -0.46419334698E+01 -0.46049195877E+01  0.69970537853E+01  0.00000000000E+00 0.  1.
</event>
<event>
 7    1  0.1542786E-009  0.4778727E+02  0.7816164E-02  0.1312668E+00
        -11   -1    0    0    0    0  0.00000000000E+00  0.00000000000E+00  0.45593999997E+02  0.45594000000E+02  0.51100000000E-03 0. -1.
         11   -1    0    0    0    0 -0.00000000000E+00 -0.00000000000E+00 -0.45593999997E+02  0.45594000000E+02  0.51100000000E-03 0.  1.
    9900012    2    1    2    0    0 -0.89245448210E+01  0.17964118028E+02  0.38487220613E+02  0.47787272042E+02  0.20000004548E+02 0.  0.
        -12    1    1    2    0    0  0.89245448210E+01 -0.17964118028E+02 -0.38487220613E+02  0.43400727958E+02  0.00000000000E+00 0.  1.
         11    1    3    3    0    0 -0.13726380503E+02  0.12417396200E+02  0.30633826667E+02  0.35791571446E+02  0.51100000000E-03 0. -1.
        -11    1    3    3    0    0  0.25323351351E+01  0.61733419300E+01  0.62869131501E+01  0.91677777591E+01  0.51100000000E-03 0.  1.
        -12    1    3    3    0    0  0.22695005467E+01 -0.62662010218E+00  0.15664807964E+01  0.28279228365E+01  0.00000000000E+00 0.  1.
</event>
<event>
 7    1  0.1542786E-009  0.4778728E+02  0.7816164E-02  0.1312668E+00
        -11   -1    0    0    0    0  0.00000000000E+00  0.00000000000E+00  0.45593999997E+02  0.45594000000E+02  0.51100000000E-03 0.  1.
         11   -1    0    0    0    0 -0.00000000000E+00 -0.00000000000E+00 -0.45593999997E+02  0.45594000000E+02  0.51100000000E-03 0. -1.
    9900012    2    1    2    0    0 -0.37958043192E+02  0.18411067897E+02 -0.10190311466E+02  0.47787275215E+02  0.20000019017E+02 0.  0.
        -12    1    1    2    0    0  0.37958043192E+02 -0.18411067897E+02  0.10190311466E+02  0.43400724785E+02  0.00000000000E+00 0.  1.
         11    1    3    3    0    0 -0.11592602697E+02  0.91443137053E+01 -0.68568434243E+01  0.16279533545E+02  0.51100000000E-03 0. -1.
        -11    1    3    3    0    0 -0.72009978908E+01  0.95073785066E+01  0.60237520607E+00  0.11941837080E+02  0.51100000000E-03 0.  1.
         12    1    3    3    0    0 -0.19164442604E+02 -0.24062431524E+00 -0.39358432478E+01  0.19565904591E+02  0.00000000000E+00 0. -1.
</event>
<event>
 7    1  0.1542786E-009  0.4778727E+02  0.7816164E-02  0.1312668E+00
        -11   -1    0    0    0    0  0.00000000000E+00  0.00000000000E+00  0.45593999997E+02  0.45594000000E+02  0.51100000000E-03 0.  1.
         11   -1    0    0    0    0 -0.00000000000E+00 -0.00000000000E+00 -0.45593999997E+02  0.45594000000E+02  0.51100000000E-03 0. -1.
    9900012    2    1    2    0    0 -0.33812615245E+02 -0.57346407524E+01 -0.26597823470E+02  0.47787271117E+02  0.20000000329E+02 0.  0.
        -12    1    1    2    0    0  0.33812615245E+02  0.57346407524E+01  0.26597823470E+02  0.43400728883E+02  0.00000000000E+00 0.  1.
         11    1    3    3    0    0 -0.14036003642E+02 -0.47453858407E+01 -0.18232380637E+02  0.23493569099E+02  0.51100000000E-03 0. -1.
        -11    1    3    3    0    0 -0.12293083460E+02  0.41897555487E+01 -0.78559685235E+01  0.15178609759E+02  0.51100000000E-03 0.  1.
        -12    1    3    3    0    0 -0.74835281425E+01 -0.51790104604E+01 -0.50947430862E+00  0.91150922585E+01  0.00000000000E+00 0.  1.
</event>
<event>
 7    1  0.1542786E-009  0.4778727E+02  0.7816164E-02  0.1312668E+00
        -11   -1    0    0    0    0  0.00000000000E+00  0.00000000000E+00  0.45593999997E+02  0.45594000000E+02  0.51100000000E-03 0.  1.
         11   -1    0    0    0    0 -0.00000000000E+00 -0.00000000000E+00 -0.45593999997E+02  0.45594000000E+02  0.51100000000E-03 0. -1.
    9900012    2    1    2    0    0  0.28313922449E+02  0.32465276611E+02 -0.52868711044E+01  0.47787269638E+02  0.19999993588E+02 0.  0.
        -12    1    1    2    0    0 -0.28313922449E+02 -0.32465276611E+02  0.52868711044E+01  0.43400730362E+02  0.00000000000E+00 0.  1.
         11    1    3    3    0    0  0.10748825590E+02  0.14379943584E+02  0.60370403655E+00  0.17963420828E+02  0.51100000000E-03 0. -1.
        -11    1    3    3    0    0 -0.26915391304E+01  0.21323714882E+01 -0.35588006225E+00  0.34522517194E+01  0.51100000000E-03 0.  1.
        -12    1    3    3    0    0  0.20256635990E+02  0.15952961539E+02 -0.55346950787E+01  0.26371597090E+02  0.00000000000E+00 0.  1.
</event>
<event>
 7    1  0.1542786E-009  0.4778728E+02  0.7816164E-02  0.1312668E+00
        -11   -1    0    0    0    0  0.00000000000E+00  0.00000000000E+00  0.45593999997E+02  0.45594000000E+02  0.51100000000E-03 0.  1.
         11   -1    0    0    0    0 -0.00000000000E+00 -0.00000000000E+00 -0.45593999997E+02  0.45594000000E+02  0.51100000000E-03 0. -1.
    9900012    2    1    2    0    0 -0.32679500430E+02 -0.13674252732E+02 -0.25073651308E+02  0.47787275051E+02  0.20000018270E+02 0.  0.
        -12    1    1    2    0    0  0.32679500430E+02  0.13674252732E+02  0.25073651308E+02  0.43400724949E+02  0.00000000000E+00 0.  1.
         11    1    3    3    0    0 -0.76596294889E+01 -0.54743069090E+01 -0.14513725365E+01  0.95259877463E+01  0.51100000000E-03 0. -1.
        -11    1    3    3    0    0 -0.30746851570E+01  0.34296625664E+01 -0.69868673844E+01  0.83685476782E+01  0.51100000000E-03 0.  1.
         12    1    3    3    0    0 -0.21945185785E+02 -0.11629608389E+02 -0.16635411387E+02  0.29892739627E+02  0.00000000000E+00 0. -1.
</event>
<event>
 7    1  0.1542786E-009  0.4778727E+02  0.7816164E-02  0.1312668E+00
        -11   -1    0    0    0    0  0.00000000000E+00  0.00000000000E+00  0.45593999997E+02  0.45594000000E+02  0.51100000000E-03 0.  1.
         11   -1    0    0    0    0 -0.00000000000E+00 -0.00000000000E+00 -0.45593999997E+02  0.45594000000E+02  0.51100000000E-03 0. -1.
    9900012    2    1    2    0    0  0.12820485952E+01 -0.28658668982E+02 -0.32567778950E+02  0.47787272101E+02  0.20000004818E+02 0.  0.
        -12    1    1    2    0    0 -0.12820485952E+01  0.28658668982E+02  0.32567778950E+02  0.43400727899E+02  0.00000000000E+00 0.  1.
         11    1    3    3    0    0  0.14594443555E+01 -0.19538097884E+02 -0.15618123826E+02  0.25055798508E+02  0.51100000000E-03 0. -1.
        -11    1    3    3    0    0 -0.49462882755E+00 -0.16676719910E+01  0.18298098263E+01  0.25246765750E+01  0.51100000000E-03 0.  1.
        -12    1    3    3    0    0  0.31723306727E+00 -0.74528991066E+01 -0.18779464951E+02  0.20206797018E+02  0.00000000000E+00 0.  1.
</event>
<event>
 7    1  0.1768663E-009  0.4778726E+02  0.7816164E-02  0.1312668E+00
        -11   -1    0    0    0    0  0.00000000000E+00  0.00000000000E+00  0.45593999997E+02  0.45594000000E+02  0.51100000000E-03 0.  1.
         11   -1    0    0    0    0 -0.00000000000E+00 -0.00000000000E+00 -0.45593999997E+02  0.45594000000E+02  0.51100000000E-03 0. -1.
    9900012    2    1    2    0    0  0.17623927584E+02 -0.34658955480E+02 -0.19281557975E+02  0.47787256961E+02  0.19999935786E+02 0.  0.
        -12    1    1    2    0    0 -0.17623927584E+02  0.34658955480E+02  0.19281557975E+02  0.43400743039E+02  0.00000000000E+00 0.  1.
         11    1    3    3    0    0  0.13231455830E+02 -0.14731496149E+02 -0.87918672504E+01  0.21665302495E+02  0.51100000000E-03 0. -1.
        -11    1    3    3    0    0  0.33968326651E+01 -0.19391974263E+02 -0.12846615463E+02  0.23507927749E+02  0.51100000000E-03 0.  1.
        -12    1    3    3    0    0  0.99563908868E+00 -0.53548506747E+00  0.23569247380E+01  0.26140267162E+01  0.00000000000E+00 0.  1.
</event>
<event>
 7    1  0.1542786E-009  0.4778727E+02  0.7816164E-02  0.1312668E+00
        -11   -1    0    0    0    0  0.00000000000E+00  0.00000000000E+00  0.45593999997E+02  0.45594000000E+02  0.51100000000E-03 0.  1.
         11   -1    0    0    0    0 -0.00000000000E+00 -0.00000000000E+00 -0.45593999997E+02  0.45594000000E+02  0.51100000000E-03 0. -1.
    9900012    2    1    2    0    0 -0.23959916278E+02 -0.27104270458E+02 -0.23977157371E+02  0.47787272579E+02  0.20000006995E+02 0.  0.
        -12    1    1    2    0    0  0.23959916278E+02  0.27104270458E+02  0.23977157371E+02  0.43400727421E+02  0.00000000000E+00 0.  1.
         11    1    3    3    0    0 -0.10709168291E+02 -0.16559861002E+02 -0.17911388362E+02  0.26640816714E+02  0.51100000000E-03 0. -1.
        -11    1    3    3    0    0 -0.13506607705E+02 -0.12337980410E+02 -0.47289076028E+01  0.18894887660E+02  0.51100000000E-03 0.  1.
        -12    1    3    3    0    0  0.25585971791E+00  0.17935709537E+01 -0.13368614062E+01  0.22515682048E+01  0.00000000000E+00 0.  1.
</event>
<event>
 7    1  0.1542786E-009  0.4778729E+02  0.7816164E-02  0.1312668E+00
        -11   -1    0    0    0    0  0.00000000000E+00  0.00000000000E+00  0.45593999997E+02  0.45594000000E+02  0.51100000000E-03 0. -1.
         11   -1    0    0    0    0 -0.00000000000E+00 -0.00000000000E+00 -0.45593999997E+02  0.45594000000E+02  0.51100000000E-03 0.  1.
    9900012    2    1    2    0    0  0.29758645298E+02  0.30964078753E+02 -0.62666472352E+01  0.47787285599E+02  0.20000066358E+02 0.  0.
        -12    1    1    2    0    0 -0.29758645298E+02 -0.30964078753E+02  0.62666472352E+01  0.43400714401E+02  0.00000000000E+00 0.  1.
         11    1    3    3    0    0  0.20147966825E+01  0.75489042012E+01  0.25692001209E+01  0.82247279489E+01  0.51100000000E-03 0. -1.
        -11    1    3    3    0    0  0.68262781026E+01  0.33081721252E+01 -0.72684620715E+01  0.10505837267E+02  0.51100000000E-03 0.  1.
         12    1    3    3    0    0  0.20917570513E+02  0.20107002426E+02 -0.15673852846E+01  0.29056720382E+02  0.00000000000E+00 0. -1.
</event>
<event>
 7    1  0.1542786E-009  0.4778727E+02  0.7816164E-02  0.1312668E+00
        -11   -1    0    0    0    0  0.00000000000E+00  0.00000000000E+00  0.45593999997E+02  0.45594000000E+02  0.51100000000E-03 0.  1.
         11   -1    0    0    0    0 -0.00000000000E+00 -0.00000000000E+00 -0.45593999997E+02  0.45594000000E+02  0.51100000000E-03 0. -1.
    9900012    2    1    2    0    0  0.90549581590E+01  0.41469267078E+02 -0.90515624630E+01  0.47787272330E+02  0.20000005863E+02 0.  0.
        -12    1    1    2    0    0 -0.90549581590E+01 -0.41469267078E+02  0.90515624630E+01  0.43400727670E+02  0.00000000000E+00 0.  1.
         11    1    3    3    0    0  0.66475735447E+01  0.13989751944E+02 -0.67562616839E+01  0.16898238538E+02  0.51100000000E-03 0. -1.
        -11    1    3    3    0    0  0.31687300723E+01  0.13943324858E+02  0.54179399461E+01  0.15290887217E+02  0.51100000000E-03 0.  1.
         12    1    3    3    0    0 -0.76134545795E+00  0.13536190276E+02 -0.77132407252E+01  0.15598146575E+02  0.00000000000E+00 0. -1.
</event>
<event>
 7    1  0.1542786E-009  0.4778728E+02  0.7816164E-02  0.1312668E+00
        -11   -1    0    0    0    0  0.00000000000E+00  0.00000000000E+00  0.45593999997E+02  0.45594000000E+02  0.51100000000E-03 0. -1.
         11   -1    0    0    0    0 -0.00000000000E+00 -0.00000000000E+00 -0.45593999997E+02  0.45594000000E+02  0.51100000000E-03 0.  1.
    9900012    2    1    2    0    0  0.32858501183E+01 -0.15851151642E+02  0.40268682670E+02  0.47787278539E+02  0.20000034171E+02 0.  0.
        -12    1    1    2    0    0 -0.32858501183E+01  0.15851151642E+02 -0.40268682670E+02  0.43400721461E+02  0.00000000000E+00 0.  1.
         11    1    3    3    0    0 -0.11930938916E+01 -0.46253353516E+01  0.34329378584E+01  0.58823688043E+01  0.51100000000E-03 0. -1.
        -11    1    3    3    0    0 -0.34887541229E+01 -0.10485962420E+02  0.14868639885E+02  0.18525746017E+02  0.51100000000E-03 0.  1.
         12    1    3    3    0    0  0.79676981328E+01 -0.73985387010E+00  0.21967104926E+02  0.23379163717E+02  0.00000000000E+00 0. -1.
</event>
<event>
 7    1  0.1542786E-009  0.4778728E+02  0.7816164E-02  0.1312668E+00
        -11   -1    0    0    0    0  0.00000000000E+00  0.00000000000E+00  0.45593999997E+02  0.45594000000E+02  0.51100000000E-03 0.  1.
         11   -1    0    0    0    0 -0.00000000000E+00 -0.00000000000E+00 -0.45593999997E+02  0.45594000000E+02  0.51100000000E-03 0. -1.
    9900012    2    1    2    0    0 -0.95195656333E+01 -0.14247786104E+02 -0.39874814445E+02  0.47787281507E+02  0.20000047701E+02 0.  0.
        -12    1    1    2    0    0  0.95195656333E+01  0.14247786104E+02  0.39874814445E+02  0.43400718493E+02  0.00000000000E+00 0.  1.
         11    1    3    3    0    0 -0.22368272856E+01 -0.58182154277E+01 -0.24271718604E+02  0.25059356562E+02  0.51100000000E-03 0. -1.
        -11    1    3    3    0    0 -0.10017924934E+02 -0.45933495596E+01 -0.13852666111E+02  0.17701808913E+02  0.51100000000E-03 0.  1.
        -12    1    3    3    0    0  0.27351865862E+01 -0.38362211167E+01 -0.17504297302E+01  0.50261160311E+01  0.00000000000E+00 0.  1.
</event>
<event>
 7    1  0.1542786E-009  0.4778727E+02  0.7816164E-02  0.1312668E+00
        -11   -1    0    0    0    0  0.00000000000E+00  0.00000000000E+00  0.45593999997E+02  0.45594000000E+02  0.51100000000E-03 0. -1.
         11   -1    0    0    0    0 -0.00000000000E+00 -0.00000000000E+00 -0.45593999997E+02  0.45594000000E+02  0.51100000000E-03 0.  1.
    9900012    2    1    2    0    0  0.13002933059E+02 -0.29150791873E+02  0.29407121097E+02  0.47787266064E+02  0.19999977292E+02 0.  0.
        -12    1    1    2    0    0 -0.13002933059E+02  0.29150791873E+02 -0.29407121097E+02  0.43400733936E+02  0.00000000000E+00 0.  1.
         11    1    3    3    0    0  0.24139137355E+01 -0.14672889268E+02  0.99243158487E+01  0.17877715299E+02  0.51100000000E-03 0. -1.
        -11    1    3    3    0    0 -0.31887204928E+01 -0.26893034296E+01  0.16762456681E+01  0.44955634929E+01  0.51100000000E-03 0.  1.
         12    1    3    3    0    0  0.13777739816E+02 -0.11788599176E+02  0.17806559580E+02  0.25413987272E+02  0.00000000000E+00 0. -1.
</event>
<event>
 7    1  0.1542786E-009  0.4778727E+02  0.7816164E-02  0.1312668E+00
        -11   -1    0    0    0    0  0.00000000000E+00  0.00000000000E+00  0.45593999997E+02  0.45594000000E+02  0.51100000000E-03 0.  1.
         11   -1    0    0    0    0 -0.00000000000E+00 -0.00000000000E+00 -0.45593999997E+02  0.45594000000E+02  0.51100000000E-03 0. -1.
    9900012    2    1    2    0    0  0.30733789035E+02  0.23207770049E+02 -0.20011420558E+02  0.47787270376E+02  0.19999996954E+02 0.  0.
        -12    1    1    2    0    0 -0.30733789035E+02 -0.23207770049E+02  0.20011420558E+02  0.43400729624E+02  0.00000000000E+00 0.  1.
         11    1    3    3    0    0  0.19672784657E+02  0.15072520783E+02 -0.14273650623E+02  0.28599588132E+02  0.51100000000E-03 0. -1.
        -11    1    3    3    0    0  0.10581213281E+01  0.82081929251E+01 -0.20482312335E+01  0.85258022078E+01  0.51100000000E-03 0.  1.
         12    1    3    3    0    0  0.10002883050E+02 -0.72943659600E-01 -0.36895387014E+01  0.10661880037E+02  0.00000000000E+00 0. -1.
</event>
<event>
 7    1  0.1542786E-009  0.4778729E+02  0.7816164E-02  0.1312668E+00
        -11   -1    0    0    0    0  0.00000000000E+00  0.00000000000E+00  0.45593999997E+02  0.45594000000E+02  0.51100000000E-03 0.  1.
         11   -1    0    0    0    0 -0.00000000000E+00 -0.00000000000E+00 -0.45593999997E+02  0.45594000000E+02  0.51100000000E-03 0. -1.
    9900012    2    1    2    0    0 -0.35205929005E+02 -0.16946599495E+02 -0.18893844644E+02  0.47787285294E+02  0.20000064970E+02 0.  0.
        -12    1    1    2    0    0  0.35205929005E+02  0.16946599495E+02  0.18893844644E+02  0.43400714706E+02  0.00000000000E+00 0.  1.
         11    1    3    3    0    0 -0.15189585343E+02 -0.73723170617E+01 -0.49632898544E+01  0.17598545627E+02  0.51100000000E-03 0. -1.
        -11    1    3    3    0    0  0.22468408046E+01 -0.11660837580E+01  0.15232000401E+00  0.25359902556E+01  0.51100000000E-03 0.  1.
        -12    1    3    3    0    0 -0.22263184467E+02 -0.84081986750E+01 -0.14082874793E+02  0.27652749411E+02  0.00000000000E+00 0.  1.
</event>
<event>
 7    1  0.1542786E-009  0.4778727E+02  0.7816164E-02  0.1312668E+00
        -11   -1    0    0    0    0  0.00000000000E+00  0.00000000000E+00  0.45593999997E+02  0.45594000000E+02  0.51100000000E-03 0.  1.
         11   -1    0    0    0    0 -0.00000000000E+00 -0.00000000000E+00 -0.45593999997E+02  0.45594000000E+02  0.51100000000E-03 0. -1.
    9900012    2    1    2    0    0  0.25366764596E+01  0.28345060359E+02 -0.32768065949E+02  0.47787270511E+02  0.19999997566E+02 0.  0.
        -12    1    1    2    0    0 -0.25366764596E+01 -0.28345060359E+02  0.32768065949E+02  0.43400729489E+02  0.00000000000E+00 0.  1.
         11    1    3    3    0    0 -0.24080775430E+00  0.26547980318E+02 -0.26695517769E+02  0.37649753207E+02  0.51100000000E-03 0. -1.
        -11    1    3    3    0    0 -0.24567719899E+01  0.56047330314E+00 -0.90085186636E+00  0.26760779660E+01  0.51100000000E-03 0.  1.
         12    1    3    3    0    0  0.52342562038E+01  0.12366067377E+01 -0.51716963133E+01  0.74614393375E+01  0.00000000000E+00 0. -1.
</event>
<event>
 7    1  0.1542786E-009  0.4778727E+02  0.7816164E-02  0.1312668E+00
        -11   -1    0    0    0    0  0.00000000000E+00  0.00000000000E+00  0.45593999997E+02  0.45594000000E+02  0.51100000000E-03 0.  1.
         11   -1    0    0    0    0 -0.00000000000E+00 -0.00000000000E+00 -0.45593999997E+02  0.45594000000E+02  0.51100000000E-03 0. -1.
    9900012    2    1    2    0    0  0.75091127717E+01  0.53709558866E+01 -0.42407417592E+02  0.47787274101E+02  0.20000013937E+02 0.  0.
        -12    1    1    2    0    0 -0.75091127717E+01 -0.53709558866E+01  0.42407417592E+02  0.43400725899E+02  0.00000000000E+00 0.  1.
         11    1    3    3    0    0  0.17366769224E+01  0.19709235296E+01 -0.18149358699E+02  0.18338478883E+02  0.51100000000E-03 0. -1.
        -11    1    3    3    0    0  0.16072069886E+01 -0.39649918930E+01 -0.59630888580E+00  0.43197059581E+01  0.51100000000E-03 0.  1.
         12    1    3    3    0    0  0.41652288608E+01  0.73650242501E+01 -0.23661750007E+02  0.25129089260E+02  0.00000000000E+00 0. -1.
</event>
<event>
 7    1  0.1542786E-009  0.4778727E+02  0.7816164E-02  0.1312668E+00
        -11   -1    0    0    0    0  0.00000000000E+00  0.00000000000E+00  0.45593999997E+02  0.45594000000E+02  0.51100000000E-03 0. -1.
         11   -1    0    0    0    0 -0.00000000000E+00 -0.00000000000E+00 -0.45593999997E+02  0.45594000000E+02  0.51100000000E-03 0.  1.
    9900012    2    1    2    0    0  0.32744285876E+02  0.26597460093E+02  0.10198534635E+02  0.47787271324E+02  0.20000001274E+02 0.  0.
        -12    1    1    2    0    0 -0.32744285876E+02 -0.26597460093E+02 -0.10198534635E+02  0.43400728676E+02  0.00000000000E+00 0.  1.
         11    1    3    3    0    0  0.37480388621E+01  0.14646993384E+01  0.78864865438E+01  0.88538019929E+01  0.51100000000E-03 0. -1.
        -11    1    3    3    0    0  0.14732978762E+02  0.95871030841E+01  0.29641355466E+01  0.17825804570E+02  0.51100000000E-03 0.  1.
        -12    1    3    3    0    0  0.14263268252E+02  0.15545657670E+02 -0.65208745570E+00  0.21107664761E+02  0.00000000000E+00 0.  1.
</event>
<event>
 7    1  0.1877979E-009  0.4778727E+02  0.7816164E-02  0.1312668E+00
        -11   -1    0    0    0    0  0.00000000000E+00  0.00000000000E+00  0.45593999997E+02  0.45594000000E+02  0.51100000000E-03 0.  1.
         11   -1    0    0    0    0 -0.00000000000E+00 -0.00000000000E+00 -0.45593999997E+02  0.45594000000E+02  0.51100000000E-03 0. -1.
    9900012    2    1    2    0    0 -0.35833160675E+02  0.45812601826E+01 -0.24054517374E+02  0.47787272415E+02  0.20000006248E+02 0.  0.
        -12    1    1    2    0    0  0.35833160675E+02 -0.45812601826E+01  0.24054517374E+02  0.43400727585E+02  0.00000000000E+00 0.  1.
         11    1    3    3    0    0 -0.19637547072E+02  0.32269006984E+01 -0.17151996208E+02  0.26272364136E+02  0.51100000000E-03 0. -1.
        -11    1    3    3    0    0  0.12803033817E+01  0.76362697233E+00 -0.33570914053E+01  0.36731955933E+01  0.51100000000E-03 0.  1.
        -12    1    3    3    0    0 -0.17475916985E+02  0.59073251189E+00 -0.35454297604E+01  0.17841712685E+02  0.00000000000E+00 0.  1.
</event>
<event>
 7    1  0.1542786E-009  0.4778727E+02  0.7816164E-02  0.1312668E+00
        -11   -1    0    0    0    0  0.00000000000E+00  0.00000000000E+00  0.45593999997E+02  0.45594000000E+02  0.51100000000E-03 0.  1.
         11   -1    0    0    0    0 -0.00000000000E+00 -0.00000000000E+00 -0.45593999997E+02  0.45594000000E+02  0.51100000000E-03 0. -1.
    9900012    2    1    2    0    0 -0.25225474035E+02 -0.12094449902E+02 -0.33181670036E+02  0.47787268612E+02  0.19999988908E+02 0.  0.
        -12    1    1    2    0    0  0.25225474035E+02  0.12094449902E+02  0.33181670036E+02  0.43400731388E+02  0.00000000000E+00 0.  1.
         11    1    3    3    0    0 -0.45596120719E+01  0.26424769512E+01 -0.47304663209E+01  0.70816706050E+01  0.51100000000E-03 0. -1.
        -11    1    3    3    0    0 -0.54607492867E+01  0.24799141011E+01 -0.76159697366E+01  0.96939544052E+01  0.51100000000E-03 0.  1.
         12    1    3    3    0    0 -0.15205112676E+02 -0.17216840954E+02 -0.20835233978E+02  0.31011643601E+02  0.00000000000E+00 0. -1.
</event>
<event>
 7    1  0.1542786E-009  0.4778727E+02  0.7816164E-02  0.1312668E+00
        -11   -1    0    0    0    0  0.00000000000E+00  0.00000000000E+00  0.45593999997E+02  0.45594000000E+02  0.51100000000E-03 0.  1.
         11   -1    0    0    0    0 -0.00000000000E+00 -0.00000000000E+00 -0.45593999997E+02  0.45594000000E+02  0.51100000000E-03 0. -1.
    9900012    2    1    2    0    0 -0.29457004597E+02  0.72666967419E+01 -0.31033904675E+02  0.47787271426E+02  0.20000001740E+02 0.  0.
        -12    1    1    2    0    0  0.29457004597E+02 -0.72666967419E+01  0.31033904675E+02  0.43400728574E+02  0.00000000000E+00 0.  1.
         11    1    3    3    0    0 -0.13416358757E+02 -0.46272394104E+01 -0.10063689735E+02  0.17397927411E+02  0.51100000000E-03 0. -1.
        -11    1    3    3    0    0 -0.66814222939E+01  0.52474240465E+01 -0.15495141227E+02  0.17671340212E+02  0.51100000000E-03 0.  1.
        -12    1    3    3    0    0 -0.93592235464E+01  0.66465121058E+01 -0.54750737123E+01  0.12718003802E+02  0.00000000000E+00 0.  1.
</event>
<event>
 7    1  0.1542786E-009  0.4778727E+02  0.7816164E-02  0.1312668E+00
        -11   -1    0    0    0    0  0.00000000000E+00  0.00000000000E+00  0.45593999997E+02  0.45594000000E+02  0.51100000000E-03 0.  1.
         11   -1    0    0    0    0 -0.00000000000E+00 -0.00000000000E+00 -0.45593999997E+02  0.45594000000E+02  0.51100000000E-03 0. -1.
    9900012    2    1    2    0    0 -0.19145016054E+02  0.96229337106E+01 -0.37742425837E+02  0.47787271885E+02  0.20000003831E+02 0.  0.
        -12    1    1    2    0    0  0.19145016054E+02 -0.96229337106E+01  0.37742425837E+02  0.43400728115E+02  0.00000000000E+00 0.  1.
         11    1    3    3    0    0 -0.69757496891E+01  0.66216044607E+01 -0.98547462335E+01  0.13770357764E+02  0.51100000000E-03 0. -1.
        -11    1    3    3    0    0 -0.10676698023E+02  0.18686242137E+01 -0.29573010481E+02  0.31496771045E+02  0.51100000000E-03 0.  1.
        -12    1    3    3    0    0 -0.14925683420E+01  0.11327050362E+01  0.16853308776E+01  0.25201430757E+01  0.00000000000E+00 0.  1.
</event>
<event>
 7    1  0.1542786E-009  0.4778728E+02  0.7816164E-02  0.1312668E+00
        -11   -1    0    0    0    0  0.00000000000E+00  0.00000000000E+00  0.45593999997E+02  0.45594000000E+02  0.51100000000E-03 0.  1.
         11   -1    0    0    0    0 -0.00000000000E+00 -0.00000000000E+00 -0.45593999997E+02  0.45594000000E+02  0.51100000000E-03 0. -1.
    9900012    2    1    2    0    0  0.10222107708E+02 -0.12462115494E+01 -0.42161336212E+02  0.47787276499E+02  0.20000024869E+02 0.  0.
        -12    1    1    2    0    0 -0.10222107708E+02  0.12462115494E+01  0.42161336212E+02  0.43400723501E+02  0.00000000000E+00 0.  1.
         11    1    3    3    0    0 -0.38195632649E+01 -0.32292996913E+01 -0.10754875217E+02  0.11861061555E+02  0.51100000000E-03 0. -1.
        -11    1    3    3    0    0  0.14433224780E+02 -0.95980387687E-01 -0.22198254602E+02  0.26478098447E+02  0.51100000000E-03 0.  1.
         12    1    3    3    0    0 -0.39155380642E+00  0.20790685296E+01 -0.92082063940E+01  0.94481164964E+01  0.00000000000E+00 0. -1.
</event>
<event>
 7    1  0.1542786E-009  0.4778727E+02  0.7816164E-02  0.1312668E+00
        -11   -1    0    0    0    0  0.00000000000E+00  0.00000000000E+00  0.45593999997E+02  0.45594000000E+02  0.51100000000E-03 0.  1.
         11   -1    0    0    0    0 -0.00000000000E+00 -0.00000000000E+00 -0.45593999997E+02  0.45594000000E+02  0.51100000000E-03 0. -1.
    9900012    2    1    2    0    0 -0.14737128983E+02  0.21364825852E+02 -0.34784835146E+02  0.47787268318E+02  0.19999987571E+02 0.  0.
        -12    1    1    2    0    0  0.14737128983E+02 -0.21364825852E+02  0.34784835146E+02  0.43400731682E+02  0.00000000000E+00 0.  1.
         11    1    3    3    0    0  0.53252663295E+00  0.22833404375E+01 -0.13570252596E+02  0.13771310175E+02  0.51100000000E-03 0. -1.
        -11    1    3    3    0    0 -0.71444754977E+01  0.16269642759E+02 -0.16297541397E+02  0.24111297383E+02  0.51100000000E-03 0.  1.
        -12    1    3    3    0    0 -0.81251801183E+01  0.28118426551E+01 -0.49170411538E+01  0.99046607605E+01  0.00000000000E+00 0.  1.
</event>
<event>
 7    1  0.2023436E-009  0.4778727E+02  0.7816164E-02  0.1312668E+00
        -11   -1    0    0    0    0  0.00000000000E+00  0.00000000000E+00  0.45593999997E+02  0.45594000000E+02  0.51100000000E-03 0. -1.
         11   -1    0    0    0    0 -0.00000000000E+00 -0.00000000000E+00 -0.45593999997E+02  0.45594000000E+02  0.51100000000E-03 0.  1.
    9900012    2    1    2    0    0 -0.57018062999E+01 -0.10971872605E+02  0.41602051428E+02  0.47787271129E+02  0.20000000384E+02 0.  0.
        -12    1    1    2    0    0  0.57018062999E+01  0.10971872605E+02 -0.41602051428E+02  0.43400728871E+02  0.00000000000E+00 0.  1.
         11    1    3    3    0    0  0.23658203873E+00 -0.62058359504E+01  0.25759620877E+02  0.26497668556E+02  0.51100000000E-03 0. -1.
        -11    1    3    3    0    0 -0.23209655665E+01 -0.74277193667E+01  0.42703838663E+01  0.88766026597E+01  0.51100000000E-03 0.  1.
         12    1    3    3    0    0 -0.36174227722E+01  0.26616827123E+01  0.11572046685E+02  0.12412999913E+02  0.00000000000E+00 0. -1.
</event>
<event>
 7    1  0.1542786E-009  0.4778727E+02  0.7816164E-02  0.1312668E+00
        -11   -1    0    0    0    0  0.00000000000E+00  0.00000000000E+00  0.45593999997E+02  0.45594000000E+02  0.51100000000E-03 0.  1.
         11   -1    0    0    0    0 -0.00000000000E+00 -0.00000000000E+00 -0.45593999997E+02  0.45594000000E+02  0.51100000000E-03 0. -1.
    9900012    2    1    2    0    0 -0.25092954699E+02 -0.33396645705E+02 -0.11774164849E+02  0.47787270999E+02  0.19999999794E+02 0.  0.
        -12    1    1    2    0    0  0.25092954699E+02  0.33396645705E+02  0.11774164849E+02  0.43400729001E+02  0.00000000000E+00 0.  1.
         11    1    3    3    0    0 -0.18634315934E+02 -0.27426783638E+02 -0.13912431004E+02  0.35958614097E+02  0.51100000000E-03 0. -1.
        -11    1    3    3    0    0 -0.56553030037E+01 -0.36841007490E+00 -0.28141005384E+00  0.56742726342E+01  0.51100000000E-03 0.  1.
        -12    1    3    3    0    0 -0.80333576117E+00 -0.56014519925E+01  0.24196762087E+01  0.61543842685E+01  0.00000000000E+00 0.  1.
</event>
<event>
 7    1  0.1542786E-009  0.4778727E+02  0.7816164E-02  0.1312668E+00
        -11   -1    0    0    0    0  0.00000000000E+00  0.00000000000E+00  0.45593999997E+02  0.45594000000E+02  0.51100000000E-03 0.  1.
         11   -1    0    0    0    0 -0.00000000000E+00 -0.00000000000E+00 -0.45593999997E+02  0.45594000000E+02  0.51100000000E-03 0. -1.
    9900012    2    1    2    0    0 -0.27260117636E+02 -0.18404390148E+02 -0.28315861340E+02  0.47787267360E+02  0.19999983202E+02 0.  0.
        -12    1    1    2    0    0  0.27260117636E+02  0.18404390148E+02  0.28315861340E+02  0.43400732640E+02  0.00000000000E+00 0.  1.
         11    1    3    3    0    0 -0.88835797591E+01  0.56253138352E-01 -0.26102593895E+01  0.92592984666E+01  0.51100000000E-03 0. -1.
        -11    1    3    3    0    0  0.11142804399E+01 -0.41218740355E+01 -0.57602043997E+01  0.71701758312E+01  0.51100000000E-03 0.  1.
        -12    1    3    3    0    0 -0.19490818317E+02 -0.14338769251E+02 -0.19945397551E+02  0.31357793062E+02  0.00000000000E+00 0.  1.
</event>
<event>
 7    1  0.1542786E-009  0.4778727E+02  0.7816164E-02  0.1312668E+00
        -11   -1    0    0    0    0  0.00000000000E+00  0.00000000000E+00  0.45593999997E+02  0.45594000000E+02  0.51100000000E-03 0.  1.
         11   -1    0    0    0    0 -0.00000000000E+00 -0.00000000000E+00 -0.45593999997E+02  0.45594000000E+02  0.51100000000E-03 0. -1.
    9900012    2    1    2    0    0  0.22121601252E+02 -0.35351592309E+02  0.12021766759E+02  0.47787271933E+02  0.20000004051E+02 0.  0.
        -12    1    1    2    0    0 -0.22121601252E+02  0.35351592309E+02 -0.12021766759E+02  0.43400728067E+02  0.00000000000E+00 0.  1.
         11    1    3    3    0    0  0.10124706128E+02 -0.90133825836E+01  0.34652470141E+01  0.13991378664E+02  0.51100000000E-03 0. -1.
        -11    1    3    3    0    0  0.81829369487E+01 -0.26348718112E+02  0.10493454030E+02  0.29518265210E+02  0.51100000000E-03 0.  1.
        -12    1    3    3    0    0  0.38139581749E+01  0.10508386346E-01 -0.19369342855E+01  0.42776280592E+01  0.00000000000E+00 0.  1.
</event>
<event>
 7    1  0.1542786E-009  0.4778727E+02  0.7816164E-02  0.1312668E+00
        -11   -1    0    0    0    0  0.00000000000E+00  0.00000000000E+00  0.45593999997E+02  0.45594000000E+02  0.51100000000E-03 0. -1.
         11   -1    0    0    0    0 -0.00000000000E+00 -0.00000000000E+00 -0.45593999997E+02  0.45594000000E+02  0.51100000000E-03 0.  1.
    9900012    2    1    2    0    0  0.14365814321E+02 -0.40950583543E+02 -0.54409844247E+00  0.47787274698E+02  0.20000016657E+02 0.  0.
        -12    1    1    2    0    0 -0.14365814321E+02  0.40950583543E+02  0.54409844247E+00  0.43400725302E+02  0.00000000000E+00 0.  1.
         11    1    3    3    0    0  0.60089458510E+01 -0.19378660351E+02  0.11958541865E+01  0.20324122976E+02  0.51100000000E-03 0. -1.
        -11    1    3    3    0    0  0.18522449272E+01  0.73828047503E-01  0.37683936492E+01  0.41996491291E+01  0.51100000000E-03 0.  1.
        -12    1    3    3    0    0  0.65046235430E+01 -0.21645751240E+02 -0.55083462782E+01  0.23263502593E+02  0.00000000000E+00 0.  1.
</event>
<event>
 7    1  0.1542786E-009  0.4778728E+02  0.7816164E-02  0.1312668E+00
        -11   -1    0    0    0    0  0.00000000000E+00  0.00000000000E+00  0.45593999997E+02  0.45594000000E+02  0.51100000000E-03 0. -1.
         11   -1    0    0    0    0 -0.00000000000E+00 -0.00000000000E+00 -0.45593999997E+02  0.45594000000E+02  0.51100000000E-03 0.  1.
    9900012    2    1    2    0    0 -0.18616755386E+02  0.35582095363E+02  0.16460673686E+02  0.47787275700E+02  0.20000021228E+02 0.  0.
        -12    1    1    2    0    0  0.18616755386E+02 -0.35582095363E+02 -0.16460673686E+02  0.43400724300E+02  0.00000000000E+00 0.  1.
         11    1    3    3    0    0 -0.11266315309E+01  0.92548123878E+01 -0.36731403669E+01  0.10020619310E+02  0.51100000000E-03 0.  1.
        -11    1    3    3    0    0 -0.51182058086E+01  0.97322925054E+01  0.93117717628E+01  0.14409116619E+02  0.51100000000E-03 0. -1.
        -12    1    3    3    0    0 -0.12371918046E+02  0.16594990470E+02  0.10822042290E+02  0.23357539772E+02  0.00000000000E+00 0.  1.
</event>
<event>
 7    1  0.1542786E-009  0.4778727E+02  0.7816164E-02  0.1312668E+00
        -11   -1    0    0    0    0  0.00000000000E+00  0.00000000000E+00  0.45593999997E+02  0.45594000000E+02  0.51100000000E-03 0.  1.
         11   -1    0    0    0    0 -0.00000000000E+00 -0.00000000000E+00 -0.45593999997E+02  0.45594000000E+02  0.51100000000E-03 0. -1.
    9900012    2    1    2    0    0  0.17432209029E+02  0.27064392894E+02 -0.29107729779E+02  0.47787271812E+02  0.20000003499E+02 0.  0.
        -12    1    1    2    0    0 -0.17432209029E+02 -0.27064392894E+02  0.29107729779E+02  0.43400728188E+02  0.00000000000E+00 0.  1.
         11    1    3    3    0    0  0.11922456922E+01  0.99397206868E+01 -0.51962713917E+01  0.11279216895E+02  0.51100000000E-03 0. -1.
        -11    1    3    3    0    0 -0.13435254040E+01  0.23976955675E+01 -0.83513722613E+01  0.87920090681E+01  0.51100000000E-03 0.  1.
         12    1    3    3    0    0  0.17583488741E+02  0.14726976639E+02 -0.15560086126E+02  0.27716045849E+02  0.00000000000E+00 0. -1.
</event>
<event>
 7    1  0.1542786E-009  0.4778728E+02  0.7816164E-02  0.1312668E+00
        -11   -1    0    0    0    0  0.00000000000E+00  0.00000000000E+00  0.45593999997E+02  0.45594000000E+02  0.51100000000E-03 0.  1.
         11   -1    0    0    0    0 -0.00000000000E+00 -0.00000000000E+00 -0.45593999997E+02  0.45594000000E+02  0.51100000000E-03 0. -1.
    9900012    2    1    2    0    0 -0.15697392690E+02  0.39725329021E+02 -0.76884563064E+01  0.47787282685E+02  0.20000053075E+02 0.  0.
        -12    1    1    2    0    0  0.15697392690E+02 -0.39725329021E+02  0.76884563064E+01  0.43400717315E+02  0.00000000000E+00 0.  1.
         11    1    3    3    0    0 -0.21922045692E+01  0.21858795110E+02 -0.10271598296E+02  0.24251152887E+02  0.51100000000E-03 0. -1.
        -11    1    3    3    0    0 -0.79119107297E+01  0.12786979900E+02 -0.12033148180E+01  0.15084865037E+02  0.51100000000E-03 0.  1.
         12    1    3    3    0    0 -0.55932773910E+01  0.50795540103E+01  0.37864568074E+01  0.84512647616E+01  0.00000000000E+00 0. -1.
</event>
<event>
 7    1  0.1542786E-009  0.4778727E+02  0.7816164E-02  0.1312668E+00
        -11   -1    0    0    0    0  0.00000000000E+00  0.00000000000E+00  0.45593999997E+02  0.45594000000E+02  0.51100000000E-03 0.  1.
         11   -1    0    0    0    0 -0.00000000000E+00 -0.00000000000E+00 -0.45593999997E+02  0.45594000000E+02  0.51100000000E-03 0. -1.
    9900012    2    1    2    0    0  0.92559906832E+01  0.11952700025E+02 -0.40682707690E+02  0.47787272974E+02  0.20000008797E+02 0.  0.
        -12    1    1    2    0    0 -0.92559906832E+01 -0.11952700025E+02  0.40682707690E+02  0.43400727026E+02  0.00000000000E+00 0.  1.
         11    1    3    3    0    0 -0.23425187468E+01  0.19641239958E+01 -0.64479434084E+01  0.71359058016E+01  0.51100000000E-03 0. -1.
        -11    1    3    3    0    0  0.32027060314E+01  0.34032639528E+01  0.12292351233E+00  0.46748948552E+01  0.51100000000E-03 0.  1.
         12    1    3    3    0    0  0.83958033986E+01  0.65853120761E+01 -0.34357687794E+02  0.35976472317E+02  0.00000000000E+00 0. -1.
</event>
<event>
 7    1  0.1542786E-009  0.4778727E+02  0.7816164E-02  0.1312668E+00
        -11   -1    0    0    0    0  0.00000000000E+00  0.00000000000E+00  0.45593999997E+02  0.45594000000E+02  0.51100000000E-03 0.  1.
         11   -1    0    0    0    0 -0.00000000000E+00 -0.00000000000E+00 -0.45593999997E+02  0.45594000000E+02  0.51100000000E-03 0. -1.
    9900012    2    1    2    0    0 -0.28367717208E+02  0.11916266827E+01 -0.32824930003E+02  0.47787269782E+02  0.19999994244E+02 0.  0.
        -12    1    1    2    0    0  0.28367717208E+02 -0.11916266827E+01  0.32824930003E+02  0.43400730218E+02  0.00000000000E+00 0.  1.
         11    1    3    3    0    0 -0.21305203125E+02  0.92269266041E+00 -0.30255723664E+02  0.37015832513E+02  0.51100000000E-03 0. -1.
        -11    1    3    3    0    0  0.13476354007E+01 -0.11594694047E+01 -0.11664421285E+01  0.21262826655E+01  0.51100000000E-03 0.  1.
        -12    1    3    3    0    0 -0.84101494838E+01  0.14284034270E+01 -0.14027642110E+01  0.86451546037E+01  0.00000000000E+00 0.  1.
</event>
<event>
 7    1  0.1542786E-009  0.4778728E+02  0.7816164E-02  0.1312668E+00
        -11   -1    0    0    0    0  0.00000000000E+00  0.00000000000E+00  0.45593999997E+02  0.45594000000E+02  0.51100000000E-03 0. -1.
         11   -1    0    0    0    0 -0.00000000000E+00 -0.00000000000E+00 -0.45593999997E+02  0.45594000000E+02  0.51100000000E-03 0.  1.
    9900012    2    1    2    0    0  0.36685339082E+01  0.35400520627E+02  0.24838833861E+02  0.47787278010E+02  0.20000031758E+02 0.  0.
        -12    1    1    2    0    0 -0.36685339082E+01 -0.35400520627E+02 -0.24838833861E+02  0.43400721990E+02  0.00000000000E+00 0.  1.
         11    1    3    3    0    0  0.64174462114E+01  0.81756032651E+01  0.14009714150E+02  0.17444087693E+02  0.51100000000E-03 0. -1.
        -11    1    3    3    0    0 -0.41619552365E+01  0.75652114658E+01  0.32614751627E+01  0.92299250490E+01  0.51100000000E-03 0.  1.
         12    1    3    3    0    0  0.14130429333E+01  0.19659705896E+02  0.75676445481E+01  0.21113265267E+02  0.00000000000E+00 0. -1.
</event>
<event>
 7    1  0.1542786E-009  0.4778727E+02  0.7816164E-02  0.1312668E+00
        -11   -1    0    0    0    0  0.00000000000E+00  0.00000000000E+00  0.45593999997E+02  0.45594000000E+02  0.51100000000E-03 0.  1.
         11   -1    0    0    0    0 -0.00000000000E+00 -0.00000000000E+00 -0.45593999997E+02  0.45594000000E+02  0.51100000000E-03 0. -1.
    9900012    2    1    2    0    0 -0.37048630939E+02 -0.64248281644E+01 -0.21673569165E+02  0.47787273373E+02  0.20000010618E+02 0.  0.
        -12    1    1    2    0    0  0.37048630939E+02  0.64248281644E+01  0.21673569165E+02  0.43400726627E+02  0.00000000000E+00 0.  1.
         11    1    3    3    0    0 -0.12448263156E+02  0.14303433654E+01 -0.14271499062E+02  0.18991598760E+02  0.51100000000E-03 0. -1.
        -11    1    3    3    0    0 -0.21615981640E+02 -0.28341420005E+01 -0.71710818767E+01  0.22950107596E+02  0.51100000000E-03 0.  1.
        -12    1    3    3    0    0 -0.29843861433E+01 -0.50210295293E+01 -0.23098822633E+00  0.58455670167E+01  0.00000000000E+00 0.  1.
</event>
<event>
 7    1  0.1542786E-009  0.4778727E+02  0.7816164E-02  0.1312668E+00
        -11   -1    0    0    0    0  0.00000000000E+00  0.00000000000E+00  0.45593999997E+02  0.45594000000E+02  0.51100000000E-03 0.  1.
         11   -1    0    0    0    0 -0.00000000000E+00 -0.00000000000E+00 -0.45593999997E+02  0.45594000000E+02  0.51100000000E-03 0. -1.
    9900012    2    1    2    0    0  0.36693448457E+02 -0.12294772009E+02 -0.19648226707E+02  0.47787269694E+02  0.19999993842E+02 0.  0.
        -12    1    1    2    0    0 -0.36693448457E+02  0.12294772009E+02  0.19648226707E+02  0.43400730306E+02  0.00000000000E+00 0.  1.
         11    1    3    3    0    0  0.38277916053E+01  0.44313488382E+01 -0.94829645934E+00  0.59319564677E+01  0.51100000000E-03 0. -1.
        -11    1    3    3    0    0  0.72152904099E+01 -0.68590505906E+01 -0.45989977464E+01  0.10966210432E+02  0.51100000000E-03 0.  1.
         12    1    3    3    0    0  0.25650366441E+02 -0.98670702569E+01 -0.14100932501E+02  0.30889102794E+02  0.00000000000E+00 0. -1.
</event>
<event>
 7    1  0.1542786E-009  0.4778727E+02  0.7816164E-02  0.1312668E+00
        -11   -1    0    0    0    0  0.00000000000E+00  0.00000000000E+00  0.45593999997E+02  0.45594000000E+02  0.51100000000E-03 0.  1.
         11   -1    0    0    0    0 -0.00000000000E+00 -0.00000000000E+00 -0.45593999997E+02  0.45594000000E+02  0.51100000000E-03 0. -1.
    9900012    2    1    2    0    0 -0.20867068119E+02  0.24923742093E+02 -0.28757536055E+02  0.47787270377E+02  0.19999996958E+02 0.  0.
        -12    1    1    2    0    0  0.20867068119E+02 -0.24923742093E+02  0.28757536055E+02  0.43400729623E+02  0.00000000000E+00 0.  1.
         11    1    3    3    0    0 -0.10182549109E+02  0.96170705229E+01 -0.94705956556E+01  0.16907528918E+02  0.51100000000E-03 0. -1.
        -11    1    3    3    0    0 -0.14610857859E+02  0.12587741724E+02 -0.14603682661E+02  0.24190823810E+02  0.51100000000E-03 0.  1.
        -12    1    3    3    0    0  0.39263388485E+01  0.27189298463E+01 -0.46832577390E+01  0.66889176488E+01  0.00000000000E+00 0.  1.
</event>
<event>
 7    1  0.1542786E-009  0.4778727E+02  0.7816164E-02  0.1312668E+00
        -11   -1    0    0    0    0  0.00000000000E+00  0.00000000000E+00  0.45593999997E+02  0.45594000000E+02  0.51100000000E-03 0.  1.
         11   -1    0    0    0    0 -0.00000000000E+00 -0.00000000000E+00 -0.45593999997E+02  0.45594000000E+02  0.51100000000E-03 0. -1.
    9900012    2    1    2    0    0 -0.22326451819E+02 -0.14654331494E+00 -0.37217350547E+02  0.47787272961E+02  0.20000008737E+02 0.  0.
        -12    1    1    2    0    0  0.22326451819E+02  0.14654331494E+00  0.37217350547E+02  0.43400727039E+02  0.00000000000E+00 0.  1.
         11    1    3    3    0    0 -0.15899849554E+02 -0.70198683755E+01 -0.16162440357E+02  0.23734115665E+02  0.51100000000E-03 0. -1.
        -11    1    3    3    0    0 -0.64310286120E+01  0.23643818516E+01 -0.15116797666E+02  0.16597168508E+02  0.51100000000E-03 0.  1.
         12    1    3    3    0    0  0.44263465478E-02  0.45089432090E+01 -0.59381125247E+01  0.74559887883E+01  0.00000000000E+00 0. -1.
</event>
<event>
 7    1  0.1542786E-009  0.4778726E+02  0.7816164E-02  0.1312668E+00
        -11   -1    0    0    0    0  0.00000000000E+00  0.00000000000E+00  0.45593999997E+02  0.45594000000E+02  0.51100000000E-03 0.  1.
         11   -1    0    0    0    0 -0.00000000000E+00 -0.00000000000E+00 -0.45593999997E+02  0.45594000000E+02  0.51100000000E-03 0. -1.
    9900012    2    1    2    0    0  0.41945626382E+02 -0.10664745314E+02  0.32328847062E+01  0.47787263731E+02  0.19999966655E+02 0.  0.
        -12    1    1    2    0    0 -0.41945626382E+02  0.10664745314E+02 -0.32328847062E+01  0.43400736269E+02  0.00000000000E+00 0.  1.
         11    1    3    3    0    0  0.11368355708E+02  0.11745484320E+01  0.17844489350E+01  0.11567339097E+02  0.51100000000E-03 0. -1.
        -11    1    3    3    0    0  0.81423905611E+01 -0.83572831988E+01  0.59143525009E+01  0.13081371193E+02  0.51100000000E-03 0.  1.
        -12    1    3    3    0    0  0.22434880113E+02 -0.34820105473E+01 -0.44659167297E+01  0.23138553442E+02  0.00000000000E+00 0.  1.
</event>
<event>
 7    1  0.1542786E-009  0.4778727E+02  0.7816164E-02  0.1312668E+00
        -11   -1    0    0    0    0  0.00000000000E+00  0.00000000000E+00  0.45593999997E+02  0.45594000000E+02  0.51100000000E-03 0.  1.
         11   -1    0    0    0    0 -0.00000000000E+00 -0.00000000000E+00 -0.45593999997E+02  0.45594000000E+02  0.51100000000E-03 0. -1.
    9900012    2    1    2    0    0  0.41247970657E+02 -0.11181425835E+02 -0.75633217044E+01  0.47787271869E+02  0.20000003761E+02 0.  0.
        -12    1    1    2    0    0 -0.41247970657E+02  0.11181425835E+02  0.75633217044E+01  0.43400728131E+02  0.00000000000E+00 0.  1.
         11    1    3    3    0    0  0.21457805434E+02 -0.12383342857E+01 -0.67476714194E+01  0.22527804059E+02  0.51100000000E-03 0. -1.
        -11    1    3    3    0    0  0.39211318004E+01  0.21133650624E+01 -0.27523113567E+01  0.52361058572E+01  0.51100000000E-03 0.  1.
        -12    1    3    3    0    0  0.15869033423E+02 -0.12056456612E+02  0.19366610716E+01  0.20023361953E+02  0.00000000000E+00 0.  1.
</event>
<event>
 7    1  0.1542786E-009  0.4778727E+02  0.7816164E-02  0.1312668E+00
        -11   -1    0    0    0    0  0.00000000000E+00  0.00000000000E+00  0.45593999997E+02  0.45594000000E+02  0.51100000000E-03 0.  1.
         11   -1    0    0    0    0 -0.00000000000E+00 -0.00000000000E+00 -0.45593999997E+02  0.45594000000E+02  0.51100000000E-03 0. -1.
    9900012    2    1    2    0    0 -0.83479125106E+01  0.24458724594E+02 -0.34866983766E+02  0.47787269488E+02  0.19999992902E+02 0.  0.
        -12    1    1    2    0    0  0.83479125106E+01 -0.24458724594E+02  0.34866983766E+02  0.43400730512E+02  0.00000000000E+00 0.  1.
         11    1    3    3    0    0 -0.55529299610E+01  0.16371503917E+02 -0.19326202005E+02  0.25929968297E+02  0.51100000000E-03 0. -1.
        -11    1    3    3    0    0 -0.68739358985E+01  0.16672630398E+01 -0.42767232398E+01  0.82656592424E+01  0.51100000000E-03 0.  1.
         12    1    3    3    0    0  0.40789533489E+01  0.64199576373E+01 -0.11264058521E+02  0.13591641949E+02  0.00000000000E+00 0. -1.
</event>
<event>
 7    1  0.1542786E-009  0.4778727E+02  0.7816164E-02  0.1312668E+00
        -11   -1    0    0    0    0  0.00000000000E+00  0.00000000000E+00  0.45593999997E+02  0.45594000000E+02  0.51100000000E-03 0.  1.
         11   -1    0    0    0    0 -0.00000000000E+00 -0.00000000000E+00 -0.45593999997E+02  0.45594000000E+02  0.51100000000E-03 0. -1.
    9900012    2    1    2    0    0  0.22807194149E+02  0.22843861754E+02 -0.29010567918E+02  0.47787272175E+02  0.20000005155E+02 0.  0.
        -12    1    1    2    0    0 -0.22807194149E+02 -0.22843861754E+02  0.29010567918E+02  0.43400727825E+02  0.00000000000E+00 0.  1.
         11    1    3    3    0    0  0.37719465898E+01  0.89290632048E+00 -0.40546609385E+01  0.56093794987E+01  0.51100000000E-03 0. -1.
        -11    1    3    3    0    0  0.52167298997E+01 -0.21832947921E+01 -0.16438510871E+01  0.58892523849E+01  0.51100000000E-03 0.  1.
         12    1    3    3    0    0  0.13818517659E+02  0.24134250226E+02 -0.23312055893E+02  0.36288640291E+02  0.00000000000E+00 0. -1.
</event>
<event>
 7    1  0.1542786E-009  0.4778726E+02  0.7816164E-02  0.1312668E+00
        -11   -1    0    0    0    0  0.00000000000E+00  0.00000000000E+00  0.45593999997E+02  0.45594000000E+02  0.51100000000E-03 0.  1.
         11   -1    0    0    0    0 -0.00000000000E+00 -0.00000000000E+00 -0.45593999997E+02  0.45594000000E+02  0.51100000000E-03 0. -1.
    9900012    2    1    2    0    0  0.37770883320E+02  0.17105330025E+02 -0.12821560384E+02  0.47787258616E+02  0.19999943332E+02 0.  0.
        -12    1    1    2    0    0 -0.37770883320E+02 -0.17105330025E+02  0.12821560384E+02  0.43400741384E+02  0.00000000000E+00 0.  1.
         11    1    3    3    0    0  0.51851352632E+01  0.42736831454E+01 -0.58261063485E+01  0.88934532534E+01  0.51100000000E-03 0. -1.
        -11    1    3    3    0    0  0.92812680777E+01 -0.32836623804E+01 -0.29166235318E+01  0.10267963228E+02  0.51100000000E-03 0.  1.
        -12    1    3    3    0    0  0.23304479979E+02  0.16115309260E+02 -0.40788305032E+01  0.28625842135E+02  0.00000000000E+00 0.  1.
</event>
<event>
 7    1  0.1542786E-009  0.4778727E+02  0.7816164E-02  0.1312668E+00
        -11   -1    0    0    0    0  0.00000000000E+00  0.00000000000E+00  0.45593999997E+02  0.45594000000E+02  0.51100000000E-03 0.  1.
         11   -1    0    0    0    0 -0.00000000000E+00 -0.00000000000E+00 -0.45593999997E+02  0.45594000000E+02  0.51100000000E-03 0. -1.
    9900012    2    1    2    0    0 -0.25626039311E+02  0.34850911294E+02  0.35133256194E+01  0.47787269986E+02  0.19999995174E+02 0.  0.
        -12    1    1    2    0    0  0.25626039311E+02 -0.34850911294E+02 -0.35133256194E+01  0.43400730014E+02  0.00000000000E+00 0.  1.
         11    1    3    3    0    0  0.15687960458E+01 -0.77221773245E+00 -0.37194909309E+00  0.17876766063E+01  0.51100000000E-03 0.  1.
        -11    1    3    3    0    0 -0.16614758719E+02  0.13890635061E+02  0.22588816315E+01  0.21773894832E+02  0.51100000000E-03 0. -1.
        -12    1    3    3    0    0 -0.10580076638E+02  0.21732493966E+02  0.16263930810E+01  0.24225698547E+02  0.00000000000E+00 0.  1.
</event>
<event>
 7    1  0.1542786E-009  0.4778727E+02  0.7816164E-02  0.1312668E+00
        -11   -1    0    0    0    0  0.00000000000E+00  0.00000000000E+00  0.45593999997E+02  0.45594000000E+02  0.51100000000E-03 0.  1.
         11   -1    0    0    0    0 -0.00000000000E+00 -0.00000000000E+00 -0.45593999997E+02  0.45594000000E+02  0.51100000000E-03 0. -1.
    9900012    2    1    2    0    0  0.10728576636E+02 -0.28855471651E+02 -0.30592198054E+02  0.47787272095E+02  0.20000004791E+02 0.  0.
        -12    1    1    2    0    0 -0.10728576636E+02  0.28855471651E+02  0.30592198054E+02  0.43400727905E+02  0.00000000000E+00 0.  1.
         11    1    3    3    0    0  0.27166889705E+01 -0.18418950917E+02 -0.18513825483E+02  0.26256425616E+02  0.51100000000E-03 0. -1.
        -11    1    3    3    0    0  0.55611910531E+01 -0.17754956738E+01 -0.11016106825E+02  0.12467310883E+02  0.51100000000E-03 0.  1.
         12    1    3    3    0    0  0.24506966126E+01 -0.86610250609E+01 -0.10622657466E+01  0.90635355965E+01  0.00000000000E+00 0. -1.
</event>
<event>
 7    1  0.1542786E-009  0.4778727E+02  0.7816164E-02  0.1312668E+00
        -11   -1    0    0    0    0  0.00000000000E+00  0.00000000000E+00  0.45593999997E+02  0.45594000000E+02  0.51100000000E-03 0. -1.
         11   -1    0    0    0    0 -0.00000000000E+00 -0.00000000000E+00 -0.45593999997E+02  0.45594000000E+02  0.51100000000E-03 0.  1.
    9900012    2    1    2    0    0  0.16522544279E+02  0.38644209531E+02 -0.10828389510E+02  0.47787269371E+02  0.19999992370E+02 0.  0.
        -12    1    1    2    0    0 -0.16522544279E+02 -0.38644209531E+02  0.10828389510E+02  0.43400730629E+02  0.00000000000E+00 0.  1.
         11    1    3    3    0    0  0.69207510577E+00  0.19901375045E+02 -0.96256990819E+01  0.22117815889E+02  0.51100000000E-03 0. -1.
        -11    1    3    3    0    0 -0.96159181938E-01 -0.51710235357E+00 -0.40646355005E+00  0.66472122802E+00  0.51100000000E-03 0.  1.
         12    1    3    3    0    0  0.15926628355E+02  0.19259936840E+02 -0.79622687851E+00  0.25004732254E+02  0.00000000000E+00 0. -1.
</event>
<event>
 7    1  0.1542786E-009  0.4778728E+02  0.7816164E-02  0.1312668E+00
        -11   -1    0    0    0    0  0.00000000000E+00  0.00000000000E+00  0.45593999997E+02  0.45594000000E+02  0.51100000000E-03 0. -1.
         11   -1    0    0    0    0 -0.00000000000E+00 -0.00000000000E+00 -0.45593999997E+02  0.45594000000E+02  0.51100000000E-03 0.  1.
    9900012    2    1    2    0    0 -0.27504678359E+02  0.72074548715E+01  0.32789754742E+02  0.47787277041E+02  0.20000027340E+02 0.  0.
        -12    1    1    2    0    0  0.27504678359E+02 -0.72074548715E+01 -0.32789754742E+02  0.43400722959E+02  0.00000000000E+00 0.  1.
         11    1    3    3    0    0 -0.33864243289E+01  0.48895753212E+01  0.53562452788E+01  0.80040727324E+01  0.51100000000E-03 0.  1.
        -11    1    3    3    0    0 -0.19858342549E+02 -0.46492790314E+00  0.11271046065E+02  0.22838704131E+02  0.51100000000E-03 0. -1.
         12    1    3    3    0    0 -0.42599114809E+01  0.27828074534E+01  0.16162463398E+02  0.16944500177E+02  0.00000000000E+00 0. -1.
</event>
<event>
 7    1  0.1542786E-009  0.4778727E+02  0.7816164E-02  0.1312668E+00
        -11   -1    0    0    0    0  0.00000000000E+00  0.00000000000E+00  0.45593999997E+02  0.45594000000E+02  0.51100000000E-03 0.  1.
         11   -1    0    0    0    0 -0.00000000000E+00 -0.00000000000E+00 -0.45593999997E+02  0.45594000000E+02  0.51100000000E-03 0. -1.
    9900012    2    1    2    0    0  0.26617205535E+02 -0.30863044186E+02  0.14920456332E+02  0.47787272540E+02  0.20000006817E+02 0.  0.
        -12    1    1    2    0    0 -0.26617205535E+02  0.30863044186E+02 -0.14920456332E+02  0.43400727460E+02  0.00000000000E+00 0.  1.
         11    1    3    3    0    0  0.17612863336E+02 -0.13654791837E+02 -0.75223723702E+00  0.22298703015E+02  0.51100000000E-03 0. -1.
        -11    1    3    3    0    0  0.69751159286E+01 -0.79928807109E+01  0.73427483430E+01  0.12901718404E+02  0.51100000000E-03 0.  1.
         12    1    3    3    0    0  0.20292262701E+01 -0.92153716380E+01  0.83299452258E+01  0.12586851121E+02  0.00000000000E+00 0. -1.
</event>
<event>
 7    1  0.1542786E-009  0.4778728E+02  0.7816164E-02  0.1312668E+00
        -11   -1    0    0    0    0  0.00000000000E+00  0.00000000000E+00  0.45593999997E+02  0.45594000000E+02  0.51100000000E-03 0.  1.
         11   -1    0    0    0    0 -0.00000000000E+00 -0.00000000000E+00 -0.45593999997E+02  0.45594000000E+02  0.51100000000E-03 0. -1.
    9900012    2    1    2    0    0 -0.86961632822E+01  0.16099415070E+02 -0.39354904302E+02  0.47787275190E+02  0.20000018900E+02 0.  0.
        -12    1    1    2    0    0  0.86961632822E+01 -0.16099415070E+02  0.39354904302E+02  0.43400724810E+02  0.00000000000E+00 0.  1.
         11    1    3    3    0    0  0.19719245551E+01  0.26248183410E+01 -0.68607474899E+01  0.76057882008E+01  0.51100000000E-03 0.  1.
        -11    1    3    3    0    0 -0.13391550736E+02  0.60657057261E+01 -0.26368722969E+02  0.30189997820E+02  0.51100000000E-03 0. -1.
        -12    1    3    3    0    0  0.27234628988E+01  0.74088910029E+01 -0.61254338432E+01  0.99914891694E+01  0.00000000000E+00 0.  1.
</event>
<event>
 7    1  0.1542786E-009  0.4778726E+02  0.7816164E-02  0.1312668E+00
        -11   -1    0    0    0    0  0.00000000000E+00  0.00000000000E+00  0.45593999997E+02  0.45594000000E+02  0.51100000000E-03 0. -1.
         11   -1    0    0    0    0 -0.00000000000E+00 -0.00000000000E+00 -0.45593999997E+02  0.45594000000E+02  0.51100000000E-03 0.  1.
    9900012    2    1    2    0    0 -0.20217156354E+02 -0.66516731531E+01  0.37823878375E+02  0.47787263347E+02  0.19999964902E+02 0.  0.
        -12    1    1    2    0    0  0.20217156354E+02  0.66516731531E+01 -0.37823878375E+02  0.43400736653E+02  0.00000000000E+00 0.  1.
         11    1    3    3    0    0 -0.28942586027E+01 -0.65092588477E+01  0.93626902725E+01  0.11764656944E+02  0.51100000000E-03 0. -1.
        -11    1    3    3    0    0 -0.76644654495E+01  0.42080047466E+01  0.45205204556E+01  0.98430909792E+01  0.51100000000E-03 0.  1.
         12    1    3    3    0    0 -0.96584323016E+01 -0.43504190520E+01  0.23940667646E+02  0.26179515424E+02  0.00000000000E+00 0. -1.
</event>
<event>
 7    1  0.1542786E-009  0.4778729E+02  0.7816164E-02  0.1312668E+00
        -11   -1    0    0    0    0  0.00000000000E+00  0.00000000000E+00  0.45593999997E+02  0.45594000000E+02  0.51100000000E-03 0.  1.
         11   -1    0    0    0    0 -0.00000000000E+00 -0.00000000000E+00 -0.45593999997E+02  0.45594000000E+02  0.51100000000E-03 0. -1.
    9900012    2    1    2    0    0  0.54433946690E+01 -0.31085981946E+02 -0.29793504414E+02  0.47787288896E+02  0.20000081391E+02 0.  0.
        -12    1    1    2    0    0 -0.54433946690E+01  0.31085981946E+02  0.29793504414E+02  0.43400711104E+02  0.00000000000E+00 0.  1.
         11    1    3    3    0    0 -0.85812723543E+00 -0.97226961101E+01 -0.16525706053E+01  0.98994036118E+01  0.51100000000E-03 0. -1.
        -11    1    3    3    0    0 -0.62057605941E-01 -0.18310782268E+02 -0.20251825605E+02  0.27302473130E+02  0.51100000000E-03 0.  1.
        -12    1    3    3    0    0  0.63635795104E+01 -0.30525035675E+01 -0.78891082042E+01  0.10585412154E+02  0.00000000000E+00 0.  1.
</event>
<event>
 7    1  0.1542786E-009  0.4778727E+02  0.7816164E-02  0.1312668E+00
        -11   -1    0    0    0    0  0.00000000000E+00  0.00000000000E+00  0.45593999997E+02  0.45594000000E+02  0.51100000000E-03 0. -1.
         11   -1    0    0    0    0 -0.00000000000E+00 -0.00000000000E+00 -0.45593999997E+02  0.45594000000E+02  0.51100000000E-03 0.  1.
    9900012    2    1    2    0    0  0.14240281226E+02 -0.40955964240E+02 -0.18564462423E+01  0.47787274097E+02  0.20000013919E+02 0.  0.
        -12    1    1    2    0    0 -0.14240281226E+02  0.40955964240E+02  0.18564462423E+01  0.43400725903E+02  0.00000000000E+00 0.  1.
         11    1    3    3    0    0  0.13179259155E+02 -0.27674863557E+02 -0.15508639082E+01  0.30691955361E+02  0.51100000000E-03 0. -1.
        -11    1    3    3    0    0  0.14709738612E+01 -0.21696837697E+01 -0.45030434402E+01  0.52104406960E+01  0.51100000000E-03 0.  1.
        -12    1    3    3    0    0 -0.40995179006E+00 -0.11111416913E+02  0.41974611062E+01  0.11884878040E+02  0.00000000000E+00 0.  1.
</event>
<event>
 7    1  0.1542786E-009  0.4778727E+02  0.7816164E-02  0.1312668E+00
        -11   -1    0    0    0    0  0.00000000000E+00  0.00000000000E+00  0.45593999997E+02  0.45594000000E+02  0.51100000000E-03 0.  1.
         11   -1    0    0    0    0 -0.00000000000E+00 -0.00000000000E+00 -0.45593999997E+02  0.45594000000E+02  0.51100000000E-03 0. -1.
    9900012    2    1    2    0    0  0.98417983638E+01 -0.22270976864E+02 -0.35927232141E+02  0.47787269421E+02  0.19999992596E+02 0.  0.
        -12    1    1    2    0    0 -0.98417983638E+01  0.22270976864E+02  0.35927232141E+02  0.43400730579E+02  0.00000000000E+00 0.  1.
         11    1    3    3    0    0  0.85926465391E+01 -0.11522194270E+02 -0.72004757186E+01  0.16076112284E+02  0.51100000000E-03 0. -1.
        -11    1    3    3    0    0  0.80508720491E+00  0.45291592551E+00 -0.87923662556E+01  0.88407580488E+01  0.51100000000E-03 0.  1.
        -12    1    3    3    0    0  0.44406461983E+00 -0.11201698520E+02 -0.19934390167E+02  0.22870399088E+02  0.00000000000E+00 0.  1.
</event>
<event>
 7    1  0.1542786E-009  0.4778728E+02  0.7816164E-02  0.1312668E+00
        -11   -1    0    0    0    0  0.00000000000E+00  0.00000000000E+00  0.45593999997E+02  0.45594000000E+02  0.51100000000E-03 0. -1.
         11   -1    0    0    0    0 -0.00000000000E+00 -0.00000000000E+00 -0.45593999997E+02  0.45594000000E+02  0.51100000000E-03 0.  1.
    9900012    2    1    2    0    0  0.28788289414E+02 -0.30581000953E+02 -0.10938906365E+02  0.47787275361E+02  0.20000019683E+02 0.  0.
        -12    1    1    2    0    0 -0.28788289414E+02  0.30581000953E+02  0.10938906365E+02  0.43400724639E+02  0.00000000000E+00 0.  1.
         11    1    3    3    0    0  0.12170777919E+02 -0.59191868456E+01 -0.20579010445E+01  0.13689396080E+02  0.51100000000E-03 0. -1.
        -11    1    3    3    0    0  0.14044486504E+02 -0.17181388376E+02  0.18011241172E-01  0.22191170144E+02  0.51100000000E-03 0.  1.
         12    1    3    3    0    0  0.25730249920E+01 -0.74804257314E+01 -0.88990165615E+01  0.11906709138E+02  0.00000000000E+00 0. -1.
</event>
<event>
 7    1  0.1542786E-009  0.4778727E+02  0.7816164E-02  0.1312668E+00
        -11   -1    0    0    0    0  0.00000000000E+00  0.00000000000E+00  0.45593999997E+02  0.45594000000E+02  0.51100000000E-03 0.  1.
         11   -1    0    0    0    0 -0.00000000000E+00 -0.00000000000E+00 -0.45593999997E+02  0.45594000000E+02  0.51100000000E-03 0. -1.
    9900012    2    1    2    0    0  0.16508471484E+02 -0.21713037656E+02 -0.33758519960E+02  0.47787270687E+02  0.19999998372E+02 0.  0.
        -12    1    1    2    0    0 -0.16508471484E+02  0.21713037656E+02  0.33758519960E+02  0.43400729313E+02  0.00000000000E+00 0.  1.
         11    1    3    3    0    0  0.26266917871E+01 -0.31523748316E+01 -0.13770829256E+02  0.14369158482E+02  0.51100000000E-03 0. -1.
        -11    1    3    3    0    0  0.16073590148E+02 -0.14829285708E+02 -0.13772407900E+02  0.25844675167E+02  0.51100000000E-03 0.  1.
        -12    1    3    3    0    0 -0.21918104516E+01 -0.37313771163E+01 -0.62152828037E+01  0.75734370381E+01  0.00000000000E+00 0.  1.
</event>
<event>
 7    1  0.1542786E-009  0.4778727E+02  0.7816164E-02  0.1312668E+00
        -11   -1    0    0    0    0  0.00000000000E+00  0.00000000000E+00  0.45593999997E+02  0.45594000000E+02  0.51100000000E-03 0.  1.
         11   -1    0    0    0    0 -0.00000000000E+00 -0.00000000000E+00 -0.45593999997E+02  0.45594000000E+02  0.51100000000E-03 0. -1.
    9900012    2    1    2    0    0 -0.33075476195E+02 -0.96846263626E+01 -0.26378862204E+02  0.47787268618E+02  0.19999988936E+02 0.  0.
        -12    1    1    2    0    0  0.33075476195E+02  0.96846263626E+01  0.26378862204E+02  0.43400731382E+02  0.00000000000E+00 0.  1.
         11    1    3    3    0    0 -0.14640399977E+02 -0.69971711066E+01 -0.10049847725E+02  0.19086674790E+02  0.51100000000E-03 0. -1.
        -11    1    3    3    0    0 -0.14833923097E+02 -0.61287020663E+01 -0.58232883107E+01  0.17073867473E+02  0.51100000000E-03 0.  1.
        -12    1    3    3    0    0 -0.36011531210E+01  0.34412468103E+01 -0.10505726168E+02  0.11626726355E+02  0.00000000000E+00 0.  1.
</event>
<event>
 7    1  0.1542786E-009  0.4778728E+02  0.7816164E-02  0.1312668E+00
        -11   -1    0    0    0    0  0.00000000000E+00  0.00000000000E+00  0.45593999997E+02  0.45594000000E+02  0.51100000000E-03 0.  1.
         11   -1    0    0    0    0 -0.00000000000E+00 -0.00000000000E+00 -0.45593999997E+02  0.45594000000E+02  0.51100000000E-03 0. -1.
    9900012    2    1    2    0    0 -0.28501773629E+02  0.15748685272E+02 -0.28692344283E+02  0.47787276408E+02  0.20000024456E+02 0.  0.
        -12    1    1    2    0    0  0.28501773629E+02 -0.15748685272E+02  0.28692344283E+02  0.43400723592E+02  0.00000000000E+00 0.  1.
         11    1    3    3    0    0  0.55779057201E+00  0.16073886026E+01 -0.43673591082E+00  0.17565781960E+01  0.51100000000E-03 0. -1.
        -11    1    3    3    0    0  0.15666526930E+01 -0.12909785507E+01 -0.13018647837E+01  0.24116132474E+01  0.51100000000E-03 0.  1.
         12    1    3    3    0    0 -0.30626216894E+02  0.15432275220E+02 -0.26953743589E+02  0.43619084965E+02  0.00000000000E+00 0. -1.
</event>
<event>
 7    1  0.1542786E-009  0.4778727E+02  0.7816164E-02  0.1312668E+00
        -11   -1    0    0    0    0  0.00000000000E+00  0.00000000000E+00  0.45593999997E+02  0.45594000000E+02  0.51100000000E-03 0.  1.
         11   -1    0    0    0    0 -0.00000000000E+00 -0.00000000000E+00 -0.45593999997E+02  0.45594000000E+02  0.51100000000E-03 0. -1.
    9900012    2    1    2    0    0  0.20606244472E+02  0.34909324604E+02 -0.15503064774E+02  0.47787271055E+02  0.20000000050E+02 0.  0.
        -12    1    1    2    0    0 -0.20606244472E+02 -0.34909324604E+02  0.15503064774E+02  0.43400728945E+02  0.00000000000E+00 0.  1.
         11    1    3    3    0    0  0.25648042281E+01 -0.19460383689E+00 -0.26378166980E+01  0.36843138541E+01  0.51100000000E-03 0. -1.
        -11    1    3    3    0    0  0.18124134376E+01  0.19606525053E+02 -0.48933041934E+01  0.20289038747E+02  0.51100000000E-03 0.  1.
        -12    1    3    3    0    0  0.16229026807E+02  0.15497403388E+02 -0.79719438822E+01  0.23813918454E+02  0.00000000000E+00 0.  1.
</event>
<event>
 7    1  0.1542786E-009  0.4778727E+02  0.7816164E-02  0.1312668E+00
        -11   -1    0    0    0    0  0.00000000000E+00  0.00000000000E+00  0.45593999997E+02  0.45594000000E+02  0.51100000000E-03 0.  1.
         11   -1    0    0    0    0 -0.00000000000E+00 -0.00000000000E+00 -0.45593999997E+02  0.45594000000E+02  0.51100000000E-03 0. -1.
    9900012    2    1    2    0    0 -0.51851732053E+01  0.36382611096E+02 -0.23087729879E+02  0.47787266340E+02  0.19999978549E+02 0.  0.
        -12    1    1    2    0    0  0.51851732053E+01 -0.36382611096E+02  0.23087729879E+02  0.43400733660E+02  0.00000000000E+00 0.  1.
         11    1    3    3    0    0  0.22538322306E+01  0.22318702988E+02 -0.19758553854E+02  0.29893221865E+02  0.51100000000E-03 0. -1.
        -11    1    3    3    0    0  0.18673240718E+00  0.61405802259E+01  0.69806738674E+00  0.61829517902E+01  0.51100000000E-03 0.  1.
         12    1    3    3    0    0 -0.76257378431E+01  0.79233278820E+01 -0.40272434114E+01  0.11711092685E+02  0.00000000000E+00 0. -1.
</event>
<event>
 7    1  0.1542786E-009  0.4778727E+02  0.7816164E-02  0.1312668E+00
        -11   -1    0    0    0    0  0.00000000000E+00  0.00000000000E+00  0.45593999997E+02  0.45594000000E+02  0.51100000000E-03 0.  1.
         11   -1    0    0    0    0 -0.00000000000E+00 -0.00000000000E+00 -0.45593999997E+02  0.45594000000E+02  0.51100000000E-03 0. -1.
    9900012    2    1    2    0    0  0.26343899894E+02  0.51942518370E+01 -0.34097536848E+02  0.47787270365E+02  0.19999996901E+02 0.  0.
        -12    1    1    2    0    0 -0.26343899894E+02 -0.51942518370E+01  0.34097536848E+02  0.43400729635E+02  0.00000000000E+00 0.  1.
         11    1    3    3    0    0  0.13104992756E+01 -0.12240667368E+01 -0.10202477009E+02  0.10358874702E+02  0.51100000000E-03 0. -1.
        -11    1    3    3    0    0  0.25359247491E+00  0.38733050686E+01 -0.36631742623E+01  0.53371946971E+01  0.51100000000E-03 0.  1.
         12    1    3    3    0    0  0.24779808144E+02  0.25450135052E+01 -0.20231885577E+02  0.32091200965E+02  0.00000000000E+00 0. -1.
</event>
<event>
 7    1  0.1542786E-009  0.4778727E+02  0.7816164E-02  0.1312668E+00
        -11   -1    0    0    0    0  0.00000000000E+00  0.00000000000E+00  0.45593999997E+02  0.45594000000E+02  0.51100000000E-03 0.  1.
         11   -1    0    0    0    0 -0.00000000000E+00 -0.00000000000E+00 -0.45593999997E+02  0.45594000000E+02  0.51100000000E-03 0. -1.
    9900012    2    1    2    0    0  0.20189278721E+02  0.28767130668E+02 -0.25465042816E+02  0.47787272037E+02  0.20000004524E+02 0.  0.
        -12    1    1    2    0    0 -0.20189278721E+02 -0.28767130668E+02  0.25465042816E+02  0.43400727963E+02  0.00000000000E+00 0.  1.
         11    1    3    3    0    0  0.64333854130E+01  0.15026314314E+02 -0.17475521310E+02  0.23928485432E+02  0.51100000000E-03 0. -1.
        -11    1    3    3    0    0  0.22398923023E+01 -0.19796567667E+01 -0.12304577012E+01  0.32326745669E+01  0.51100000000E-03 0.  1.
         12    1    3    3    0    0  0.11516001006E+02  0.15720473120E+02 -0.67590638053E+01  0.20626112038E+02  0.00000000000E+00 0. -1.
</event>
<event>
 7    1  0.1542786E-009  0.4778727E+02  0.7816164E-02  0.1312668E+00
        -11   -1    0    0    0    0  0.00000000000E+00  0.00000000000E+00  0.45593999997E+02  0.45594000000E+02  0.51100000000E-03 0.  1.
         11   -1    0    0    0    0 -0.00000000000E+00 -0.00000000000E+00 -0.45593999997E+02  0.45594000000E+02  0.51100000000E-03 0. -1.
    9900012    2    1    2    0    0 -0.23081941235E+02 -0.25306069620E+02 -0.26654264230E+02  0.47787274518E+02  0.20000015836E+02 0.  0.
        -12    1    1    2    0    0  0.23081941235E+02  0.25306069620E+02  0.26654264230E+02  0.43400725482E+02  0.00000000000E+00 0.  1.
         11    1    3    3    0    0 -0.10662887261E+02 -0.16695089684E+02 -0.13605862780E+02  0.24032117813E+02  0.51100000000E-03 0. -1.
        -11    1    3    3    0    0 -0.25300786906E+01 -0.69423010478E+01 -0.11409805211E+02  0.13593399032E+02  0.51100000000E-03 0.  1.
        -12    1    3    3    0    0 -0.98889752828E+01 -0.16686788874E+01 -0.16385962382E+01  0.10161757673E+02  0.00000000000E+00 0.  1.
</event>
<event>
 7    1  0.1542786E-009  0.4778731E+02  0.7816164E-02  0.1312668E+00
        -11   -1    0    0    0    0  0.00000000000E+00  0.00000000000E+00  0.45593999997E+02  0.45594000000E+02  0.51100000000E-03 0. -1.
         11   -1    0    0    0    0 -0.00000000000E+00 -0.00000000000E+00 -0.45593999997E+02  0.45594000000E+02  0.51100000000E-03 0.  1.
    9900012    2    1    2    0    0 -0.42359417633E+02 -0.93776054509E+01  0.11663392552E+01  0.47787307684E+02  0.20000167055E+02 0.  0.
        -12    1    1    2    0    0  0.42359417633E+02  0.93776054509E+01 -0.11663392552E+01  0.43400692316E+02  0.00000000000E+00 0.  1.
         11    1    3    3    0    0 -0.30295078442E+02 -0.95760520589E+01 -0.41140706075E+01  0.32037760971E+02  0.51100000000E-03 0. -1.
        -11    1    3    3    0    0 -0.13367506999E+02 -0.32716833992E+00  0.51834156825E+01  0.14341027888E+02  0.51100000000E-03 0.  1.
        -12    1    3    3    0    0  0.13031678077E+01  0.52561494790E+00  0.96994180166E-01  0.14085188247E+01  0.00000000000E+00 0.  1.
</event>
<event>
 7    1  0.1542786E-009  0.4778726E+02  0.7816164E-02  0.1312668E+00
        -11   -1    0    0    0    0  0.00000000000E+00  0.00000000000E+00  0.45593999997E+02  0.45594000000E+02  0.51100000000E-03 0.  1.
         11   -1    0    0    0    0 -0.00000000000E+00 -0.00000000000E+00 -0.45593999997E+02  0.45594000000E+02  0.51100000000E-03 0. -1.
    9900012    2    1    2    0    0  0.25765078826E+02 -0.34706597142E+02 -0.39035008765E+01  0.47787257021E+02  0.19999936059E+02 0.  0.
        -12    1    1    2    0    0 -0.25765078826E+02  0.34706597142E+02  0.39035008765E+01  0.43400742979E+02  0.00000000000E+00 0.  1.
         11    1    3    3    0    0  0.18668317460E+02 -0.18927875685E+02  0.16479534288E+01  0.26636184139E+02  0.51100000000E-03 0. -1.
        -11    1    3    3    0    0 -0.65711877456E+00 -0.62595693855E+00  0.22506299311E+01  0.24267184676E+01  0.51100000000E-03 0.  1.
         12    1    3    3    0    0  0.77538801409E+01 -0.15152764518E+02 -0.78020842364E+01  0.18724354414E+02  0.00000000000E+00 0. -1.
</event>
<event>
 7    1  0.1542786E-009  0.4778726E+02  0.7816164E-02  0.1312668E+00
        -11   -1    0    0    0    0  0.00000000000E+00  0.00000000000E+00  0.45593999997E+02  0.45594000000E+02  0.51100000000E-03 0.  1.
         11   -1    0    0    0    0 -0.00000000000E+00 -0.00000000000E+00 -0.45593999997E+02  0.45594000000E+02  0.51100000000E-03 0. -1.
    9900012    2    1    2    0    0  0.34247488793E+02  0.14607877880E+02 -0.22301199998E+02  0.47787261456E+02  0.19999956283E+02 0.  0.
        -12    1    1    2    0    0 -0.34247488793E+02 -0.14607877880E+02  0.22301199998E+02  0.43400738544E+02  0.00000000000E+00 0.  1.
         11    1    3    3    0    0  0.27604117146E+01 -0.49612018335E+00 -0.53390224860E+01  0.60308514687E+01  0.51100000000E-03 0. -1.
        -11    1    3    3    0    0  0.41162922310E+01 -0.20155064046E+01  0.11686296534E+01  0.47298861854E+01  0.51100000000E-03 0.  1.
        -12    1    3    3    0    0  0.27370784847E+02  0.17119504468E+02 -0.18130807165E+02  0.37026523802E+02  0.00000000000E+00 0.  1.
</event>
<event>
 7    1  0.1542786E-009  0.4778727E+02  0.7816164E-02  0.1312668E+00
        -11   -1    0    0    0    0  0.00000000000E+00  0.00000000000E+00  0.45593999997E+02  0.45594000000E+02  0.51100000000E-03 0. -1.
         11   -1    0    0    0    0 -0.00000000000E+00 -0.00000000000E+00 -0.45593999997E+02  0.45594000000E+02  0.51100000000E-03 0.  1.
    9900012    2    1    2    0    0  0.11853465357E+02 -0.19392013114E+02  0.36973893896E+02  0.47787266787E+02  0.19999980589E+02 0.  0.
        -12    1    1    2    0    0 -0.11853465357E+02  0.19392013114E+02 -0.36973893896E+02  0.43400733213E+02  0.00000000000E+00 0.  1.
         11    1    3    3    0    0  0.54857301224E+01 -0.80563453561E+01  0.29894081553E+02  0.31442869583E+02  0.51100000000E-03 0. -1.
        -11    1    3    3    0    0  0.55500776819E+00 -0.68986848748E+01  0.55547962532E+01  0.88744379146E+01  0.51100000000E-03 0.  1.
         12    1    3    3    0    0  0.58127274668E+01 -0.44369828832E+01  0.15250160900E+01  0.74699592893E+01  0.00000000000E+00 0. -1.
</event>
<event>
 7    1  0.1542786E-009  0.4778726E+02  0.7816164E-02  0.1312668E+00
        -11   -1    0    0    0    0  0.00000000000E+00  0.00000000000E+00  0.45593999997E+02  0.45594000000E+02  0.51100000000E-03 0.  1.
         11   -1    0    0    0    0 -0.00000000000E+00 -0.00000000000E+00 -0.45593999997E+02  0.45594000000E+02  0.51100000000E-03 0. -1.
    9900012    2    1    2    0    0 -0.15948347854E+01  0.21351970965E+02 -0.37751477278E+02  0.47787260390E+02  0.19999951421E+02 0.  0.
        -12    1    1    2    0    0  0.15948347854E+01 -0.21351970965E+02  0.37751477278E+02  0.43400739610E+02  0.00000000000E+00 0.  1.
         11    1    3    3    0    0  0.31922281632E+01  0.19260383902E+02 -0.20077498202E+02  0.28004618244E+02  0.51100000000E-03 0. -1.
        -11    1    3    3    0    0 -0.21443416378E+01  0.41731032969E+01 -0.14164155484E+02  0.14921001743E+02  0.51100000000E-03 0.  1.
        -12    1    3    3    0    0 -0.26427213108E+01 -0.20815162338E+01 -0.35098235920E+01  0.48616404027E+01  0.00000000000E+00 0.  1.
</event>
<event>
 7    1  0.1542786E-009  0.4778729E+02  0.7816164E-02  0.1312668E+00
        -11   -1    0    0    0    0  0.00000000000E+00  0.00000000000E+00  0.45593999997E+02  0.45594000000E+02  0.51100000000E-03 0.  1.
         11   -1    0    0    0    0 -0.00000000000E+00 -0.00000000000E+00 -0.45593999997E+02  0.45594000000E+02  0.51100000000E-03 0. -1.
    9900012    2    1    2    0    0  0.19451408183E+02 -0.36817846867E+01 -0.38622651630E+02  0.47787285286E+02  0.20000064931E+02 0.  0.
        -12    1    1    2    0    0 -0.19451408183E+02  0.36817846867E+01  0.38622651630E+02  0.43400714714E+02  0.00000000000E+00 0.  1.
         11    1    3    3    0    0  0.85291180932E+01 -0.24420514079E+01 -0.71901198302E+01  0.11419601305E+02  0.51100000000E-03 0. -1.
        -11    1    3    3    0    0  0.59684803344E+00  0.57028988619E+01 -0.80894249138E+01  0.99155473223E+01  0.51100000000E-03 0.  1.
         12    1    3    3    0    0  0.10325442056E+02 -0.69426321407E+01 -0.23343106886E+02  0.26452136658E+02  0.00000000000E+00 0. -1.
</event>
<event>
 7    1  0.1542786E-009  0.4778727E+02  0.7816164E-02  0.1312668E+00
        -11   -1    0    0    0    0  0.00000000000E+00  0.00000000000E+00  0.45593999997E+02  0.45594000000E+02  0.51100000000E-03 0.  1.
         11   -1    0    0    0    0 -0.00000000000E+00 -0.00000000000E+00 -0.45593999997E+02  0.45594000000E+02  0.51100000000E-03 0. -1.
    9900012    2    1    2    0    0 -0.28175175335E+02 -0.33002497720E+02  0.78630773159E+00  0.47787266818E+02  0.19999980729E+02 0.  0.
        -12    1    1    2    0    0  0.28175175335E+02  0.33002497720E+02 -0.78630773159E+00  0.43400733182E+02  0.00000000000E+00 0.  1.
         11    1    3    3    0    0 -0.12664873772E+02 -0.62872983536E+01  0.64436834456E+01  0.15538668053E+02  0.51100000000E-03 0. -1.
        -11    1    3    3    0    0 -0.24724346017E+01 -0.52561959929E+01 -0.40633048753E+01  0.70887922770E+01  0.51100000000E-03 0.  1.
         12    1    3    3    0    0 -0.13037866961E+02 -0.21459003373E+02 -0.15940708387E+01  0.25159806488E+02  0.00000000000E+00 0. -1.
</event>
<event>
 7    1  0.1542786E-009  0.4778727E+02  0.7816164E-02  0.1312668E+00
        -11   -1    0    0    0    0  0.00000000000E+00  0.00000000000E+00  0.45593999997E+02  0.45594000000E+02  0.51100000000E-03 0.  1.
         11   -1    0    0    0    0 -0.00000000000E+00 -0.00000000000E+00 -0.45593999997E+02  0.45594000000E+02  0.51100000000E-03 0. -1.
    9900012    2    1    2    0    0  0.13710034094E+02 -0.51051000081E+01 -0.40860693197E+02  0.47787270404E+02  0.19999997080E+02 0.  0.
        -12    1    1    2    0    0 -0.13710034094E+02  0.51051000081E+01  0.40860693197E+02  0.43400729596E+02  0.00000000000E+00 0.  1.
         11    1    3    3    0    0  0.67916715242E+01  0.22537847036E+01 -0.11577622630E+02  0.13610572861E+02  0.51100000000E-03 0. -1.
        -11    1    3    3    0    0 -0.34515575633E+01 -0.11518525975E+01 -0.15149976635E+02  0.15580815329E+02  0.51100000000E-03 0.  1.
        -12    1    3    3    0    0  0.10369920133E+02 -0.62070321142E+01 -0.14133093931E+02  0.18595882214E+02  0.00000000000E+00 0.  1.
</event>
<event>
 7    1  0.1542786E-009  0.4778727E+02  0.7816164E-02  0.1312668E+00
        -11   -1    0    0    0    0  0.00000000000E+00  0.00000000000E+00  0.45593999997E+02  0.45594000000E+02  0.51100000000E-03 0.  1.
         11   -1    0    0    0    0 -0.00000000000E+00 -0.00000000000E+00 -0.45593999997E+02  0.45594000000E+02  0.51100000000E-03 0. -1.
    9900012    2    1    2    0    0  0.26497857073E+02  0.11790293214E+02  0.32287392779E+02  0.47787272172E+02  0.20000005139E+02 0.  0.
        -12    1    1    2    0    0 -0.26497857073E+02 -0.11790293214E+02 -0.32287392779E+02  0.43400727828E+02  0.00000000000E+00 0.  1.
         11    1    3    3    0    0  0.21077309662E+02  0.13403997897E+02  0.16260182174E+02  0.29804591371E+02  0.51100000000E-03 0. -1.
        -11    1    3    3    0    0  0.34046614189E+01  0.15369608495E+01  0.11601611626E+02  0.12188164776E+02  0.51100000000E-03 0.  1.
         12    1    3    3    0    0  0.20158859921E+01 -0.31506655321E+01  0.44255989802E+01  0.57945160248E+01  0.00000000000E+00 0. -1.
</event>
<event>
 7    1  0.1542786E-009  0.4778727E+02  0.7816164E-02  0.1312668E+00
        -11   -1    0    0    0    0  0.00000000000E+00  0.00000000000E+00  0.45593999997E+02  0.45594000000E+02  0.51100000000E-03 0.  1.
         11   -1    0    0    0    0 -0.00000000000E+00 -0.00000000000E+00 -0.45593999997E+02  0.45594000000E+02  0.51100000000E-03 0. -1.
    9900012    2    1    2    0    0 -0.17712301989E+02  0.35353788602E+02  0.17888743461E+02  0.47787272438E+02  0.20000006355E+02 0.  0.
        -12    1    1    2    0    0  0.17712301989E+02 -0.35353788602E+02 -0.17888743461E+02  0.43400727562E+02  0.00000000000E+00 0.  1.
         11    1    3    3    0    0 -0.32432100983E+01  0.15614782509E+02  0.10065696772E+02  0.18858899658E+02  0.51100000000E-03 0. -1.
        -11    1    3    3    0    0 -0.43058211494E+01 -0.25801558166E+00  0.45321140278E+01  0.62567344225E+01  0.51100000000E-03 0.  1.
        -12    1    3    3    0    0 -0.10163270741E+02  0.19997021676E+02  0.32909326605E+01  0.22671638358E+02  0.00000000000E+00 0.  1.
</event>
<event>
 7    1  0.1542786E-009  0.4778727E+02  0.7816164E-02  0.1312668E+00
        -11   -1    0    0    0    0  0.00000000000E+00  0.00000000000E+00  0.45593999997E+02  0.45594000000E+02  0.51100000000E-03 0.  1.
         11   -1    0    0    0    0 -0.00000000000E+00 -0.00000000000E+00 -0.45593999997E+02  0.45594000000E+02  0.51100000000E-03 0. -1.
    9900012    2    1    2    0    0 -0.62556277571E+01 -0.41556927685E+02 -0.10840292088E+02  0.47787273626E+02  0.20000011769E+02 0.  0.
        -12    1    1    2    0    0  0.62556277571E+01  0.41556927685E+02  0.10840292088E+02  0.43400726374E+02  0.00000000000E+00 0.  1.
         11    1    3    3    0    0 -0.99065991922E+01 -0.40014176856E+02 -0.98313736299E+01  0.42378425699E+02  0.51100000000E-03 0. -1.
        -11    1    3    3    0    0  0.60541549221E+00  0.11129594825E+01 -0.13065091905E+00  0.12736862453E+01  0.51100000000E-03 0.  1.
         12    1    3    3    0    0  0.30455559429E+01 -0.26557103112E+01 -0.87826753882E+00  0.41351616810E+01  0.00000000000E+00 0. -1.
</event>
<event>
 7    1  0.1542786E-009  0.4778727E+02  0.7816164E-02  0.1312668E+00
        -11   -1    0    0    0    0  0.00000000000E+00  0.00000000000E+00  0.45593999997E+02  0.45594000000E+02  0.51100000000E-03 0.  1.
         11   -1    0    0    0    0 -0.00000000000E+00 -0.00000000000E+00 -0.45593999997E+02  0.45594000000E+02  0.51100000000E-03 0. -1.
    9900012    2    1    2    0    0  0.46486365172E+01 -0.30746999590E+01 -0.43041373914E+02  0.47787268789E+02  0.19999989715E+02 0.  0.
        -12    1    1    2    0    0 -0.46486365172E+01  0.30746999590E+01  0.43041373914E+02  0.43400731211E+02  0.00000000000E+00 0.  1.
         11    1    3    3    0    0  0.15374649272E+01  0.25019438841E+01 -0.73291342580E+01  0.78955513318E+01  0.51100000000E-03 0. -1.
        -11    1    3    3    0    0 -0.11576267496E+01 -0.83426230044E+01 -0.33136505820E+02  0.34190166372E+02  0.51100000000E-03 0.  1.
        -12    1    3    3    0    0  0.42687983396E+01  0.27659791613E+01 -0.25757338351E+01  0.57015510850E+01  0.00000000000E+00 0.  1.
</event>
<event>
 7    1  0.1576471E-009  0.4778727E+02  0.7816164E-02  0.1312668E+00
        -11   -1    0    0    0    0  0.00000000000E+00  0.00000000000E+00  0.45593999997E+02  0.45594000000E+02  0.51100000000E-03 0.  1.
         11   -1    0    0    0    0 -0.00000000000E+00 -0.00000000000E+00 -0.45593999997E+02  0.45594000000E+02  0.51100000000E-03 0. -1.
    9900012    2    1    2    0    0  0.28447993896E+02 -0.25409100192E+02 -0.20705375389E+02  0.47787270752E+02  0.19999998667E+02 0.  0.
        -12    1    1    2    0    0 -0.28447993896E+02  0.25409100192E+02  0.20705375389E+02  0.43400729248E+02  0.00000000000E+00 0.  1.
         11    1    3    3    0    0  0.17067947599E+02 -0.19177821139E+02 -0.20088770335E+02  0.32598502308E+02  0.51100000000E-03 0. -1.
        -11    1    3    3    0    0 -0.37972253362E-01 -0.24927543860E+01  0.16127377861E+01  0.29692069225E+01  0.51100000000E-03 0.  1.
        -12    1    3    3    0    0  0.11418018550E+02 -0.37385246669E+01 -0.22293428404E+01  0.12219561522E+02  0.00000000000E+00 0.  1.
</event>
<event>
 7    1  0.1542786E-009  0.4778727E+02  0.7816164E-02  0.1312668E+00
        -11   -1    0    0    0    0  0.00000000000E+00  0.00000000000E+00  0.45593999997E+02  0.45594000000E+02  0.51100000000E-03 0. -1.
         11   -1    0    0    0    0 -0.00000000000E+00 -0.00000000000E+00 -0.45593999997E+02  0.45594000000E+02  0.51100000000E-03 0.  1.
    9900012    2    1    2    0    0 -0.33796619818E+02  0.19258448624E+02  0.19249005251E+02  0.47787267775E+02  0.19999985091E+02 0.  0.
        -12    1    1    2    0    0  0.33796619818E+02 -0.19258448624E+02 -0.19249005251E+02  0.43400732225E+02  0.00000000000E+00 0.  1.
         11    1    3    3    0    0 -0.14441999203E+02  0.65929891322E+01  0.30253183092E+01  0.16161416949E+02  0.51100000000E-03 0.  1.
        -11    1    3    3    0    0 -0.10479041849E+02  0.51132677271E+01  0.11867996191E-01  0.11660015696E+02  0.51100000000E-03 0. -1.
        -12    1    3    3    0    0 -0.88755787667E+01  0.75521917651E+01  0.16211818946E+02  0.19965835130E+02  0.00000000000E+00 0.  1.
</event>
<event>
 7    1  0.1542786E-009  0.4778727E+02  0.7816164E-02  0.1312668E+00
        -11   -1    0    0    0    0  0.00000000000E+00  0.00000000000E+00  0.45593999997E+02  0.45594000000E+02  0.51100000000E-03 0.  1.
         11   -1    0    0    0    0 -0.00000000000E+00 -0.00000000000E+00 -0.45593999997E+02  0.45594000000E+02  0.51100000000E-03 0. -1.
    9900012    2    1    2    0    0 -0.13175773426E+02 -0.26221428250E+02 -0.31975909000E+02  0.47787273494E+02  0.20000011169E+02 0.  0.
        -12    1    1    2    0    0  0.13175773426E+02  0.26221428250E+02  0.31975909000E+02  0.43400726506E+02  0.00000000000E+00 0.  1.
         11    1    3    3    0    0 -0.39072986321E+01 -0.12571079698E+02 -0.13201503912E+02  0.18643463550E+02  0.51100000000E-03 0. -1.
        -11    1    3    3    0    0 -0.87302647627E+01 -0.10209613306E+02 -0.21059041307E+02  0.24978729906E+02  0.51100000000E-03 0.  1.
         12    1    3    3    0    0 -0.53821003163E+00 -0.34407352462E+01  0.22846362181E+01  0.41650800378E+01  0.00000000000E+00 0. -1.
</event>
<event>
 7    1  0.1542786E-009  0.4778727E+02  0.7816164E-02  0.1312668E+00
        -11   -1    0    0    0    0  0.00000000000E+00  0.00000000000E+00  0.45593999997E+02  0.45594000000E+02  0.51100000000E-03 0.  1.
         11   -1    0    0    0    0 -0.00000000000E+00 -0.00000000000E+00 -0.45593999997E+02  0.45594000000E+02  0.51100000000E-03 0. -1.
    9900012    2    1    2    0    0 -0.19296104875E+02  0.38866345262E+02 -0.83105216944E+00  0.47787272989E+02  0.20000008866E+02 0.  0.
        -12    1    1    2    0    0  0.19296104875E+02 -0.38866345262E+02  0.83105216944E+00  0.43400727011E+02  0.00000000000E+00 0.  1.
         11    1    3    3    0    0 -0.72224173794E+01  0.18429174579E+02 -0.42830911886E+01  0.20251979134E+02  0.51100000000E-03 0. -1.
        -11    1    3    3    0    0  0.91980172582E+00 -0.65974075368E+00 -0.18766033917E+01  0.21915596336E+01  0.51100000000E-03 0.  1.
         12    1    3    3    0    0 -0.12993489222E+02  0.21096911437E+02  0.53286424109E+01  0.25343734221E+02  0.00000000000E+00 0. -1.
</event>
<event>
 7    1  0.1542786E-009  0.4778727E+02  0.7816164E-02  0.1312668E+00
        -11   -1    0    0    0    0  0.00000000000E+00  0.00000000000E+00  0.45593999997E+02  0.45594000000E+02  0.51100000000E-03 0.  1.
         11   -1    0    0    0    0 -0.00000000000E+00 -0.00000000000E+00 -0.45593999997E+02  0.45594000000E+02  0.51100000000E-03 0. -1.
    9900012    2    1    2    0    0  0.27672000194E+02 -0.30845074176E+02 -0.12902132814E+02  0.47787271587E+02  0.20000002474E+02 0.  0.
        -12    1    1    2    0    0 -0.27672000194E+02  0.30845074176E+02  0.12902132814E+02  0.43400728413E+02  0.00000000000E+00 0.  1.
         11    1    3    3    0    0 -0.55019386831E-01 -0.45645021563E+01 -0.34408238763E+01  0.57163778984E+01  0.51100000000E-03 0. -1.
        -11    1    3    3    0    0  0.10262707722E+02 -0.83425544807E+01  0.37719761343E+01  0.13753151976E+02  0.51100000000E-03 0.  1.
        -12    1    3    3    0    0  0.17464311858E+02 -0.17938017539E+02 -0.13233285072E+02  0.28317741713E+02  0.00000000000E+00 0.  1.
</event>
<event>
 7    1  0.1542786E-009  0.4778727E+02  0.7816164E-02  0.1312668E+00
        -11   -1    0    0    0    0  0.00000000000E+00  0.00000000000E+00  0.45593999997E+02  0.45594000000E+02  0.51100000000E-03 0. -1.
         11   -1    0    0    0    0 -0.00000000000E+00 -0.00000000000E+00 -0.45593999997E+02  0.45594000000E+02  0.51100000000E-03 0.  1.
    9900012    2    1    2    0    0 -0.19904570259E+02  0.38464939419E+02 -0.28071024074E+01  0.47787270679E+02  0.19999998332E+02 0.  0.
        -12    1    1    2    0    0  0.19904570259E+02 -0.38464939419E+02  0.28071024074E+01  0.43400729321E+02  0.00000000000E+00 0.  1.
         11    1    3    3    0    0 -0.11640600776E+02  0.17218966004E+02 -0.46902446089E+01  0.21307153058E+02  0.51100000000E-03 0. -1.
        -11    1    3    3    0    0 -0.31640112285E+01  0.99396501618E+01  0.75168303137E+01  0.12857307285E+02  0.51100000000E-03 0.  1.
         12    1    3    3    0    0 -0.50999582536E+01  0.11306323253E+02 -0.56336881122E+01  0.13622810336E+02  0.00000000000E+00 0. -1.
</event>
<event>
 7    1  0.1542786E-009  0.4778726E+02  0.7816164E-02  0.1312668E+00
        -11   -1    0    0    0    0  0.00000000000E+00  0.00000000000E+00  0.45593999997E+02  0.45594000000E+02  0.51100000000E-03 0.  1.
         11   -1    0    0    0    0 -0.00000000000E+00 -0.00000000000E+00 -0.45593999997E+02  0.45594000000E+02  0.51100000000E-03 0. -1.
    9900012    2    1    2    0    0  0.42910720256E+02  0.12733646220E+01 -0.63775317187E+01  0.47787259440E+02  0.19999947089E+02 0.  0.
        -12    1    1    2    0    0 -0.42910720256E+02 -0.12733646220E+01  0.63775317187E+01  0.43400740560E+02  0.00000000000E+00 0.  1.
         11    1    3    3    0    0  0.12403693013E+02 -0.30000456097E+01  0.19699904587E+01  0.12912503114E+02  0.51100000000E-03 0. -1.
        -11    1    3    3    0    0  0.22248110109E+02 -0.15938913357E+01 -0.10281858641E+02  0.24560853210E+02  0.51100000000E-03 0.  1.
        -12    1    3    3    0    0  0.82589171344E+01  0.58673015675E+01  0.19343364638E+01  0.10313903115E+02  0.00000000000E+00 0.  1.
</event>
<event>
 7    1  0.1542786E-009  0.4778727E+02  0.7816164E-02  0.1312668E+00
        -11   -1    0    0    0    0  0.00000000000E+00  0.00000000000E+00  0.45593999997E+02  0.45594000000E+02  0.51100000000E-03 0. -1.
         11   -1    0    0    0    0 -0.00000000000E+00 -0.00000000000E+00 -0.45593999997E+02  0.45594000000E+02  0.51100000000E-03 0.  1.
    9900012    2    1    2    0    0 -0.18414269316E+02  0.30863110543E+02 -0.24331176521E+02  0.47787273534E+02  0.20000011352E+02 0.  0.
        -12    1    1    2    0    0  0.18414269316E+02 -0.30863110543E+02  0.24331176521E+02  0.43400726466E+02  0.00000000000E+00 0.  1.
         11    1    3    3    0    0 -0.55054473051E+00 -0.10041926379E+01 -0.43201477256E+01  0.44693600198E+01  0.51100000000E-03 0.  1.
        -11    1    3    3    0    0 -0.62852027267E+01  0.20491999500E+02 -0.15562033175E+02  0.26487783857E+02  0.51100000000E-03 0. -1.
        -12    1    3    3    0    0 -0.11578521859E+02  0.11375303681E+02 -0.44489956203E+01  0.16830129658E+02  0.00000000000E+00 0.  1.
</event>
<event>
 7    1  0.1542786E-009  0.4778727E+02  0.7816164E-02  0.1312668E+00
        -11   -1    0    0    0    0  0.00000000000E+00  0.00000000000E+00  0.45593999997E+02  0.45594000000E+02  0.51100000000E-03 0.  1.
         11   -1    0    0    0    0 -0.00000000000E+00 -0.00000000000E+00 -0.45593999997E+02  0.45594000000E+02  0.51100000000E-03 0. -1.
    9900012    2    1    2    0    0 -0.33174903218E+02  0.94843774003E-01 -0.27982851127E+02  0.47787272401E+02  0.20000006187E+02 0.  0.
        -12    1    1    2    0    0  0.33174903218E+02 -0.94843774003E-01  0.27982851127E+02  0.43400727599E+02  0.00000000000E+00 0.  1.
         11    1    3    3    0    0 -0.14754365759E+02 -0.65251069867E+00 -0.11589082483E+02  0.18772956939E+02  0.51100000000E-03 0. -1.
        -11    1    3    3    0    0 -0.14344603645E+02 -0.76060642411E+00 -0.26595221373E+01  0.14608875184E+02  0.51100000000E-03 0.  1.
         12    1    3    3    0    0 -0.40759338140E+01  0.15079608968E+01 -0.13734246507E+02  0.14405440279E+02  0.00000000000E+00 0. -1.
</event>
<event>
 7    1  0.1542786E-009  0.4778727E+02  0.7816164E-02  0.1312668E+00
        -11   -1    0    0    0    0  0.00000000000E+00  0.00000000000E+00  0.45593999997E+02  0.45594000000E+02  0.51100000000E-03 0.  1.
         11   -1    0    0    0    0 -0.00000000000E+00 -0.00000000000E+00 -0.45593999997E+02  0.45594000000E+02  0.51100000000E-03 0. -1.
    9900012    2    1    2    0    0  0.17411789051E+02 -0.16042978644E+01 -0.39722527858E+02  0.47787269718E+02  0.19999993953E+02 0.  0.
        -12    1    1    2    0    0 -0.17411789051E+02  0.16042978644E+01  0.39722527858E+02  0.43400730282E+02  0.00000000000E+00 0.  1.
         11    1    3    3    0    0  0.10261697571E+02 -0.69230491409E+01 -0.15564792393E+02  0.19887026146E+02  0.51100000000E-03 0. -1.
        -11    1    3    3    0    0  0.94586548584E+01  0.30934590290E+01 -0.21656569801E+02  0.23833645468E+02  0.51100000000E-03 0.  1.
        -12    1    3    3    0    0 -0.23085633789E+01  0.22252922475E+01 -0.25011656642E+01  0.40665981042E+01  0.00000000000E+00 0.  1.
</event>
<event>
 7    1  0.1542786E-009  0.4778728E+02  0.7816164E-02  0.1312668E+00
        -11   -1    0    0    0    0  0.00000000000E+00  0.00000000000E+00  0.45593999997E+02  0.45594000000E+02  0.51100000000E-03 0. -1.
         11   -1    0    0    0    0 -0.00000000000E+00 -0.00000000000E+00 -0.45593999997E+02  0.45594000000E+02  0.51100000000E-03 0.  1.
    9900012    2    1    2    0    0  0.12550979837E+02 -0.39193297214E+02 -0.13783357084E+02  0.47787279109E+02  0.20000036768E+02 0.  0.
        -12    1    1    2    0    0 -0.12550979837E+02  0.39193297214E+02  0.13783357084E+02  0.43400720891E+02  0.00000000000E+00 0.  1.
         11    1    3    3    0    0  0.97614752627E+00 -0.66033337659E+01  0.10674698734E+01  0.67599092456E+01  0.51100000000E-03 0. -1.
        -11    1    3    3    0    0  0.50591915752E+01 -0.20581448602E+02 -0.17035006284E+02  0.27191595858E+02  0.51100000000E-03 0.  1.
        -12    1    3    3    0    0  0.65156407351E+01 -0.12008514846E+02  0.21841793258E+01  0.13835774005E+02  0.00000000000E+00 0.  1.
</event>
<event>
 7    1  0.1542786E-009  0.4778721E+02  0.7816164E-02  0.1312668E+00
        -11   -1    0    0    0    0  0.00000000000E+00  0.00000000000E+00  0.45593999997E+02  0.45594000000E+02  0.51100000000E-03 0. -1.
         11   -1    0    0    0    0 -0.00000000000E+00 -0.00000000000E+00 -0.45593999997E+02  0.45594000000E+02  0.51100000000E-03 0.  1.
    9900012    2    1    2    0    0 -0.10961771609E+02  0.37748093572E+02 -0.18399725165E+02  0.47787206329E+02  0.19999704936E+02 0.  0.
        -12    1    1    2    0    0  0.10961771609E+02 -0.37748093572E+02  0.18399725165E+02  0.43400793671E+02  0.00000000000E+00 0.  1.
         11    1    3    3    0    0 -0.85958005571E+01  0.68000926085E+01 -0.77826834537E+01  0.13442440578E+02  0.51100000000E-03 0. -1.
        -11    1    3    3    0    0 -0.34753507573E+01  0.41588074914E+01  0.22270366481E+00  0.54243285133E+01  0.51100000000E-03 0.  1.
        -12    1    3    3    0    0  0.11093797055E+01  0.26789193472E+02 -0.10839745376E+02  0.28920437238E+02  0.00000000000E+00 0.  1.
</event>
<event>
 7    1  0.1542786E-009  0.4778727E+02  0.7816164E-02  0.1312668E+00
        -11   -1    0    0    0    0  0.00000000000E+00  0.00000000000E+00  0.45593999997E+02  0.45594000000E+02  0.51100000000E-03 0. -1.
         11   -1    0    0    0    0 -0.00000000000E+00 -0.00000000000E+00 -0.45593999997E+02  0.45594000000E+02  0.51100000000E-03 0.  1.
    9900012    2    1    2    0    0 -0.30938395745E+02  0.11612375040E+02  0.28135233997E+02  0.47787274460E+02  0.20000015571E+02 0.  0.
        -12    1    1    2    0    0  0.30938395745E+02 -0.11612375040E+02 -0.28135233997E+02  0.43400725540E+02  0.00000000000E+00 0.  1.
         11    1    3    3    0    0 -0.15566644489E+02  0.10237123101E+02  0.20693827345E+02  0.27845171942E+02  0.51100000000E-03 0. -1.
        -11    1    3    3    0    0  0.15122232292E+01 -0.23313902989E+00  0.42812182348E+00  0.15888553927E+01  0.51100000000E-03 0.  1.
        -12    1    3    3    0    0 -0.16883974486E+02  0.16083909687E+01  0.70132848291E+01  0.18353247125E+02  0.00000000000E+00 0.  1.
</event>
<event>
 7    1  0.1542786E-009  0.4778728E+02  0.7816164E-02  0.1312668E+00
        -11   -1    0    0    0    0  0.00000000000E+00  0.00000000000E+00  0.45593999997E+02  0.45594000000E+02  0.51100000000E-03 0.  1.
         11   -1    0    0    0    0 -0.00000000000E+00 -0.00000000000E+00 -0.45593999997E+02  0.45594000000E+02  0.51100000000E-03 0. -1.
    9900012    2    1    2    0    0  0.32157055668E+02 -0.15905267143E+02 -0.24424761976E+02  0.47787277084E+02  0.20000027535E+02 0.  0.
        -12    1    1    2    0    0 -0.32157055668E+02  0.15905267143E+02  0.24424761976E+02  0.43400722916E+02  0.00000000000E+00 0.  1.
         11    1    3    3    0    0  0.21697100452E+02 -0.11239126676E+02 -0.82881698363E+01  0.25802633508E+02  0.51100000000E-03 0. -1.
        -11    1    3    3    0    0  0.60367263857E+01 -0.75340195004E+01 -0.10157936785E+02  0.14013821580E+02  0.51100000000E-03 0.  1.
         12    1    3    3    0    0  0.44232288300E+01  0.28678790338E+01 -0.59786553543E+01  0.79708219953E+01  0.00000000000E+00 0. -1.
</event>
<event>
 7    1  0.1542786E-009  0.4778727E+02  0.7816164E-02  0.1312668E+00
        -11   -1    0    0    0    0  0.00000000000E+00  0.00000000000E+00  0.45593999997E+02  0.45594000000E+02  0.51100000000E-03 0.  1.
         11   -1    0    0    0    0 -0.00000000000E+00 -0.00000000000E+00 -0.45593999997E+02  0.45594000000E+02  0.51100000000E-03 0. -1.
    9900012    2    1    2    0    0  0.25475310686E+01  0.22976966181E+01 -0.43264929102E+02  0.47787269425E+02  0.19999992615E+02 0.  0.
        -12    1    1    2    0    0 -0.25475310686E+01 -0.22976966181E+01  0.43264929102E+02  0.43400730575E+02  0.00000000000E+00 0.  1.
         11    1    3    3    0    0 -0.49475574929E+01 -0.12594128727E+01 -0.87376749948E+01  0.10119852297E+02  0.51100000000E-03 0. -1.
        -11    1    3    3    0    0 -0.12549002672E+01  0.11920393737E+01  0.23155966585E+00  0.17462395852E+01  0.51100000000E-03 0.  1.
         12    1    3    3    0    0  0.87499888287E+01  0.23650701171E+01 -0.34758813773E+02  0.35921177543E+02  0.00000000000E+00 0. -1.
</event>
<event>
 7    1  0.1542786E-009  0.4778727E+02  0.7816164E-02  0.1312668E+00
        -11   -1    0    0    0    0  0.00000000000E+00  0.00000000000E+00  0.45593999997E+02  0.45594000000E+02  0.51100000000E-03 0.  1.
         11   -1    0    0    0    0 -0.00000000000E+00 -0.00000000000E+00 -0.45593999997E+02  0.45594000000E+02  0.51100000000E-03 0. -1.
    9900012    2    1    2    0    0  0.13002053632E+02 -0.10074293147E+00 -0.41407241399E+02  0.47787272033E+02  0.20000004510E+02 0.  0.
        -12    1    1    2    0    0 -0.13002053632E+02  0.10074293147E+00  0.41407241399E+02  0.43400727967E+02  0.00000000000E+00 0.  1.
         11    1    3    3    0    0  0.52833555449E+01 -0.75835476513E+01 -0.30461730355E+02  0.31833018350E+02  0.51100000000E-03 0. -1.
        -11    1    3    3    0    0  0.44985520114E+01  0.29742943498E+01 -0.80861190069E+01  0.97195019386E+01  0.51100000000E-03 0.  1.
         12    1    3    3    0    0  0.32201460753E+01  0.45085103700E+01 -0.28593920370E+01  0.62347517452E+01  0.00000000000E+00 0. -1.
</event>
<event>
 7    1  0.1542786E-009  0.4778727E+02  0.7816164E-02  0.1312668E+00
        -11   -1    0    0    0    0  0.00000000000E+00  0.00000000000E+00  0.45593999997E+02  0.45594000000E+02  0.51100000000E-03 0. -1.
         11   -1    0    0    0    0 -0.00000000000E+00 -0.00000000000E+00 -0.45593999997E+02  0.45594000000E+02  0.51100000000E-03 0.  1.
    9900012    2    1    2    0    0  0.82367958365E+00 -0.25421657707E+01  0.43318382004E+02  0.47787271039E+02  0.19999999976E+02 0.  0.
        -12    1    1    2    0    0 -0.82367958365E+00  0.25421657707E+01 -0.43318382004E+02  0.43400728961E+02  0.00000000000E+00 0.  1.
         11    1    3    3    0    0  0.67224656587E+00 -0.40751249436E+01  0.29501128138E+02  0.29788842214E+02  0.51100000000E-03 0. -1.
        -11    1    3    3    0    0 -0.61874128004E+00  0.98389323763E+00  0.15778376555E+02  0.15821126814E+02  0.51100000000E-03 0.  1.
        -12    1    3    3    0    0  0.77017429782E+00  0.54906593529E+00 -0.19611226888E+01  0.21773020119E+01  0.00000000000E+00 0.  1.
</event>
<event>
 7    1  0.1542786E-009  0.4778727E+02  0.7816164E-02  0.1312668E+00
        -11   -1    0    0    0    0  0.00000000000E+00  0.00000000000E+00  0.45593999997E+02  0.45594000000E+02  0.51100000000E-03 0.  1.
         11   -1    0    0    0    0 -0.00000000000E+00 -0.00000000000E+00 -0.45593999997E+02  0.45594000000E+02  0.51100000000E-03 0. -1.
    9900012    2    1    2    0    0  0.17502082298E+02  0.19877014619E+02 -0.34383207431E+02  0.47787267884E+02  0.19999985591E+02 0.  0.
        -12    1    1    2    0    0 -0.17502082298E+02 -0.19877014619E+02  0.34383207431E+02  0.43400732116E+02  0.00000000000E+00 0.  1.
         11    1    3    3    0    0  0.11937234511E+02  0.15853679019E+02 -0.17297795166E+02  0.26325850871E+02  0.51100000000E-03 0. -1.
        -11    1    3    3    0    0  0.28042801120E+01 -0.14231764970E+01  0.17814990110E+00  0.31497866494E+01  0.51100000000E-03 0.  1.
        -12    1    3    3    0    0  0.27605676751E+01  0.54465120969E+01 -0.17263562166E+02  0.18311630364E+02  0.00000000000E+00 0.  1.
</event>
<event>
 7    1  0.1542786E-009  0.4778727E+02  0.7816164E-02  0.1312668E+00
        -11   -1    0    0    0    0  0.00000000000E+00  0.00000000000E+00  0.45593999997E+02  0.45594000000E+02  0.51100000000E-03 0.  1.
         11   -1    0    0    0    0 -0.00000000000E+00 -0.00000000000E+00 -0.45593999997E+02  0.45594000000E+02  0.51100000000E-03 0. -1.
    9900012    2    1    2    0    0 -0.13589798761E+01 -0.57121311564E+01 -0.43001718852E+02  0.47787273129E+02  0.20000009506E+02 0.  0.
        -12    1    1    2    0    0  0.13589798761E+01  0.57121311564E+01  0.43001718852E+02  0.43400726871E+02  0.00000000000E+00 0.  1.
         11    1    3    3    0    0  0.10669744638E+01 -0.40796592077E+01 -0.16555396748E+02  0.17084004668E+02  0.51100000000E-03 0. -1.
        -11    1    3    3    0    0 -0.94234831662E+00  0.68668024542E+01 -0.10715784359E+02  0.12762015162E+02  0.51100000000E-03 0.  1.
         12    1    3    3    0    0 -0.14836060233E+01 -0.84992744029E+01 -0.15730537745E+02  0.17941253300E+02  0.00000000000E+00 0. -1.
</event>
<event>
 7    1  0.1542786E-009  0.4778727E+02  0.7816164E-02  0.1312668E+00
        -11   -1    0    0    0    0  0.00000000000E+00  0.00000000000E+00  0.45593999997E+02  0.45594000000E+02  0.51100000000E-03 0.  1.
         11   -1    0    0    0    0 -0.00000000000E+00 -0.00000000000E+00 -0.45593999997E+02  0.45594000000E+02  0.51100000000E-03 0. -1.
    9900012    2    1    2    0    0 -0.10419594122E+02 -0.40603500117E+01 -0.41935291267E+02  0.47787273767E+02  0.20000012414E+02 0.  0.
        -12    1    1    2    0    0  0.10419594122E+02  0.40603500117E+01  0.41935291267E+02  0.43400726233E+02  0.00000000000E+00 0.  1.
         11    1    3    3    0    0 -0.42243067784E+01  0.18697930848E+01 -0.21012813213E+02  0.21514627892E+02  0.51100000000E-03 0. -1.
        -11    1    3    3    0    0 -0.38719343510E+00 -0.47872615179E+01 -0.19636184191E+02  0.20215032067E+02  0.51100000000E-03 0.  1.
        -12    1    3    3    0    0 -0.58080939085E+01 -0.11428815785E+01 -0.12862938627E+01  0.60576138085E+01  0.00000000000E+00 0.  1.
</event>
<event>
 7    1  0.1542786E-009  0.4778726E+02  0.7816164E-02  0.1312668E+00
        -11   -1    0    0    0    0  0.00000000000E+00  0.00000000000E+00  0.45593999997E+02  0.45594000000E+02  0.51100000000E-03 0.  1.
         11   -1    0    0    0    0 -0.00000000000E+00 -0.00000000000E+00 -0.45593999997E+02  0.45594000000E+02  0.51100000000E-03 0. -1.
    9900012    2    1    2    0    0 -0.17466315156E+02  0.21501453992E+02 -0.33410170170E+02  0.47787260839E+02  0.19999953470E+02 0.  0.
        -12    1    1    2    0    0  0.17466315156E+02 -0.21501453992E+02  0.33410170170E+02  0.43400739161E+02  0.00000000000E+00 0.  1.
         11    1    3    3    0    0 -0.15164168509E+02  0.52239379124E+01 -0.11390589418E+02  0.19671986718E+02  0.51100000000E-03 0. -1.
        -11    1    3    3    0    0 -0.17174531840E+01  0.88389282085E+00 -0.37476336621E+01  0.42161202882E+01  0.51100000000E-03 0.  1.
        -12    1    3    3    0    0 -0.58469346332E+00  0.15393623259E+02 -0.18271947090E+02  0.23899153834E+02  0.00000000000E+00 0.  1.
</event>
<event>
 7    1  0.1542786E-009  0.4778727E+02  0.7816164E-02  0.1312668E+00
        -11   -1    0    0    0    0  0.00000000000E+00  0.00000000000E+00  0.45593999997E+02  0.45594000000E+02  0.51100000000E-03 0. -1.
         11   -1    0    0    0    0 -0.00000000000E+00 -0.00000000000E+00 -0.45593999997E+02  0.45594000000E+02  0.51100000000E-03 0.  1.
    9900012    2    1    2    0    0  0.36473695635E+01  0.43001583701E+02 -0.46025906040E+01  0.47787270216E+02  0.19999996222E+02 0.  0.
        -12    1    1    2    0    0 -0.36473695635E+01 -0.43001583701E+02  0.46025906040E+01  0.43400729784E+02  0.00000000000E+00 0.  1.
         11    1    3    3    0    0  0.30726428369E+01  0.86378742703E+01  0.18028613526E+01  0.93436778214E+01  0.51100000000E-03 0. -1.
        -11    1    3    3    0    0  0.43325984305E+01  0.23215894167E+02  0.24151806044E+01  0.23739887294E+02  0.51100000000E-03 0.  1.
        -12    1    3    3    0    0 -0.37578717040E+01  0.11147815264E+02 -0.88206325610E+01  0.14703705100E+02  0.00000000000E+00 0.  1.
</event>
<event>
 7    1  0.1542786E-009  0.4778726E+02  0.7816164E-02  0.1312668E+00
        -11   -1    0    0    0    0  0.00000000000E+00  0.00000000000E+00  0.45593999997E+02  0.45594000000E+02  0.51100000000E-03 0. -1.
         11   -1    0    0    0    0 -0.00000000000E+00 -0.00000000000E+00 -0.45593999997E+02  0.45594000000E+02  0.51100000000E-03 0.  1.
    9900012    2    1    2    0    0 -0.20965299429E+02  0.33153623925E+02  0.18571960817E+02  0.47787259360E+02  0.19999946725E+02 0.  0.
        -12    1    1    2    0    0  0.20965299429E+02 -0.33153623925E+02 -0.18571960817E+02  0.43400740640E+02  0.00000000000E+00 0.  1.
         11    1    3    3    0    0 -0.30191762895E+01  0.20582314489E+01  0.58018318310E+01  0.68566022942E+01  0.51100000000E-03 0. -1.
        -11    1    3    3    0    0 -0.52914778974E+01  0.16414573120E+01 -0.16480414364E+01  0.57801523581E+01  0.51100000000E-03 0.  1.
         12    1    3    3    0    0 -0.12654645242E+02  0.29453935164E+02  0.14418170422E+02  0.35150504708E+02  0.00000000000E+00 0. -1.
</event>
<event>
 7    1  0.1542786E-009  0.4778727E+02  0.7816164E-02  0.1312668E+00
        -11   -1    0    0    0    0  0.00000000000E+00  0.00000000000E+00  0.45593999997E+02  0.45594000000E+02  0.51100000000E-03 0.  1.
         11   -1    0    0    0    0 -0.00000000000E+00 -0.00000000000E+00 -0.45593999997E+02  0.45594000000E+02  0.51100000000E-03 0. -1.
    9900012    2    1    2    0    0 -0.31231601543E+02  0.19124739745E+02 -0.23290662905E+02  0.47787267474E+02  0.19999983719E+02 0.  0.
        -12    1    1    2    0    0  0.31231601543E+02 -0.19124739745E+02  0.23290662905E+02  0.43400732526E+02  0.00000000000E+00 0.  1.
         11    1    3    3    0    0 -0.13039978461E+02  0.14850777395E+01 -0.23043399012E+01  0.13325031962E+02  0.51100000000E-03 0.  1.
        -11    1    3    3    0    0 -0.17581108639E+01  0.29135805726E+01  0.75402221709E+00  0.34854634309E+01  0.51100000000E-03 0. -1.
         12    1    3    3    0    0 -0.16433512218E+02  0.14726081433E+02 -0.21740345221E+02  0.30976772081E+02  0.00000000000E+00 0. -1.
</event>
<event>
 7    1  0.1542786E-009  0.4778727E+02  0.7816164E-02  0.1312668E+00
        -11   -1    0    0    0    0  0.00000000000E+00  0.00000000000E+00  0.45593999997E+02  0.45594000000E+02  0.51100000000E-03 0.  1.
         11   -1    0    0    0    0 -0.00000000000E+00 -0.00000000000E+00 -0.45593999997E+02  0.45594000000E+02  0.51100000000E-03 0. -1.
    9900012    2    1    2    0    0  0.26041545771E+02 -0.31514752752E+02 -0.14569885867E+02  0.47787270497E+02  0.19999997505E+02 0.  0.
        -12    1    1    2    0    0 -0.26041545771E+02  0.31514752752E+02  0.14569885867E+02  0.43400729503E+02  0.00000000000E+00 0.  1.
         11    1    3    3    0    0  0.52184780613E+01 -0.22589308785E+01  0.21780814002E+01  0.60892791722E+01  0.51100000000E-03 0. -1.
        -11    1    3    3    0    0  0.14078884171E+01 -0.32451494198E+01  0.21500151116E+01  0.41395301416E+01  0.51100000000E-03 0.  1.
         12    1    3    3    0    0  0.19415179293E+02 -0.26010672454E+02 -0.18897982379E+02  0.37558461183E+02  0.00000000000E+00 0. -1.
</event>
<event>
 7    1  0.1542786E-009  0.4778727E+02  0.7816164E-02  0.1312668E+00
        -11   -1    0    0    0    0  0.00000000000E+00  0.00000000000E+00  0.45593999997E+02  0.45594000000E+02  0.51100000000E-03 0.  1.
         11   -1    0    0    0    0 -0.00000000000E+00 -0.00000000000E+00 -0.45593999997E+02  0.45594000000E+02  0.51100000000E-03 0. -1.
    9900012    2    1    2    0    0  0.40002375167E+02 -0.74071330169E+01 -0.15118450321E+02  0.47787272141E+02  0.20000005001E+02 0.  0.
        -12    1    1    2    0    0 -0.40002375167E+02  0.74071330169E+01  0.15118450321E+02  0.43400727859E+02  0.00000000000E+00 0.  1.
         11    1    3    3    0    0 -0.76086149691E+00 -0.13769225838E+01  0.30128609350E+00  0.16017489162E+01  0.51100000000E-03 0. -1.
        -11    1    3    3    0    0  0.64761064221E+01 -0.14348285050E+01  0.26666453829E+01  0.71491037962E+01  0.51100000000E-03 0.  1.
         12    1    3    3    0    0  0.34287130242E+02 -0.45953819281E+01 -0.18086381797E+02  0.39036419429E+02  0.00000000000E+00 0. -1.
</event>
<event>
 7    1  0.1542786E-009  0.4778727E+02  0.7816164E-02  0.1312668E+00
        -11   -1    0    0    0    0  0.00000000000E+00  0.00000000000E+00  0.45593999997E+02  0.45594000000E+02  0.51100000000E-03 0.  1.
         11   -1    0    0    0    0 -0.00000000000E+00 -0.00000000000E+00 -0.45593999997E+02  0.45594000000E+02  0.51100000000E-03 0. -1.
    9900012    2    1    2    0    0 -0.42052643914E+02 -0.10599410095E+02 -0.16884864900E+01  0.47787270270E+02  0.19999996469E+02 0.  0.
        -12    1    1    2    0    0  0.42052643914E+02  0.10599410095E+02  0.16884864900E+01  0.43400729730E+02  0.00000000000E+00 0.  1.
         11    1    3    3    0    0 -0.48832571396E+01 -0.54262292560E+01  0.17986737118E+01  0.75183370244E+01  0.51100000000E-03 0. -1.
        -11    1    3    3    0    0 -0.23909655752E+02 -0.13858524805E+01 -0.87652176955E+01  0.25503357952E+02  0.51100000000E-03 0.  1.
        -12    1    3    3    0    0 -0.13259731022E+02 -0.37873283581E+01  0.52780574937E+01  0.14765575294E+02  0.00000000000E+00 0.  1.
</event>
<event>
 7    1  0.1542786E-009  0.4778728E+02  0.7816164E-02  0.1312668E+00
        -11   -1    0    0    0    0  0.00000000000E+00  0.00000000000E+00  0.45593999997E+02  0.45594000000E+02  0.51100000000E-03 0.  1.
         11   -1    0    0    0    0 -0.00000000000E+00 -0.00000000000E+00 -0.45593999997E+02  0.45594000000E+02  0.51100000000E-03 0. -1.
    9900012    2    1    2    0    0  0.18161895878E+02 -0.37120842541E+02 -0.13259376817E+02  0.47787280117E+02  0.20000041364E+02 0.  0.
        -12    1    1    2    0    0 -0.18161895878E+02  0.37120842541E+02  0.13259376817E+02  0.43400719883E+02  0.00000000000E+00 0.  1.
         11    1    3    3    0    0  0.90307866475E+01 -0.18222285515E+02 -0.11477081400E+02  0.23352305980E+02  0.51100000000E-03 0. -1.
        -11    1    3    3    0    0  0.27247285205E+01  0.12469487451E+01  0.89304020421E+00  0.31267471517E+01  0.51100000000E-03 0.  1.
         12    1    3    3    0    0  0.64063807100E+01 -0.20145505771E+02 -0.26753356212E+01  0.21308226985E+02  0.00000000000E+00 0. -1.
</event>
<event>
 7    1  0.1542786E-009  0.4778727E+02  0.7816164E-02  0.1312668E+00
        -11   -1    0    0    0    0  0.00000000000E+00  0.00000000000E+00  0.45593999997E+02  0.45594000000E+02  0.51100000000E-03 0.  1.
         11   -1    0    0    0    0 -0.00000000000E+00 -0.00000000000E+00 -0.45593999997E+02  0.45594000000E+02  0.51100000000E-03 0. -1.
    9900012    2    1    2    0    0  0.42752303706E+02  0.61352877236E+00 -0.74489936379E+01  0.47787269638E+02  0.19999993590E+02 0.  0.
        -12    1    1    2    0    0 -0.42752303706E+02 -0.61352877236E+00  0.74489936379E+01  0.43400730362E+02  0.00000000000E+00 0.  1.
         11    1    3    3    0    0  0.32178837515E+02  0.79397292285E+01 -0.51023994240E+01  0.33534331128E+02  0.51100000000E-03 0. -1.
        -11    1    3    3    0    0  0.87520162698E+01 -0.41001780060E+01  0.34929725645E+00  0.96711559445E+01  0.51100000000E-03 0.  1.
         12    1    3    3    0    0  0.18214499206E+01 -0.32260224502E+01 -0.26958914703E+01  0.45817825660E+01  0.00000000000E+00 0. -1.
</event>
<event>
 7    1  0.1542786E-009  0.4778727E+02  0.7816164E-02  0.1312668E+00
        -11   -1    0    0    0    0  0.00000000000E+00  0.00000000000E+00  0.45593999997E+02  0.45594000000E+02  0.51100000000E-03 0.  1.
         11   -1    0    0    0    0 -0.00000000000E+00 -0.00000000000E+00 -0.45593999997E+02  0.45594000000E+02  0.51100000000E-03 0. -1.
    9900012    2    1    2    0    0 -0.40832347971E+02  0.74159888971E+00 -0.14689883523E+02  0.47787270885E+02  0.19999999274E+02 0.  0.
        -12    1    1    2    0    0  0.40832347971E+02 -0.74159888971E+00  0.14689883523E+02  0.43400729115E+02  0.00000000000E+00 0.  1.
         11    1    3    3    0    0 -0.25148078222E+02  0.67810060009E+00 -0.11288991647E+02  0.27574027478E+02  0.51100000000E-03 0. -1.
        -11    1    3    3    0    0 -0.46429093770E+01  0.57117741351E+01 -0.25184358500E+01  0.77796844824E+01  0.51100000000E-03 0.  1.
        -12    1    3    3    0    0 -0.11041360373E+02 -0.56482758455E+01 -0.88245602613E+00  0.12433558925E+02  0.00000000000E+00 0.  1.
</event>
<event>
 7    1  0.1542786E-009  0.4778727E+02  0.7816164E-02  0.1312668E+00
        -11   -1    0    0    0    0  0.00000000000E+00  0.00000000000E+00  0.45593999997E+02  0.45594000000E+02  0.51100000000E-03 0.  1.
         11   -1    0    0    0    0 -0.00000000000E+00 -0.00000000000E+00 -0.45593999997E+02  0.45594000000E+02  0.51100000000E-03 0. -1.
    9900012    2    1    2    0    0  0.38569228005E+02  0.19205201940E+02 -0.52151831368E+01  0.47787271139E+02  0.20000000433E+02 0.  0.
        -12    1    1    2    0    0 -0.38569228005E+02 -0.19205201940E+02  0.52151831368E+01  0.43400728861E+02  0.00000000000E+00 0.  1.
         11    1    3    3    0    0  0.14953604300E+02  0.51360882253E-01 -0.51483722701E+00  0.14962552494E+02  0.51100000000E-03 0.  1.
        -11    1    3    3    0    0  0.22501456316E+02  0.14411590834E+02 -0.67172295505E+01  0.27552325851E+02  0.51100000000E-03 0. -1.
        -12    1    3    3    0    0  0.11141673890E+01  0.47422502238E+01  0.20168836407E+01  0.52723927941E+01  0.00000000000E+00 0.  1.
</event>
<event>
 7    1  0.1542786E-009  0.4778727E+02  0.7816164E-02  0.1312668E+00
        -11   -1    0    0    0    0  0.00000000000E+00  0.00000000000E+00  0.45593999997E+02  0.45594000000E+02  0.51100000000E-03 0.  1.
         11   -1    0    0    0    0 -0.00000000000E+00 -0.00000000000E+00 -0.45593999997E+02  0.45594000000E+02  0.51100000000E-03 0. -1.
    9900012    2    1    2    0    0 -0.23909602584E+02  0.34798657302E+02 -0.10050261618E+02  0.47787269541E+02  0.19999993147E+02 0.  0.
        -12    1    1    2    0    0  0.23909602584E+02 -0.34798657302E+02  0.10050261618E+02  0.43400730459E+02  0.00000000000E+00 0.  1.
         11    1    3    3    0    0 -0.88040804426E+01  0.22543383461E+02 -0.80270002113E+01  0.25498013707E+02  0.51100000000E-03 0. -1.
        -11    1    3    3    0    0 -0.86064090667E+01  0.12947760853E+02 -0.38859482673E+00  0.15552035054E+02  0.51100000000E-03 0.  1.
        -12    1    3    3    0    0 -0.64991130745E+01 -0.69248701207E+00 -0.16346665795E+01  0.67372207803E+01  0.00000000000E+00 0.  1.
</event>
<event>
 7    1  0.1542786E-009  0.4778727E+02  0.7816164E-02  0.1312668E+00
        -11   -1    0    0    0    0  0.00000000000E+00  0.00000000000E+00  0.45593999997E+02  0.45594000000E+02  0.51100000000E-03 0.  1.
         11   -1    0    0    0    0 -0.00000000000E+00 -0.00000000000E+00 -0.45593999997E+02  0.45594000000E+02  0.51100000000E-03 0. -1.
    9900012    2    1    2    0    0 -0.15440437756E+02 -0.35699018497E+02 -0.19256076854E+02  0.47787268030E+02  0.19999986257E+02 0.  0.
        -12    1    1    2    0    0  0.15440437756E+02  0.35699018497E+02  0.19256076854E+02  0.43400731970E+02  0.00000000000E+00 0.  1.
         11    1    3    3    0    0 -0.12805579697E+02 -0.17752476930E+02 -0.10583929780E+02  0.24313635647E+02  0.51100000000E-03 0. -1.
        -11    1    3    3    0    0 -0.19064659811E+01 -0.18625902172E+02 -0.45980492434E+01  0.19279546192E+02  0.51100000000E-03 0.  1.
         12    1    3    3    0    0 -0.72839207763E+00  0.67936060511E+00 -0.40740978303E+01  0.41940861914E+01  0.00000000000E+00 0. -1.
</event>
<event>
 7    1  0.1542786E-009  0.4778727E+02  0.7816164E-02  0.1312668E+00
        -11   -1    0    0    0    0  0.00000000000E+00  0.00000000000E+00  0.45593999997E+02  0.45594000000E+02  0.51100000000E-03 0. -1.
         11   -1    0    0    0    0 -0.00000000000E+00 -0.00000000000E+00 -0.45593999997E+02  0.45594000000E+02  0.51100000000E-03 0.  1.
    9900012    2    1    2    0    0 -0.18177880734E+02 -0.37050026825E+02  0.13434422767E+02  0.47787267854E+02  0.19999985453E+02 0.  0.
        -12    1    1    2    0    0  0.18177880734E+02  0.37050026825E+02 -0.13434422767E+02  0.43400732146E+02  0.00000000000E+00 0.  1.
         11    1    3    3    0    0 -0.22349732877E+01 -0.11851156155E+02  0.18831665713E-01  0.12060073080E+02  0.51100000000E-03 0. -1.
        -11    1    3    3    0    0 -0.16902534191E+01 -0.63368979922E+01 -0.27244304492E+01  0.71018134527E+01  0.51100000000E-03 0.  1.
         12    1    3    3    0    0 -0.14252654028E+02 -0.18861972678E+02  0.16140021550E+02  0.28625381321E+02  0.00000000000E+00 0. -1.
</event>
<event>
 7    1  0.1542786E-009  0.4778727E+02  0.7816164E-02  0.1312668E+00
        -11   -1    0    0    0    0  0.00000000000E+00  0.00000000000E+00  0.45593999997E+02  0.45594000000E+02  0.51100000000E-03 0.  1.
         11   -1    0    0    0    0 -0.00000000000E+00 -0.00000000000E+00 -0.45593999997E+02  0.45594000000E+02  0.51100000000E-03 0. -1.
    9900012    2    1    2    0    0 -0.42151117960E+02  0.82635641009E+01  0.62145134245E+01  0.47787269430E+02  0.19999992639E+02 0.  0.
        -12    1    1    2    0    0  0.42151117960E+02 -0.82635641009E+01 -0.62145134245E+01  0.43400730570E+02  0.00000000000E+00 0.  1.
         11    1    3    3    0    0 -0.64360748150E+01  0.62927444632E+01  0.27879692208E+01  0.94230814780E+01  0.51100000000E-03 0. -1.
        -11    1    3    3    0    0 -0.10575643231E+02  0.63741998606E+01 -0.12711574125E+01  0.12413319260E+02  0.51100000000E-03 0.  1.
         12    1    3    3    0    0 -0.25139399914E+02 -0.44033802228E+01  0.46977016162E+01  0.25950868692E+02  0.00000000000E+00 0. -1.
</event>
<event>
 7    1  0.1542786E-009  0.4778728E+02  0.7816164E-02  0.1312668E+00
        -11   -1    0    0    0    0  0.00000000000E+00  0.00000000000E+00  0.45593999997E+02  0.45594000000E+02  0.51100000000E-03 0.  1.
         11   -1    0    0    0    0 -0.00000000000E+00 -0.00000000000E+00 -0.45593999997E+02  0.45594000000E+02  0.51100000000E-03 0. -1.
    9900012    2    1    2    0    0 -0.12545669231E+02 -0.34652556568E+02 -0.22922245649E+02  0.47787276057E+02  0.20000022855E+02 0.  0.
        -12    1    1    2    0    0  0.12545669231E+02  0.34652556568E+02  0.22922245649E+02  0.43400723943E+02  0.00000000000E+00 0.  1.
         11    1    3    3    0    0 -0.95435734830E+00 -0.88018577904E+01 -0.79322556402E+01  0.11887143404E+02  0.51100000000E-03 0. -1.
        -11    1    3    3    0    0 -0.39505394373E+01 -0.41329707251E+01  0.32061201286E+01  0.65549535010E+01  0.51100000000E-03 0.  1.
        -12    1    3    3    0    0 -0.76407724449E+01 -0.21717728052E+02 -0.18196110138E+02  0.29345179152E+02  0.00000000000E+00 0.  1.
</event>
<event>
 7    1  0.1542786E-009  0.4778727E+02  0.7816164E-02  0.1312668E+00
        -11   -1    0    0    0    0  0.00000000000E+00  0.00000000000E+00  0.45593999997E+02  0.45594000000E+02  0.51100000000E-03 0.  1.
         11   -1    0    0    0    0 -0.00000000000E+00 -0.00000000000E+00 -0.45593999997E+02  0.45594000000E+02  0.51100000000E-03 0. -1.
    9900012    2    1    2    0    0  0.89450199571E+01 -0.29524470300E+02 -0.30527293620E+02  0.47787269772E+02  0.19999994198E+02 0.  0.
        -12    1    1    2    0    0 -0.89450199571E+01  0.29524470300E+02  0.30527293620E+02  0.43400730228E+02  0.00000000000E+00 0.  1.
         11    1    3    3    0    0  0.45937142076E+01 -0.60674268289E+01 -0.82189922599E+01  0.11201237100E+02  0.51100000000E-03 0. -1.
        -11    1    3    3    0    0 -0.31670916657E+01 -0.74168872322E+01  0.44370638639E-01  0.80649026559E+01  0.51100000000E-03 0.  1.
        -12    1    3    3    0    0  0.75183974152E+01 -0.16040156239E+02 -0.22352671999E+02  0.28521130016E+02  0.00000000000E+00 0.  1.
</event>
<event>
 7    1  0.1542786E-009  0.4778727E+02  0.7816164E-02  0.1312668E+00
        -11   -1    0    0    0    0  0.00000000000E+00  0.00000000000E+00  0.45593999997E+02  0.45594000000E+02  0.51100000000E-03 0. -1.
         11   -1    0    0    0    0 -0.00000000000E+00 -0.00000000000E+00 -0.45593999997E+02  0.45594000000E+02  0.51100000000E-03 0.  1.
    9900012    2    1    2    0    0 -0.22445386343E+02  0.33091338406E+02  0.16875763887E+02  0.47787268988E+02  0.19999990623E+02 0.  0.
        -12    1    1    2    0    0  0.22445386343E+02 -0.33091338406E+02 -0.16875763887E+02  0.43400731012E+02  0.00000000000E+00 0.  1.
         11    1    3    3    0    0 -0.41933408648E+01  0.15066005179E+02  0.42597329875E+01  0.16208452889E+02  0.51100000000E-03 0. -1.
        -11    1    3    3    0    0 -0.18994651701E+02  0.16073622261E+02  0.14471714730E+02  0.28785215881E+02  0.51100000000E-03 0.  1.
         12    1    3    3    0    0  0.74260622279E+00  0.19517109664E+01 -0.18556838302E+01  0.27936002177E+01  0.00000000000E+00 0. -1.
</event>
<event>
 7    1  0.1542786E-009  0.4778727E+02  0.7816164E-02  0.1312668E+00
        -11   -1    0    0    0    0  0.00000000000E+00  0.00000000000E+00  0.45593999997E+02  0.45594000000E+02  0.51100000000E-03 0. -1.
         11   -1    0    0    0    0 -0.00000000000E+00 -0.00000000000E+00 -0.45593999997E+02  0.45594000000E+02  0.51100000000E-03 0.  1.
    9900012    2    1    2    0    0 -0.84910719029E+01 -0.42417557348E+02  0.35036595869E+01  0.47787273002E+02  0.20000008927E+02 0.  0.
        -12    1    1    2    0    0  0.84910719029E+01  0.42417557348E+02 -0.35036595869E+01  0.43400726998E+02  0.00000000000E+00 0.  1.
         11    1    3    3    0    0 -0.59938666381E+01 -0.41556956774E+02  0.65942611091E+01  0.42501663184E+02  0.51100000000E-03 0.  1.
        -11    1    3    3    0    0 -0.23972647080E+01 -0.28303879567E+00 -0.29809658044E+00  0.24322522222E+01  0.51100000000E-03 0. -1.
        -12    1    3    3    0    0 -0.99940556796E-01 -0.57756177866E+00 -0.27925049418E+01  0.28533575964E+01  0.00000000000E+00 0.  1.
</event>
<event>
 7    1  0.1542786E-009  0.4778727E+02  0.7816164E-02  0.1312668E+00
        -11   -1    0    0    0    0  0.00000000000E+00  0.00000000000E+00  0.45593999997E+02  0.45594000000E+02  0.51100000000E-03 0. -1.
         11   -1    0    0    0    0 -0.00000000000E+00 -0.00000000000E+00 -0.45593999997E+02  0.45594000000E+02  0.51100000000E-03 0.  1.
    9900012    2    1    2    0    0 -0.22738342100E+02 -0.14748811279E+02  0.33897837391E+02  0.47787274022E+02  0.20000013577E+02 0.  0.
        -12    1    1    2    0    0  0.22738342100E+02  0.14748811279E+02 -0.33897837391E+02  0.43400725978E+02  0.00000000000E+00 0.  1.
         11    1    3    3    0    0 -0.10158928657E+02 -0.48197600079E+01  0.22734424460E+01  0.11471811488E+02  0.51100000000E-03 0. -1.
        -11    1    3    3    0    0  0.68456717134E-01 -0.45795357525E+00  0.72674553799E+01  0.72821916865E+01  0.51100000000E-03 0.  1.
        -12    1    3    3    0    0 -0.12647870160E+02 -0.94710976958E+01  0.24356939565E+02  0.29033270848E+02  0.00000000000E+00 0.  1.
</event>
<event>
 7    1  0.1542786E-009  0.4778727E+02  0.7816164E-02  0.1312668E+00
        -11   -1    0    0    0    0  0.00000000000E+00  0.00000000000E+00  0.45593999997E+02  0.45594000000E+02  0.51100000000E-03 0.  1.
         11   -1    0    0    0    0 -0.00000000000E+00 -0.00000000000E+00 -0.45593999997E+02  0.45594000000E+02  0.51100000000E-03 0. -1.
    9900012    2    1    2    0    0 -0.42780391246E+02  0.18880378453E+01 -0.70637728652E+01  0.47787269026E+02  0.19999990795E+02 0.  0.
        -12    1    1    2    0    0  0.42780391246E+02 -0.18880378453E+01  0.70637728652E+01  0.43400730974E+02  0.00000000000E+00 0.  1.
         11    1    3    3    0    0 -0.87887315574E+01  0.45058152469E+01 -0.21836209537E+01  0.10114957941E+02  0.51100000000E-03 0. -1.
        -11    1    3    3    0    0 -0.19543538370E+02  0.32279974967E+01  0.32821973923E+01  0.20078413279E+02  0.51100000000E-03 0.  1.
         12    1    3    3    0    0 -0.14448121319E+02 -0.58457748983E+01 -0.81623493037E+01  0.17593897805E+02  0.00000000000E+00 0. -1.
</event>
<event>
 7    1  0.1542786E-009  0.4778727E+02  0.7816164E-02  0.1312668E+00
        -11   -1    0    0    0    0  0.00000000000E+00  0.00000000000E+00  0.45593999997E+02  0.45594000000E+02  0.51100000000E-03 0.  1.
         11   -1    0    0    0    0 -0.00000000000E+00 -0.00000000000E+00 -0.45593999997E+02  0.45594000000E+02  0.51100000000E-03 0. -1.
    9900012    2    1    2    0    0  0.38136984101E+02  0.74098529307E+01 -0.19346520078E+02  0.47787270560E+02  0.19999997793E+02 0.  0.
        -12    1    1    2    0    0 -0.38136984101E+02 -0.74098529307E+01  0.19346520078E+02  0.43400729440E+02  0.00000000000E+00 0.  1.
         11    1    3    3    0    0  0.22190419041E+02  0.76396688063E+01 -0.10942880403E+02  0.25894514254E+02  0.51100000000E-03 0. -1.
        -11    1    3    3    0    0  0.11409524304E+02  0.49300170269E+01 -0.84364052229E+01  0.15021825657E+02  0.51100000000E-03 0.  1.
        -12    1    3    3    0    0  0.45370407561E+01 -0.51598329026E+01  0.32765547210E-01  0.68709306492E+01  0.00000000000E+00 0.  1.
</event>
<event>
 7    1  0.1542786E-009  0.4778727E+02  0.7816164E-02  0.1312668E+00
        -11   -1    0    0    0    0  0.00000000000E+00  0.00000000000E+00  0.45593999997E+02  0.45594000000E+02  0.51100000000E-03 0.  1.
         11   -1    0    0    0    0 -0.00000000000E+00 -0.00000000000E+00 -0.45593999997E+02  0.45594000000E+02  0.51100000000E-03 0. -1.
    9900012    2    1    2    0    0 -0.25313877636E+01  0.19440411868E+02 -0.38720607823E+02  0.47787274110E+02  0.20000013977E+02 0.  0.
        -12    1    1    2    0    0  0.25313877636E+01 -0.19440411868E+02  0.38720607823E+02  0.43400725890E+02  0.00000000000E+00 0.  1.
         11    1    3    3    0    0 -0.23171814578E+01 -0.34568978525E+00 -0.71847288951E+01  0.75570603341E+01  0.51100000000E-03 0.  1.
        -11    1    3    3    0    0  0.24182309377E+01  0.20631877121E+02 -0.31146003037E+02  0.37437891231E+02  0.51100000000E-03 0. -1.
        -12    1    3    3    0    0 -0.26324372435E+01 -0.84577546778E+00 -0.38987589094E+00  0.27923225446E+01  0.00000000000E+00 0.  1.
</event>
<event>
 7    1  0.1542786E-009  0.4778727E+02  0.7816164E-02  0.1312668E+00
        -11   -1    0    0    0    0  0.00000000000E+00  0.00000000000E+00  0.45593999997E+02  0.45594000000E+02  0.51100000000E-03 0.  1.
         11   -1    0    0    0    0 -0.00000000000E+00 -0.00000000000E+00 -0.45593999997E+02  0.45594000000E+02  0.51100000000E-03 0. -1.
    9900012    2    1    2    0    0  0.12178488406E+02 -0.38469940263E+02  0.15980347366E+02  0.47787269758E+02  0.19999994133E+02 0.  0.
        -12    1    1    2    0    0 -0.12178488406E+02  0.38469940263E+02 -0.15980347366E+02  0.43400730242E+02  0.00000000000E+00 0.  1.
         11    1    3    3    0    0  0.53987264970E+01 -0.47172500179E+01  0.75789888787E+00  0.72092375815E+01  0.51100000000E-03 0. -1.
        -11    1    3    3    0    0  0.12898740782E+01  0.14495151855E+01  0.35441670385E+00  0.19724301944E+01  0.51100000000E-03 0.  1.
         12    1    3    3    0    0  0.54898878303E+01 -0.35202205430E+02  0.14868031774E+02  0.38605601982E+02  0.00000000000E+00 0. -1.
</event>
<event>
 7    1  0.1542786E-009  0.4778728E+02  0.7816164E-02  0.1312668E+00
        -11   -1    0    0    0    0  0.00000000000E+00  0.00000000000E+00  0.45593999997E+02  0.45594000000E+02  0.51100000000E-03 0.  1.
         11   -1    0    0    0    0 -0.00000000000E+00 -0.00000000000E+00 -0.45593999997E+02  0.45594000000E+02  0.51100000000E-03 0. -1.
    9900012    2    1    2    0    0  0.26742862300E+02  0.33679384629E+02 -0.58429976683E+01  0.47787282786E+02  0.20000053532E+02 0.  0.
        -12    1    1    2    0    0 -0.26742862300E+02 -0.33679384629E+02  0.58429976683E+01  0.43400717214E+02  0.00000000000E+00 0.  1.
         11    1    3    3    0    0  0.61322952209E+01  0.13794342964E+02 -0.71995361792E+01  0.16724899520E+02  0.51100000000E-03 0. -1.
        -11    1    3    3    0    0  0.58911476326E+01  0.59832172212E+01 -0.50843207947E+01  0.98160494574E+01  0.51100000000E-03 0.  1.
        -12    1    3    3    0    0  0.14719419447E+02  0.13901824443E+02  0.64408593056E+01  0.21246333808E+02  0.00000000000E+00 0.  1.
</event>
<event>
 7    1  0.1542786E-009  0.4778727E+02  0.7816164E-02  0.1312668E+00
        -11   -1    0    0    0    0  0.00000000000E+00  0.00000000000E+00  0.45593999997E+02  0.45594000000E+02  0.51100000000E-03 0.  1.
         11   -1    0    0    0    0 -0.00000000000E+00 -0.00000000000E+00 -0.45593999997E+02  0.45594000000E+02  0.51100000000E-03 0. -1.
    9900012    2    1    2    0    0 -0.39385198672E+02  0.18193576497E+02  0.11929816350E+01  0.47787270682E+02  0.19999998346E+02 0.  0.
        -12    1    1    2    0    0  0.39385198672E+02 -0.18193576497E+02 -0.11929816350E+01  0.43400729318E+02  0.00000000000E+00 0.  1.
         11    1    3    3    0    0 -0.29570804542E+02  0.11886687685E+02 -0.23041414893E+01  0.31953636626E+02  0.51100000000E-03 0. -1.
        -11    1    3    3    0    0 -0.71306906915E+01  0.51334798096E+01 -0.25207865718E+01  0.91407729375E+01  0.51100000000E-03 0.  1.
        -12    1    3    3    0    0 -0.26837034387E+01  0.11734090025E+01  0.60179096961E+01  0.66928611180E+01  0.00000000000E+00 0.  1.
</event>
<event>
 7    1  0.1542786E-009  0.4778727E+02  0.7816164E-02  0.1312668E+00
        -11   -1    0    0    0    0  0.00000000000E+00  0.00000000000E+00  0.45593999997E+02  0.45594000000E+02  0.51100000000E-03 0. -1.
         11   -1    0    0    0    0 -0.00000000000E+00 -0.00000000000E+00 -0.45593999997E+02  0.45594000000E+02  0.51100000000E-03 0.  1.
    9900012    2    1    2    0    0  0.26227266376E+02 -0.27201771775E+02 -0.21349875992E+02  0.47787273116E+02  0.20000009443E+02 0.  0.
        -12    1    1    2    0    0 -0.26227266376E+02  0.27201771775E+02  0.21349875992E+02  0.43400726884E+02  0.00000000000E+00 0.  1.
         11    1    3    3    0    0  0.18070313408E+02 -0.11350670006E+02 -0.92112143242E+01  0.23242641972E+02  0.51100000000E-03 0. -1.
        -11    1    3    3    0    0  0.34956638510E+01 -0.86862807464E+01 -0.12925808275E+02  0.15960816357E+02  0.51100000000E-03 0.  1.
         12    1    3    3    0    0  0.46612891168E+01 -0.71648210221E+01  0.78714660715E+00  0.85838147865E+01  0.00000000000E+00 0. -1.
</event>
<event>
 7    1  0.1542786E-009  0.4778727E+02  0.7816164E-02  0.1312668E+00
        -11   -1    0    0    0    0  0.00000000000E+00  0.00000000000E+00  0.45593999997E+02  0.45594000000E+02  0.51100000000E-03 0.  1.
         11   -1    0    0    0    0 -0.00000000000E+00 -0.00000000000E+00 -0.45593999997E+02  0.45594000000E+02  0.51100000000E-03 0. -1.
    9900012    2    1    2    0    0  0.52918373855E+01  0.16921176473E+01 -0.43043661743E+02  0.47787267042E+02  0.19999981749E+02 0.  0.
        -12    1    1    2    0    0 -0.52918373855E+01 -0.16921176473E+01  0.43043661743E+02  0.43400732958E+02  0.00000000000E+00 0.  1.
         11    1    3    3    0    0  0.43028859853E+01  0.50598570764E+01 -0.15880710792E+02  0.17213772304E+02  0.51100000000E-03 0. -1.
        -11    1    3    3    0    0 -0.18255951634E+01 -0.26081892894E+01 -0.27459298933E+02  0.27643236916E+02  0.51100000000E-03 0.  1.
        -12    1    3    3    0    0  0.28145465636E+01 -0.75955013968E+00  0.29634798058E+00  0.29302578212E+01  0.00000000000E+00 0.  1.
</event>
<event>
 7    1  0.1542786E-009  0.4778730E+02  0.7816164E-02  0.1312668E+00
        -11   -1    0    0    0    0  0.00000000000E+00  0.00000000000E+00  0.45593999997E+02  0.45594000000E+02  0.51100000000E-03 0.  1.
         11   -1    0    0    0    0 -0.00000000000E+00 -0.00000000000E+00 -0.45593999997E+02  0.45594000000E+02  0.51100000000E-03 0. -1.
    9900012    2    1    2    0    0 -0.18394859315E+02 -0.36797923404E+02 -0.13826150397E+02  0.47787303567E+02  0.20000148282E+02 0.  0.
        -12    1    1    2    0    0  0.18394859315E+02  0.36797923404E+02  0.13826150397E+02  0.43400696433E+02  0.00000000000E+00 0.  1.
         11    1    3    3    0    0 -0.26610637693E+01 -0.22057757140E+02 -0.99450423187E+01  0.24341934546E+02  0.51100000000E-03 0. -1.
        -11    1    3    3    0    0 -0.32599570802E+01 -0.44082083093E+01  0.25138917742E+01  0.60315232550E+01  0.51100000000E-03 0.  1.
         12    1    3    3    0    0 -0.12473838466E+02 -0.10331957954E+02 -0.63949998529E+01  0.17413845766E+02  0.00000000000E+00 0. -1.
</event>
<event>
 7    1  0.1542786E-009  0.4778726E+02  0.7816164E-02  0.1312668E+00
        -11   -1    0    0    0    0  0.00000000000E+00  0.00000000000E+00  0.45593999997E+02  0.45594000000E+02  0.51100000000E-03 0. -1.
         11   -1    0    0    0    0 -0.00000000000E+00 -0.00000000000E+00 -0.45593999997E+02  0.45594000000E+02  0.51100000000E-03 0.  1.
    9900012    2    1    2    0    0 -0.18301810313E+02  0.24570865375E+02  0.30739891089E+02  0.47787255880E+02  0.19999930859E+02 0.  0.
        -12    1    1    2    0    0  0.18301810313E+02 -0.24570865375E+02 -0.30739891089E+02  0.43400744120E+02  0.00000000000E+00 0.  1.
         11    1    3    3    0    0 -0.16193958385E+02  0.11290718123E+02  0.22781060365E+02  0.30144673087E+02  0.51100000000E-03 0. -1.
        -11    1    3    3    0    0 -0.40361167619E+01  0.54500436329E+01  0.74472140289E+00  0.68225965985E+01  0.51100000000E-03 0.  1.
        -12    1    3    3    0    0  0.19282648336E+01  0.78301036189E+01  0.72141093210E+01  0.10819986194E+02  0.00000000000E+00 0.  1.
</event>
<event>
 7    1  0.1542786E-009  0.4778727E+02  0.7816164E-02  0.1312668E+00
        -11   -1    0    0    0    0  0.00000000000E+00  0.00000000000E+00  0.45593999997E+02  0.45594000000E+02  0.51100000000E-03 0.  1.
         11   -1    0    0    0    0 -0.00000000000E+00 -0.00000000000E+00 -0.45593999997E+02  0.45594000000E+02  0.51100000000E-03 0. -1.
    9900012    2    1    2    0    0  0.43109861057E+02 -0.44793227314E+01 -0.22581345364E+01  0.47787267010E+02  0.19999981604E+02 0.  0.
        -12    1    1    2    0    0 -0.43109861057E+02  0.44793227314E+01  0.22581345364E+01  0.43400732990E+02  0.00000000000E+00 0.  1.
         11    1    3    3    0    0  0.35440937710E+01 -0.43650524708E+01 -0.50383087248E+01  0.75497575324E+01  0.51100000000E-03 0. -1.
        -11    1    3    3    0    0  0.22317443839E+02 -0.24454010324E+01 -0.81137423464E+00  0.22465676356E+02  0.51100000000E-03 0.  1.
         12    1    3    3    0    0  0.17248323447E+02  0.23311307718E+01  0.35915484230E+01  0.17771833121E+02  0.00000000000E+00 0. -1.
</event>
<event>
 7    1  0.1542786E-009  0.4778726E+02  0.7816164E-02  0.1312668E+00
        -11   -1    0    0    0    0  0.00000000000E+00  0.00000000000E+00  0.45593999997E+02  0.45594000000E+02  0.51100000000E-03 0.  1.
         11   -1    0    0    0    0 -0.00000000000E+00 -0.00000000000E+00 -0.45593999997E+02  0.45594000000E+02  0.51100000000E-03 0. -1.
    9900012    2    1    2    0    0 -0.54499669252E+01 -0.38030581038E+02 -0.20189024563E+02  0.47787263297E+02  0.19999964675E+02 0.  0.
        -12    1    1    2    0    0  0.54499669252E+01  0.38030581038E+02  0.20189024563E+02  0.43400736703E+02  0.00000000000E+00 0.  1.
         11    1    3    3    0    0 -0.24865424899E+01 -0.15767989318E+02 -0.18229287338E+02  0.24230544728E+02  0.51100000000E-03 0. -1.
        -11    1    3    3    0    0 -0.43901277505E+00 -0.23771468995E+01  0.19841699885E+01  0.31273775600E+01  0.51100000000E-03 0.  1.
         12    1    3    3    0    0 -0.25244116603E+01 -0.19885444821E+02 -0.39439072126E+01  0.20429341009E+02  0.00000000000E+00 0. -1.
</event>
<event>
 7    1  0.1542786E-009  0.4778727E+02  0.7816164E-02  0.1312668E+00
        -11   -1    0    0    0    0  0.00000000000E+00  0.00000000000E+00  0.45593999997E+02  0.45594000000E+02  0.51100000000E-03 0.  1.
         11   -1    0    0    0    0 -0.00000000000E+00 -0.00000000000E+00 -0.45593999997E+02  0.45594000000E+02  0.51100000000E-03 0. -1.
    9900012    2    1    2    0    0 -0.13604770974E+02 -0.26503092313E+02 -0.31561370321E+02  0.47787265076E+02  0.19999972789E+02 0.  0.
        -12    1    1    2    0    0  0.13604770974E+02  0.26503092313E+02  0.31561370321E+02  0.43400734924E+02  0.00000000000E+00 0.  1.
         11    1    3    3    0    0 -0.11912516063E+02 -0.91836820554E+01 -0.83261557305E+01  0.17192234426E+02  0.51100000000E-03 0. -1.
        -11    1    3    3    0    0 -0.14915299258E+01 -0.25233712197E+01 -0.11032055188E+02  0.11414828328E+02  0.51100000000E-03 0.  1.
         12    1    3    3    0    0 -0.20072498493E+00 -0.14796039038E+02 -0.12203159403E+02  0.19180202322E+02  0.00000000000E+00 0. -1.
</event>
<event>
 7    1  0.1542786E-009  0.4778727E+02  0.7816164E-02  0.1312668E+00
        -11   -1    0    0    0    0  0.00000000000E+00  0.00000000000E+00  0.45593999997E+02  0.45594000000E+02  0.51100000000E-03 0.  1.
         11   -1    0    0    0    0 -0.00000000000E+00 -0.00000000000E+00 -0.45593999997E+02  0.45594000000E+02  0.51100000000E-03 0. -1.
    9900012    2    1    2    0    0  0.26795679422E+02  0.24004102949E+02 -0.24277923017E+02  0.47787274890E+02  0.20000017533E+02 0.  0.
        -12    1    1    2    0    0 -0.26795679422E+02 -0.24004102949E+02  0.24277923017E+02  0.43400725110E+02  0.00000000000E+00 0.  1.
         11    1    3    3    0    0  0.98270436894E+01  0.97082233862E+00 -0.91650332848E+01  0.13472606246E+02  0.51100000000E-03 0. -1.
        -11    1    3    3    0    0  0.23844346827E+01  0.12093281362E+02 -0.39790802303E+01  0.12952453921E+02  0.51100000000E-03 0.  1.
        -12    1    3    3    0    0  0.14584201050E+02  0.10939999249E+02 -0.11133809502E+02  0.21362214722E+02  0.00000000000E+00 0.  1.
</event>
<event>
 7    1  0.1542786E-009  0.4778726E+02  0.7816164E-02  0.1312668E+00
        -11   -1    0    0    0    0  0.00000000000E+00  0.00000000000E+00  0.45593999997E+02  0.45594000000E+02  0.51100000000E-03 0. -1.
         11   -1    0    0    0    0 -0.00000000000E+00 -0.00000000000E+00 -0.45593999997E+02  0.45594000000E+02  0.51100000000E-03 0.  1.
    9900012    2    1    2    0    0  0.21205799790E+02  0.27895251535E+02 -0.25608459100E+02  0.47787260601E+02  0.19999952382E+02 0.  0.
        -12    1    1    2    0    0 -0.21205799790E+02 -0.27895251535E+02  0.25608459100E+02  0.43400739399E+02  0.00000000000E+00 0.  1.
         11    1    3    3    0    0  0.11087651788E+02  0.22701278476E+02 -0.12072836066E+02  0.28000668519E+02  0.51100000000E-03 0. -1.
        -11    1    3    3    0    0  0.88531645366E+01  0.38658821576E+01 -0.46640198712E+01  0.10727378468E+02  0.51100000000E-03 0.  1.
        -12    1    3    3    0    0  0.12649834657E+01  0.13280909017E+01 -0.88716031633E+01  0.90592136137E+01  0.00000000000E+00 0.  1.
</event>
<event>
 7    1  0.1542786E-009  0.4778727E+02  0.7816164E-02  0.1312668E+00
        -11   -1    0    0    0    0  0.00000000000E+00  0.00000000000E+00  0.45593999997E+02  0.45594000000E+02  0.51100000000E-03 0.  1.
         11   -1    0    0    0    0 -0.00000000000E+00 -0.00000000000E+00 -0.45593999997E+02  0.45594000000E+02  0.51100000000E-03 0. -1.
    9900012    2    1    2    0    0 -0.39557578437E+02 -0.12925232782E+02 -0.12319096629E+02  0.47787265029E+02  0.19999972573E+02 0.  0.
        -12    1    1    2    0    0  0.39557578437E+02  0.12925232782E+02  0.12319096629E+02  0.43400734971E+02  0.00000000000E+00 0.  1.
         11    1    3    3    0    0 -0.15137186628E+02 -0.27208778904E+00 -0.10419245196E+02  0.18378496170E+02  0.51100000000E-03 0. -1.
        -11    1    3    3    0    0 -0.48754435594E+01 -0.47421076931E+01 -0.45126626427E+01  0.81622092391E+01  0.51100000000E-03 0.  1.
         12    1    3    3    0    0 -0.19544948250E+02 -0.79110373003E+01  0.26128112093E+01  0.21246559620E+02  0.00000000000E+00 0. -1.
</event>
<event>
 7    1  0.1542786E-009  0.4778726E+02  0.7816164E-02  0.1312668E+00
        -11   -1    0    0    0    0  0.00000000000E+00  0.00000000000E+00  0.45593999997E+02  0.45594000000E+02  0.51100000000E-03 0.  1.
         11   -1    0    0    0    0 -0.00000000000E+00 -0.00000000000E+00 -0.45593999997E+02  0.45594000000E+02  0.51100000000E-03 0. -1.
    9900012    2    1    2    0    0 -0.76934617246E+00 -0.32734021425E+02 -0.28487116342E+02  0.47787264411E+02  0.19999969753E+02 0.  0.
        -12    1    1    2    0    0  0.76934617246E+00  0.32734021425E+02  0.28487116342E+02  0.43400735589E+02  0.00000000000E+00 0.  1.
         11    1    3    3    0    0  0.15315765723E+01 -0.23740412081E+02 -0.10180125489E+02  0.25876395573E+02  0.51100000000E-03 0. -1.
        -11    1    3    3    0    0  0.22954771771E+01 -0.61764655086E+01 -0.11136634489E+02  0.12939960187E+02  0.51100000000E-03 0.  1.
        -12    1    3    3    0    0 -0.45963999219E+01 -0.28171438354E+01 -0.71703563642E+01  0.89709086508E+01  0.00000000000E+00 0.  1.
</event>
<event>
 7    1  0.1542786E-009  0.4778726E+02  0.7816164E-02  0.1312668E+00
        -11   -1    0    0    0    0  0.00000000000E+00  0.00000000000E+00  0.45593999997E+02  0.45594000000E+02  0.51100000000E-03 0.  1.
         11   -1    0    0    0    0 -0.00000000000E+00 -0.00000000000E+00 -0.45593999997E+02  0.45594000000E+02  0.51100000000E-03 0. -1.
    9900012    2    1    2    0    0 -0.72943724101E+01 -0.37858528748E+02 -0.19928573425E+02  0.47787261451E+02  0.19999956261E+02 0.  0.
        -12    1    1    2    0    0  0.72943724101E+01  0.37858528748E+02  0.19928573425E+02  0.43400738549E+02  0.00000000000E+00 0.  1.
         11    1    3    3    0    0 -0.19757276846E+01 -0.45082461936E+00 -0.15634891225E+01  0.25595392590E+01  0.51100000000E-03 0. -1.
        -11    1    3    3    0    0 -0.90278397682E+01 -0.97553867056E+01 -0.76848417499E+01  0.15353379225E+02  0.51100000000E-03 0.  1.
         12    1    3    3    0    0  0.37091950427E+01 -0.27652317423E+02 -0.10680242553E+02  0.29874342967E+02  0.00000000000E+00 0. -1.
</event>
<event>
 7    1  0.1542786E-009  0.4778726E+02  0.7816164E-02  0.1312668E+00
        -11   -1    0    0    0    0  0.00000000000E+00  0.00000000000E+00  0.45593999997E+02  0.45594000000E+02  0.51100000000E-03 0.  1.
         11   -1    0    0    0    0 -0.00000000000E+00 -0.00000000000E+00 -0.45593999997E+02  0.45594000000E+02  0.51100000000E-03 0. -1.
    9900012    2    1    2    0    0 -0.92998005268E+01 -0.36915277941E+02 -0.20842278957E+02  0.47787255451E+02  0.19999928903E+02 0.  0.
        -12    1    1    2    0    0  0.92998005268E+01  0.36915277941E+02  0.20842278957E+02  0.43400744549E+02  0.00000000000E+00 0.  1.
         11    1    3    3    0    0 -0.25310982004E+01 -0.43300466453E+01 -0.88380875401E+01  0.10162064440E+02  0.51100000000E-03 0.  1.
        -11    1    3    3    0    0 -0.17275493338E+01 -0.22360056261E+02 -0.21022708003E+01  0.22525010222E+02  0.51100000000E-03 0. -1.
         12    1    3    3    0    0 -0.50411529926E+01 -0.10225175034E+02 -0.99019206168E+01  0.15100180790E+02  0.00000000000E+00 0. -1.
</event>
<event>
 7    1  0.1542786E-009  0.4778727E+02  0.7816164E-02  0.1312668E+00
        -11   -1    0    0    0    0  0.00000000000E+00  0.00000000000E+00  0.45593999997E+02  0.45594000000E+02  0.51100000000E-03 0.  1.
         11   -1    0    0    0    0 -0.00000000000E+00 -0.00000000000E+00 -0.45593999997E+02  0.45594000000E+02  0.51100000000E-03 0. -1.
    9900012    2    1    2    0    0 -0.11986395955E+02 -0.94906939875E+01 -0.40618670257E+02  0.47787270354E+02  0.19999996850E+02 0.  0.
        -12    1    1    2    0    0  0.11986395955E+02  0.94906939875E+01  0.40618670257E+02  0.43400729646E+02  0.00000000000E+00 0.  1.
         11    1    3    3    0    0  0.42458177785E+00 -0.64341136473E+01 -0.69021553801E+01  0.94455194280E+01  0.51100000000E-03 0.  1.
        -11    1    3    3    0    0 -0.92376514709E+01 -0.70050275803E+01 -0.29682275308E+02  0.31866002005E+02  0.51100000000E-03 0. -1.
         12    1    3    3    0    0 -0.31733262623E+01  0.39484472402E+01 -0.40342395696E+01  0.64757489204E+01  0.00000000000E+00 0. -1.
</event>
<event>
 7    1  0.1542786E-009  0.4778727E+02  0.7816164E-02  0.1312668E+00
        -11   -1    0    0    0    0  0.00000000000E+00  0.00000000000E+00  0.45593999997E+02  0.45594000000E+02  0.51100000000E-03 0.  1.
         11   -1    0    0    0    0 -0.00000000000E+00 -0.00000000000E+00 -0.45593999997E+02  0.45594000000E+02  0.51100000000E-03 0. -1.
    9900012    2    1    2    0    0  0.41196046855E+02  0.81866833962E+01 -0.10931029028E+02  0.47787268934E+02  0.19999990376E+02 0.  0.
        -12    1    1    2    0    0 -0.41196046855E+02 -0.81866833962E+01  0.10931029028E+02  0.43400731066E+02  0.00000000000E+00 0.  1.
         11    1    3    3    0    0  0.16850858817E+02  0.46407546251E+01 -0.12573524545E+02  0.21530944385E+02  0.51100000000E-03 0. -1.
        -11    1    3    3    0    0  0.19933240202E+01 -0.19479724012E+01  0.16505648030E+01  0.32391822356E+01  0.51100000000E-03 0.  1.
        -12    1    3    3    0    0  0.22351864017E+02  0.54939011723E+01 -0.80692860114E-02  0.23017142313E+02  0.00000000000E+00 0.  1.
</event>
<event>
 7    1  0.1542786E-009  0.4778727E+02  0.7816164E-02  0.1312668E+00
        -11   -1    0    0    0    0  0.00000000000E+00  0.00000000000E+00  0.45593999997E+02  0.45594000000E+02  0.51100000000E-03 0. -1.
         11   -1    0    0    0    0 -0.00000000000E+00 -0.00000000000E+00 -0.45593999997E+02  0.45594000000E+02  0.51100000000E-03 0.  1.
    9900012    2    1    2    0    0  0.67007091431E+01 -0.34653357721E+02  0.25256061460E+02  0.47787270227E+02  0.19999996274E+02 0.  0.
        -12    1    1    2    0    0 -0.67007091431E+01  0.34653357721E+02 -0.25256061460E+02  0.43400729773E+02  0.00000000000E+00 0.  1.
         11    1    3    3    0    0 -0.68529725662E+00 -0.39364031977E+01  0.32093626175E+01  0.51249303543E+01  0.51100000000E-03 0. -1.
        -11    1    3    3    0    0 -0.41257001284E+01 -0.16431822538E+02  0.16112337827E+02  0.23380197262E+02  0.51100000000E-03 0.  1.
         12    1    3    3    0    0  0.11511706528E+02 -0.14285131985E+02  0.59343610154E+01  0.19282142611E+02  0.00000000000E+00 0. -1.
</event>
<event>
 7    1  0.1542786E-009  0.4778727E+02  0.7816164E-02  0.1312668E+00
        -11   -1    0    0    0    0  0.00000000000E+00  0.00000000000E+00  0.45593999997E+02  0.45594000000E+02  0.51100000000E-03 0.  1.
         11   -1    0    0    0    0 -0.00000000000E+00 -0.00000000000E+00 -0.45593999997E+02  0.45594000000E+02  0.51100000000E-03 0. -1.
    9900012    2    1    2    0    0  0.11633271446E+02  0.41708573877E+02 -0.29470883127E+01  0.47787268798E+02  0.19999989756E+02 0.  0.
        -12    1    1    2    0    0 -0.11633271446E+02 -0.41708573877E+02  0.29470883127E+01  0.43400731202E+02  0.00000000000E+00 0.  1.
         11    1    3    3    0    0  0.77589903054E+01  0.73466011918E+01 -0.15930068519E+01  0.10803339795E+02  0.51100000000E-03 0. -1.
        -11    1    3    3    0    0 -0.40790219926E+01  0.45846061501E+01 -0.10524540861E+00  0.61374351993E+01  0.51100000000E-03 0.  1.
         12    1    3    3    0    0  0.79533031334E+01  0.29777366535E+02 -0.12488360522E+01  0.30846493804E+02  0.00000000000E+00 0. -1.
</event>
<event>
 7    1  0.1542786E-009  0.4778727E+02  0.7816164E-02  0.1312668E+00
        -11   -1    0    0    0    0  0.00000000000E+00  0.00000000000E+00  0.45593999997E+02  0.45594000000E+02  0.51100000000E-03 0. -1.
         11   -1    0    0    0    0 -0.00000000000E+00 -0.00000000000E+00 -0.45593999997E+02  0.45594000000E+02  0.51100000000E-03 0.  1.
    9900012    2    1    2    0    0  0.36484523714E+02  0.22755478797E+02 -0.58898993200E+01  0.47787271897E+02  0.20000003886E+02 0.  0.
        -12    1    1    2    0    0 -0.36484523714E+02 -0.22755478797E+02  0.58898993200E+01  0.43400728103E+02  0.00000000000E+00 0.  1.
         11    1    3    3    0    0  0.16197851881E+02  0.14529930463E+02 -0.77282817110E+01  0.23091462130E+02  0.51100000000E-03 0. -1.
        -11    1    3    3    0    0 -0.44343413680E+00  0.23533014051E+01  0.20449443681E+01  0.31490409757E+01  0.51100000000E-03 0.  1.
         12    1    3    3    0    0  0.20730105969E+02  0.58722469286E+01 -0.20656197708E+00  0.21546768791E+02  0.00000000000E+00 0. -1.
</event>
<event>
 7    1  0.1542786E-009  0.4778727E+02  0.7816164E-02  0.1312668E+00
        -11   -1    0    0    0    0  0.00000000000E+00  0.00000000000E+00  0.45593999997E+02  0.45594000000E+02  0.51100000000E-03 0.  1.
         11   -1    0    0    0    0 -0.00000000000E+00 -0.00000000000E+00 -0.45593999997E+02  0.45594000000E+02  0.51100000000E-03 0. -1.
    9900012    2    1    2    0    0  0.35603096780E+01 -0.39983378985E+02 -0.16500806274E+02  0.47787274110E+02  0.20000013978E+02 0.  0.
        -12    1    1    2    0    0 -0.35603096780E+01  0.39983378985E+02  0.16500806274E+02  0.43400725890E+02  0.00000000000E+00 0.  1.
         11    1    3    3    0    0  0.31517073836E+01 -0.17713809961E+02 -0.33629709644E+01  0.18303603381E+02  0.51100000000E-03 0. -1.
        -11    1    3    3    0    0  0.35427444259E+01 -0.14554854261E+02 -0.13351609309E+01  0.15039197971E+02  0.51100000000E-03 0.  1.
        -12    1    3    3    0    0 -0.31341421316E+01 -0.77147147632E+01 -0.11802674379E+02  0.14444472758E+02  0.00000000000E+00 0.  1.
</event>
<event>
 7    1  0.1542786E-009  0.4778727E+02  0.7816164E-02  0.1312668E+00
        -11   -1    0    0    0    0  0.00000000000E+00  0.00000000000E+00  0.45593999997E+02  0.45594000000E+02  0.51100000000E-03 0.  1.
         11   -1    0    0    0    0 -0.00000000000E+00 -0.00000000000E+00 -0.45593999997E+02  0.45594000000E+02  0.51100000000E-03 0. -1.
    9900012    2    1    2    0    0 -0.15130803333E+02  0.36069112911E+02 -0.18806951896E+02  0.47787267802E+02  0.19999985216E+02 0.  0.
        -12    1    1    2    0    0  0.15130803333E+02 -0.36069112911E+02  0.18806951896E+02  0.43400732198E+02  0.00000000000E+00 0.  1.
         11    1    3    3    0    0 -0.89132919774E+01  0.21599538284E+02 -0.43482789834E+01  0.23767506355E+02  0.51100000000E-03 0. -1.
        -11    1    3    3    0    0 -0.29822871225E+01 -0.11343830386E+01 -0.17658530891E+01  0.36467929408E+01  0.51100000000E-03 0.  1.
         12    1    3    3    0    0 -0.32352242332E+01  0.15603957666E+02 -0.12692819823E+02  0.20372968506E+02  0.00000000000E+00 0. -1.
</event>
<event>
 7    1  0.1542786E-009  0.4778727E+02  0.7816164E-02  0.1312668E+00
        -11   -1    0    0    0    0  0.00000000000E+00  0.00000000000E+00  0.45593999997E+02  0.45594000000E+02  0.51100000000E-03 0.  1.
         11   -1    0    0    0    0 -0.00000000000E+00 -0.00000000000E+00 -0.45593999997E+02  0.45594000000E+02  0.51100000000E-03 0. -1.
    9900012    2    1    2    0    0 -0.22380533378E+02 -0.36701858370E+02 -0.59756681584E+01  0.47787270835E+02  0.19999999047E+02 0.  0.
        -12    1    1    2    0    0  0.22380533378E+02  0.36701858370E+02  0.59756681584E+01  0.43400729165E+02  0.00000000000E+00 0.  1.
         11    1    3    3    0    0 -0.12874487295E+02 -0.13993547985E+02  0.10589273824E+01  0.19044504083E+02  0.51100000000E-03 0. -1.
        -11    1    3    3    0    0 -0.95996034591E+01 -0.24313029761E+02 -0.72363906454E+01  0.27122705481E+02  0.51100000000E-03 0.  1.
        -12    1    3    3    0    0  0.93557376025E-01  0.16047193765E+01  0.20179510459E+00  0.16200612717E+01  0.00000000000E+00 0.  1.
</event>
<event>
 7    1  0.1542786E-009  0.4778727E+02  0.7816164E-02  0.1312668E+00
        -11   -1    0    0    0    0  0.00000000000E+00  0.00000000000E+00  0.45593999997E+02  0.45594000000E+02  0.51100000000E-03 0.  1.
         11   -1    0    0    0    0 -0.00000000000E+00 -0.00000000000E+00 -0.45593999997E+02  0.45594000000E+02  0.51100000000E-03 0. -1.
    9900012    2    1    2    0    0 -0.10728402063E+02  0.18327410845E+02 -0.37850109613E+02  0.47787269628E+02  0.19999993543E+02 0.  0.
        -12    1    1    2    0    0  0.10728402063E+02 -0.18327410845E+02  0.37850109613E+02  0.43400730372E+02  0.00000000000E+00 0.  1.
         11    1    3    3    0    0  0.25702968815E+01  0.59739695137E+01 -0.15165382475E+02  0.16501017050E+02  0.51100000000E-03 0. -1.
        -11    1    3    3    0    0 -0.40319355390E+01  0.20223746381E+01  0.20783901671E+00  0.45154956191E+01  0.51100000000E-03 0.  1.
        -12    1    3    3    0    0 -0.92667634059E+01  0.10331066693E+02 -0.22892566154E+02  0.26770756959E+02  0.00000000000E+00 0.  1.
</event>
<event>
 7    1  0.1542786E-009  0.4778727E+02  0.7816164E-02  0.1312668E+00
        -11   -1    0    0    0    0  0.00000000000E+00  0.00000000000E+00  0.45593999997E+02  0.45594000000E+02  0.51100000000E-03 0.  1.
         11   -1    0    0    0    0 -0.00000000000E+00 -0.00000000000E+00 -0.45593999997E+02  0.45594000000E+02  0.51100000000E-03 0. -1.
    9900012    2    1    2    0    0  0.82714225268E+01  0.20835693296E+02 -0.37162893463E+02  0.47787271938E+02  0.20000004075E+02 0.  0.
        -12    1    1    2    0    0 -0.82714225268E+01 -0.20835693296E+02  0.37162893463E+02  0.43400728062E+02  0.00000000000E+00 0.  1.
         11    1    3    3    0    0 -0.48817082098E+01  0.19485240031E+01 -0.23608515534E+01  0.57620691731E+01  0.51100000000E-03 0.  1.
        -11    1    3    3    0    0  0.13608954063E+01  0.20690733295E+00 -0.12860481182E+01  0.18838171288E+01  0.51100000000E-03 0. -1.
         12    1    3    3    0    0  0.11792235330E+02  0.18680261960E+02 -0.33515993791E+02  0.40141385636E+02  0.00000000000E+00 0. -1.
</event>
<event>
 7    1  0.1542786E-009  0.4778727E+02  0.7816164E-02  0.1312668E+00
        -11   -1    0    0    0    0  0.00000000000E+00  0.00000000000E+00  0.45593999997E+02  0.45594000000E+02  0.51100000000E-03 0. -1.
         11   -1    0    0    0    0 -0.00000000000E+00 -0.00000000000E+00 -0.45593999997E+02  0.45594000000E+02  0.51100000000E-03 0.  1.
    9900012    2    1    2    0    0  0.32945324018E+02 -0.80656307596E+01  0.27077195248E+02  0.47787271011E+02  0.19999999849E+02 0.  0.
        -12    1    1    2    0    0 -0.32945324018E+02  0.80656307596E+01 -0.27077195248E+02  0.43400728989E+02  0.00000000000E+00 0.  1.
         11    1    3    3    0    0  0.31852155145E+01 -0.14791672792E+01 -0.17933112691E+01  0.39432853413E+01  0.51100000000E-03 0. -1.
        -11    1    3    3    0    0  0.11658699226E+02 -0.87586953764E+01  0.15141299897E+02  0.21021393274E+02  0.51100000000E-03 0.  1.
         12    1    3    3    0    0  0.18101409278E+02  0.21722318961E+01  0.13729206620E+02  0.22822592396E+02  0.00000000000E+00 0. -1.
</event>
<event>
 7    1  0.1542786E-009  0.4778728E+02  0.7816164E-02  0.1312668E+00
        -11   -1    0    0    0    0  0.00000000000E+00  0.00000000000E+00  0.45593999997E+02  0.45594000000E+02  0.51100000000E-03 0.  1.
         11   -1    0    0    0    0 -0.00000000000E+00 -0.00000000000E+00 -0.45593999997E+02  0.45594000000E+02  0.51100000000E-03 0. -1.
    9900012    2    1    2    0    0  0.15086828549E+01  0.32794960962E+02 -0.28387269197E+02  0.47787278337E+02  0.20000033248E+02 0.  0.
        -12    1    1    2    0    0 -0.15086828549E+01 -0.32794960962E+02  0.28387269197E+02  0.43400721663E+02  0.00000000000E+00 0.  1.
         11    1    3    3    0    0  0.14096246893E+01  0.93625287749E+01 -0.15697751150E+02  0.18332031482E+02  0.51100000000E-03 0. -1.
        -11    1    3    3    0    0  0.19645753345E+01  0.24222228770E+02 -0.12719495026E+02  0.27429208461E+02  0.51100000000E-03 0.  1.
         12    1    3    3    0    0 -0.18655171689E+01 -0.78979658354E+00  0.29976978996E-01  0.20260383931E+01  0.00000000000E+00 0. -1.
</event>
<event>
 7    1  0.1542786E-009  0.4778727E+02  0.7816164E-02  0.1312668E+00
        -11   -1    0    0    0    0  0.00000000000E+00  0.00000000000E+00  0.45593999997E+02  0.45594000000E+02  0.51100000000E-03 0.  1.
         11   -1    0    0    0    0 -0.00000000000E+00 -0.00000000000E+00 -0.45593999997E+02  0.45594000000E+02  0.51100000000E-03 0. -1.
    9900012    2    1    2    0    0  0.31783407566E+01 -0.30948883561E+02 -0.30260340128E+02  0.47787269265E+02  0.19999991887E+02 0.  0.
        -12    1    1    2    0    0 -0.31783407566E+01  0.30948883561E+02  0.30260340128E+02  0.43400730735E+02  0.00000000000E+00 0.  1.
         11    1    3    3    0    0 -0.54028483140E+01 -0.18940522780E+02 -0.14320204617E+02  0.24351641292E+02  0.51100000000E-03 0. -1.
        -11    1    3    3    0    0  0.14932824422E+01 -0.41588084892E+01 -0.10815526357E+02  0.11683372422E+02  0.51100000000E-03 0.  1.
        -12    1    3    3    0    0  0.70879066284E+01 -0.78495522923E+01 -0.51246091533E+01  0.11752255551E+02  0.00000000000E+00 0.  1.
</event>
<event>
 7    1  0.1542786E-009  0.4778727E+02  0.7816164E-02  0.1312668E+00
        -11   -1    0    0    0    0  0.00000000000E+00  0.00000000000E+00  0.45593999997E+02  0.45594000000E+02  0.51100000000E-03 0. -1.
         11   -1    0    0    0    0 -0.00000000000E+00 -0.00000000000E+00 -0.45593999997E+02  0.45594000000E+02  0.51100000000E-03 0.  1.
    9900012    2    1    2    0    0 -0.98054518926E+01  0.24594009979E+01  0.42206961742E+02  0.47787272361E+02  0.20000006005E+02 0.  0.
        -12    1    1    2    0    0  0.98054518926E+01 -0.24594009979E+01 -0.42206961742E+02  0.43400727639E+02  0.00000000000E+00 0.  1.
         11    1    3    3    0    0  0.11724168245E+01  0.66648256150E+01  0.18768958592E+02  0.19951648267E+02  0.51100000000E-03 0. -1.
        -11    1    3    3    0    0 -0.13232119610E+01 -0.15954579080E-01  0.12810817178E+02  0.12878982160E+02  0.51100000000E-03 0.  1.
        -12    1    3    3    0    0 -0.96546567561E+01 -0.41894700380E+01  0.10627185971E+02  0.14956641934E+02  0.00000000000E+00 0.  1.
</event>
<event>
 7    1  0.1542786E-009  0.4778728E+02  0.7816164E-02  0.1312668E+00
        -11   -1    0    0    0    0  0.00000000000E+00  0.00000000000E+00  0.45593999997E+02  0.45594000000E+02  0.51100000000E-03 0.  1.
         11   -1    0    0    0    0 -0.00000000000E+00 -0.00000000000E+00 -0.45593999997E+02  0.45594000000E+02  0.51100000000E-03 0. -1.
    9900012    2    1    2    0    0  0.34125180455E+02 -0.25812110738E+02  0.72683701243E+01  0.47787283345E+02  0.20000056085E+02 0.  0.
        -12    1    1    2    0    0 -0.34125180455E+02  0.25812110738E+02 -0.72683701243E+01  0.43400716655E+02  0.00000000000E+00 0.  1.
         11    1    3    3    0    0  0.75780237550E+01 -0.83404165027E+01 -0.43300520443E+01  0.12072213651E+02  0.51100000000E-03 0. -1.
        -11    1    3    3    0    0  0.41975698772E+01 -0.44471075486E+00  0.55533502753E+01  0.69754612802E+01  0.51100000000E-03 0.  1.
         12    1    3    3    0    0  0.22349586823E+02 -0.17026983481E+02  0.60450718933E+01  0.28739608414E+02  0.00000000000E+00 0. -1.
</event>
<event>
 7    1  0.1542786E-009  0.4778727E+02  0.7816164E-02  0.1312668E+00
        -11   -1    0    0    0    0  0.00000000000E+00  0.00000000000E+00  0.45593999997E+02  0.45594000000E+02  0.51100000000E-03 0. -1.
         11   -1    0    0    0    0 -0.00000000000E+00 -0.00000000000E+00 -0.45593999997E+02  0.45594000000E+02  0.51100000000E-03 0.  1.
    9900012    2    1    2    0    0  0.28939970773E+02 -0.17178374860E+02  0.27404470439E+02  0.47787268771E+02  0.19999989634E+02 0.  0.
        -12    1    1    2    0    0 -0.28939970773E+02  0.17178374860E+02 -0.27404470439E+02  0.43400731229E+02  0.00000000000E+00 0.  1.
         11    1    3    3    0    0  0.14873636630E+02  0.57323046540E+00  0.71866569044E+01  0.16528814159E+02  0.51100000000E-03 0. -1.
        -11    1    3    3    0    0  0.81082311007E+00 -0.41485162889E+01  0.67883503830E+01  0.79968320414E+01  0.51100000000E-03 0.  1.
         12    1    3    3    0    0  0.13255511033E+02 -0.13603089036E+02  0.13429463152E+02  0.23261622570E+02  0.00000000000E+00 0. -1.
</event>
<event>
 7    1  0.1542786E-009  0.4778727E+02  0.7816164E-02  0.1312668E+00
        -11   -1    0    0    0    0  0.00000000000E+00  0.00000000000E+00  0.45593999997E+02  0.45594000000E+02  0.51100000000E-03 0. -1.
         11   -1    0    0    0    0 -0.00000000000E+00 -0.00000000000E+00 -0.45593999997E+02  0.45594000000E+02  0.51100000000E-03 0.  1.
    9900012    2    1    2    0    0 -0.16736482297E+02 -0.34654463695E+02  0.20064431632E+02  0.47787272928E+02  0.20000008588E+02 0.  0.
        -12    1    1    2    0    0  0.16736482297E+02  0.34654463695E+02 -0.20064431632E+02  0.43400727072E+02  0.00000000000E+00 0.  1.
         11    1    3    3    0    0 -0.15073825130E+02 -0.28665072069E+02  0.18332583759E+02  0.37215456309E+02  0.51100000000E-03 0. -1.
        -11    1    3    3    0    0 -0.47698854435E+01 -0.15774565769E+01  0.61881618622E+00  0.50619275112E+01  0.51100000000E-03 0.  1.
        -12    1    3    3    0    0  0.31072282766E+01 -0.44119350495E+01  0.11130316866E+01  0.55098891077E+01  0.00000000000E+00 0.  1.
</event>
<event>
 7    1  0.1542786E-009  0.4778727E+02  0.7816164E-02  0.1312668E+00
        -11   -1    0    0    0    0  0.00000000000E+00  0.00000000000E+00  0.45593999997E+02  0.45594000000E+02  0.51100000000E-03 0.  1.
         11   -1    0    0    0    0 -0.00000000000E+00 -0.00000000000E+00 -0.45593999997E+02  0.45594000000E+02  0.51100000000E-03 0. -1.
    9900012    2    1    2    0    0 -0.12860113725E+02  0.33464414737E+02 -0.24461679515E+02  0.47787270244E+02  0.19999996350E+02 0.  0.
        -12    1    1    2    0    0  0.12860113725E+02 -0.33464414737E+02  0.24461679515E+02  0.43400729756E+02  0.00000000000E+00 0.  1.
         11    1    3    3    0    0 -0.16026854083E+02  0.25846387279E+02 -0.22650892791E+02  0.37920426311E+02  0.51100000000E-03 0. -1.
        -11    1    3    3    0    0  0.24264414898E+01  0.44456616846E+01 -0.35395087803E+01  0.61789682621E+01  0.51100000000E-03 0.  1.
        -12    1    3    3    0    0  0.74029886766E+00  0.31723657731E+01  0.17287220565E+01  0.36878756704E+01  0.00000000000E+00 0.  1.
</event>
<event>
 7    1  0.1542786E-009  0.4778727E+02  0.7816164E-02  0.1312668E+00
        -11   -1    0    0    0    0  0.00000000000E+00  0.00000000000E+00  0.45593999997E+02  0.45594000000E+02  0.51100000000E-03 0. -1.
         11   -1    0    0    0    0 -0.00000000000E+00 -0.00000000000E+00 -0.45593999997E+02  0.45594000000E+02  0.51100000000E-03 0.  1.
    9900012    2    1    2    0    0  0.34584821422E+02 -0.15901711850E+02 -0.20848234982E+02  0.47787271729E+02  0.20000003123E+02 0.  0.
        -12    1    1    2    0    0 -0.34584821422E+02  0.15901711850E+02  0.20848234982E+02  0.43400728271E+02  0.00000000000E+00 0.  1.
         11    1    3    3    0    0  0.16949555530E+02 -0.50281733733E+01 -0.91875860204E+01  0.19924399546E+02  0.51100000000E-03 0. -1.
        -11    1    3    3    0    0  0.10909986954E+01  0.27646293278E+01 -0.42322749307E+01  0.51716153012E+01  0.51100000000E-03 0.  1.
        -12    1    3    3    0    0  0.16544267197E+02 -0.13638167804E+02 -0.74283740310E+01  0.22691256882E+02  0.00000000000E+00 0.  1.
</event>
<event>
 7    1  0.1542786E-009  0.4778727E+02  0.7816164E-02  0.1312668E+00
        -11   -1    0    0    0    0  0.00000000000E+00  0.00000000000E+00  0.45593999997E+02  0.45594000000E+02  0.51100000000E-03 0.  1.
         11   -1    0    0    0    0 -0.00000000000E+00 -0.00000000000E+00 -0.45593999997E+02  0.45594000000E+02  0.51100000000E-03 0. -1.
    9900012    2    1    2    0    0  0.14957213285E+01  0.43360740531E+02  0.11099756636E+01  0.47787273650E+02  0.20000011880E+02 0.  0.
        -12    1    1    2    0    0 -0.14957213285E+01 -0.43360740531E+02 -0.11099756636E+01  0.43400726350E+02  0.00000000000E+00 0.  1.
         11    1    3    3    0    0  0.36826861085E+00  0.41281269325E+02  0.29481872497E+01  0.41388049328E+02  0.51100000000E-03 0. -1.
        -11    1    3    3    0    0  0.31427998069E+01  0.24646272384E+01 -0.70636176769E+00  0.40559247106E+01  0.51100000000E-03 0.  1.
        -12    1    3    3    0    0 -0.20153470892E+01 -0.38515603175E+00 -0.11318498184E+01  0.23432996117E+01  0.00000000000E+00 0.  1.
</event>
<event>
 7    1  0.1542786E-009  0.4778727E+02  0.7816164E-02  0.1312668E+00
        -11   -1    0    0    0    0  0.00000000000E+00  0.00000000000E+00  0.45593999997E+02  0.45594000000E+02  0.51100000000E-03 0. -1.
         11   -1    0    0    0    0 -0.00000000000E+00 -0.00000000000E+00 -0.45593999997E+02  0.45594000000E+02  0.51100000000E-03 0.  1.
    9900012    2    1    2    0    0  0.43066359791E+02 -0.51334787498E+01  0.15998048962E+01  0.47787270450E+02  0.19999997291E+02 0.  0.
        -12    1    1    2    0    0 -0.43066359791E+02  0.51334787498E+01 -0.15998048962E+01  0.43400729550E+02  0.00000000000E+00 0.  1.
         11    1    3    3    0    0  0.22209657800E+02 -0.80314678564E+01 -0.29918591319E+01  0.23805978174E+02  0.51100000000E-03 0. -1.
        -11    1    3    3    0    0  0.11307592397E+02 -0.18455937026E+01  0.64652685776E+01  0.13155514432E+02  0.51100000000E-03 0.  1.
         12    1    3    3    0    0  0.95491095944E+01  0.47435828092E+01 -0.18736045495E+01  0.10825777844E+02  0.00000000000E+00 0. -1.
</event>
<event>
 7    1  0.1572622E-009  0.4778727E+02  0.7816164E-02  0.1312668E+00
        -11   -1    0    0    0    0  0.00000000000E+00  0.00000000000E+00  0.45593999997E+02  0.45594000000E+02  0.51100000000E-03 0. -1.
         11   -1    0    0    0    0 -0.00000000000E+00 -0.00000000000E+00 -0.45593999997E+02  0.45594000000E+02  0.51100000000E-03 0.  1.
    9900012    2    1    2    0    0  0.13829301505E+02  0.19992821739E+02  0.35953594803E+02  0.47787268665E+02  0.19999989151E+02 0.  0.
        -12    1    1    2    0    0 -0.13829301505E+02 -0.19992821739E+02 -0.35953594803E+02  0.43400731335E+02  0.00000000000E+00 0.  1.
         11    1    3    3    0    0  0.93718900961E+01  0.63579827794E+01  0.17868029101E+02  0.21154733116E+02  0.51100000000E-03 0. -1.
        -11    1    3    3    0    0 -0.24652304404E+01  0.66975125803E+01  0.14563864937E+02  0.16218514052E+02  0.51100000000E-03 0.  1.
        -12    1    3    3    0    0  0.69226418490E+01  0.69373263793E+01  0.35217007645E+01  0.10414021497E+02  0.00000000000E+00 0.  1.
</event>
<event>
 7    1  0.1542786E-009  0.4778727E+02  0.7816164E-02  0.1312668E+00
        -11   -1    0    0    0    0  0.00000000000E+00  0.00000000000E+00  0.45593999997E+02  0.45594000000E+02  0.51100000000E-03 0.  1.
         11   -1    0    0    0    0 -0.00000000000E+00 -0.00000000000E+00 -0.45593999997E+02  0.45594000000E+02  0.51100000000E-03 0. -1.
    9900012    2    1    2    0    0  0.35165969925E+02 -0.21673432845E+02 -0.13313174403E+02  0.47787265620E+02  0.19999975268E+02 0.  0.
        -12    1    1    2    0    0 -0.35165969925E+02  0.21673432845E+02  0.13313174403E+02  0.43400734380E+02  0.00000000000E+00 0.  1.
         11    1    3    3    0    0  0.27925527206E+02 -0.20236303615E+02 -0.12413750282E+02  0.36653025115E+02  0.51100000000E-03 0. -1.
        -11    1    3    3    0    0  0.18548367924E+01 -0.16125066147E+00 -0.42670457643E+01  0.46555452009E+01  0.51100000000E-03 0.  1.
         12    1    3    3    0    0  0.53856059263E+01 -0.12758785689E+01  0.33676216433E+01  0.64786953045E+01  0.00000000000E+00 0. -1.
</event>
<event>
 7    1  0.1542786E-009  0.4778727E+02  0.7816164E-02  0.1312668E+00
        -11   -1    0    0    0    0  0.00000000000E+00  0.00000000000E+00  0.45593999997E+02  0.45594000000E+02  0.51100000000E-03 0. -1.
         11   -1    0    0    0    0 -0.00000000000E+00 -0.00000000000E+00 -0.45593999997E+02  0.45594000000E+02  0.51100000000E-03 0.  1.
    9900012    2    1    2    0    0 -0.69769737012E+01 -0.41996647566E+02  0.84396186006E+01  0.47787265779E+02  0.19999975994E+02 0.  0.
        -12    1    1    2    0    0  0.69769737012E+01  0.41996647566E+02 -0.84396186006E+01  0.43400734221E+02  0.00000000000E+00 0.  1.
         11    1    3    3    0    0  0.43821560822E+01 -0.18975915430E+02  0.64421012932E+01  0.20513150115E+02  0.51100000000E-03 0. -1.
        -11    1    3    3    0    0  0.38416467409E+00 -0.85711343437E+01  0.50338288032E+00  0.85944936453E+01  0.51100000000E-03 0.  1.
        -12    1    3    3    0    0 -0.11743294458E+02 -0.14449597792E+02  0.14941344271E+01  0.18679622019E+02  0.00000000000E+00 0.  1.
</event>
<event>
 7    1  0.1542786E-009  0.4778728E+02  0.7816164E-02  0.1312668E+00
        -11   -1    0    0    0    0  0.00000000000E+00  0.00000000000E+00  0.45593999997E+02  0.45594000000E+02  0.51100000000E-03 0.  1.
         11   -1    0    0    0    0 -0.00000000000E+00 -0.00000000000E+00 -0.45593999997E+02  0.45594000000E+02  0.51100000000E-03 0. -1.
    9900012    2    1    2    0    0 -0.33008798587E+02 -0.77425190678E+01 -0.27094194657E+02  0.47787276852E+02  0.20000026478E+02 0.  0.
        -12    1    1    2    0    0  0.33008798587E+02  0.77425190678E+01  0.27094194657E+02  0.43400723148E+02  0.00000000000E+00 0.  1.
         11    1    3    3    0    0 -0.48731798483E-01  0.17224767877E+01 -0.33929059365E+01  0.38054056325E+01  0.51100000000E-03 0. -1.
        -11    1    3    3    0    0 -0.27491896829E+01  0.11455353471E+01 -0.75558487530E+01  0.81216467409E+01  0.51100000000E-03 0.  1.
         12    1    3    3    0    0 -0.30210877106E+02 -0.10610531203E+02 -0.16145439967E+02  0.35860224478E+02  0.00000000000E+00 0. -1.
</event>
<event>
 7    1  0.1542786E-009  0.4778728E+02  0.7816164E-02  0.1312668E+00
        -11   -1    0    0    0    0  0.00000000000E+00  0.00000000000E+00  0.45593999997E+02  0.45594000000E+02  0.51100000000E-03 0.  1.
         11   -1    0    0    0    0 -0.00000000000E+00 -0.00000000000E+00 -0.45593999997E+02  0.45594000000E+02  0.51100000000E-03 0. -1.
    9900012    2    1    2    0    0 -0.35753614859E+02  0.14193684720E+02 -0.20095800929E+02  0.47787275624E+02  0.20000020879E+02 0.  0.
        -12    1    1    2    0    0  0.35753614859E+02 -0.14193684720E+02  0.20095800929E+02  0.43400724376E+02  0.00000000000E+00 0.  1.
         11    1    3    3    0    0 -0.61046581730E+01  0.61446688121E+01 -0.47983706217E+01  0.99019274438E+01  0.51100000000E-03 0. -1.
        -11    1    3    3    0    0 -0.65588571803E+01 -0.31467992380E+01  0.12079117346E+01  0.73742798954E+01  0.51100000000E-03 0.  1.
        -12    1    3    3    0    0 -0.23090099505E+02  0.11195815146E+02 -0.16505342042E+02  0.30511068285E+02  0.00000000000E+00 0.  1.
</event>
<event>
 7    1  0.1542786E-009  0.4778727E+02  0.7816164E-02  0.1312668E+00
        -11   -1    0    0    0    0  0.00000000000E+00  0.00000000000E+00  0.45593999997E+02  0.45594000000E+02  0.51100000000E-03 0.  1.
         11   -1    0    0    0    0 -0.00000000000E+00 -0.00000000000E+00 -0.45593999997E+02  0.45594000000E+02  0.51100000000E-03 0. -1.
    9900012    2    1    2    0    0  0.23098395322E+02  0.34674679291E+02 -0.12155406688E+02  0.47787272331E+02  0.20000005868E+02 0.  0.
        -12    1    1    2    0    0 -0.23098395322E+02 -0.34674679291E+02  0.12155406688E+02  0.43400727669E+02  0.00000000000E+00 0.  1.
         11    1    3    3    0    0  0.23810732426E+01  0.52768187850E+01 -0.78337076416E+01  0.97407033602E+01  0.51100000000E-03 0. -1.
        -11    1    3    3    0    0  0.38752864062E+01  0.68615075974E+01  0.38207620311E+01  0.87576454598E+01  0.51100000000E-03 0.  1.
        -12    1    3    3    0    0  0.16842035673E+02  0.22536352909E+02 -0.81424610772E+01  0.29288923511E+02  0.00000000000E+00 0.  1.
</event>
<event>
 7    1  0.1542786E-009  0.4778731E+02  0.7816164E-02  0.1312668E+00
        -11   -1    0    0    0    0  0.00000000000E+00  0.00000000000E+00  0.45593999997E+02  0.45594000000E+02  0.51100000000E-03 0.  1.
         11   -1    0    0    0    0 -0.00000000000E+00 -0.00000000000E+00 -0.45593999997E+02  0.45594000000E+02  0.51100000000E-03 0. -1.
    9900012    2    1    2    0    0 -0.43992238132E+01 -0.33678353106E+02 -0.27019165264E+02  0.47787309571E+02  0.20000175659E+02 0.  0.
        -12    1    1    2    0    0  0.43992238132E+01  0.33678353106E+02  0.27019165264E+02  0.43400690429E+02  0.00000000000E+00 0.  1.
         11    1    3    3    0    0  0.43674796508E+00 -0.21023356896E+02 -0.50466829816E+01  0.21625015453E+02  0.51100000000E-03 0. -1.
        -11    1    3    3    0    0 -0.36382945775E+01 -0.65389948653E+01 -0.85408867442E+01  0.11355280178E+02  0.51100000000E-03 0.  1.
         12    1    3    3    0    0 -0.11976772008E+01 -0.61160013450E+01 -0.13431595538E+02  0.14807013941E+02  0.00000000000E+00 0. -1.
</event>
<event>
 7    1  0.2708130E-009  0.4778726E+02  0.7816164E-02  0.1312668E+00
        -11   -1    0    0    0    0  0.00000000000E+00  0.00000000000E+00  0.45593999997E+02  0.45594000000E+02  0.51100000000E-03 0. -1.
         11   -1    0    0    0    0 -0.00000000000E+00 -0.00000000000E+00 -0.45593999997E+02  0.45594000000E+02  0.51100000000E-03 0.  1.
    9900012    2    1    2    0    0  0.13467704626E+02 -0.16048727481E+02  0.38008992312E+02  0.47787260166E+02  0.19999950399E+02 0.  0.
        -12    1    1    2    0    0 -0.13467704626E+02  0.16048727481E+02 -0.38008992312E+02  0.43400739834E+02  0.00000000000E+00 0.  1.
         11    1    3    3    0    0  0.10210401628E+02 -0.92009699502E+01  0.18497567050E+02  0.23044959025E+02  0.51100000000E-03 0. -1.
        -11    1    3    3    0    0  0.27836182264E+01 -0.64181120135E+00 -0.12129486817E+01  0.31034975131E+01  0.51100000000E-03 0.  1.
        -12    1    3    3    0    0  0.47368477146E+00 -0.62059463291E+01  0.20724373943E+02  0.21638803627E+02  0.00000000000E+00 0.  1.
</event>
<event>
 7    1  0.1542786E-009  0.4778729E+02  0.7816164E-02  0.1312668E+00
        -11   -1    0    0    0    0  0.00000000000E+00  0.00000000000E+00  0.45593999997E+02  0.45594000000E+02  0.51100000000E-03 0. -1.
         11   -1    0    0    0    0 -0.00000000000E+00 -0.00000000000E+00 -0.45593999997E+02  0.45594000000E+02  0.51100000000E-03 0.  1.
    9900012    2    1    2    0    0 -0.12908805324E+01  0.43328548952E+02  0.21429179445E+01  0.47787290050E+02  0.20000086655E+02 0.  0.
        -12    1    1    2    0    0  0.12908805324E+01 -0.43328548952E+02 -0.21429179445E+01  0.43400709950E+02  0.00000000000E+00 0.  1.
         11    1    3    3    0    0 -0.24247643439E+01  0.34061722507E+02  0.74666140616E+01  0.34954695652E+02  0.51100000000E-03 0. -1.
        -11    1    3    3    0    0  0.22858181968E+00  0.59645925134E+01  0.59111956014E+00  0.59981693953E+01  0.51100000000E-03 0.  1.
        -12    1    3    3    0    0  0.90530199178E+00  0.33022339309E+01 -0.59148156772E+01  0.68344250033E+01  0.00000000000E+00 0.  1.
</event>
<event>
 7    1  0.1542786E-009  0.4778727E+02  0.7816164E-02  0.1312668E+00
        -11   -1    0    0    0    0  0.00000000000E+00  0.00000000000E+00  0.45593999997E+02  0.45594000000E+02  0.51100000000E-03 0. -1.
         11   -1    0    0    0    0 -0.00000000000E+00 -0.00000000000E+00 -0.45593999997E+02  0.45594000000E+02  0.51100000000E-03 0.  1.
    9900012    2    1    2    0    0  0.35472879184E+02 -0.16294745417E+02  0.18967846360E+02  0.47787273262E+02  0.20000010112E+02 0.  0.
        -12    1    1    2    0    0 -0.35472879184E+02  0.16294745417E+02 -0.18967846360E+02  0.43400726738E+02  0.00000000000E+00 0.  1.
         11    1    3    3    0    0  0.27860782996E+01  0.40909118352E-01  0.52226662730E+01  0.59194720295E+01  0.51100000000E-03 0. -1.
        -11    1    3    3    0    0  0.33683044938E+02 -0.13580344261E+02  0.14009367007E+02  0.38926027678E+02  0.51100000000E-03 0.  1.
         12    1    3    3    0    0 -0.99624405362E+00 -0.27553102740E+01 -0.26418691986E+00  0.29417735551E+01  0.00000000000E+00 0. -1.
</event>
<event>
 7    1  0.1542786E-009  0.4778727E+02  0.7816164E-02  0.1312668E+00
        -11   -1    0    0    0    0  0.00000000000E+00  0.00000000000E+00  0.45593999997E+02  0.45594000000E+02  0.51100000000E-03 0.  1.
         11   -1    0    0    0    0 -0.00000000000E+00 -0.00000000000E+00 -0.45593999997E+02  0.45594000000E+02  0.51100000000E-03 0. -1.
    9900012    2    1    2    0    0  0.16384202799E+02 -0.39901553517E+02 -0.48007563633E+01  0.47787270327E+02  0.19999996730E+02 0.  0.
        -12    1    1    2    0    0 -0.16384202799E+02  0.39901553517E+02  0.48007563633E+01  0.43400729673E+02  0.00000000000E+00 0.  1.
         11    1    3    3    0    0  0.58799353180E+01 -0.13402445719E+02  0.14316213539E+00  0.14636245634E+02  0.51100000000E-03 0. -1.
        -11    1    3    3    0    0  0.31781787521E+01 -0.76683503352E+01 -0.93160871918E+01  0.12477736088E+02  0.51100000000E-03 0.  1.
        -12    1    3    3    0    0  0.73260887292E+01 -0.18830757463E+02  0.43721686930E+01  0.20673288606E+02  0.00000000000E+00 0.  1.
</event>
<event>
 7    1  0.2885140E-009  0.4778727E+02  0.7816164E-02  0.1312668E+00
        -11   -1    0    0    0    0  0.00000000000E+00  0.00000000000E+00  0.45593999997E+02  0.45594000000E+02  0.51100000000E-03 0.  1.
         11   -1    0    0    0    0 -0.00000000000E+00 -0.00000000000E+00 -0.45593999997E+02  0.45594000000E+02  0.51100000000E-03 0. -1.
    9900012    2    1    2    0    0  0.33173575572E+02 -0.14400607940E+02 -0.23994995113E+02  0.47787269410E+02  0.19999992546E+02 0.  0.
        -12    1    1    2    0    0 -0.33173575572E+02  0.14400607940E+02  0.23994995113E+02  0.43400730590E+02  0.00000000000E+00 0.  1.
         11    1    3    3    0    0  0.11581254390E+02 -0.23615448907E+01 -0.59591843988E+01  0.13236851078E+02  0.51100000000E-03 0. -1.
        -11    1    3    3    0    0  0.45930470805E+01 -0.67647947928E+01 -0.14134479623E+02  0.16329177706E+02  0.51100000000E-03 0.  1.
        -12    1    3    3    0    0  0.16999274102E+02 -0.52742682567E+01 -0.39013310912E+01  0.18221240625E+02  0.00000000000E+00 0.  1.
</event>
<event>
 7    1  0.1542786E-009  0.4778727E+02  0.7816164E-02  0.1312668E+00
        -11   -1    0    0    0    0  0.00000000000E+00  0.00000000000E+00  0.45593999997E+02  0.45594000000E+02  0.51100000000E-03 0.  1.
         11   -1    0    0    0    0 -0.00000000000E+00 -0.00000000000E+00 -0.45593999997E+02  0.45594000000E+02  0.51100000000E-03 0. -1.
    9900012    2    1    2    0    0 -0.15457807242E+01 -0.21653361071E+02 -0.37581453690E+02  0.47787272527E+02  0.20000006758E+02 0.  0.
        -12    1    1    2    0    0  0.15457807242E+01  0.21653361071E+02  0.37581453690E+02  0.43400727473E+02  0.00000000000E+00 0.  1.
         11    1    3    3    0    0 -0.59027302151E+01 -0.18787243268E+02 -0.20312135230E+02  0.28291086431E+02  0.51100000000E-03 0. -1.
        -11    1    3    3    0    0  0.12741218514E+01 -0.49058572288E+01 -0.75114039655E+01  0.90615678243E+01  0.51100000000E-03 0.  1.
         12    1    3    3    0    0  0.30828276395E+01  0.20397394250E+01 -0.97579144952E+01  0.10434618272E+02  0.00000000000E+00 0. -1.
</event>
<event>
 7    1  0.1542786E-009  0.4778727E+02  0.7816164E-02  0.1312668E+00
        -11   -1    0    0    0    0  0.00000000000E+00  0.00000000000E+00  0.45593999997E+02  0.45594000000E+02  0.51100000000E-03 0.  1.
         11   -1    0    0    0    0 -0.00000000000E+00 -0.00000000000E+00 -0.45593999997E+02  0.45594000000E+02  0.51100000000E-03 0. -1.
    9900012    2    1    2    0    0  0.12047124769E+02 -0.20581165547E+02 -0.36261627888E+02  0.47787271348E+02  0.20000001382E+02 0.  0.
        -12    1    1    2    0    0 -0.12047124769E+02  0.20581165547E+02  0.36261627888E+02  0.43400728652E+02  0.00000000000E+00 0.  1.
         11    1    3    3    0    0  0.31941551079E+01 -0.75092670011E+01 -0.63668323208E+01  0.10350278828E+02  0.51100000000E-03 0. -1.
        -11    1    3    3    0    0  0.44195529145E+01 -0.24845247559E+01  0.35528263002E+00  0.50824735351E+01  0.51100000000E-03 0.  1.
         12    1    3    3    0    0  0.44334167468E+01 -0.10587373790E+02 -0.30250078197E+02  0.32354518985E+02  0.00000000000E+00 0. -1.
</event>
<event>
 7    1  0.1542786E-009  0.4778727E+02  0.7816164E-02  0.1312668E+00
        -11   -1    0    0    0    0  0.00000000000E+00  0.00000000000E+00  0.45593999997E+02  0.45594000000E+02  0.51100000000E-03 0. -1.
         11   -1    0    0    0    0 -0.00000000000E+00 -0.00000000000E+00 -0.45593999997E+02  0.45594000000E+02  0.51100000000E-03 0.  1.
    9900012    2    1    2    0    0 -0.38843946137E+02 -0.19359622963E+01  0.19261973040E+02  0.47787266056E+02  0.19999977254E+02 0.  0.
        -12    1    1    2    0    0  0.38843946137E+02  0.19359622963E+01 -0.19261973040E+02  0.43400733944E+02  0.00000000000E+00 0.  1.
         11    1    3    3    0    0 -0.19102695916E+02  0.17076098831E+01  0.86276206807E+01  0.21030091812E+02  0.51100000000E-03 0. -1.
        -11    1    3    3    0    0 -0.23763157849E+01 -0.17338402060E+01  0.86963304796E+01  0.91803726853E+01  0.51100000000E-03 0.  1.
        -12    1    3    3    0    0 -0.17364934437E+02 -0.19097319734E+01  0.19380218795E+01  0.17576801558E+02  0.00000000000E+00 0.  1.
</event>
<event>
 7    1  0.1542786E-009  0.4778727E+02  0.7816164E-02  0.1312668E+00
        -11   -1    0    0    0    0  0.00000000000E+00  0.00000000000E+00  0.45593999997E+02  0.45594000000E+02  0.51100000000E-03 0.  1.
         11   -1    0    0    0    0 -0.00000000000E+00 -0.00000000000E+00 -0.45593999997E+02  0.45594000000E+02  0.51100000000E-03 0. -1.
    9900012    2    1    2    0    0 -0.18274898022E+02 -0.38247070117E+02  0.93173515737E+01  0.47787270621E+02  0.19999998069E+02 0.  0.
        -12    1    1    2    0    0  0.18274898022E+02  0.38247070117E+02 -0.93173515737E+01  0.43400729379E+02  0.00000000000E+00 0.  1.
         11    1    3    3    0    0 -0.35384102412E+01 -0.10390478494E+02 -0.28628112179E+01  0.11343636044E+02  0.51100000000E-03 0. -1.
        -11    1    3    3    0    0 -0.13509951998E+02 -0.11116390359E+02  0.50753272880E+01  0.18216802270E+02  0.51100000000E-03 0.  1.
         12    1    3    3    0    0 -0.12265357825E+01 -0.16740201265E+02  0.71048355037E+01  0.18226832307E+02  0.00000000000E+00 0. -1.
</event>
<event>
 7    1  0.1542786E-009  0.4778727E+02  0.7816164E-02  0.1312668E+00
        -11   -1    0    0    0    0  0.00000000000E+00  0.00000000000E+00  0.45593999997E+02  0.45594000000E+02  0.51100000000E-03 0. -1.
         11   -1    0    0    0    0 -0.00000000000E+00 -0.00000000000E+00 -0.45593999997E+02  0.45594000000E+02  0.51100000000E-03 0.  1.
    9900012    2    1    2    0    0 -0.13509573608E+02 -0.29437235598E+02  0.28888821635E+02  0.47787269198E+02  0.19999991579E+02 0.  0.
        -12    1    1    2    0    0  0.13509573608E+02  0.29437235598E+02 -0.28888821635E+02  0.43400730802E+02  0.00000000000E+00 0.  1.
         11    1    3    3    0    0 -0.76697008106E+01 -0.11593800339E+02  0.91793038706E+01  0.16658335350E+02  0.51100000000E-03 0. -1.
        -11    1    3    3    0    0  0.20757117240E-01 -0.10184180035E+02  0.18876810946E+02  0.21448821543E+02  0.51100000000E-03 0.  1.
        -12    1    3    3    0    0 -0.58606299142E+01 -0.76592552244E+01  0.83270681895E+00  0.96801123046E+01  0.00000000000E+00 0.  1.
</event>
<event>
 7    1  0.1542786E-009  0.4778726E+02  0.7816164E-02  0.1312668E+00
        -11   -1    0    0    0    0  0.00000000000E+00  0.00000000000E+00  0.45593999997E+02  0.45594000000E+02  0.51100000000E-03 0.  1.
         11   -1    0    0    0    0 -0.00000000000E+00 -0.00000000000E+00 -0.45593999997E+02  0.45594000000E+02  0.51100000000E-03 0. -1.
    9900012    2    1    2    0    0  0.19258320237E+02  0.33994974316E+02 -0.18896640488E+02  0.47787260389E+02  0.19999951416E+02 0.  0.
        -12    1    1    2    0    0 -0.19258320237E+02 -0.33994974316E+02  0.18896640488E+02  0.43400739611E+02  0.00000000000E+00 0.  1.
         11    1    3    3    0    0  0.76653700564E+01  0.65613116225E+01  0.13271485335E+01  0.10176936268E+02  0.51100000000E-03 0. -1.
        -11    1    3    3    0    0  0.12437708414E+02  0.16109900194E+02 -0.12758424032E+02  0.24020883807E+02  0.51100000000E-03 0.  1.
         12    1    3    3    0    0 -0.84475823316E+00  0.11323762499E+02 -0.74653649895E+01  0.13589440314E+02  0.00000000000E+00 0. -1.
</event>
<event>
 7    1  0.1542786E-009  0.4778727E+02  0.7816164E-02  0.1312668E+00
        -11   -1    0    0    0    0  0.00000000000E+00  0.00000000000E+00  0.45593999997E+02  0.45594000000E+02  0.51100000000E-03 0.  1.
         11   -1    0    0    0    0 -0.00000000000E+00 -0.00000000000E+00 -0.45593999997E+02  0.45594000000E+02  0.51100000000E-03 0. -1.
    9900012    2    1    2    0    0  0.23157526489E+02  0.22352457833E+02 -0.29115625810E+02  0.47787273387E+02  0.20000010679E+02 0.  0.
        -12    1    1    2    0    0 -0.23157526489E+02 -0.22352457833E+02  0.29115625810E+02  0.43400726613E+02  0.00000000000E+00 0.  1.
         11    1    3    3    0    0 -0.15475423504E+01  0.10612789343E+01 -0.67722503064E+01  0.70274159388E+01  0.51100000000E-03 0. -1.
        -11    1    3    3    0    0  0.12033070014E+02  0.48538717123E+01 -0.57725834074E+01  0.14201322615E+02  0.51100000000E-03 0.  1.
         12    1    3    3    0    0  0.12671998826E+02  0.16437307187E+02 -0.16570792096E+02  0.26558534833E+02  0.00000000000E+00 0. -1.
</event>
<event>
 7    1  0.1542786E-009  0.4778727E+02  0.7816164E-02  0.1312668E+00
        -11   -1    0    0    0    0  0.00000000000E+00  0.00000000000E+00  0.45593999997E+02  0.45594000000E+02  0.51100000000E-03 0.  1.
         11   -1    0    0    0    0 -0.00000000000E+00 -0.00000000000E+00 -0.45593999997E+02  0.45594000000E+02  0.51100000000E-03 0. -1.
    9900012    2    1    2    0    0  0.40505742841E+02  0.14902550059E+02 -0.45631147465E+01  0.47787271694E+02  0.20000002959E+02 0.  0.
        -12    1    1    2    0    0 -0.40505742841E+02 -0.14902550059E+02  0.45631147465E+01  0.43400728306E+02  0.00000000000E+00 0.  1.
         11    1    3    3    0    0  0.13863267956E+02  0.62042349583E+01 -0.11667644974E+01  0.15232992795E+02  0.51100000000E-03 0. -1.
        -11    1    3    3    0    0  0.26250646234E+02  0.10607475453E+02  0.36813858616E+00  0.28315198913E+02  0.51100000000E-03 0.  1.
        -12    1    3    3    0    0  0.39182865119E+00 -0.19091603518E+01 -0.37644888352E+01  0.42390799864E+01  0.00000000000E+00 0.  1.
</event>
<event>
 7    1  0.1542786E-009  0.4778727E+02  0.7816164E-02  0.1312668E+00
        -11   -1    0    0    0    0  0.00000000000E+00  0.00000000000E+00  0.45593999997E+02  0.45594000000E+02  0.51100000000E-03 0. -1.
         11   -1    0    0    0    0 -0.00000000000E+00 -0.00000000000E+00 -0.45593999997E+02  0.45594000000E+02  0.51100000000E-03 0.  1.
    9900012    2    1    2    0    0  0.12226315270E+02 -0.37806701189E+02  0.17458343374E+02  0.47787271973E+02  0.20000004235E+02 0.  0.
        -12    1    1    2    0    0 -0.12226315270E+02  0.37806701189E+02 -0.17458343374E+02  0.43400728027E+02  0.00000000000E+00 0.  1.
         11    1    3    3    0    0  0.23096481897E+01 -0.25239600694E+02  0.11410365904E+02  0.27795114108E+02  0.51100000000E-03 0. -1.
        -11    1    3    3    0    0  0.17906187552E+01 -0.17489503744E+01 -0.28540402243E+01  0.37961413043E+01  0.51100000000E-03 0.  1.
         12    1    3    3    0    0  0.81260483251E+01 -0.10818150121E+02  0.89020176938E+01  0.16196016561E+02  0.00000000000E+00 0. -1.
</event>
<event>
 7    1  0.1542786E-009  0.4778727E+02  0.7816164E-02  0.1312668E+00
        -11   -1    0    0    0    0  0.00000000000E+00  0.00000000000E+00  0.45593999997E+02  0.45594000000E+02  0.51100000000E-03 0. -1.
         11   -1    0    0    0    0 -0.00000000000E+00 -0.00000000000E+00 -0.45593999997E+02  0.45594000000E+02  0.51100000000E-03 0.  1.
    9900012    2    1    2    0    0 -0.27603236830E+02  0.32271747321E+02 -0.89564975756E+01  0.47787271809E+02  0.20000003487E+02 0.  0.
        -12    1    1    2    0    0  0.27603236830E+02 -0.32271747321E+02  0.89564975756E+01  0.43400728191E+02  0.00000000000E+00 0.  1.
         11    1    3    3    0    0 -0.31575307229E+01 -0.12986321754E+01 -0.52365549554E+00  0.34540789123E+01  0.51100000000E-03 0.  1.
        -11    1    3    3    0    0 -0.25895415248E+02  0.31015188180E+02 -0.68015298889E+01  0.40972859770E+02  0.51100000000E-03 0. -1.
         12    1    3    3    0    0  0.14497091404E+01  0.25551913166E+01 -0.16313121911E+01  0.33603331265E+01  0.00000000000E+00 0. -1.
</event>
<event>
 7    1  0.1542786E-009  0.4778727E+02  0.7816164E-02  0.1312668E+00
        -11   -1    0    0    0    0  0.00000000000E+00  0.00000000000E+00  0.45593999997E+02  0.45594000000E+02  0.51100000000E-03 0.  1.
         11   -1    0    0    0    0 -0.00000000000E+00 -0.00000000000E+00 -0.45593999997E+02  0.45594000000E+02  0.51100000000E-03 0. -1.
    9900012    2    1    2    0    0 -0.26561654409E+02 -0.29239251830E+02 -0.17976875624E+02  0.47787269709E+02  0.19999993913E+02 0.  0.
        -12    1    1    2    0    0  0.26561654409E+02  0.29239251830E+02  0.17976875624E+02  0.43400730291E+02  0.00000000000E+00 0.  1.
         11    1    3    3    0    0 -0.12610991345E+02 -0.16774492506E+02 -0.18664617447E+02  0.28085381362E+02  0.51100000000E-03 0. -1.
        -11    1    3    3    0    0 -0.45108573450E+01 -0.81310107188E+01  0.11795383443E+00  0.92991979581E+01  0.51100000000E-03 0.  1.
         12    1    3    3    0    0 -0.94398057190E+01 -0.43337486059E+01  0.56978798812E+00  0.10402690390E+02  0.00000000000E+00 0. -1.
</event>
<event>
 7    1  0.1542786E-009  0.4778727E+02  0.7816164E-02  0.1312668E+00
        -11   -1    0    0    0    0  0.00000000000E+00  0.00000000000E+00  0.45593999997E+02  0.45594000000E+02  0.51100000000E-03 0. -1.
         11   -1    0    0    0    0 -0.00000000000E+00 -0.00000000000E+00 -0.45593999997E+02  0.45594000000E+02  0.51100000000E-03 0.  1.
    9900012    2    1    2    0    0  0.30695649014E+02  0.24723157729E+02  0.18170470651E+02  0.47787269589E+02  0.19999993366E+02 0.  0.
        -12    1    1    2    0    0 -0.30695649014E+02 -0.24723157729E+02 -0.18170470651E+02  0.43400730411E+02  0.00000000000E+00 0.  1.
         11    1    3    3    0    0  0.62931218269E+01  0.90407582214E+01  0.20722565587E+01  0.11208610041E+02  0.51100000000E-03 0. -1.
        -11    1    3    3    0    0  0.11693900257E+02  0.67214959974E+01 -0.92823185914E+00  0.13519890025E+02  0.51100000000E-03 0.  1.
         12    1    3    3    0    0  0.12708626931E+02  0.89609035102E+01  0.17026445951E+02  0.23058769523E+02  0.00000000000E+00 0. -1.
</event>
<event>
 7    1  0.1542786E-009  0.4778727E+02  0.7816164E-02  0.1312668E+00
        -11   -1    0    0    0    0  0.00000000000E+00  0.00000000000E+00  0.45593999997E+02  0.45594000000E+02  0.51100000000E-03 0.  1.
         11   -1    0    0    0    0 -0.00000000000E+00 -0.00000000000E+00 -0.45593999997E+02  0.45594000000E+02  0.51100000000E-03 0. -1.
    9900012    2    1    2    0    0  0.22940388862E+02  0.25163597687E+02 -0.26910136812E+02  0.47787267830E+02  0.19999985342E+02 0.  0.
        -12    1    1    2    0    0 -0.22940388862E+02 -0.25163597687E+02  0.26910136812E+02  0.43400732170E+02  0.00000000000E+00 0.  1.
         11    1    3    3    0    0  0.13579618693E+02  0.50751729921E+01 -0.11417200206E+02  0.18453072524E+02  0.51100000000E-03 0. -1.
        -11    1    3    3    0    0  0.98544914071E+01  0.18700555277E+02 -0.17074568652E+02  0.27172829508E+02  0.51100000000E-03 0.  1.
        -12    1    3    3    0    0 -0.49372123813E+00  0.13878694175E+01  0.15816320465E+01  0.21613657977E+01  0.00000000000E+00 0.  1.
</event>
<event>
 7    1  0.1542786E-009  0.4778727E+02  0.7816164E-02  0.1312668E+00
        -11   -1    0    0    0    0  0.00000000000E+00  0.00000000000E+00  0.45593999997E+02  0.45594000000E+02  0.51100000000E-03 0. -1.
         11   -1    0    0    0    0 -0.00000000000E+00 -0.00000000000E+00 -0.45593999997E+02  0.45594000000E+02  0.51100000000E-03 0.  1.
    9900012    2    1    2    0    0  0.19183566862E+02 -0.22809386483E+02  0.31549107917E+02  0.47787267752E+02  0.19999984990E+02 0.  0.
        -12    1    1    2    0    0 -0.19183566862E+02  0.22809386483E+02 -0.31549107917E+02  0.43400732248E+02  0.00000000000E+00 0.  1.
         11    1    3    3    0    0  0.11710687020E+01 -0.11283771891E+02  0.15531543959E+02  0.19233402403E+02  0.51100000000E-03 0. -1.
        -11    1    3    3    0    0  0.43595699444E+01 -0.45416753637E+01 -0.11357622715E+00  0.62964724275E+01  0.51100000000E-03 0.  1.
         12    1    3    3    0    0  0.13652928216E+02 -0.69839392289E+01  0.16131140185E+02  0.22257392922E+02  0.00000000000E+00 0. -1.
</event>
<event>
 7    1  0.1542786E-009  0.4778727E+02  0.7816164E-02  0.1312668E+00
        -11   -1    0    0    0    0  0.00000000000E+00  0.00000000000E+00  0.45593999997E+02  0.45594000000E+02  0.51100000000E-03 0.  1.
         11   -1    0    0    0    0 -0.00000000000E+00 -0.00000000000E+00 -0.45593999997E+02  0.45594000000E+02  0.51100000000E-03 0. -1.
    9900012    2    1    2    0    0  0.10784906976E+02  0.32115859820E+02 -0.27127119685E+02  0.47787270826E+02  0.19999999004E+02 0.  0.
        -12    1    1    2    0    0 -0.10784906976E+02 -0.32115859820E+02  0.27127119685E+02  0.43400729174E+02  0.00000000000E+00 0.  1.
         11    1    3    3    0    0  0.13369654198E+01  0.10872136097E+02 -0.52276222780E+01  0.12137497880E+02  0.51100000000E-03 0. -1.
        -11    1    3    3    0    0  0.49609200558E+01  0.67249376851E+01 -0.18174286515E+02  0.20003504824E+02  0.51100000000E-03 0.  1.
        -12    1    3    3    0    0  0.44870215006E+01  0.14518786038E+02 -0.37252108922E+01  0.15646268122E+02  0.00000000000E+00 0.  1.
</event>
<event>
 7    1  0.1542786E-009  0.4778728E+02  0.7816164E-02  0.1312668E+00
        -11   -1    0    0    0    0  0.00000000000E+00  0.00000000000E+00  0.45593999997E+02  0.45594000000E+02  0.51100000000E-03 0. -1.
         11   -1    0    0    0    0 -0.00000000000E+00 -0.00000000000E+00 -0.45593999997E+02  0.45594000000E+02  0.51100000000E-03 0.  1.
    9900012    2    1    2    0    0 -0.24339304712E+02 -0.35880492251E+02  0.19522647166E+01  0.47787276324E+02  0.20000024072E+02 0.  0.
        -12    1    1    2    0    0  0.24339304712E+02  0.35880492251E+02 -0.19522647166E+01  0.43400723676E+02  0.00000000000E+00 0.  1.
         11    1    3    3    0    0 -0.16433877625E+02 -0.92529273429E+01 -0.13773946537E+01  0.18909950146E+02  0.51100000000E-03 0. -1.
        -11    1    3    3    0    0  0.96733592813E+00 -0.70307859383E+00  0.60837497332E+00  0.13417073735E+01  0.51100000000E-03 0.  1.
        -12    1    3    3    0    0 -0.88727630152E+01 -0.25924486315E+02  0.27212843969E+01  0.27535618805E+02  0.00000000000E+00 0.  1.
</event>
<event>
 7    1  0.1542786E-009  0.4778726E+02  0.7816164E-02  0.1312668E+00
        -11   -1    0    0    0    0  0.00000000000E+00  0.00000000000E+00  0.45593999997E+02  0.45594000000E+02  0.51100000000E-03 0.  1.
         11   -1    0    0    0    0 -0.00000000000E+00 -0.00000000000E+00 -0.45593999997E+02  0.45594000000E+02  0.51100000000E-03 0. -1.
    9900012    2    1    2    0    0 -0.67680576755E+01  0.15777744418E+02 -0.39860759699E+02  0.47787262824E+02  0.19999962521E+02 0.  0.
        -12    1    1    2    0    0  0.67680576755E+01 -0.15777744418E+02  0.39860759699E+02  0.43400737176E+02  0.00000000000E+00 0.  1.
         11    1    3    3    0    0  0.75029092583E+00  0.31432351684E+00 -0.13054318513E+02  0.13079639438E+02  0.51100000000E-03 0. -1.
        -11    1    3    3    0    0  0.40430590114E+01  0.39774581887E+01 -0.82405856106E+01  0.10003686884E+02  0.51100000000E-03 0.  1.
         12    1    3    3    0    0 -0.11561407613E+02  0.11485962713E+02 -0.18565855576E+02  0.24703936502E+02  0.00000000000E+00 0. -1.
</event>
<event>
 7    1  0.1542786E-009  0.4778727E+02  0.7816164E-02  0.1312668E+00
        -11   -1    0    0    0    0  0.00000000000E+00  0.00000000000E+00  0.45593999997E+02  0.45594000000E+02  0.51100000000E-03 0.  1.
         11   -1    0    0    0    0 -0.00000000000E+00 -0.00000000000E+00 -0.45593999997E+02  0.45594000000E+02  0.51100000000E-03 0. -1.
    9900012    2    1    2    0    0  0.38766213223E+01  0.38195741343E+02 -0.20240568508E+02  0.47787268863E+02  0.19999990056E+02 0.  0.
        -12    1    1    2    0    0 -0.38766213223E+01 -0.38195741343E+02  0.20240568508E+02  0.43400731137E+02  0.00000000000E+00 0.  1.
         11    1    3    3    0    0 -0.34891954269E+01  0.18640362910E+01 -0.39009764142E+01  0.55557837671E+01  0.51100000000E-03 0. -1.
        -11    1    3    3    0    0  0.20484637729E+01 -0.56436271025E-01 -0.16523295825E+01  0.26324099589E+01  0.51100000000E-03 0.  1.
         12    1    3    3    0    0  0.53173529763E+01  0.36388141323E+02 -0.14687262512E+02  0.39599075137E+02  0.00000000000E+00 0. -1.
</event>
<event>
 7    1  0.1542786E-009  0.4778727E+02  0.7816164E-02  0.1312668E+00
        -11   -1    0    0    0    0  0.00000000000E+00  0.00000000000E+00  0.45593999997E+02  0.45594000000E+02  0.51100000000E-03 0.  1.
         11   -1    0    0    0    0 -0.00000000000E+00 -0.00000000000E+00 -0.45593999997E+02  0.45594000000E+02  0.51100000000E-03 0. -1.
    9900012    2    1    2    0    0 -0.10527158682E+02 -0.20553691702E+02 -0.36747081014E+02  0.47787271026E+02  0.19999999914E+02 0.  0.
        -12    1    1    2    0    0  0.10527158682E+02  0.20553691702E+02  0.36747081014E+02  0.43400728974E+02  0.00000000000E+00 0.  1.
         11    1    3    3    0    0 -0.49171402790E+01 -0.96523230086E+00 -0.66309217284E+00  0.50546645199E+01  0.51100000000E-03 0. -1.
        -11    1    3    3    0    0  0.15232480184E+01 -0.26813161739E+01 -0.12365610424E+02  0.12744334521E+02  0.51100000000E-03 0.  1.
         12    1    3    3    0    0 -0.71332664215E+01 -0.16907143227E+02 -0.23718378417E+02  0.29988271985E+02  0.00000000000E+00 0. -1.
</event>
<event>
 7    1  0.1542786E-009  0.4778727E+02  0.7816164E-02  0.1312668E+00
        -11   -1    0    0    0    0  0.00000000000E+00  0.00000000000E+00  0.45593999997E+02  0.45594000000E+02  0.51100000000E-03 0.  1.
         11   -1    0    0    0    0 -0.00000000000E+00 -0.00000000000E+00 -0.45593999997E+02  0.45594000000E+02  0.51100000000E-03 0. -1.
    9900012    2    1    2    0    0 -0.70171274036E+00 -0.42200130031E+02 -0.10113348546E+02  0.47787271963E+02  0.20000004186E+02 0.  0.
        -12    1    1    2    0    0  0.70171274036E+00  0.42200130031E+02  0.10113348546E+02  0.43400728037E+02  0.00000000000E+00 0.  1.
         11    1    3    3    0    0  0.87923287563E-01 -0.14504951384E+02 -0.59170961079E+01  0.15665674954E+02  0.51100000000E-03 0. -1.
        -11    1    3    3    0    0 -0.13509998930E+01 -0.29307165179E+02 -0.56525308794E+01  0.29877855297E+02  0.51100000000E-03 0.  1.
        -12    1    3    3    0    0  0.56136386511E+00  0.16119865323E+01  0.14562784415E+01  0.22437417116E+01  0.00000000000E+00 0.  1.
</event>
<event>
 7    1  0.1542786E-009  0.4778727E+02  0.7816164E-02  0.1312668E+00
        -11   -1    0    0    0    0  0.00000000000E+00  0.00000000000E+00  0.45593999997E+02  0.45594000000E+02  0.51100000000E-03 0. -1.
         11   -1    0    0    0    0 -0.00000000000E+00 -0.00000000000E+00 -0.45593999997E+02  0.45594000000E+02  0.51100000000E-03 0.  1.
    9900012    2    1    2    0    0  0.28917624589E+02  0.10371395411E+02  0.30656627118E+02  0.47787266816E+02  0.19999980723E+02 0.  0.
        -12    1    1    2    0    0 -0.28917624589E+02 -0.10371395411E+02 -0.30656627118E+02  0.43400733184E+02  0.00000000000E+00 0.  1.
         11    1    3    3    0    0  0.12303394546E+02  0.54212458772E+00  0.18264464516E+01  0.12450033065E+02  0.51100000000E-03 0. -1.
        -11    1    3    3    0    0  0.42631032192E+01  0.58632988963E+01  0.79813048967E+01  0.10782094004E+02  0.51100000000E-03 0.  1.
         12    1    3    3    0    0  0.12351126824E+02  0.39659719268E+01  0.20848875769E+02  0.24555139747E+02  0.00000000000E+00 0. -1.
</event>
<event>
 7    1  0.1542786E-009  0.4778727E+02  0.7816164E-02  0.1312668E+00
        -11   -1    0    0    0    0  0.00000000000E+00  0.00000000000E+00  0.45593999997E+02  0.45594000000E+02  0.51100000000E-03 0.  1.
         11   -1    0    0    0    0 -0.00000000000E+00 -0.00000000000E+00 -0.45593999997E+02  0.45594000000E+02  0.51100000000E-03 0. -1.
    9900012    2    1    2    0    0  0.32175710846E+02 -0.79308280688E+00 -0.29115592722E+02  0.47787273182E+02  0.20000009746E+02 0.  0.
        -12    1    1    2    0    0 -0.32175710846E+02  0.79308280688E+00  0.29115592722E+02  0.43400726818E+02  0.00000000000E+00 0.  1.
         11    1    3    3    0    0  0.54677270476E+01 -0.59787072941E+01 -0.59733984839E+01  0.10065906302E+02  0.51100000000E-03 0. -1.
        -11    1    3    3    0    0  0.20579404588E+02 -0.98947904447E-01 -0.20883613994E+02  0.29319737679E+02  0.51100000000E-03 0.  1.
        -12    1    3    3    0    0  0.61285792109E+01  0.52845723917E+01 -0.22585802440E+01  0.84016292007E+01  0.00000000000E+00 0.  1.
</event>
<event>
 7    1  0.1542786E-009  0.4778727E+02  0.7816164E-02  0.1312668E+00
        -11   -1    0    0    0    0  0.00000000000E+00  0.00000000000E+00  0.45593999997E+02  0.45594000000E+02  0.51100000000E-03 0.  1.
         11   -1    0    0    0    0 -0.00000000000E+00 -0.00000000000E+00 -0.45593999997E+02  0.45594000000E+02  0.51100000000E-03 0. -1.
    9900012    2    1    2    0    0  0.34485880564E+02  0.29175200568E+01 -0.26188456209E+02  0.47787272815E+02  0.20000008072E+02 0.  0.
        -12    1    1    2    0    0 -0.34485880564E+02 -0.29175200568E+01  0.26188456209E+02  0.43400727185E+02  0.00000000000E+00 0.  1.
         11    1    3    3    0    0  0.17465123223E+01 -0.84716442026E+00  0.12501241297E+01  0.23088532755E+01  0.51100000000E-03 0. -1.
        -11    1    3    3    0    0  0.27519114618E+02  0.90830189827E+00 -0.14235659987E+02  0.30996462656E+02  0.51100000000E-03 0.  1.
         12    1    3    3    0    0  0.52202536244E+01  0.28563825788E+01 -0.13202920352E+02  0.14481956883E+02  0.00000000000E+00 0. -1.
</event>
<event>
 7    1  0.1542786E-009  0.4778727E+02  0.7816164E-02  0.1312668E+00
        -11   -1    0    0    0    0  0.00000000000E+00  0.00000000000E+00  0.45593999997E+02  0.45594000000E+02  0.51100000000E-03 0. -1.
         11   -1    0    0    0    0 -0.00000000000E+00 -0.00000000000E+00 -0.45593999997E+02  0.45594000000E+02  0.51100000000E-03 0.  1.
    9900012    2    1    2    0    0 -0.10261711290E+02  0.41902393398E+02 -0.47444420323E+01  0.47787273955E+02  0.20000013269E+02 0.  0.
        -12    1    1    2    0    0  0.10261711290E+02 -0.41902393398E+02  0.47444420323E+01  0.43400726045E+02  0.00000000000E+00 0.  1.
         11    1    3    3    0    0 -0.40867989764E+01  0.13189939673E+02 -0.29126938691E+01  0.14112413695E+02  0.51100000000E-03 0. -1.
        -11    1    3    3    0    0 -0.29330460013E+01  0.84330206745E+01  0.69742959457E+01  0.11329580784E+02  0.51100000000E-03 0.  1.
        -12    1    3    3    0    0 -0.32418663128E+01  0.20279433050E+02 -0.88060441088E+01  0.22345279476E+02  0.00000000000E+00 0.  1.
</event>
<event>
 7    1  0.2040364E-009  0.4778727E+02  0.7816164E-02  0.1312668E+00
        -11   -1    0    0    0    0  0.00000000000E+00  0.00000000000E+00  0.45593999997E+02  0.45594000000E+02  0.51100000000E-03 0. -1.
         11   -1    0    0    0    0 -0.00000000000E+00 -0.00000000000E+00 -0.45593999997E+02  0.45594000000E+02  0.51100000000E-03 0.  1.
    9900012    2    1    2    0    0  0.31271811366E+01 -0.16582037491E+02  0.39985999049E+02  0.47787270177E+02  0.19999996046E+02 0.  0.
        -12    1    1    2    0    0 -0.31271811366E+01  0.16582037491E+02 -0.39985999049E+02  0.43400729823E+02  0.00000000000E+00 0.  1.
         11    1    3    3    0    0  0.60310224181E+00 -0.85925327294E+01  0.22003656622E+02  0.23629563179E+02  0.51100000000E-03 0. -1.
        -11    1    3    3    0    0  0.41017862999E+01 -0.10003416632E+02  0.69968015678E+01  0.12878207469E+02  0.51100000000E-03 0.  1.
        -12    1    3    3    0    0 -0.15777074052E+01  0.20139118702E+01  0.10985540859E+02  0.11279499530E+02  0.00000000000E+00 0.  1.
</event>
<event>
 7    1  0.2106039E-009  0.4778727E+02  0.7816164E-02  0.1312668E+00
        -11   -1    0    0    0    0  0.00000000000E+00  0.00000000000E+00  0.45593999997E+02  0.45594000000E+02  0.51100000000E-03 0.  1.
         11   -1    0    0    0    0 -0.00000000000E+00 -0.00000000000E+00 -0.45593999997E+02  0.45594000000E+02  0.51100000000E-03 0. -1.
    9900012    2    1    2    0    0 -0.22250686509E+02 -0.35431153928E+02 -0.11539664245E+02  0.47787267637E+02  0.19999984464E+02 0.  0.
        -12    1    1    2    0    0  0.22250686509E+02  0.35431153928E+02  0.11539664245E+02  0.43400732363E+02  0.00000000000E+00 0.  1.
         11    1    3    3    0    0 -0.11180715218E+02 -0.20177335110E+02 -0.70680280270E+01  0.24126546901E+02  0.51100000000E-03 0. -1.
        -11    1    3    3    0    0 -0.75866262074E+01 -0.91560877396E+01  0.41017378694E+01  0.12578358149E+02  0.51100000000E-03 0.  1.
        -12    1    3    3    0    0 -0.34833450830E+01 -0.60977310784E+01 -0.85733740871E+01  0.11082362587E+02  0.00000000000E+00 0.  1.
</event>
<event>
 7    1  0.1542786E-009  0.4778727E+02  0.7816164E-02  0.1312668E+00
        -11   -1    0    0    0    0  0.00000000000E+00  0.00000000000E+00  0.45593999997E+02  0.45594000000E+02  0.51100000000E-03 0.  1.
         11   -1    0    0    0    0 -0.00000000000E+00 -0.00000000000E+00 -0.45593999997E+02  0.45594000000E+02  0.51100000000E-03 0. -1.
    9900012    2    1    2    0    0  0.75905927707E+01  0.39742140247E+02  0.15702497600E+02  0.47787271425E+02  0.20000001734E+02 0.  0.
        -12    1    1    2    0    0 -0.75905927707E+01 -0.39742140247E+02 -0.15702497600E+02  0.43400728575E+02  0.00000000000E+00 0.  1.
         11    1    3    3    0    0  0.15760227595E+00  0.49738555731E+01 -0.10255655051E+01  0.50809312734E+01  0.51100000000E-03 0. -1.
        -11    1    3    3    0    0  0.93126618266E+01  0.77631857049E+01  0.37874212541E+01  0.12701861383E+02  0.51100000000E-03 0.  1.
         12    1    3    3    0    0 -0.18796713319E+01  0.27005098969E+02  0.12940641851E+02  0.30004478768E+02  0.00000000000E+00 0. -1.
</event>
<event>
 7    1  0.1542786E-009  0.4778727E+02  0.7816164E-02  0.1312668E+00
        -11   -1    0    0    0    0  0.00000000000E+00  0.00000000000E+00  0.45593999997E+02  0.45594000000E+02  0.51100000000E-03 0.  1.
         11   -1    0    0    0    0 -0.00000000000E+00 -0.00000000000E+00 -0.45593999997E+02  0.45594000000E+02  0.51100000000E-03 0. -1.
    9900012    2    1    2    0    0 -0.13369251239E+01  0.35963069239E+02 -0.24258886445E+02  0.47787270865E+02  0.19999999181E+02 0.  0.
        -12    1    1    2    0    0  0.13369251239E+01 -0.35963069239E+02  0.24258886445E+02  0.43400729135E+02  0.00000000000E+00 0.  1.
         11    1    3    3    0    0  0.39642832586E+01  0.48984747505E+01 -0.14104777324E+01  0.64575571488E+01  0.51100000000E-03 0. -1.
        -11    1    3    3    0    0  0.46593560908E+01  0.10763077018E+02 -0.93020978676E+01  0.14969383791E+02  0.51100000000E-03 0.  1.
         12    1    3    3    0    0 -0.99605644732E+01  0.20301517471E+02 -0.13546310845E+02  0.26360329925E+02  0.00000000000E+00 0. -1.
</event>
<event>
 7    1  0.1542786E-009  0.4778727E+02  0.7816164E-02  0.1312668E+00
        -11   -1    0    0    0    0  0.00000000000E+00  0.00000000000E+00  0.45593999997E+02  0.45594000000E+02  0.51100000000E-03 0.  1.
         11   -1    0    0    0    0 -0.00000000000E+00 -0.00000000000E+00 -0.45593999997E+02  0.45594000000E+02  0.51100000000E-03 0. -1.
    9900012    2    1    2    0    0 -0.13344405958E+02  0.14000040682E+02 -0.38852915014E+02  0.47787270576E+02  0.19999997863E+02 0.  0.
        -12    1    1    2    0    0  0.13344405958E+02 -0.14000040682E+02  0.38852915014E+02  0.43400729424E+02  0.00000000000E+00 0.  1.
         11    1    3    3    0    0 -0.42682556151E+01  0.39241259019E+01 -0.29476614436E+02  0.30041430874E+02  0.51100000000E-03 0. -1.
        -11    1    3    3    0    0 -0.42330520148E+01  0.72485480851E+00 -0.13397052271E+01  0.44987725226E+01  0.51100000000E-03 0.  1.
        -12    1    3    3    0    0 -0.48430983281E+01  0.93510599715E+01 -0.80365953507E+01  0.13247067179E+02  0.00000000000E+00 0.  1.
</event>
<event>
 7    1  0.1542786E-009  0.4778727E+02  0.7816164E-02  0.1312668E+00
        -11   -1    0    0    0    0  0.00000000000E+00  0.00000000000E+00  0.45593999997E+02  0.45594000000E+02  0.51100000000E-03 0. -1.
         11   -1    0    0    0    0 -0.00000000000E+00 -0.00000000000E+00 -0.45593999997E+02  0.45594000000E+02  0.51100000000E-03 0.  1.
    9900012    2    1    2    0    0 -0.98511684001E+01  0.40394216801E+02  0.12445284670E+02  0.47787269818E+02  0.19999994408E+02 0.  0.
        -12    1    1    2    0    0  0.98511684001E+01 -0.40394216801E+02 -0.12445284670E+02  0.43400730182E+02  0.00000000000E+00 0.  1.
         11    1    3    3    0    0 -0.45268047780E+01  0.24373019229E+02  0.72912490302E+01  0.25839859530E+02  0.51100000000E-03 0. -1.
        -11    1    3    3    0    0  0.13078033528E+01  0.44520527881E+01  0.70888306372E+01  0.84724638508E+01  0.51100000000E-03 0.  1.
         12    1    3    3    0    0 -0.66321669750E+01  0.11569144784E+02 -0.19347949972E+01  0.13474946438E+02  0.00000000000E+00 0. -1.
</event>
<event>
 7    1  0.1542786E-009  0.4778727E+02  0.7816164E-02  0.1312668E+00
        -11   -1    0    0    0    0  0.00000000000E+00  0.00000000000E+00  0.45593999997E+02  0.45594000000E+02  0.51100000000E-03 0.  1.
         11   -1    0    0    0    0 -0.00000000000E+00 -0.00000000000E+00 -0.45593999997E+02  0.45594000000E+02  0.51100000000E-03 0. -1.
    9900012    2    1    2    0    0  0.37078694133E+00  0.23302433386E+02 -0.36612604340E+02  0.47787266351E+02  0.19999978602E+02 0.  0.
        -12    1    1    2    0    0 -0.37078694133E+00 -0.23302433386E+02  0.36612604340E+02  0.43400733649E+02  0.00000000000E+00 0.  1.
         11    1    3    3    0    0 -0.40200130848E+01  0.73247624906E+01 -0.64609880841E+01  0.10562055578E+02  0.51100000000E-03 0. -1.
        -11    1    3    3    0    0  0.51110547780E+01  0.16115499021E+02 -0.31465872072E+02  0.35720208498E+02  0.51100000000E-03 0.  1.
        -12    1    3    3    0    0 -0.72025475185E+00 -0.13782812474E+00  0.13142558160E+01  0.15050022756E+01  0.00000000000E+00 0.  1.
</event>
<event>
 7    1  0.1542786E-009  0.4778727E+02  0.7816164E-02  0.1312668E+00
        -11   -1    0    0    0    0  0.00000000000E+00  0.00000000000E+00  0.45593999997E+02  0.45594000000E+02  0.51100000000E-03 0.  1.
         11   -1    0    0    0    0 -0.00000000000E+00 -0.00000000000E+00 -0.45593999997E+02  0.45594000000E+02  0.51100000000E-03 0. -1.
    9900012    2    1    2    0    0  0.28291954679E+02  0.13903837157E+02 -0.29830721023E+02  0.47787270697E+02  0.19999998418E+02 0.  0.
        -12    1    1    2    0    0 -0.28291954679E+02 -0.13903837157E+02  0.29830721023E+02  0.43400729303E+02  0.00000000000E+00 0.  1.
         11    1    3    3    0    0  0.94242736561E+00  0.65854900359E+01 -0.73150096909E+00  0.66926782592E+01  0.51100000000E-03 0.  1.
        -11    1    3    3    0    0  0.14257232090E+02  0.66819638818E+01 -0.18037834711E+02  0.23943282764E+02  0.51100000000E-03 0. -1.
        -12    1    3    3    0    0  0.13092295223E+02  0.63638323953E+00 -0.11061385343E+02  0.17151309674E+02  0.00000000000E+00 0.  1.
</event>
<event>
 7    1  0.1542786E-009  0.4778727E+02  0.7816164E-02  0.1312668E+00
        -11   -1    0    0    0    0  0.00000000000E+00  0.00000000000E+00  0.45593999997E+02  0.45594000000E+02  0.51100000000E-03 0. -1.
         11   -1    0    0    0    0 -0.00000000000E+00 -0.00000000000E+00 -0.45593999997E+02  0.45594000000E+02  0.51100000000E-03 0.  1.
    9900012    2    1    2    0    0 -0.26053721199E+02  0.47738536089E+01  0.34380772067E+02  0.47787267811E+02  0.19999985257E+02 0.  0.
        -12    1    1    2    0    0  0.26053721199E+02 -0.47738536089E+01 -0.34380772067E+02  0.43400732189E+02  0.00000000000E+00 0.  1.
         11    1    3    3    0    0  0.44932233280E+00 -0.11464980116E+01 -0.65179999180E+00  0.13932665717E+01  0.51100000000E-03 0.  1.
        -11    1    3    3    0    0 -0.20644710271E+02 -0.10285528842E+01  0.19609033124E+02  0.28491685867E+02  0.51100000000E-03 0. -1.
         12    1    3    3    0    0 -0.58583332607E+01  0.69489045047E+01  0.15423538935E+02  0.17902315372E+02  0.00000000000E+00 0. -1.
</event>
<event>
 7    1  0.1542786E-009  0.4778727E+02  0.7816164E-02  0.1312668E+00
        -11   -1    0    0    0    0  0.00000000000E+00  0.00000000000E+00  0.45593999997E+02  0.45594000000E+02  0.51100000000E-03 0.  1.
         11   -1    0    0    0    0 -0.00000000000E+00 -0.00000000000E+00 -0.45593999997E+02  0.45594000000E+02  0.51100000000E-03 0. -1.
    9900012    2    1    2    0    0  0.38013169586E+02  0.47174600549E-01 -0.20943264706E+02  0.47787267011E+02  0.19999981609E+02 0.  0.
        -12    1    1    2    0    0 -0.38013169586E+02 -0.47174600549E-01  0.20943264706E+02  0.43400732989E+02  0.00000000000E+00 0.  1.
         11    1    3    3    0    0 -0.13794199867E+01  0.59365660655E+00  0.11254634689E+00  0.15059530562E+01  0.51100000000E-03 0. -1.
        -11    1    3    3    0    0  0.11511329698E+01  0.26854412879E+00  0.14737795186E+01  0.18892457209E+01  0.51100000000E-03 0.  1.
         12    1    3    3    0    0  0.38241456603E+02 -0.81502613479E+00 -0.22529590572E+02  0.44392068234E+02  0.00000000000E+00 0. -1.
</event>
<event>
 7    1  0.1542786E-009  0.4778727E+02  0.7816164E-02  0.1312668E+00
        -11   -1    0    0    0    0  0.00000000000E+00  0.00000000000E+00  0.45593999997E+02  0.45594000000E+02  0.51100000000E-03 0.  1.
         11   -1    0    0    0    0 -0.00000000000E+00 -0.00000000000E+00 -0.45593999997E+02  0.45594000000E+02  0.51100000000E-03 0. -1.
    9900012    2    1    2    0    0  0.11699801363E+01  0.80734893242E+01 -0.42627142014E+02  0.47787270516E+02  0.19999997592E+02 0.  0.
        -12    1    1    2    0    0 -0.11699801363E+01 -0.80734893242E+01  0.42627142014E+02  0.43400729484E+02  0.00000000000E+00 0.  1.
         11    1    3    3    0    0  0.42381413012E+01  0.16597266791E+01 -0.17367400521E+02  0.17953916995E+02  0.51100000000E-03 0. -1.
        -11    1    3    3    0    0 -0.48609176311E+01  0.97363366182E+01 -0.22971176940E+02  0.25418492112E+02  0.51100000000E-03 0.  1.
        -12    1    3    3    0    0  0.17927564663E+01 -0.33225739731E+01 -0.22885645537E+01  0.44148614101E+01  0.00000000000E+00 0.  1.
</event>
<event>
 7    1  0.1542786E-009  0.4778728E+02  0.7816164E-02  0.1312668E+00
        -11   -1    0    0    0    0  0.00000000000E+00  0.00000000000E+00  0.45593999997E+02  0.45594000000E+02  0.51100000000E-03 0.  1.
         11   -1    0    0    0    0 -0.00000000000E+00 -0.00000000000E+00 -0.45593999997E+02  0.45594000000E+02  0.51100000000E-03 0. -1.
    9900012    2    1    2    0    0  0.24094583303E+01  0.42509915373E+02  0.84097878609E+01  0.47787275049E+02  0.20000018257E+02 0.  0.
        -12    1    1    2    0    0 -0.24094583303E+01 -0.42509915373E+02 -0.84097878609E+01  0.43400724951E+02  0.00000000000E+00 0.  1.
         11    1    3    3    0    0  0.52676657531E+01  0.32469681750E+02  0.40186792561E+01  0.33138773644E+02  0.51100000000E-03 0. -1.
        -11    1    3    3    0    0 -0.22091783848E+00  0.77849886217E+01  0.68690249686E+01  0.10384524872E+02  0.51100000000E-03 0.  1.
        -12    1    3    3    0    0 -0.26372895844E+01  0.22552450011E+01 -0.24779163638E+01  0.42639765328E+01  0.00000000000E+00 0.  1.
</event>
<event>
 7    1  0.1542786E-009  0.4778727E+02  0.7816164E-02  0.1312668E+00
        -11   -1    0    0    0    0  0.00000000000E+00  0.00000000000E+00  0.45593999997E+02  0.45594000000E+02  0.51100000000E-03 0.  1.
         11   -1    0    0    0    0 -0.00000000000E+00 -0.00000000000E+00 -0.45593999997E+02  0.45594000000E+02  0.51100000000E-03 0. -1.
    9900012    2    1    2    0    0 -0.74141457595E+01 -0.33753910905E+02 -0.26255041620E+02  0.47787271098E+02  0.20000000246E+02 0.  0.
        -12    1    1    2    0    0  0.74141457595E+01  0.33753910905E+02  0.26255041620E+02  0.43400728902E+02  0.00000000000E+00 0.  1.
         11    1    3    3    0    0 -0.71031508121E+01 -0.28747769014E+02 -0.15441172604E+02  0.33396388823E+02  0.51100000000E-03 0. -1.
        -11    1    3    3    0    0 -0.37548014274E+01 -0.54185534985E+00 -0.35504640450E+01  0.51959538273E+01  0.51100000000E-03 0.  1.
        -12    1    3    3    0    0  0.34438064801E+01 -0.44642865408E+01 -0.72634049713E+01  0.91949284482E+01  0.00000000000E+00 0.  1.
</event>
<event>
 7    1  0.1542786E-009  0.4778726E+02  0.7816164E-02  0.1312668E+00
        -11   -1    0    0    0    0  0.00000000000E+00  0.00000000000E+00  0.45593999997E+02  0.45594000000E+02  0.51100000000E-03 0.  1.
         11   -1    0    0    0    0 -0.00000000000E+00 -0.00000000000E+00 -0.45593999997E+02  0.45594000000E+02  0.51100000000E-03 0. -1.
    9900012    2    1    2    0    0  0.89905292171E+01 -0.28757541762E+02 -0.31237765803E+02  0.47787264567E+02  0.19999970465E+02 0.  0.
        -12    1    1    2    0    0 -0.89905292171E+01  0.28757541762E+02  0.31237765803E+02  0.43400735433E+02  0.00000000000E+00 0.  1.
         11    1    3    3    0    0  0.25922838355E+01 -0.16462452947E+02 -0.14130548130E+02  0.21849592290E+02  0.51100000000E-03 0. -1.
        -11    1    3    3    0    0 -0.34329385588E+01  0.23693699310E+00 -0.42464007361E+01  0.54656313231E+01  0.51100000000E-03 0.  1.
         12    1    3    3    0    0  0.98311839404E+01 -0.12532025808E+02 -0.12860816937E+02  0.20472040954E+02  0.00000000000E+00 0. -1.
</event>
<event>
 7    1  0.1542786E-009  0.4778727E+02  0.7816164E-02  0.1312668E+00
        -11   -1    0    0    0    0  0.00000000000E+00  0.00000000000E+00  0.45593999997E+02  0.45594000000E+02  0.51100000000E-03 0.  1.
         11   -1    0    0    0    0 -0.00000000000E+00 -0.00000000000E+00 -0.45593999997E+02  0.45594000000E+02  0.51100000000E-03 0. -1.
    9900012    2    1    2    0    0 -0.40685959506E+02 -0.10726433865E+02 -0.10640466481E+02  0.47787271765E+02  0.20000003285E+02 0.  0.
        -12    1    1    2    0    0  0.40685959506E+02  0.10726433865E+02  0.10640466481E+02  0.43400728235E+02  0.00000000000E+00 0.  1.
         11    1    3    3    0    0 -0.20528223852E+02 -0.35096746565E+01 -0.45943453594E+01  0.21326832870E+02  0.51100000000E-03 0. -1.
        -11    1    3    3    0    0 -0.15876630280E+02 -0.58386900239E+01  0.22088796947E+01  0.17059801875E+02  0.51100000000E-03 0.  1.
         12    1    3    3    0    0 -0.42811053736E+01 -0.13780691850E+01 -0.82550008167E+01  0.94006370200E+01  0.00000000000E+00 0. -1.
</event>
<event>
 7    1  0.1542786E-009  0.4778726E+02  0.7816164E-02  0.1312668E+00
        -11   -1    0    0    0    0  0.00000000000E+00  0.00000000000E+00  0.45593999997E+02  0.45594000000E+02  0.51100000000E-03 0.  1.
         11   -1    0    0    0    0 -0.00000000000E+00 -0.00000000000E+00 -0.45593999997E+02  0.45594000000E+02  0.51100000000E-03 0. -1.
    9900012    2    1    2    0    0  0.29918565928E+02 -0.19409644459E+01 -0.31380502226E+02  0.47787264405E+02  0.19999969729E+02 0.  0.
        -12    1    1    2    0    0 -0.29918565928E+02  0.19409644459E+01  0.31380502226E+02  0.43400735595E+02  0.00000000000E+00 0.  1.
         11    1    3    3    0    0  0.20612725851E+02  0.80949184859E+01 -0.19817488035E+02  0.29717755712E+02  0.51100000000E-03 0.  1.
        -11    1    3    3    0    0  0.44416056569E+01 -0.41763168813E+01 -0.37428347994E+01  0.71539007613E+01  0.51100000000E-03 0. -1.
        -12    1    3    3    0    0  0.48642344207E+01 -0.58595660505E+01 -0.78201793923E+01  0.10915607932E+02  0.00000000000E+00 0.  1.
</event>
<event>
 7    1  0.1542786E-009  0.4778722E+02  0.7816164E-02  0.1312668E+00
        -11   -1    0    0    0    0  0.00000000000E+00  0.00000000000E+00  0.45593999997E+02  0.45594000000E+02  0.51100000000E-03 0.  1.
         11   -1    0    0    0    0 -0.00000000000E+00 -0.00000000000E+00 -0.45593999997E+02  0.45594000000E+02  0.51100000000E-03 0. -1.
    9900012    2    1    2    0    0 -0.13396283014E+02 -0.29642735506E+02 -0.28731083193E+02  0.47787224566E+02  0.19999788085E+02 0.  0.
        -12    1    1    2    0    0  0.13396283014E+02  0.29642735506E+02  0.28731083193E+02  0.43400775434E+02  0.00000000000E+00 0.  1.
         11    1    3    3    0    0 -0.50341086963E+01 -0.12389703663E+02 -0.49641914871E+01  0.14264999285E+02  0.51100000000E-03 0. -1.
        -11    1    3    3    0    0 -0.13141045227E+01  0.20741234804E+01 -0.57660748430E+00  0.25221687811E+01  0.51100000000E-03 0.  1.
         12    1    3    3    0    0 -0.70480697954E+01 -0.19327155323E+02 -0.23190284221E+02  0.31000056499E+02  0.00000000000E+00 0. -1.
</event>
<event>
 7    1  0.1542786E-009  0.4778727E+02  0.7816164E-02  0.1312668E+00
        -11   -1    0    0    0    0  0.00000000000E+00  0.00000000000E+00  0.45593999997E+02  0.45594000000E+02  0.51100000000E-03 0.  1.
         11   -1    0    0    0    0 -0.00000000000E+00 -0.00000000000E+00 -0.45593999997E+02  0.45594000000E+02  0.51100000000E-03 0. -1.
    9900012    2    1    2    0    0  0.60456680899E+01  0.20450249368E+02 -0.37800273132E+02  0.47787269007E+02  0.19999990709E+02 0.  0.
        -12    1    1    2    0    0 -0.60456680899E+01 -0.20450249368E+02  0.37800273132E+02  0.43400730993E+02  0.00000000000E+00 0.  1.
         11    1    3    3    0    0  0.91621143988E+01  0.62749836592E+01 -0.12615354399E+02  0.16806752424E+02  0.51100000000E-03 0. -1.
        -11    1    3    3    0    0 -0.48546121926E+00  0.16956796653E+01 -0.13714036699E+02  0.13826995515E+02  0.51100000000E-03 0.  1.
         12    1    3    3    0    0 -0.26309850896E+01  0.12479586044E+02 -0.11470882034E+02  0.17153521067E+02  0.00000000000E+00 0. -1.
</event>
<event>
 7    1  0.1542786E-009  0.4778727E+02  0.7816164E-02  0.1312668E+00
        -11   -1    0    0    0    0  0.00000000000E+00  0.00000000000E+00  0.45593999997E+02  0.45594000000E+02  0.51100000000E-03 0.  1.
         11   -1    0    0    0    0 -0.00000000000E+00 -0.00000000000E+00 -0.45593999997E+02  0.45594000000E+02  0.51100000000E-03 0. -1.
    9900012    2    1    2    0    0 -0.30818184598E+01  0.83405654632E-01 -0.43291094504E+02  0.47787269304E+02  0.19999992066E+02 0.  0.
        -12    1    1    2    0    0  0.30818184598E+01 -0.83405654632E-01  0.43291094504E+02  0.43400730696E+02  0.00000000000E+00 0.  1.
         11    1    3    3    0    0  0.40200621693E+01 -0.77246467065E+01 -0.26984008041E+02  0.28354325187E+02  0.51100000000E-03 0. -1.
        -11    1    3    3    0    0 -0.25727603206E+01  0.30098134660E+01 -0.65676099420E+01  0.76688704108E+01  0.51100000000E-03 0.  1.
         12    1    3    3    0    0 -0.45291203085E+01  0.47982388951E+01 -0.97394765211E+01  0.11764073706E+02  0.00000000000E+00 0. -1.
</event>
<event>
 7    1  0.1542786E-009  0.4778727E+02  0.7816164E-02  0.1312668E+00
        -11   -1    0    0    0    0  0.00000000000E+00  0.00000000000E+00  0.45593999997E+02  0.45594000000E+02  0.51100000000E-03 0. -1.
         11   -1    0    0    0    0 -0.00000000000E+00 -0.00000000000E+00 -0.45593999997E+02  0.45594000000E+02  0.51100000000E-03 0.  1.
    9900012    2    1    2    0    0 -0.21708129498E+02 -0.35231534898E+02  0.13081267952E+02  0.47787268338E+02  0.19999987660E+02 0.  0.
        -12    1    1    2    0    0  0.21708129498E+02  0.35231534898E+02 -0.13081267952E+02  0.43400731662E+02  0.00000000000E+00 0.  1.
         11    1    3    3    0    0 -0.45979479683E+01 -0.21542019986E+01  0.54819836802E+01  0.74722056383E+01  0.51100000000E-03 0. -1.
        -11    1    3    3    0    0 -0.16393648311E+02 -0.28124430247E+02  0.10888663954E+02  0.34326349714E+02  0.51100000000E-03 0.  1.
        -12    1    3    3    0    0 -0.71653321806E+00 -0.49529026521E+01 -0.32893796823E+01  0.59887129860E+01  0.00000000000E+00 0.  1.
</event>
<event>
 7    1  0.1542786E-009  0.4778727E+02  0.7816164E-02  0.1312668E+00
        -11   -1    0    0    0    0  0.00000000000E+00  0.00000000000E+00  0.45593999997E+02  0.45594000000E+02  0.51100000000E-03 0.  1.
         11   -1    0    0    0    0 -0.00000000000E+00 -0.00000000000E+00 -0.45593999997E+02  0.45594000000E+02  0.51100000000E-03 0. -1.
    9900012    2    1    2    0    0 -0.25274897930E+02 -0.10884494606E+02 -0.33560854944E+02  0.47787266449E+02  0.19999979048E+02 0.  0.
        -12    1    1    2    0    0  0.25274897930E+02  0.10884494606E+02  0.33560854944E+02  0.43400733551E+02  0.00000000000E+00 0.  1.
         11    1    3    3    0    0 -0.22480900082E+02 -0.12919536983E+02 -0.25060874901E+02  0.36060404260E+02  0.51100000000E-03 0. -1.
        -11    1    3    3    0    0 -0.18963865351E+01  0.13375283941E+01  0.72567720277E+00  0.24314340952E+01  0.51100000000E-03 0.  1.
        -12    1    3    3    0    0 -0.89761131302E+00  0.69751398374E+00 -0.92256572456E+01  0.92954280934E+01  0.00000000000E+00 0.  1.
</event>
<event>
 7    1  0.1542786E-009  0.4778727E+02  0.7816164E-02  0.1312668E+00
        -11   -1    0    0    0    0  0.00000000000E+00  0.00000000000E+00  0.45593999997E+02  0.45594000000E+02  0.51100000000E-03 0.  1.
         11   -1    0    0    0    0 -0.00000000000E+00 -0.00000000000E+00 -0.45593999997E+02  0.45594000000E+02  0.51100000000E-03 0. -1.
    9900012    2    1    2    0    0 -0.19968867431E+02 -0.12331832785E+02 -0.36507445916E+02  0.47787269895E+02  0.19999994760E+02 0.  0.
        -12    1    1    2    0    0  0.19968867431E+02  0.12331832785E+02  0.36507445916E+02  0.43400730105E+02  0.00000000000E+00 0.  1.
         11    1    3    3    0    0 -0.43815381292E+01  0.82434636085E+00 -0.16640057048E+02  0.17226982386E+02  0.51100000000E-03 0. -1.
        -11    1    3    3    0    0  0.58812385215E+00  0.10229487824E+01  0.13419981976E+00  0.11875705156E+01  0.51100000000E-03 0.  1.
        -12    1    3    3    0    0 -0.16175453154E+02 -0.14179127929E+02 -0.20001588687E+02  0.29372716994E+02  0.00000000000E+00 0.  1.
</event>
<event>
 7    1  0.1542786E-009  0.4778727E+02  0.7816164E-02  0.1312668E+00
        -11   -1    0    0    0    0  0.00000000000E+00  0.00000000000E+00  0.45593999997E+02  0.45594000000E+02  0.51100000000E-03 0.  1.
         11   -1    0    0    0    0 -0.00000000000E+00 -0.00000000000E+00 -0.45593999997E+02  0.45594000000E+02  0.51100000000E-03 0. -1.
    9900012    2    1    2    0    0 -0.17667736628E+02  0.38939723425E+02 -0.74277874990E+01  0.47787274141E+02  0.20000014119E+02 0.  0.
        -12    1    1    2    0    0  0.17667736628E+02 -0.38939723425E+02  0.74277874990E+01  0.43400725859E+02  0.00000000000E+00 0.  1.
         11    1    3    3    0    0 -0.15046944997E+02  0.19967748631E+02 -0.37924137205E+01  0.25288415158E+02  0.51100000000E-03 0. -1.
        -11    1    3    3    0    0 -0.59129477828E+01  0.12903348361E+02 -0.56958472919E+01  0.15293855859E+02  0.51100000000E-03 0.  1.
        -12    1    3    3    0    0  0.32921561522E+01  0.60686264331E+01  0.20604735134E+01  0.72050031238E+01  0.00000000000E+00 0.  1.
</event>
<event>
 7    1  0.1542786E-009  0.4778727E+02  0.7816164E-02  0.1312668E+00
        -11   -1    0    0    0    0  0.00000000000E+00  0.00000000000E+00  0.45593999997E+02  0.45594000000E+02  0.51100000000E-03 0.  1.
         11   -1    0    0    0    0 -0.00000000000E+00 -0.00000000000E+00 -0.45593999997E+02  0.45594000000E+02  0.51100000000E-03 0. -1.
    9900012    2    1    2    0    0 -0.23224363086E+02 -0.14864374184E+02 -0.33515703535E+02  0.47787273692E+02  0.20000012070E+02 0.  0.
        -12    1    1    2    0    0  0.23224363086E+02  0.14864374184E+02  0.33515703535E+02  0.43400726308E+02  0.00000000000E+00 0.  1.
         11    1    3    3    0    0 -0.83870021922E+00 -0.31529656988E+00 -0.67529031895E+01  0.68120871789E+01  0.51100000000E-03 0. -1.
        -11    1    3    3    0    0 -0.24653353832E+02 -0.12832297591E+02 -0.22079755045E+02  0.35496074428E+02  0.51100000000E-03 0.  1.
        -12    1    3    3    0    0  0.22676909652E+01 -0.17167800227E+01 -0.46830453001E+01  0.54791120853E+01  0.00000000000E+00 0.  1.
</event>
<event>
 7    1  0.1542786E-009  0.4778728E+02  0.7816164E-02  0.1312668E+00
        -11   -1    0    0    0    0  0.00000000000E+00  0.00000000000E+00  0.45593999997E+02  0.45594000000E+02  0.51100000000E-03 0.  1.
         11   -1    0    0    0    0 -0.00000000000E+00 -0.00000000000E+00 -0.45593999997E+02  0.45594000000E+02  0.51100000000E-03 0. -1.
    9900012    2    1    2    0    0 -0.71197823967E+01 -0.38889345307E+02 -0.17903914578E+02  0.47787278381E+02  0.20000033450E+02 0.  0.
        -12    1    1    2    0    0  0.71197823967E+01  0.38889345307E+02  0.17903914578E+02  0.43400721619E+02  0.00000000000E+00 0.  1.
         11    1    3    3    0    0 -0.38471921785E+00 -0.21944809891E+02 -0.80417685169E+01  0.23375045052E+02  0.51100000000E-03 0. -1.
        -11    1    3    3    0    0 -0.30779058795E+00 -0.12431184917E+02 -0.85848376981E+00  0.12464593380E+02  0.51100000000E-03 0.  1.
        -12    1    3    3    0    0 -0.64272725909E+01 -0.45133504993E+01 -0.90036622918E+01  0.11947639949E+02  0.00000000000E+00 0.  1.
</event>
<event>
 7    1  0.1542786E-009  0.4778728E+02  0.7816164E-02  0.1312668E+00
        -11   -1    0    0    0    0  0.00000000000E+00  0.00000000000E+00  0.45593999997E+02  0.45594000000E+02  0.51100000000E-03 0.  1.
         11   -1    0    0    0    0 -0.00000000000E+00 -0.00000000000E+00 -0.45593999997E+02  0.45594000000E+02  0.51100000000E-03 0. -1.
    9900012    2    1    2    0    0 -0.22731183420E+02  0.29235809639E+02 -0.22631473754E+02  0.47787275707E+02  0.20000021257E+02 0.  0.
        -12    1    1    2    0    0  0.22731183420E+02 -0.29235809639E+02  0.22631473754E+02  0.43400724293E+02  0.00000000000E+00 0.  1.
         11    1    3    3    0    0  0.23674999233E+01  0.37225875186E+01 -0.69659565421E+01  0.82454390137E+01  0.51100000000E-03 0.  1.
        -11    1    3    3    0    0 -0.87450542667E+01  0.13060925619E+02 -0.76283810715E+01  0.17471575492E+02  0.51100000000E-03 0. -1.
        -12    1    3    3    0    0 -0.16353629077E+02  0.12452296501E+02 -0.80371361406E+01  0.22070261201E+02  0.00000000000E+00 0.  1.
</event>
<event>
 7    1  0.1542786E-009  0.4778727E+02  0.7816164E-02  0.1312668E+00
        -11   -1    0    0    0    0  0.00000000000E+00  0.00000000000E+00  0.45593999997E+02  0.45594000000E+02  0.51100000000E-03 0.  1.
         11   -1    0    0    0    0 -0.00000000000E+00 -0.00000000000E+00 -0.45593999997E+02  0.45594000000E+02  0.51100000000E-03 0. -1.
    9900012    2    1    2    0    0 -0.12540129365E+02 -0.41441218537E+02 -0.29989561685E+01  0.47787272167E+02  0.20000005120E+02 0.  0.
        -12    1    1    2    0    0  0.12540129365E+02  0.41441218537E+02  0.29989561685E+01  0.43400727833E+02  0.00000000000E+00 0.  1.
         11    1    3    3    0    0 -0.14286722804E+01  0.10603088941E+01 -0.17831401735E+01  0.25189181358E+01  0.51100000000E-03 0. -1.
        -11    1    3    3    0    0  0.12027838348E+01 -0.13255929473E+01  0.13072462640E+01  0.22164788903E+01  0.51100000000E-03 0.  1.
         12    1    3    3    0    0 -0.12314240919E+02 -0.41175934484E+02 -0.25230622590E+01  0.43051875141E+02  0.00000000000E+00 0. -1.
</event>
<event>
 7    1  0.1542786E-009  0.4778723E+02  0.7816164E-02  0.1312668E+00
        -11   -1    0    0    0    0  0.00000000000E+00  0.00000000000E+00  0.45593999997E+02  0.45594000000E+02  0.51100000000E-03 0.  1.
         11   -1    0    0    0    0 -0.00000000000E+00 -0.00000000000E+00 -0.45593999997E+02  0.45594000000E+02  0.51100000000E-03 0. -1.
    9900012    2    1    2    0    0 -0.25697225662E+02 -0.19704584343E+02  0.28896520599E+02  0.47787228652E+02  0.19999806716E+02 0.  0.
        -12    1    1    2    0    0  0.25697225662E+02  0.19704584343E+02 -0.28896520599E+02  0.43400771348E+02  0.00000000000E+00 0.  1.
         11    1    3    3    0    0 -0.33378358655E+01 -0.89310178295E+01  0.11009577660E+01  0.95977255639E+01  0.51100000000E-03 0. -1.
        -11    1    3    3    0    0 -0.16703321909E+02 -0.93035603072E+01  0.15637922632E+02  0.24700239304E+02  0.51100000000E-03 0.  1.
         12    1    3    3    0    0 -0.56560678882E+01 -0.14700062063E+01  0.12157640200E+02  0.13489263784E+02  0.00000000000E+00 0. -1.
</event>
<event>
 7    1  0.1542786E-009  0.4778727E+02  0.7816164E-02  0.1312668E+00
        -11   -1    0    0    0    0  0.00000000000E+00  0.00000000000E+00  0.45593999997E+02  0.45594000000E+02  0.51100000000E-03 0.  1.
         11   -1    0    0    0    0 -0.00000000000E+00 -0.00000000000E+00 -0.45593999997E+02  0.45594000000E+02  0.51100000000E-03 0. -1.
    9900012    2    1    2    0    0 -0.38631244423E+02 -0.12100652772E+02 -0.15646856882E+02  0.47787274505E+02  0.20000015780E+02 0.  0.
        -12    1    1    2    0    0  0.38631244423E+02  0.12100652772E+02  0.15646856882E+02  0.43400725495E+02  0.00000000000E+00 0.  1.
         11    1    3    3    0    0 -0.18277852566E+02 -0.57421967721E+01 -0.21506868651E+01  0.19278956726E+02  0.51100000000E-03 0. -1.
        -11    1    3    3    0    0 -0.14640042746E+02 -0.89516428709E+01 -0.14093525633E+02  0.22205635021E+02  0.51100000000E-03 0.  1.
         12    1    3    3    0    0 -0.57133491110E+01  0.25931868713E+01  0.59735561537E+00  0.63026827577E+01  0.00000000000E+00 0. -1.
</event>
<event>
 7    1  0.1542786E-009  0.4778727E+02  0.7816164E-02  0.1312668E+00
        -11   -1    0    0    0    0  0.00000000000E+00  0.00000000000E+00  0.45593999997E+02  0.45594000000E+02  0.51100000000E-03 0. -1.
         11   -1    0    0    0    0 -0.00000000000E+00 -0.00000000000E+00 -0.45593999997E+02  0.45594000000E+02  0.51100000000E-03 0.  1.
    9900012    2    1    2    0    0  0.47316073189E+01  0.22111821727E+02  0.37044598647E+02  0.47787273545E+02  0.20000011402E+02 0.  0.
        -12    1    1    2    0    0 -0.47316073189E+01 -0.22111821727E+02 -0.37044598647E+02  0.43400726455E+02  0.00000000000E+00 0.  1.
         11    1    3    3    0    0 -0.14068853766E+01  0.36384480420E+01  0.11490315927E+02  0.12134454705E+02  0.51100000000E-03 0. -1.
        -11    1    3    3    0    0 -0.38335180439E+01  0.33432442513E+00  0.63032296583E+01  0.73850076372E+01  0.51100000000E-03 0.  1.
        -12    1    3    3    0    0  0.99720107394E+01  0.18139049260E+02  0.19251053061E+02  0.28267811203E+02  0.00000000000E+00 0.  1.
</event>
<event>
 7    1  0.1542786E-009  0.4778727E+02  0.7816164E-02  0.1312668E+00
        -11   -1    0    0    0    0  0.00000000000E+00  0.00000000000E+00  0.45593999997E+02  0.45594000000E+02  0.51100000000E-03 0. -1.
         11   -1    0    0    0    0 -0.00000000000E+00 -0.00000000000E+00 -0.45593999997E+02  0.45594000000E+02  0.51100000000E-03 0.  1.
    9900012    2    1    2    0    0  0.72981718783E+01 -0.41236924959E+02  0.11396316921E+02  0.47787270373E+02  0.19999996937E+02 0.  0.
        -12    1    1    2    0    0 -0.72981718783E+01  0.41236924959E+02 -0.11396316921E+02  0.43400729627E+02  0.00000000000E+00 0.  1.
         11    1    3    3    0    0 -0.16921109426E+01 -0.85322656084E+01  0.52367597842E+01  0.10153149716E+02  0.51100000000E-03 0. -1.
        -11    1    3    3    0    0  0.12151162281E+02 -0.30958131775E+02  0.68547648208E+01  0.33956508490E+02  0.51100000000E-03 0.  1.
        -12    1    3    3    0    0 -0.31608794597E+01 -0.17465275750E+01 -0.69520768422E+00  0.36776121673E+01  0.00000000000E+00 0.  1.
</event>
<event>
 7    1  0.1542786E-009  0.4778727E+02  0.7816164E-02  0.1312668E+00
        -11   -1    0    0    0    0  0.00000000000E+00  0.00000000000E+00  0.45593999997E+02  0.45594000000E+02  0.51100000000E-03 0.  1.
         11   -1    0    0    0    0 -0.00000000000E+00 -0.00000000000E+00 -0.45593999997E+02  0.45594000000E+02  0.51100000000E-03 0. -1.
    9900012    2    1    2    0    0  0.21418014136E+02  0.34277752282E+02 -0.15809104122E+02  0.47787269544E+02  0.19999993157E+02 0.  0.
        -12    1    1    2    0    0 -0.21418014136E+02 -0.34277752282E+02  0.15809104122E+02  0.43400730456E+02  0.00000000000E+00 0.  1.
         11    1    3    3    0    0  0.10375739594E+02  0.21386803760E+02 -0.10331749538E+02  0.25919035398E+02  0.51100000000E-03 0. -1.
        -11    1    3    3    0    0  0.13441785644E+02  0.10035959138E+02 -0.22289993431E+01  0.16922485499E+02  0.51100000000E-03 0.  1.
        -12    1    3    3    0    0 -0.23995111016E+01  0.28549893837E+01 -0.32483552414E+01  0.49457486473E+01  0.00000000000E+00 0.  1.
</event>
<event>
 7    1  0.1542786E-009  0.4778727E+02  0.7816164E-02  0.1312668E+00
        -11   -1    0    0    0    0  0.00000000000E+00  0.00000000000E+00  0.45593999997E+02  0.45594000000E+02  0.51100000000E-03 0.  1.
         11   -1    0    0    0    0 -0.00000000000E+00 -0.00000000000E+00 -0.45593999997E+02  0.45594000000E+02  0.51100000000E-03 0. -1.
    9900012    2    1    2    0    0  0.25155484664E+02 -0.29445095453E+02 -0.19591103295E+02  0.47787269785E+02  0.19999994258E+02 0.  0.
        -12    1    1    2    0    0 -0.25155484664E+02  0.29445095453E+02  0.19591103295E+02  0.43400730215E+02  0.00000000000E+00 0.  1.
         11    1    3    3    0    0  0.10596470957E+02 -0.34497681163E+01 -0.68201418327E+01  0.13065237528E+02  0.51100000000E-03 0. -1.
        -11    1    3    3    0    0  0.97335251853E+01 -0.18436347691E+02 -0.14750102481E+02  0.25538323206E+02  0.51100000000E-03 0.  1.
         12    1    3    3    0    0  0.48254885216E+01 -0.75589796452E+01  0.19791410193E+01  0.91837090504E+01  0.00000000000E+00 0. -1.
</event>
<event>
 7    1  0.1542786E-009  0.4778726E+02  0.7816164E-02  0.1312668E+00
        -11   -1    0    0    0    0  0.00000000000E+00  0.00000000000E+00  0.45593999997E+02  0.45594000000E+02  0.51100000000E-03 0. -1.
         11   -1    0    0    0    0 -0.00000000000E+00 -0.00000000000E+00 -0.45593999997E+02  0.45594000000E+02  0.51100000000E-03 0.  1.
    9900012    2    1    2    0    0  0.70945505094E+01  0.42747029633E+02 -0.24460326393E+01  0.47787259625E+02  0.19999947935E+02 0.  0.
        -12    1    1    2    0    0 -0.70945505094E+01 -0.42747029633E+02  0.24460326393E+01  0.43400740375E+02  0.00000000000E+00 0.  1.
         11    1    3    3    0    0 -0.88200342112E+00  0.33439767050E+02 -0.48653907652E+01  0.33803372287E+02  0.51100000000E-03 0. -1.
        -11    1    3    3    0    0  0.90266153421E+00  0.40659561693E+01 -0.13903917621E+01  0.43908981916E+01  0.51100000000E-03 0.  1.
        -12    1    3    3    0    0  0.70738923963E+01  0.52413064139E+01  0.38097498881E+01  0.95929891467E+01  0.00000000000E+00 0.  1.
</event>
<event>
 7    1  0.1542786E-009  0.4778727E+02  0.7816164E-02  0.1312668E+00
        -11   -1    0    0    0    0  0.00000000000E+00  0.00000000000E+00  0.45593999997E+02  0.45594000000E+02  0.51100000000E-03 0.  1.
         11   -1    0    0    0    0 -0.00000000000E+00 -0.00000000000E+00 -0.45593999997E+02  0.45594000000E+02  0.51100000000E-03 0. -1.
    9900012    2    1    2    0    0 -0.39797835588E+01 -0.25151300935E+02 -0.35145367433E+02  0.47787268810E+02  0.19999989811E+02 0.  0.
        -12    1    1    2    0    0  0.39797835588E+01  0.25151300935E+02  0.35145367433E+02  0.43400731190E+02  0.00000000000E+00 0.  1.
         11    1    3    3    0    0  0.14697016558E+01 -0.10147488815E+02 -0.39686551179E+01  0.10994624864E+02  0.51100000000E-03 0. -1.
        -11    1    3    3    0    0 -0.44738857305E+01  0.19212749896E-01 -0.66850457187E+01  0.80439952251E+01  0.51100000000E-03 0.  1.
        -12    1    3    3    0    0 -0.97559948410E+00 -0.15023024870E+02 -0.24491666596E+02  0.28748648720E+02  0.00000000000E+00 0.  1.
</event>
<event>
 7    1  0.1542786E-009  0.4778725E+02  0.7816164E-02  0.1312668E+00
        -11   -1    0    0    0    0  0.00000000000E+00  0.00000000000E+00  0.45593999997E+02  0.45594000000E+02  0.51100000000E-03 0. -1.
         11   -1    0    0    0    0 -0.00000000000E+00 -0.00000000000E+00 -0.45593999997E+02  0.45594000000E+02  0.51100000000E-03 0.  1.
    9900012    2    1    2    0    0  0.37098560597E+02 -0.93047723157E+01  0.20512020031E+02  0.47787251712E+02  0.19999911856E+02 0.  0.
        -12    1    1    2    0    0 -0.37098560597E+02  0.93047723157E+01 -0.20512020031E+02  0.43400748288E+02  0.00000000000E+00 0.  1.
         11    1    3    3    0    0  0.14262599965E+02 -0.10488569624E+02  0.97640115332E+01  0.20218006133E+02  0.51100000000E-03 0. -1.
        -11    1    3    3    0    0  0.12472659275E+02 -0.15497187234E+01  0.25650019054E+00  0.12571183322E+02  0.51100000000E-03 0.  1.
        -12    1    3    3    0    0  0.10363301357E+02  0.27335160313E+01  0.10491508307E+02  0.14998062257E+02  0.00000000000E+00 0.  1.
</event>
<event>
 7    1  0.1542786E-009  0.4778727E+02  0.7816164E-02  0.1312668E+00
        -11   -1    0    0    0    0  0.00000000000E+00  0.00000000000E+00  0.45593999997E+02  0.45594000000E+02  0.51100000000E-03 0.  1.
         11   -1    0    0    0    0 -0.00000000000E+00 -0.00000000000E+00 -0.45593999997E+02  0.45594000000E+02  0.51100000000E-03 0. -1.
    9900012    2    1    2    0    0 -0.39727106936E+02  0.17297373918E+02 -0.24861198662E+01  0.47787274638E+02  0.20000016385E+02 0.  0.
        -12    1    1    2    0    0  0.39727106936E+02 -0.17297373918E+02  0.24861198662E+01  0.43400725362E+02  0.00000000000E+00 0.  1.
         11    1    3    3    0    0 -0.17370365328E+02  0.15044238972E+02 -0.79412123437E+01  0.24312991828E+02  0.51100000000E-03 0. -1.
        -11    1    3    3    0    0 -0.10911065892E+02  0.26263608062E+01  0.13255899127E+01  0.11300722050E+02  0.51100000000E-03 0.  1.
         12    1    3    3    0    0 -0.11445675716E+02 -0.37322586021E+00  0.41295025649E+01  0.12173560760E+02  0.00000000000E+00 0. -1.
</event>
<event>
 7    1  0.1542786E-009  0.4778728E+02  0.7816164E-02  0.1312668E+00
        -11   -1    0    0    0    0  0.00000000000E+00  0.00000000000E+00  0.45593999997E+02  0.45594000000E+02  0.51100000000E-03 0. -1.
         11   -1    0    0    0    0 -0.00000000000E+00 -0.00000000000E+00 -0.45593999997E+02  0.45594000000E+02  0.51100000000E-03 0.  1.
    9900012    2    1    2    0    0 -0.35093428185E+02 -0.23196553220E+02  0.10676783859E+02  0.47787279999E+02  0.20000040827E+02 0.  0.
        -12    1    1    2    0    0  0.35093428185E+02  0.23196553220E+02 -0.10676783859E+02  0.43400720001E+02  0.00000000000E+00 0.  1.
         11    1    3    3    0    0 -0.12643120782E+02  0.11118034874E+01  0.40011933515E+01  0.13307672922E+02  0.51100000000E-03 0. -1.
        -11    1    3    3    0    0 -0.75508046271E+01 -0.96362388347E+01  0.58096192455E+01  0.13550772134E+02  0.51100000000E-03 0.  1.
        -12    1    3    3    0    0 -0.14899502775E+02 -0.14672117872E+02  0.86597126215E+00  0.20928834942E+02  0.00000000000E+00 0.  1.
</event>
<event>
 7    1  0.1542786E-009  0.4778727E+02  0.7816164E-02  0.1312668E+00
        -11   -1    0    0    0    0  0.00000000000E+00  0.00000000000E+00  0.45593999997E+02  0.45594000000E+02  0.51100000000E-03 0.  1.
         11   -1    0    0    0    0 -0.00000000000E+00 -0.00000000000E+00 -0.45593999997E+02  0.45594000000E+02  0.51100000000E-03 0. -1.
    9900012    2    1    2    0    0  0.17407968815E+02  0.39249401646E+01 -0.39562366438E+02  0.47787269916E+02  0.19999994857E+02 0.  0.
        -12    1    1    2    0    0 -0.17407968815E+02 -0.39249401646E+01  0.39562366438E+02  0.43400730084E+02  0.00000000000E+00 0.  1.
         11    1    3    3    0    0 -0.21617362555E+01 -0.19758849306E+01 -0.67692557966E+01  0.73756389010E+01  0.51100000000E-03 0. -1.
        -11    1    3    3    0    0  0.35540355910E+00  0.21162589981E+01  0.79982001687E-01  0.21473847393E+01  0.51100000000E-03 0.  1.
         12    1    3    3    0    0  0.19214301512E+02  0.37845660971E+01 -0.32873092644E+02  0.38264246276E+02  0.00000000000E+00 0. -1.
</event>
<event>
 7    1  0.1542786E-009  0.4778727E+02  0.7816164E-02  0.1312668E+00
        -11   -1    0    0    0    0  0.00000000000E+00  0.00000000000E+00  0.45593999997E+02  0.45594000000E+02  0.51100000000E-03 0.  1.
         11   -1    0    0    0    0 -0.00000000000E+00 -0.00000000000E+00 -0.45593999997E+02  0.45594000000E+02  0.51100000000E-03 0. -1.
    9900012    2    1    2    0    0 -0.19491426739E+02 -0.34884435224E+02 -0.16934701431E+02  0.47787266714E+02  0.19999980254E+02 0.  0.
        -12    1    1    2    0    0  0.19491426739E+02  0.34884435224E+02  0.16934701431E+02  0.43400733286E+02  0.00000000000E+00 0.  1.
         11    1    3    3    0    0 -0.80596661078E+01 -0.74799462093E+01 -0.14484903453E+01  0.11090804191E+02  0.51100000000E-03 0. -1.
        -11    1    3    3    0    0 -0.92980108697E+00 -0.20841479399E+02 -0.10367103714E+02  0.23296107685E+02  0.51100000000E-03 0.  1.
         12    1    3    3    0    0 -0.10501959544E+02 -0.65630096159E+01 -0.51191073721E+01  0.13400354838E+02  0.00000000000E+00 0. -1.
</event>
<event>
 7    1  0.1542786E-009  0.4778731E+02  0.7816164E-02  0.1312668E+00
        -11   -1    0    0    0    0  0.00000000000E+00  0.00000000000E+00  0.45593999997E+02  0.45594000000E+02  0.51100000000E-03 0.  1.
         11   -1    0    0    0    0 -0.00000000000E+00 -0.00000000000E+00 -0.45593999997E+02  0.45594000000E+02  0.51100000000E-03 0. -1.
    9900012    2    1    2    0    0 -0.10440152622E+02 -0.79589625650E+01 -0.41367597681E+02  0.47787308649E+02  0.20000171453E+02 0.  0.
        -12    1    1    2    0    0  0.10440152622E+02  0.79589625650E+01  0.41367597681E+02  0.43400691351E+02  0.00000000000E+00 0.  1.
         11    1    3    3    0    0 -0.64633872026E+01 -0.78775258770E+01 -0.96097940287E+01  0.14006388885E+02  0.51100000000E-03 0.  1.
        -11    1    3    3    0    0 -0.53391324034E+01 -0.39988594030E+01 -0.24793066492E+02  0.25674761102E+02  0.51100000000E-03 0. -1.
        -12    1    3    3    0    0  0.13623669840E+01  0.39174227149E+01 -0.69647371604E+01  0.81061586612E+01  0.00000000000E+00 0.  1.
</event>
<event>
 7    1  0.1542786E-009  0.4778724E+02  0.7816164E-02  0.1312668E+00
        -11   -1    0    0    0    0  0.00000000000E+00  0.00000000000E+00  0.45593999997E+02  0.45594000000E+02  0.51100000000E-03 0. -1.
         11   -1    0    0    0    0 -0.00000000000E+00 -0.00000000000E+00 -0.45593999997E+02  0.45594000000E+02  0.51100000000E-03 0.  1.
    9900012    2    1    2    0    0 -0.76529682100E+01 -0.11288490137E+02  0.41202287005E+02  0.47787235186E+02  0.19999836507E+02 0.  0.
        -12    1    1    2    0    0  0.76529682100E+01  0.11288490137E+02 -0.41202287005E+02  0.43400764814E+02  0.00000000000E+00 0.  1.
         11    1    3    3    0    0 -0.24691973679E+01 -0.40822771457E+01  0.92049927798E+01  0.10367922389E+02  0.51100000000E-03 0. -1.
        -11    1    3    3    0    0 -0.10139799936E+02  0.13077689183E-01  0.21335414579E+02  0.23622354440E+02  0.51100000000E-03 0.  1.
         12    1    3    3    0    0  0.49560290939E+01 -0.72192906805E+01  0.10661879646E+02  0.13796958357E+02  0.00000000000E+00 0. -1.
</event>
<event>
 7    1  0.1542786E-009  0.4778727E+02  0.7816164E-02  0.1312668E+00
        -11   -1    0    0    0    0  0.00000000000E+00  0.00000000000E+00  0.45593999997E+02  0.45594000000E+02  0.51100000000E-03 0. -1.
         11   -1    0    0    0    0 -0.00000000000E+00 -0.00000000000E+00 -0.45593999997E+02  0.45594000000E+02  0.51100000000E-03 0.  1.
    9900012    2    1    2    0    0  0.31705006102E+02 -0.14284243009E+02  0.25968760116E+02  0.47787268299E+02  0.19999987480E+02 0.  0.
        -12    1    1    2    0    0 -0.31705006102E+02  0.14284243009E+02 -0.25968760116E+02  0.43400731701E+02  0.00000000000E+00 0.  1.
         11    1    3    3    0    0  0.12873556921E+02 -0.38452686703E+01  0.70503199440E+01  0.15173054094E+02  0.51100000000E-03 0.  1.
        -11    1    3    3    0    0  0.79223632200E+01 -0.57668934770E+01  0.18266497919E+02  0.20728865040E+02  0.51100000000E-03 0. -1.
        -12    1    3    3    0    0  0.10909085960E+02 -0.46720808617E+01  0.65194225334E+00  0.11885349165E+02  0.00000000000E+00 0.  1.
</event>
<event>
 7    1  0.1542786E-009  0.4778723E+02  0.7816164E-02  0.1312668E+00
        -11   -1    0    0    0    0  0.00000000000E+00  0.00000000000E+00  0.45593999997E+02  0.45594000000E+02  0.51100000000E-03 0.  1.
         11   -1    0    0    0    0 -0.00000000000E+00 -0.00000000000E+00 -0.45593999997E+02  0.45594000000E+02  0.51100000000E-03 0. -1.
    9900012    2    1    2    0    0 -0.19069649300E+02  0.38986035254E+02  0.25313039850E+00  0.47787233368E+02  0.19999828216E+02 0.  0.
        -12    1    1    2    0    0  0.19069649300E+02 -0.38986035254E+02 -0.25313039850E+00  0.43400766632E+02  0.00000000000E+00 0.  1.
         11    1    3    3    0    0 -0.86171941390E+01  0.15339988049E+02 -0.46209275963E+01  0.18191323214E+02  0.51100000000E-03 0. -1.
        -11    1    3    3    0    0 -0.47215707381E+01  0.89012227726E+00  0.37633983190E+01  0.61031725415E+01  0.51100000000E-03 0.  1.
         12    1    3    3    0    0 -0.57308844230E+01  0.22755924928E+02  0.11106596758E+01  0.23492737612E+02  0.00000000000E+00 0. -1.
</event>
<event>
 7    1  0.1542786E-009  0.4778729E+02  0.7816164E-02  0.1312668E+00
        -11   -1    0    0    0    0  0.00000000000E+00  0.00000000000E+00  0.45593999997E+02  0.45594000000E+02  0.51100000000E-03 0.  1.
         11   -1    0    0    0    0 -0.00000000000E+00 -0.00000000000E+00 -0.45593999997E+02  0.45594000000E+02  0.51100000000E-03 0. -1.
    9900012    2    1    2    0    0 -0.24921709062E+02 -0.20587899747E+02 -0.28959767027E+02  0.47787293729E+02  0.20000103426E+02 0.  0.
        -12    1    1    2    0    0  0.24921709062E+02  0.20587899747E+02  0.28959767027E+02  0.43400706271E+02  0.00000000000E+00 0.  1.
         11    1    3    3    0    0 -0.89068546616E+01 -0.61562971990E+01 -0.20766056494E+02  0.23419247591E+02  0.51100000000E-03 0. -1.
        -11    1    3    3    0    0 -0.19746791435E+01 -0.22377137931E+01  0.15617697215E+01  0.33683594915E+01  0.51100000000E-03 0.  1.
        -12    1    3    3    0    0 -0.14040175257E+02 -0.12193888755E+02 -0.97554802547E+01  0.20999686646E+02  0.00000000000E+00 0.  1.
</event>
<event>
 7    1  0.1542786E-009  0.4778727E+02  0.7816164E-02  0.1312668E+00
        -11   -1    0    0    0    0  0.00000000000E+00  0.00000000000E+00  0.45593999997E+02  0.45594000000E+02  0.51100000000E-03 0.  1.
         11   -1    0    0    0    0 -0.00000000000E+00 -0.00000000000E+00 -0.45593999997E+02  0.45594000000E+02  0.51100000000E-03 0. -1.
    9900012    2    1    2    0    0  0.27624114075E+01 -0.29575912577E+02 -0.31642652429E+02  0.47787274496E+02  0.20000015736E+02 0.  0.
        -12    1    1    2    0    0 -0.27624114075E+01  0.29575912577E+02  0.31642652429E+02  0.43400725504E+02  0.00000000000E+00 0.  1.
         11    1    3    3    0    0  0.34272967538E+01 -0.11390305888E+02 -0.43680946015E+01  0.12671451455E+02  0.51100000000E-03 0. -1.
        -11    1    3    3    0    0  0.19431402163E+01  0.10528223384E+01 -0.55854199971E+01  0.60067583256E+01  0.51100000000E-03 0.  1.
         12    1    3    3    0    0 -0.26080255626E+01 -0.19238429027E+02 -0.21689137831E+02  0.29109064716E+02  0.00000000000E+00 0. -1.
</event>
<event>
 7    1  0.1542786E-009  0.4778727E+02  0.7816164E-02  0.1312668E+00
        -11   -1    0    0    0    0  0.00000000000E+00  0.00000000000E+00  0.45593999997E+02  0.45594000000E+02  0.51100000000E-03 0.  1.
         11   -1    0    0    0    0 -0.00000000000E+00 -0.00000000000E+00 -0.45593999997E+02  0.45594000000E+02  0.51100000000E-03 0. -1.
    9900012    2    1    2    0    0  0.34041361055E+02  0.26097303577E+02 -0.66135896589E+01  0.47787273225E+02  0.20000009942E+02 0.  0.
        -12    1    1    2    0    0 -0.34041361055E+02 -0.26097303577E+02  0.66135896589E+01  0.43400726775E+02  0.00000000000E+00 0.  1.
         11    1    3    3    0    0  0.23558433204E+02  0.18739038828E+02  0.18497075255E+01  0.30159124149E+02  0.51100000000E-03 0. -1.
        -11    1    3    3    0    0 -0.73430283131E+00  0.32311281331E+01 -0.73249436666E+00  0.33935140958E+01  0.51100000000E-03 0.  1.
        -12    1    3    3    0    0  0.11217230682E+02  0.41271366150E+01 -0.77308028178E+01  0.14234634980E+02  0.00000000000E+00 0.  1.
</event>
<event>
 7    1  0.1542786E-009  0.4778727E+02  0.7816164E-02  0.1312668E+00
        -11   -1    0    0    0    0  0.00000000000E+00  0.00000000000E+00  0.45593999997E+02  0.45594000000E+02  0.51100000000E-03 0. -1.
         11   -1    0    0    0    0 -0.00000000000E+00 -0.00000000000E+00 -0.45593999997E+02  0.45594000000E+02  0.51100000000E-03 0.  1.
    9900012    2    1    2    0    0  0.18032605923E+02  0.46451226164E+01  0.39202949502E+02  0.47787270857E+02  0.19999999144E+02 0.  0.
        -12    1    1    2    0    0 -0.18032605923E+02 -0.46451226164E+01 -0.39202949502E+02  0.43400729143E+02  0.00000000000E+00 0.  1.
         11    1    3    3    0    0  0.98008596850E+01  0.87336883219E+01  0.10515730509E+02  0.16820069877E+02  0.51100000000E-03 0.  1.
        -11    1    3    3    0    0  0.69574078271E+01  0.14129731413E+00  0.20717807238E+02  0.21855274549E+02  0.51100000000E-03 0. -1.
        -12    1    3    3    0    0  0.12743384111E+01 -0.42298630196E+01  0.79694117559E+01  0.91119264311E+01  0.00000000000E+00 0.  1.
</event>
<event>
 7    1  0.1542786E-009  0.4778727E+02  0.7816164E-02  0.1312668E+00
        -11   -1    0    0    0    0  0.00000000000E+00  0.00000000000E+00  0.45593999997E+02  0.45594000000E+02  0.51100000000E-03 0.  1.
         11   -1    0    0    0    0 -0.00000000000E+00 -0.00000000000E+00 -0.45593999997E+02  0.45594000000E+02  0.51100000000E-03 0. -1.
    9900012    2    1    2    0    0 -0.30728339980E+02 -0.80681325441E+01 -0.29568524951E+02  0.47787270646E+02  0.19999998184E+02 0.  0.
        -12    1    1    2    0    0  0.30728339980E+02  0.80681325441E+01  0.29568524951E+02  0.43400729354E+02  0.00000000000E+00 0.  1.
         11    1    3    3    0    0 -0.91561429328E+01  0.30082889272E+01 -0.12532024270E+02  0.15809376592E+02  0.51100000000E-03 0. -1.
        -11    1    3    3    0    0 -0.31536604063E+01  0.49362746576E+00 -0.76474635786E+01  0.82869138695E+01  0.51100000000E-03 0.  1.
        -12    1    3    3    0    0 -0.18418536641E+02 -0.11570048937E+02 -0.93890371028E+01  0.23690980185E+02  0.00000000000E+00 0.  1.
</event>
<event>
 7    1  0.1542786E-009  0.4778728E+02  0.7816164E-02  0.1312668E+00
        -11   -1    0    0    0    0  0.00000000000E+00  0.00000000000E+00  0.45593999997E+02  0.45594000000E+02  0.51100000000E-03 0.  1.
         11   -1    0    0    0    0 -0.00000000000E+00 -0.00000000000E+00 -0.45593999997E+02  0.45594000000E+02  0.51100000000E-03 0. -1.
    9900012    2    1    2    0    0 -0.39379687668E+02  0.12898517461E+01 -0.18198876774E+02  0.47787278414E+02  0.20000033600E+02 0.  0.
        -12    1    1    2    0    0  0.39379687668E+02 -0.12898517461E+01  0.18198876774E+02  0.43400721586E+02  0.00000000000E+00 0.  1.
         11    1    3    3    0    0 -0.19623766751E+02  0.83796053415E+00 -0.14449749222E+02  0.24384209075E+02  0.51100000000E-03 0. -1.
        -11    1    3    3    0    0 -0.13120713798E+02  0.58917468806E+01 -0.11069313507E+01  0.14425363398E+02  0.51100000000E-03 0.  1.
        -12    1    3    3    0    0 -0.66352071187E+01 -0.54398556687E+01 -0.26421962009E+01  0.89777059413E+01  0.00000000000E+00 0.  1.
</event>
<event>
 7    1  0.1542786E-009  0.4778727E+02  0.7816164E-02  0.1312668E+00
        -11   -1    0    0    0    0  0.00000000000E+00  0.00000000000E+00  0.45593999997E+02  0.45594000000E+02  0.51100000000E-03 0.  1.
         11   -1    0    0    0    0 -0.00000000000E+00 -0.00000000000E+00 -0.45593999997E+02  0.45594000000E+02  0.51100000000E-03 0. -1.
    9900012    2    1    2    0    0  0.16713533835E+02 -0.55716627707E+01 -0.39664055983E+02  0.47787274473E+02  0.20000015632E+02 0.  0.
        -12    1    1    2    0    0 -0.16713533835E+02  0.55716627707E+01  0.39664055983E+02  0.43400725527E+02  0.00000000000E+00 0.  1.
         11    1    3    3    0    0  0.12737610071E+00  0.10595501324E+01 -0.14959692283E+02  0.14997708646E+02  0.51100000000E-03 0.  1.
        -11    1    3    3    0    0  0.36300123270E+01 -0.37784982516E+01 -0.59781369936E+00  0.52736533837E+01  0.51100000000E-03 0. -1.
         12    1    3    3    0    0  0.12956145407E+02 -0.28527146516E+01 -0.24106550000E+02  0.27515912444E+02  0.00000000000E+00 0. -1.
</event>
<event>
 7    1  0.1542786E-009  0.4778727E+02  0.7816164E-02  0.1312668E+00
        -11   -1    0    0    0    0  0.00000000000E+00  0.00000000000E+00  0.45593999997E+02  0.45594000000E+02  0.51100000000E-03 0.  1.
         11   -1    0    0    0    0 -0.00000000000E+00 -0.00000000000E+00 -0.45593999997E+02  0.45594000000E+02  0.51100000000E-03 0. -1.
    9900012    2    1    2    0    0 -0.26930609872E+02 -0.32755492850E+02 -0.92435356993E+01  0.47787274060E+02  0.20000013747E+02 0.  0.
        -12    1    1    2    0    0  0.26930609872E+02  0.32755492850E+02  0.92435356993E+01  0.43400725940E+02  0.00000000000E+00 0.  1.
         11    1    3    3    0    0 -0.11618757359E+02 -0.14235451449E+02 -0.55716163721E+01  0.19201211153E+02  0.51100000000E-03 0. -1.
        -11    1    3    3    0    0 -0.12933548376E+02 -0.21005199570E+02 -0.44335151854E+01  0.25062943557E+02  0.51100000000E-03 0.  1.
        -12    1    3    3    0    0 -0.23783041374E+01  0.24851581691E+01  0.76159585817E+00  0.35231193489E+01  0.00000000000E+00 0.  1.
</event>
<event>
 7    1  0.1542786E-009  0.4778727E+02  0.7816164E-02  0.1312668E+00
        -11   -1    0    0    0    0  0.00000000000E+00  0.00000000000E+00  0.45593999997E+02  0.45594000000E+02  0.51100000000E-03 0.  1.
         11   -1    0    0    0    0 -0.00000000000E+00 -0.00000000000E+00 -0.45593999997E+02  0.45594000000E+02  0.51100000000E-03 0. -1.
    9900012    2    1    2    0    0  0.15685943691E+02  0.27172008689E+02 -0.29987608624E+02  0.47787267787E+02  0.19999985147E+02 0.  0.
        -12    1    1    2    0    0 -0.15685943691E+02 -0.27172008689E+02  0.29987608624E+02  0.43400732213E+02  0.00000000000E+00 0.  1.
         11    1    3    3    0    0  0.59796527949E+01  0.12755975516E+02 -0.18263562872E+02  0.23065751407E+02  0.51100000000E-03 0. -1.
        -11    1    3    3    0    0 -0.13703404282E+01  0.15291389072E+00  0.17223762951E+01  0.22063082084E+01  0.51100000000E-03 0.  1.
         12    1    3    3    0    0  0.11076631324E+02  0.14263119283E+02 -0.13446422046E+02  0.22515208172E+02  0.00000000000E+00 0. -1.
</event>
<event>
 7    1  0.1542786E-009  0.4778727E+02  0.7816164E-02  0.1312668E+00
        -11   -1    0    0    0    0  0.00000000000E+00  0.00000000000E+00  0.45593999997E+02  0.45594000000E+02  0.51100000000E-03 0.  1.
         11   -1    0    0    0    0 -0.00000000000E+00 -0.00000000000E+00 -0.45593999997E+02  0.45594000000E+02  0.51100000000E-03 0. -1.
    9900012    2    1    2    0    0  0.11490687327E+01  0.29856863525E+02 -0.31478097921E+02  0.47787270660E+02  0.19999998248E+02 0.  0.
        -12    1    1    2    0    0 -0.11490687327E+01 -0.29856863525E+02  0.31478097921E+02  0.43400729340E+02  0.00000000000E+00 0.  1.
         11    1    3    3    0    0  0.19552455763E+01  0.14114892420E+02 -0.19002920764E+02  0.23752140348E+02  0.51100000000E-03 0. -1.
        -11    1    3    3    0    0  0.60260663946E+01  0.68428271923E+01 -0.39145621436E+01  0.99227797120E+01  0.51100000000E-03 0.  1.
        -12    1    3    3    0    0 -0.68322432383E+01  0.88991439133E+01 -0.85606150136E+01  0.14112350600E+02  0.00000000000E+00 0.  1.
</event>
<event>
 7    1  0.1542786E-009  0.4778728E+02  0.7816164E-02  0.1312668E+00
        -11   -1    0    0    0    0  0.00000000000E+00  0.00000000000E+00  0.45593999997E+02  0.45594000000E+02  0.51100000000E-03 0. -1.
         11   -1    0    0    0    0 -0.00000000000E+00 -0.00000000000E+00 -0.45593999997E+02  0.45594000000E+02  0.51100000000E-03 0.  1.
    9900012    2    1    2    0    0 -0.24349642322E+02 -0.34553347960E+02 -0.98378561727E+01  0.47787281682E+02  0.20000048500E+02 0.  0.
        -12    1    1    2    0    0  0.24349642322E+02  0.34553347960E+02  0.98378561727E+01  0.43400718318E+02  0.00000000000E+00 0.  1.
         11    1    3    3    0    0 -0.51208072126E+01 -0.92950009474E+01 -0.19823637596E+01  0.10795808235E+02  0.51100000000E-03 0. -1.
        -11    1    3    3    0    0 -0.20002237227E+02 -0.22375160575E+02 -0.11623322469E+02  0.32184451686E+02  0.51100000000E-03 0.  1.
         12    1    3    3    0    0  0.77340211792E+00 -0.28831864379E+01  0.37678300564E+01  0.48070217604E+01  0.00000000000E+00 0. -1.
</event>
<event>
 7    1  0.1542786E-009  0.4778727E+02  0.7816164E-02  0.1312668E+00
        -11   -1    0    0    0    0  0.00000000000E+00  0.00000000000E+00  0.45593999997E+02  0.45594000000E+02  0.51100000000E-03 0. -1.
         11   -1    0    0    0    0 -0.00000000000E+00 -0.00000000000E+00 -0.45593999997E+02  0.45594000000E+02  0.51100000000E-03 0.  1.
    9900012    2    1    2    0    0  0.59789828116E+01  0.30467864121E+02  0.30324646222E+02  0.47787272494E+02  0.20000006609E+02 0.  0.
        -12    1    1    2    0    0 -0.59789828116E+01 -0.30467864121E+02 -0.30324646222E+02  0.43400727506E+02  0.00000000000E+00 0.  1.
         11    1    3    3    0    0  0.39370124316E+01  0.49808324659E+00  0.98895496278E+01  0.10656047387E+02  0.51100000000E-03 0. -1.
        -11    1    3    3    0    0 -0.10806657528E+01  0.67573451297E+01  0.14823394598E+01  0.70019198943E+01  0.51100000000E-03 0.  1.
         12    1    3    3    0    0  0.31226361329E+01  0.23212435745E+02  0.18952757134E+02  0.30129305213E+02  0.00000000000E+00 0. -1.
</event>
<event>
 7    1  0.1542786E-009  0.4778728E+02  0.7816164E-02  0.1312668E+00
        -11   -1    0    0    0    0  0.00000000000E+00  0.00000000000E+00  0.45593999997E+02  0.45594000000E+02  0.51100000000E-03 0. -1.
         11   -1    0    0    0    0 -0.00000000000E+00 -0.00000000000E+00 -0.45593999997E+02  0.45594000000E+02  0.51100000000E-03 0.  1.
    9900012    2    1    2    0    0 -0.65990023274E+01 -0.37728261496E+02  0.20412098145E+02  0.47787282288E+02  0.20000051262E+02 0.  0.
        -12    1    1    2    0    0  0.65990023274E+01  0.37728261496E+02 -0.20412098145E+02  0.43400717712E+02  0.00000000000E+00 0.  1.
         11    1    3    3    0    0 -0.15750327966E+01 -0.58924844020E+01  0.34249201478E+01  0.69951539667E+01  0.51100000000E-03 0. -1.
        -11    1    3    3    0    0 -0.75911655539E+01 -0.14151030336E+02  0.16340290894E+02  0.22910315598E+02  0.51100000000E-03 0.  1.
         12    1    3    3    0    0  0.25671960231E+01 -0.17684746759E+02  0.64688710345E+00  0.17881812723E+02  0.00000000000E+00 0. -1.
</event>
<event>
 7    1  0.1542786E-009  0.4778727E+02  0.7816164E-02  0.1312668E+00
        -11   -1    0    0    0    0  0.00000000000E+00  0.00000000000E+00  0.45593999997E+02  0.45594000000E+02  0.51100000000E-03 0.  1.
         11   -1    0    0    0    0 -0.00000000000E+00 -0.00000000000E+00 -0.45593999997E+02  0.45594000000E+02  0.51100000000E-03 0. -1.
    9900012    2    1    2    0    0  0.21359532053E+02  0.35529752688E+01 -0.37613427049E+02  0.47787272620E+02  0.20000007183E+02 0.  0.
        -12    1    1    2    0    0 -0.21359532053E+02 -0.35529752688E+01  0.37613427049E+02  0.43400727380E+02  0.00000000000E+00 0.  1.
         11    1    3    3    0    0  0.57083010938E+01 -0.44426295441E+00 -0.12605446282E+01  0.58626823188E+01  0.51100000000E-03 0. -1.
        -11    1    3    3    0    0  0.48619474663E+01 -0.42822933475E+01 -0.17636164841E+02  0.18788583769E+02  0.51100000000E-03 0.  1.
         12    1    3    3    0    0  0.10789283493E+02  0.82795315707E+01 -0.18716717580E+02  0.23136006532E+02  0.00000000000E+00 0. -1.
</event>
<event>
 7    1  0.1542786E-009  0.4778726E+02  0.7816164E-02  0.1312668E+00
        -11   -1    0    0    0    0  0.00000000000E+00  0.00000000000E+00  0.45593999997E+02  0.45594000000E+02  0.51100000000E-03 0. -1.
         11   -1    0    0    0    0 -0.00000000000E+00 -0.00000000000E+00 -0.45593999997E+02  0.45594000000E+02  0.51100000000E-03 0.  1.
    9900012    2    1    2    0    0  0.40959687704E+02  0.11281648974E+02  0.88686196018E+01  0.47787262287E+02  0.19999960070E+02 0.  0.
        -12    1    1    2    0    0 -0.40959687704E+02 -0.11281648974E+02 -0.88686196018E+01  0.43400737713E+02  0.00000000000E+00 0.  1.
         11    1    3    3    0    0  0.30102424507E+02  0.10182596612E+02  0.59875635696E+00  0.31783639571E+02  0.51100000000E-03 0. -1.
        -11    1    3    3    0    0  0.89497317138E+01  0.36829673797E+01  0.83627670173E+01  0.12790536303E+02  0.51100000000E-03 0.  1.
        -12    1    3    3    0    0  0.19075314842E+01 -0.25839150185E+01 -0.92903772445E-01  0.32130864129E+01  0.00000000000E+00 0.  1.
</event>
<event>
 7    1  0.1542786E-009  0.4778726E+02  0.7816164E-02  0.1312668E+00
        -11   -1    0    0    0    0  0.00000000000E+00  0.00000000000E+00  0.45593999997E+02  0.45594000000E+02  0.51100000000E-03 0. -1.
         11   -1    0    0    0    0 -0.00000000000E+00 -0.00000000000E+00 -0.45593999997E+02  0.45594000000E+02  0.51100000000E-03 0.  1.
    9900012    2    1    2    0    0 -0.15104336230E+02 -0.52968412847E+00  0.40684177259E+02  0.47787264782E+02  0.19999971449E+02 0.  0.
        -12    1    1    2    0    0  0.15104336230E+02  0.52968412847E+00 -0.40684177259E+02  0.43400735218E+02  0.00000000000E+00 0.  1.
         11    1    3    3    0    0 -0.64013192024E+01 -0.24879480849E+01  0.11119709759E+02  0.13069610499E+02  0.51100000000E-03 0. -1.
        -11    1    3    3    0    0 -0.12732576074E+02 -0.15804261085E+01  0.21296082426E+02  0.24862408715E+02  0.51100000000E-03 0.  1.
         12    1    3    3    0    0  0.40295590469E+01  0.35386900649E+01  0.82683850741E+01  0.98552455688E+01  0.00000000000E+00 0. -1.
</event>
<event>
 7    1  0.1542786E-009  0.4778727E+02  0.7816164E-02  0.1312668E+00
        -11   -1    0    0    0    0  0.00000000000E+00  0.00000000000E+00  0.45593999997E+02  0.45594000000E+02  0.51100000000E-03 0. -1.
         11   -1    0    0    0    0 -0.00000000000E+00 -0.00000000000E+00 -0.45593999997E+02  0.45594000000E+02  0.51100000000E-03 0.  1.
    9900012    2    1    2    0    0  0.25837510691E+02  0.73474923570E+01  0.34089009780E+02  0.47787272006E+02  0.20000004383E+02 0.  0.
        -12    1    1    2    0    0 -0.25837510691E+02 -0.73474923570E+01 -0.34089009780E+02  0.43400727994E+02  0.00000000000E+00 0.  1.
         11    1    3    3    0    0  0.62446866758E+01 -0.13594598230E+01  0.11744759697E+02  0.13370999338E+02  0.51100000000E-03 0. -1.
        -11    1    3    3    0    0  0.88790176890E+01  0.24858918430E+01  0.41547685915E+00  0.92298014420E+01  0.51100000000E-03 0.  1.
        -12    1    3    3    0    0  0.10713806326E+02  0.62210603369E+01  0.21928773224E+02  0.25186471226E+02  0.00000000000E+00 0.  1.
</event>
<event>
 7    1  0.1542786E-009  0.4778726E+02  0.7816164E-02  0.1312668E+00
        -11   -1    0    0    0    0  0.00000000000E+00  0.00000000000E+00  0.45593999997E+02  0.45594000000E+02  0.51100000000E-03 0.  1.
         11   -1    0    0    0    0 -0.00000000000E+00 -0.00000000000E+00 -0.45593999997E+02  0.45594000000E+02  0.51100000000E-03 0. -1.
    9900012    2    1    2    0    0 -0.27958779798E+02 -0.26018352873E+02  0.20614947612E+02  0.47787261308E+02  0.19999955607E+02 0.  0.
        -12    1    1    2    0    0  0.27958779798E+02  0.26018352873E+02 -0.20614947612E+02  0.43400738692E+02  0.00000000000E+00 0.  1.
         11    1    3    3    0    0 -0.15188148094E+02 -0.11978491681E+02  0.65662028629E+00  0.19354463463E+02  0.51100000000E-03 0. -1.
        -11    1    3    3    0    0 -0.36174670618E+01 -0.87931446250E+00  0.15766297512E+01  0.40428979088E+01  0.51100000000E-03 0.  1.
        -12    1    3    3    0    0 -0.91531646417E+01 -0.13160546729E+02  0.18381697575E+02  0.24389899936E+02  0.00000000000E+00 0.  1.
</event>
<event>
 7    1  0.1542786E-009  0.4778727E+02  0.7816164E-02  0.1312668E+00
        -11   -1    0    0    0    0  0.00000000000E+00  0.00000000000E+00  0.45593999997E+02  0.45594000000E+02  0.51100000000E-03 0. -1.
         11   -1    0    0    0    0 -0.00000000000E+00 -0.00000000000E+00 -0.45593999997E+02  0.45594000000E+02  0.51100000000E-03 0.  1.
    9900012    2    1    2    0    0  0.13951591860E+02 -0.18328833647E+01  0.41056263219E+02  0.47787272744E+02  0.20000007749E+02 0.  0.
        -12    1    1    2    0    0 -0.13951591860E+02  0.18328833647E+01 -0.41056263219E+02  0.43400727256E+02  0.00000000000E+00 0.  1.
         11    1    3    3    0    0  0.12908229196E+02 -0.44501197764E+01  0.24531592982E+02  0.28075345082E+02  0.51100000000E-03 0. -1.
        -11    1    3    3    0    0  0.47467980651E+01  0.24042774398E+00  0.13654662300E+02  0.14458205289E+02  0.51100000000E-03 0.  1.
        -12    1    3    3    0    0 -0.37034354016E+01  0.23768086677E+01  0.28700079368E+01  0.52537223732E+01  0.00000000000E+00 0.  1.
</event>
<event>
 7    1  0.1542786E-009  0.4778727E+02  0.7816164E-02  0.1312668E+00
        -11   -1    0    0    0    0  0.00000000000E+00  0.00000000000E+00  0.45593999997E+02  0.45594000000E+02  0.51100000000E-03 0. -1.
         11   -1    0    0    0    0 -0.00000000000E+00 -0.00000000000E+00 -0.45593999997E+02  0.45594000000E+02  0.51100000000E-03 0.  1.
    9900012    2    1    2    0    0 -0.14545207350E+02 -0.44478059598E+01  0.40648215954E+02  0.47787268497E+02  0.19999988387E+02 0.  0.
        -12    1    1    2    0    0  0.14545207350E+02  0.44478059598E+01 -0.40648215954E+02  0.43400731503E+02  0.00000000000E+00 0.  1.
         11    1    3    3    0    0 -0.48783888644E+01 -0.87920965140E+01  0.86978966390E+01  0.13294850327E+02  0.51100000000E-03 0. -1.
        -11    1    3    3    0    0 -0.57854469204E+01  0.48255934806E+00  0.77664172945E+01  0.96964682976E+01  0.51100000000E-03 0.  1.
        -12    1    3    3    0    0 -0.38813715657E+01  0.38617312062E+01  0.24183902020E+02  0.24795949872E+02  0.00000000000E+00 0.  1.
</event>
<event>
 7    1  0.1542786E-009  0.4778727E+02  0.7816164E-02  0.1312668E+00
        -11   -1    0    0    0    0  0.00000000000E+00  0.00000000000E+00  0.45593999997E+02  0.45594000000E+02  0.51100000000E-03 0.  1.
         11   -1    0    0    0    0 -0.00000000000E+00 -0.00000000000E+00 -0.45593999997E+02  0.45594000000E+02  0.51100000000E-03 0. -1.
    9900012    2    1    2    0    0 -0.74563652730E+01 -0.18020054178E+02 -0.38772458328E+02  0.47787271199E+02  0.20000000704E+02 0.  0.
        -12    1    1    2    0    0  0.74563652730E+01  0.18020054178E+02  0.38772458328E+02  0.43400728801E+02  0.00000000000E+00 0.  1.
         11    1    3    3    0    0 -0.46574348772E+01 -0.97700053201E+01 -0.34432195443E+02  0.36093223559E+02  0.51100000000E-03 0. -1.
        -11    1    3    3    0    0  0.15920809237E+01 -0.23534873481E+00 -0.80776631094E-01  0.16114080240E+01  0.51100000000E-03 0.  1.
        -12    1    3    3    0    0 -0.43910113195E+01 -0.80147001228E+01 -0.42594862538E+01  0.10082639615E+02  0.00000000000E+00 0.  1.
</event>
<event>
 7    1  0.1542786E-009  0.4778727E+02  0.7816164E-02  0.1312668E+00
        -11   -1    0    0    0    0  0.00000000000E+00  0.00000000000E+00  0.45593999997E+02  0.45594000000E+02  0.51100000000E-03 0.  1.
         11   -1    0    0    0    0 -0.00000000000E+00 -0.00000000000E+00 -0.45593999997E+02  0.45594000000E+02  0.51100000000E-03 0. -1.
    9900012    2    1    2    0    0 -0.28642315897E+01 -0.35075960164E+02 -0.25398746058E+02  0.47787272985E+02  0.20000008850E+02 0.  0.
        -12    1    1    2    0    0  0.28642315897E+01  0.35075960164E+02  0.25398746058E+02  0.43400727015E+02  0.00000000000E+00 0.  1.
         11    1    3    3    0    0 -0.38948106692E+01 -0.33722445714E+01 -0.38314016986E+01  0.64203755992E+01  0.51100000000E-03 0.  1.
        -11    1    3    3    0    0  0.60037307991E+01 -0.18638678588E+02 -0.18740414202E+02  0.27104395358E+02  0.51100000000E-03 0. -1.
         12    1    3    3    0    0 -0.49731517197E+01 -0.13065037005E+02 -0.28269301573E+01  0.14262502028E+02  0.00000000000E+00 0. -1.
</event>
<event>
 7    1  0.1542786E-009  0.4778729E+02  0.7816164E-02  0.1312668E+00
        -11   -1    0    0    0    0  0.00000000000E+00  0.00000000000E+00  0.45593999997E+02  0.45594000000E+02  0.51100000000E-03 0.  1.
         11   -1    0    0    0    0 -0.00000000000E+00 -0.00000000000E+00 -0.45593999997E+02  0.45594000000E+02  0.51100000000E-03 0. -1.
    9900012    2    1    2    0    0 -0.14646133783E+02  0.78675114335E+01 -0.40090085917E+02  0.47787286183E+02  0.20000069024E+02 0.  0.
        -12    1    1    2    0    0  0.14646133783E+02 -0.78675114335E+01  0.40090085917E+02  0.43400713817E+02  0.00000000000E+00 0.  1.
         11    1    3    3    0    0 -0.10662858992E+02  0.47719496164E+01 -0.19196407155E+02  0.22471540066E+02  0.51100000000E-03 0. -1.
        -11    1    3    3    0    0 -0.35032438143E+01 -0.50438911353E+01 -0.89386752146E+01  0.10844974406E+02  0.51100000000E-03 0.  1.
        -12    1    3    3    0    0 -0.48003097672E+00  0.81394529524E+01 -0.11955003548E+02  0.14470771712E+02  0.00000000000E+00 0.  1.
</event>
<event>
 7    1  0.1542786E-009  0.4778727E+02  0.7816164E-02  0.1312668E+00
        -11   -1    0    0    0    0  0.00000000000E+00  0.00000000000E+00  0.45593999997E+02  0.45594000000E+02  0.51100000000E-03 0. -1.
         11   -1    0    0    0    0 -0.00000000000E+00 -0.00000000000E+00 -0.45593999997E+02  0.45594000000E+02  0.51100000000E-03 0.  1.
    9900012    2    1    2    0    0 -0.25951011016E+02  0.92051861709E+01  0.33547473184E+02  0.47787269796E+02  0.19999994308E+02 0.  0.
        -12    1    1    2    0    0  0.25951011016E+02 -0.92051861709E+01 -0.33547473184E+02  0.43400730204E+02  0.00000000000E+00 0.  1.
         11    1    3    3    0    0 -0.49551011291E+01 -0.37818532901E+01  0.61144194754E+01  0.87316417293E+01  0.51100000000E-03 0.  1.
        -11    1    3    3    0    0 -0.23882685456E+01  0.67854838795E+01  0.12430528532E+02  0.14361916932E+02  0.51100000000E-03 0. -1.
        -12    1    3    3    0    0 -0.18607641341E+02  0.62015555815E+01  0.15002525177E+02  0.24693711135E+02  0.00000000000E+00 0.  1.
</event>
<event>
 7    1  0.1542786E-009  0.4778727E+02  0.7816164E-02  0.1312668E+00
        -11   -1    0    0    0    0  0.00000000000E+00  0.00000000000E+00  0.45593999997E+02  0.45594000000E+02  0.51100000000E-03 0.  1.
         11   -1    0    0    0    0 -0.00000000000E+00 -0.00000000000E+00 -0.45593999997E+02  0.45594000000E+02  0.51100000000E-03 0. -1.
    9900012    2    1    2    0    0 -0.37899999676E+02 -0.19302585202E+02 -0.86384849195E+01  0.47787271980E+02  0.20000004268E+02 0.  0.
        -12    1    1    2    0    0  0.37899999676E+02  0.19302585202E+02  0.86384849195E+01  0.43400728020E+02  0.00000000000E+00 0.  1.
         11    1    3    3    0    0 -0.17670651969E+02 -0.76411661371E+01 -0.56548461271E+01  0.20065309515E+02  0.51100000000E-03 0. -1.
        -11    1    3    3    0    0 -0.19014285239E+02 -0.38918666840E+01 -0.29395123999E+00  0.19410720673E+02  0.51100000000E-03 0.  1.
         12    1    3    3    0    0 -0.12150624672E+01 -0.77695523811E+01 -0.26896875524E+01  0.83112417924E+01  0.00000000000E+00 0. -1.
</event>
<event>
 7    1  0.1542786E-009  0.4778728E+02  0.7816164E-02  0.1312668E+00
        -11   -1    0    0    0    0  0.00000000000E+00  0.00000000000E+00  0.45593999997E+02  0.45594000000E+02  0.51100000000E-03 0.  1.
         11   -1    0    0    0    0 -0.00000000000E+00 -0.00000000000E+00 -0.45593999997E+02  0.45594000000E+02  0.51100000000E-03 0. -1.
    9900012    2    1    2    0    0  0.26237056490E+02  0.33986639044E+02 -0.63362508113E+01  0.47787276030E+02  0.20000022733E+02 0.  0.
        -12    1    1    2    0    0 -0.26237056490E+02 -0.33986639044E+02  0.63362508113E+01  0.43400723970E+02  0.00000000000E+00 0.  1.
         11    1    3    3    0    0  0.84570973851E+01  0.18952607625E+02 -0.62187506434E+01  0.21665564655E+02  0.51100000000E-03 0. -1.
        -11    1    3    3    0    0  0.18576574820E+02  0.16034127348E+02  0.79275154038E+00  0.24552206155E+02  0.51100000000E-03 0.  1.
        -12    1    3    3    0    0 -0.79661571487E+00 -0.10000959291E+01 -0.91025170825E+00  0.15695052204E+01  0.00000000000E+00 0.  1.
</event>
<event>
 7    1  0.1542786E-009  0.4778727E+02  0.7816164E-02  0.1312668E+00
        -11   -1    0    0    0    0  0.00000000000E+00  0.00000000000E+00  0.45593999997E+02  0.45594000000E+02  0.51100000000E-03 0.  1.
         11   -1    0    0    0    0 -0.00000000000E+00 -0.00000000000E+00 -0.45593999997E+02  0.45594000000E+02  0.51100000000E-03 0. -1.
    9900012    2    1    2    0    0  0.14508224887E+00  0.29303114575E+02 -0.32014523352E+02  0.47787270996E+02  0.19999999778E+02 0.  0.
        -12    1    1    2    0    0 -0.14508224887E+00 -0.29303114575E+02  0.32014523352E+02  0.43400729004E+02  0.00000000000E+00 0.  1.
         11    1    3    3    0    0  0.31973816905E+01  0.17539203641E+02 -0.22021409740E+02  0.28333538453E+02  0.51100000000E-03 0. -1.
        -11    1    3    3    0    0 -0.56647333636E+01  0.44551185158E+01 -0.91486921101E+01  0.11646280636E+02  0.51100000000E-03 0.  1.
        -12    1    3    3    0    0  0.26124339220E+01  0.73087924180E+01 -0.84442150145E+00  0.78074519069E+01  0.00000000000E+00 0.  1.
</event>
<event>
 7    1  0.1542786E-009  0.4778727E+02  0.7816164E-02  0.1312668E+00
        -11   -1    0    0    0    0  0.00000000000E+00  0.00000000000E+00  0.45593999997E+02  0.45594000000E+02  0.51100000000E-03 0.  1.
         11   -1    0    0    0    0 -0.00000000000E+00 -0.00000000000E+00 -0.45593999997E+02  0.45594000000E+02  0.51100000000E-03 0. -1.
    9900012    2    1    2    0    0 -0.39254387815E+02 -0.18421130453E+02  0.18380239698E+01  0.47787270260E+02  0.19999996422E+02 0.  0.
        -12    1    1    2    0    0  0.39254387815E+02  0.18421130453E+02 -0.18380239698E+01  0.43400729740E+02  0.00000000000E+00 0.  1.
         11    1    3    3    0    0 -0.11873418629E+02  0.92436897953E+00 -0.17912628679E+01  0.12043303154E+02  0.51100000000E-03 0. -1.
        -11    1    3    3    0    0 -0.26350110776E+02 -0.13814236965E+02  0.43628322494E+01  0.30069848459E+02  0.51100000000E-03 0.  1.
        -12    1    3    3    0    0 -0.10308584099E+01 -0.55312624670E+01 -0.73354541165E+00  0.56741186462E+01  0.00000000000E+00 0.  1.
</event>
<event>
 7    1  0.1542786E-009  0.4778727E+02  0.7816164E-02  0.1312668E+00
        -11   -1    0    0    0    0  0.00000000000E+00  0.00000000000E+00  0.45593999997E+02  0.45594000000E+02  0.51100000000E-03 0.  1.
         11   -1    0    0    0    0 -0.00000000000E+00 -0.00000000000E+00 -0.45593999997E+02  0.45594000000E+02  0.51100000000E-03 0. -1.
    9900012    2    1    2    0    0 -0.53523099542E+00  0.26889707719E+02 -0.34062894025E+02  0.47787267255E+02  0.19999982724E+02 0.  0.
        -12    1    1    2    0    0  0.53523099542E+00 -0.26889707719E+02  0.34062894025E+02  0.43400732745E+02  0.00000000000E+00 0.  1.
         11    1    3    3    0    0  0.80113485540E+01  0.13600799994E+02 -0.18332274570E+02  0.24191646436E+02  0.51100000000E-03 0.  1.
        -11    1    3    3    0    0 -0.14991589541E+01  0.15173873455E+01  0.64855356520E+00  0.22294761523E+01  0.51100000000E-03 0. -1.
         12    1    3    3    0    0 -0.70474205953E+01  0.11771520380E+02 -0.16379173020E+02  0.21366144666E+02  0.00000000000E+00 0. -1.
</event>
<event>
 7    1  0.1542786E-009  0.4778727E+02  0.7816164E-02  0.1312668E+00
        -11   -1    0    0    0    0  0.00000000000E+00  0.00000000000E+00  0.45593999997E+02  0.45594000000E+02  0.51100000000E-03 0.  1.
         11   -1    0    0    0    0 -0.00000000000E+00 -0.00000000000E+00 -0.45593999997E+02  0.45594000000E+02  0.51100000000E-03 0. -1.
    9900012    2    1    2    0    0 -0.13995604405E+01  0.41286112325E+02 -0.13308706129E+02  0.47787268449E+02  0.19999988166E+02 0.  0.
        -12    1    1    2    0    0  0.13995604405E+01 -0.41286112325E+02  0.13308706129E+02  0.43400731551E+02  0.00000000000E+00 0.  1.
         11    1    3    3    0    0 -0.39012107737E+01  0.29395571507E+02 -0.11770245574E+02  0.31903883006E+02  0.51100000000E-03 0. -1.
        -11    1    3    3    0    0 -0.20855259739E+01 -0.63862177266E+00 -0.12992256732E+01  0.25387485041E+01  0.51100000000E-03 0.  1.
        -12    1    3    3    0    0  0.45871763072E+01  0.12529162591E+02 -0.23923488199E+00  0.13344636939E+02  0.00000000000E+00 0.  1.
</event>
<event>
 7    1  0.1542786E-009  0.4778727E+02  0.7816164E-02  0.1312668E+00
        -11   -1    0    0    0    0  0.00000000000E+00  0.00000000000E+00  0.45593999997E+02  0.45594000000E+02  0.51100000000E-03 0.  1.
         11   -1    0    0    0    0 -0.00000000000E+00 -0.00000000000E+00 -0.45593999997E+02  0.45594000000E+02  0.51100000000E-03 0. -1.
    9900012    2    1    2    0    0 -0.35384428443E+02 -0.16308466126E+02  0.19120656956E+02  0.47787269983E+02  0.19999995160E+02 0.  0.
        -12    1    1    2    0    0  0.35384428443E+02  0.16308466126E+02 -0.19120656956E+02  0.43400730017E+02  0.00000000000E+00 0.  1.
         11    1    3    3    0    0 -0.44122217520E+01 -0.78919194160E+01  0.40084639197E+01  0.98902920136E+01  0.51100000000E-03 0. -1.
        -11    1    3    3    0    0 -0.84420934944E+01  0.14485212438E+01  0.92620345684E+01  0.12615563442E+02  0.51100000000E-03 0.  1.
         12    1    3    3    0    0 -0.22530113197E+02 -0.98650679535E+01  0.58501584674E+01  0.25281414527E+02  0.00000000000E+00 0. -1.
</event>
<event>
 7    1  0.1542786E-009  0.4778728E+02  0.7816164E-02  0.1312668E+00
        -11   -1    0    0    0    0  0.00000000000E+00  0.00000000000E+00  0.45593999997E+02  0.45594000000E+02  0.51100000000E-03 0.  1.
         11   -1    0    0    0    0 -0.00000000000E+00 -0.00000000000E+00 -0.45593999997E+02  0.45594000000E+02  0.51100000000E-03 0. -1.
    9900012    2    1    2    0    0  0.26405462356E+02  0.27845532398E+02 -0.20273152667E+02  0.47787276091E+02  0.20000023008E+02 0.  0.
        -12    1    1    2    0    0 -0.26405462356E+02 -0.27845532398E+02  0.20273152667E+02  0.43400723909E+02  0.00000000000E+00 0.  1.
         11    1    3    3    0    0  0.16221067957E+02  0.19353667487E+02 -0.12981098431E+02  0.28393598004E+02  0.51100000000E-03 0. -1.
        -11    1    3    3    0    0  0.10139218457E+02  0.91733102954E+01 -0.17210610275E+01  0.13780980517E+02  0.51100000000E-03 0.  1.
        -12    1    3    3    0    0  0.45175941672E-01 -0.68144538374E+00 -0.55709932088E+01  0.56126975697E+01  0.00000000000E+00 0.  1.
</event>
<event>
 7    1  0.1542786E-009  0.4778727E+02  0.7816164E-02  0.1312668E+00
        -11   -1    0    0    0    0  0.00000000000E+00  0.00000000000E+00  0.45593999997E+02  0.45594000000E+02  0.51100000000E-03 0.  1.
         11   -1    0    0    0    0 -0.00000000000E+00 -0.00000000000E+00 -0.45593999997E+02  0.45594000000E+02  0.51100000000E-03 0. -1.
    9900012    2    1    2    0    0  0.35440124097E+02 -0.25052093866E+02  0.11493100690E+00  0.47787274059E+02  0.20000013743E+02 0.  0.
        -12    1    1    2    0    0 -0.35440124097E+02  0.25052093866E+02 -0.11493100690E+00  0.43400725941E+02  0.00000000000E+00 0.  1.
         11    1    3    3    0    0  0.27838426946E+02 -0.21582391035E+02 -0.41596987199E+01  0.35469433479E+02  0.51100000000E-03 0. -1.
        -11    1    3    3    0    0 -0.81830089027E+00 -0.22204807684E+01 -0.68830870053E+00  0.24645324746E+01  0.51100000000E-03 0.  1.
         12    1    3    3    0    0  0.84199980414E+01 -0.12492220629E+01  0.49629384274E+01  0.98533081051E+01  0.00000000000E+00 0. -1.
</event>
<event>
 7    1  0.1542786E-009  0.4778727E+02  0.7816164E-02  0.1312668E+00
        -11   -1    0    0    0    0  0.00000000000E+00  0.00000000000E+00  0.45593999997E+02  0.45594000000E+02  0.51100000000E-03 0.  1.
         11   -1    0    0    0    0 -0.00000000000E+00 -0.00000000000E+00 -0.45593999997E+02  0.45594000000E+02  0.51100000000E-03 0. -1.
    9900012    2    1    2    0    0 -0.16940384600E+02 -0.10937723463E+02 -0.38431926393E+02  0.47787269693E+02  0.19999993837E+02 0.  0.
        -12    1    1    2    0    0  0.16940384600E+02  0.10937723463E+02  0.38431926393E+02  0.43400730307E+02  0.00000000000E+00 0.  1.
         11    1    3    3    0    0 -0.84150200160E+01 -0.24843500648E+01 -0.30760862465E+02  0.31987735415E+02  0.51100000000E-03 0. -1.
        -11    1    3    3    0    0  0.10096243314E+00 -0.52592118082E+00  0.10604412594E+01  0.11879909205E+01  0.51100000000E-03 0.  1.
         12    1    3    3    0    0 -0.86263270170E+01 -0.79274522169E+01 -0.87315051876E+01  0.14611543358E+02  0.00000000000E+00 0. -1.
</event>
<event>
 7    1  0.1542786E-009  0.4778730E+02  0.7816164E-02  0.1312668E+00
        -11   -1    0    0    0    0  0.00000000000E+00  0.00000000000E+00  0.45593999997E+02  0.45594000000E+02  0.51100000000E-03 0. -1.
         11   -1    0    0    0    0 -0.00000000000E+00 -0.00000000000E+00 -0.45593999997E+02  0.45594000000E+02  0.51100000000E-03 0.  1.
    9900012    2    1    2    0    0 -0.63156951855E+01 -0.39987179096E+02  0.15644749631E+02  0.47787300827E+02  0.20000135789E+02 0.  0.
        -12    1    1    2    0    0  0.63156951855E+01  0.39987179096E+02 -0.15644749631E+02  0.43400699173E+02  0.00000000000E+00 0.  1.
         11    1    3    3    0    0  0.93093866741E+00 -0.11551076713E+02  0.26919697898E+01  0.11897088789E+02  0.51100000000E-03 0. -1.
        -11    1    3    3    0    0  0.31986781598E+01 -0.18895550687E+02  0.91774105001E+01  0.21248487981E+02  0.51100000000E-03 0.  1.
        -12    1    3    3    0    0 -0.10445312013E+02 -0.95405516956E+01  0.37753693407E+01  0.14641724057E+02  0.00000000000E+00 0.  1.
</event>
<event>
 7    1  0.1542786E-009  0.4778728E+02  0.7816164E-02  0.1312668E+00
        -11   -1    0    0    0    0  0.00000000000E+00  0.00000000000E+00  0.45593999997E+02  0.45594000000E+02  0.51100000000E-03 0.  1.
         11   -1    0    0    0    0 -0.00000000000E+00 -0.00000000000E+00 -0.45593999997E+02  0.45594000000E+02  0.51100000000E-03 0. -1.
    9900012    2    1    2    0    0  0.90643417782E+01 -0.17039484571E+02 -0.38873076686E+02  0.47787280912E+02  0.20000044990E+02 0.  0.
        -12    1    1    2    0    0 -0.90643417782E+01  0.17039484571E+02  0.38873076686E+02  0.43400719088E+02  0.00000000000E+00 0.  1.
         11    1    3    3    0    0  0.48234507046E+01 -0.41806673159E+00 -0.17484612992E+02  0.18142550765E+02  0.51100000000E-03 0.  1.
        -11    1    3    3    0    0  0.45817514629E+01 -0.70702626365E+01 -0.17314393500E+02  0.19255370232E+02  0.51100000000E-03 0. -1.
        -12    1    3    3    0    0 -0.34086038926E+00 -0.95511552032E+01 -0.40740701934E+01  0.10389359916E+02  0.00000000000E+00 0.  1.
</event>
<event>
 7    1  0.1542786E-009  0.4778727E+02  0.7816164E-02  0.1312668E+00
        -11   -1    0    0    0    0  0.00000000000E+00  0.00000000000E+00  0.45593999997E+02  0.45594000000E+02  0.51100000000E-03 0.  1.
         11   -1    0    0    0    0 -0.00000000000E+00 -0.00000000000E+00 -0.45593999997E+02  0.45594000000E+02  0.51100000000E-03 0. -1.
    9900012    2    1    2    0    0  0.72753254728E+01  0.42206276806E+02  0.70230442133E+01  0.47787270598E+02  0.19999997966E+02 0.  0.
        -12    1    1    2    0    0 -0.72753254728E+01 -0.42206276806E+02 -0.70230442133E+01  0.43400729402E+02  0.00000000000E+00 0.  1.
         11    1    3    3    0    0  0.10075205649E+02  0.30294723468E+02  0.11778917071E+01  0.31947886754E+02  0.51100000000E-03 0. -1.
        -11    1    3    3    0    0  0.60256493227E+00  0.64488955082E+01 -0.87365388317E+00  0.65356414484E+01  0.51100000000E-03 0.  1.
        -12    1    3    3    0    0 -0.34024451082E+01  0.54626578296E+01  0.67188063894E+01  0.93037423962E+01  0.00000000000E+00 0.  1.
</event>
<event>
 7    1  0.1542786E-009  0.4778727E+02  0.7816164E-02  0.1312668E+00
        -11   -1    0    0    0    0  0.00000000000E+00  0.00000000000E+00  0.45593999997E+02  0.45594000000E+02  0.51100000000E-03 0.  1.
         11   -1    0    0    0    0 -0.00000000000E+00 -0.00000000000E+00 -0.45593999997E+02  0.45594000000E+02  0.51100000000E-03 0. -1.
    9900012    2    1    2    0    0  0.12599713870E+02  0.32811512689E+02 -0.25461246900E+02  0.47787271339E+02  0.20000001345E+02 0.  0.
        -12    1    1    2    0    0 -0.12599713870E+02 -0.32811512689E+02  0.25461246900E+02  0.43400728661E+02  0.00000000000E+00 0.  1.
         11    1    3    3    0    0  0.71014262896E+00  0.16628493172E+02 -0.17506741205E+02  0.24155684126E+02  0.51100000000E-03 0. -1.
        -11    1    3    3    0    0  0.18847617275E+01 -0.11595511670E+01 -0.10832576488E+01  0.24638045931E+01  0.51100000000E-03 0.  1.
        -12    1    3    3    0    0  0.10004809514E+02  0.17342570685E+02 -0.68712480463E+01  0.21167782621E+02  0.00000000000E+00 0.  1.
</event>
<event>
 7    1  0.1542786E-009  0.4778729E+02  0.7816164E-02  0.1312668E+00
        -11   -1    0    0    0    0  0.00000000000E+00  0.00000000000E+00  0.45593999997E+02  0.45594000000E+02  0.51100000000E-03 0.  1.
         11   -1    0    0    0    0 -0.00000000000E+00 -0.00000000000E+00 -0.45593999997E+02  0.45594000000E+02  0.51100000000E-03 0. -1.
    9900012    2    1    2    0    0 -0.41278353748E+02 -0.60384096312E+01 -0.11968992046E+02  0.47787289757E+02  0.20000085317E+02 0.  0.
        -12    1    1    2    0    0  0.41278353748E+02  0.60384096312E+01  0.11968992046E+02  0.43400710243E+02  0.00000000000E+00 0.  1.
         11    1    3    3    0    0 -0.59717978988E+01  0.66045982542E+00  0.25127611893E+01  0.65124915647E+01  0.51100000000E-03 0. -1.
        -11    1    3    3    0    0 -0.90985930162E+01 -0.76839106258E+01 -0.77140567856E+01  0.14189205395E+02  0.51100000000E-03 0.  1.
         12    1    3    3    0    0 -0.26207962833E+02  0.98504116916E+00 -0.67676964495E+01  0.27085592798E+02  0.00000000000E+00 0. -1.
</event>
<event>
 7    1  0.1542786E-009  0.4778728E+02  0.7816164E-02  0.1312668E+00
        -11   -1    0    0    0    0  0.00000000000E+00  0.00000000000E+00  0.45593999997E+02  0.45594000000E+02  0.51100000000E-03 0.  1.
         11   -1    0    0    0    0 -0.00000000000E+00 -0.00000000000E+00 -0.45593999997E+02  0.45594000000E+02  0.51100000000E-03 0. -1.
    9900012    2    1    2    0    0 -0.12093547896E+02  0.87119447300E+01 -0.40761141034E+02  0.47787279959E+02  0.20000040645E+02 0.  0.
        -12    1    1    2    0    0  0.12093547896E+02 -0.87119447300E+01  0.40761141034E+02  0.43400720041E+02  0.00000000000E+00 0.  1.
         11    1    3    3    0    0 -0.91735280636E+01 -0.44171470562E+00 -0.16614683118E+02  0.18984109787E+02  0.51100000000E-03 0. -1.
        -11    1    3    3    0    0  0.24573165855E+01 -0.11009525216E+00 -0.80467530160E-01  0.24610975297E+01  0.51100000000E-03 0.  1.
        -12    1    3    3    0    0 -0.53773364181E+01  0.92637546878E+01 -0.24065990385E+02  0.26342072642E+02  0.00000000000E+00 0.  1.
</event>
<event>
 7    1  0.1542786E-009  0.4778727E+02  0.7816164E-02  0.1312668E+00
        -11   -1    0    0    0    0  0.00000000000E+00  0.00000000000E+00  0.45593999997E+02  0.45594000000E+02  0.51100000000E-03 0.  1.
         11   -1    0    0    0    0 -0.00000000000E+00 -0.00000000000E+00 -0.45593999997E+02  0.45594000000E+02  0.51100000000E-03 0. -1.
    9900012    2    1    2    0    0 -0.24860603197E+01 -0.38679397357E+02 -0.19528117794E+02  0.47787266592E+02  0.19999979699E+02 0.  0.
        -12    1    1    2    0    0  0.24860603197E+01  0.38679397357E+02  0.19528117794E+02  0.43400733408E+02  0.00000000000E+00 0.  1.
         11    1    3    3    0    0 -0.20448243606E+01 -0.64102449090E+01 -0.84309361809E+01  0.10786715515E+02  0.51100000000E-03 0. -1.
        -11    1    3    3    0    0  0.69517345401E-01 -0.64309392392E+01  0.34976377364E+01  0.73208798758E+01  0.51100000000E-03 0.  1.
         12    1    3    3    0    0 -0.51075330454E+00 -0.25838213209E+02 -0.14594819349E+02  0.29679671201E+02  0.00000000000E+00 0. -1.
</event>
<event>
 7    1  0.1542786E-009  0.4778727E+02  0.7816164E-02  0.1312668E+00
        -11   -1    0    0    0    0  0.00000000000E+00  0.00000000000E+00  0.45593999997E+02  0.45594000000E+02  0.51100000000E-03 0. -1.
         11   -1    0    0    0    0 -0.00000000000E+00 -0.00000000000E+00 -0.45593999997E+02  0.45594000000E+02  0.51100000000E-03 0.  1.
    9900012    2    1    2    0    0 -0.40151534951E+02 -0.23547963836E+01  0.16307434772E+02  0.47787271276E+02  0.20000001057E+02 0.  0.
        -12    1    1    2    0    0  0.40151534951E+02  0.23547963836E+01 -0.16307434772E+02  0.43400728724E+02  0.00000000000E+00 0.  1.
         11    1    3    3    0    0 -0.41499238600E+01  0.18435368066E+01  0.13347763262E+01  0.47330882205E+01  0.51100000000E-03 0. -1.
        -11    1    3    3    0    0 -0.33948830805E+00  0.18595407661E+01 -0.22931841366E+01  0.29718408297E+01  0.51100000000E-03 0.  1.
        -12    1    3    3    0    0 -0.35662122783E+02 -0.60578739563E+01  0.17265842583E+02  0.40082342226E+02  0.00000000000E+00 0.  1.
</event>
<event>
 7    1  0.1542786E-009  0.4778727E+02  0.7816164E-02  0.1312668E+00
        -11   -1    0    0    0    0  0.00000000000E+00  0.00000000000E+00  0.45593999997E+02  0.45594000000E+02  0.51100000000E-03 0. -1.
         11   -1    0    0    0    0 -0.00000000000E+00 -0.00000000000E+00 -0.45593999997E+02  0.45594000000E+02  0.51100000000E-03 0.  1.
    9900012    2    1    2    0    0 -0.56848451051E+01 -0.32036265061E+02  0.28722534791E+02  0.47787265586E+02  0.19999975111E+02 0.  0.
        -12    1    1    2    0    0  0.56848451051E+01  0.32036265061E+02 -0.28722534791E+02  0.43400734414E+02  0.00000000000E+00 0.  1.
         11    1    3    3    0    0 -0.35715173324E+01 -0.28577726798E+02  0.20566246237E+02  0.35389443194E+02  0.51100000000E-03 0.  1.
        -11    1    3    3    0    0 -0.49845143810E+01 -0.36912186380E+01  0.68316918238E+01  0.92272689396E+01  0.51100000000E-03 0. -1.
        -12    1    3    3    0    0  0.28711866083E+01  0.23268037582E+00  0.13245967300E+01  0.31705534523E+01  0.00000000000E+00 0.  1.
</event>
<event>
 7    1  0.1542786E-009  0.4778727E+02  0.7816164E-02  0.1312668E+00
        -11   -1    0    0    0    0  0.00000000000E+00  0.00000000000E+00  0.45593999997E+02  0.45594000000E+02  0.51100000000E-03 0. -1.
         11   -1    0    0    0    0 -0.00000000000E+00 -0.00000000000E+00 -0.45593999997E+02  0.45594000000E+02  0.51100000000E-03 0.  1.
    9900012    2    1    2    0    0 -0.40731704103E+02 -0.14759958268E+02 -0.25875430113E+01  0.47787268830E+02  0.19999989905E+02 0.  0.
        -12    1    1    2    0    0  0.40731704103E+02  0.14759958268E+02  0.25875430113E+01  0.43400731170E+02  0.00000000000E+00 0.  1.
         11    1    3    3    0    0 -0.13212236478E+02 -0.13410687066E+02  0.23380307013E+01  0.18970400843E+02  0.51100000000E-03 0. -1.
        -11    1    3    3    0    0 -0.36518339169E+01  0.63320751807E+00 -0.30388255261E+01  0.47928387785E+01  0.51100000000E-03 0.  1.
         12    1    3    3    0    0 -0.23867633708E+02 -0.19824787204E+01 -0.18867481866E+01  0.24024029209E+02  0.00000000000E+00 0. -1.
</event>
<event>
 7    1  0.1542786E-009  0.4778727E+02  0.7816164E-02  0.1312668E+00
        -11   -1    0    0    0    0  0.00000000000E+00  0.00000000000E+00  0.45593999997E+02  0.45594000000E+02  0.51100000000E-03 0.  1.
         11   -1    0    0    0    0 -0.00000000000E+00 -0.00000000000E+00 -0.45593999997E+02  0.45594000000E+02  0.51100000000E-03 0. -1.
    9900012    2    1    2    0    0 -0.30985119499E+02  0.12296661137E+02 -0.27790962936E+02  0.47787272743E+02  0.20000007744E+02 0.  0.
        -12    1    1    2    0    0  0.30985119499E+02 -0.12296661137E+02  0.27790962936E+02  0.43400727257E+02  0.00000000000E+00 0.  1.
         11    1    3    3    0    0 -0.15283932332E+02  0.75641331438E+01 -0.18983615778E+02  0.25518471075E+02  0.51100000000E-03 0. -1.
        -11    1    3    3    0    0 -0.95027038741E+00 -0.20433883824E+01 -0.51609853609E+01  0.56315379824E+01  0.51100000000E-03 0.  1.
        -12    1    3    3    0    0 -0.14750916780E+02  0.67759163756E+01 -0.36463617972E+01  0.16637263685E+02  0.00000000000E+00 0.  1.
</event>
<event>
 7    1  0.1542786E-009  0.4778726E+02  0.7816164E-02  0.1312668E+00
        -11   -1    0    0    0    0  0.00000000000E+00  0.00000000000E+00  0.45593999997E+02  0.45594000000E+02  0.51100000000E-03 0.  1.
         11   -1    0    0    0    0 -0.00000000000E+00 -0.00000000000E+00 -0.45593999997E+02  0.45594000000E+02  0.51100000000E-03 0. -1.
    9900012    2    1    2    0    0 -0.13531839006E+02 -0.25692423416E+02 -0.32255426193E+02  0.47787264905E+02  0.19999972008E+02 0.  0.
        -12    1    1    2    0    0  0.13531839006E+02  0.25692423416E+02  0.32255426193E+02  0.43400735095E+02  0.00000000000E+00 0.  1.
         11    1    3    3    0    0 -0.67676986119E+01 -0.77660684788E+01 -0.23502390482E+02  0.25660785700E+02  0.51100000000E-03 0. -1.
        -11    1    3    3    0    0  0.11944133829E+01 -0.49747563743E+01 -0.23959883130E+01  0.56493879819E+01  0.51100000000E-03 0.  1.
        -12    1    3    3    0    0 -0.79585537767E+01 -0.12951598563E+02 -0.63570473984E+01  0.16477091223E+02  0.00000000000E+00 0.  1.
</event>
<event>
 7    1  0.2167453E-009  0.4778728E+02  0.7816164E-02  0.1312668E+00
        -11   -1    0    0    0    0  0.00000000000E+00  0.00000000000E+00  0.45593999997E+02  0.45594000000E+02  0.51100000000E-03 0.  1.
         11   -1    0    0    0    0 -0.00000000000E+00 -0.00000000000E+00 -0.45593999997E+02  0.45594000000E+02  0.51100000000E-03 0. -1.
    9900012    2    1    2    0    0 -0.29459439719E+02  0.31446002810E+02  0.51877928389E+01  0.47787275631E+02  0.20000020911E+02 0.  0.
        -12    1    1    2    0    0  0.29459439719E+02 -0.31446002810E+02 -0.51877928389E+01  0.43400724369E+02  0.00000000000E+00 0.  1.
         11    1    3    3    0    0 -0.96619753807E+01  0.11501999845E+02  0.53991179948E+01  0.15962463596E+02  0.51100000000E-03 0. -1.
        -11    1    3    3    0    0 -0.15378337599E+02  0.18334634559E+02 -0.56971281653E+01  0.24598970737E+02  0.51100000000E-03 0.  1.
        -12    1    3    3    0    0 -0.44191267389E+01  0.16093684058E+01  0.54858030094E+01  0.72258412976E+01  0.00000000000E+00 0.  1.
</event>
<event>
 7    1  0.1542786E-009  0.4778727E+02  0.7816164E-02  0.1312668E+00
        -11   -1    0    0    0    0  0.00000000000E+00  0.00000000000E+00  0.45593999997E+02  0.45594000000E+02  0.51100000000E-03 0.  1.
         11   -1    0    0    0    0 -0.00000000000E+00 -0.00000000000E+00 -0.45593999997E+02  0.45594000000E+02  0.51100000000E-03 0. -1.
    9900012    2    1    2    0    0 -0.23318647752E+02  0.85623622382E+00 -0.36594139938E+02  0.47787267849E+02  0.19999985429E+02 0.  0.
        -12    1    1    2    0    0  0.23318647752E+02 -0.85623622382E+00  0.36594139938E+02  0.43400732151E+02  0.00000000000E+00 0.  1.
         11    1    3    3    0    0 -0.83926582773E+01 -0.42429500202E+01 -0.65585791300E+01  0.11465352079E+02  0.51100000000E-03 0. -1.
        -11    1    3    3    0    0 -0.17045052168E+02  0.60404531378E+01 -0.26064762935E+02  0.31723693742E+02  0.51100000000E-03 0.  1.
         12    1    3    3    0    0  0.21190626931E+01 -0.94126689380E+00 -0.39707978732E+01  0.45982220273E+01  0.00000000000E+00 0. -1.
</event>
<event>
 7    1  0.1542786E-009  0.4778728E+02  0.7816164E-02  0.1312668E+00
        -11   -1    0    0    0    0  0.00000000000E+00  0.00000000000E+00  0.45593999997E+02  0.45594000000E+02  0.51100000000E-03 0. -1.
         11   -1    0    0    0    0 -0.00000000000E+00 -0.00000000000E+00 -0.45593999997E+02  0.45594000000E+02  0.51100000000E-03 0.  1.
    9900012    2    1    2    0    0 -0.39373339854E+02 -0.10300657036E+02  0.15075125934E+02  0.47787275945E+02  0.20000022342E+02 0.  0.
        -12    1    1    2    0    0  0.39373339854E+02  0.10300657036E+02 -0.15075125934E+02  0.43400724055E+02  0.00000000000E+00 0.  1.
         11    1    3    3    0    0 -0.22177659021E+02 -0.51796490387E+01  0.69230919147E+01  0.23803498183E+02  0.51100000000E-03 0. -1.
        -11    1    3    3    0    0 -0.77833359706E+01 -0.39440345287E+01 -0.31063883600E+01  0.92620395216E+01  0.51100000000E-03 0.  1.
        -12    1    3    3    0    0 -0.94123448617E+01 -0.11769734685E+01  0.11258422379E+02  0.14721738240E+02  0.00000000000E+00 0.  1.
</event>
<event>
 7    1  0.1542786E-009  0.4778727E+02  0.7816164E-02  0.1312668E+00
        -11   -1    0    0    0    0  0.00000000000E+00  0.00000000000E+00  0.45593999997E+02  0.45594000000E+02  0.51100000000E-03 0. -1.
         11   -1    0    0    0    0 -0.00000000000E+00 -0.00000000000E+00 -0.45593999997E+02  0.45594000000E+02  0.51100000000E-03 0.  1.
    9900012    2    1    2    0    0  0.97385435176E+01  0.70366091587E+01  0.41704559267E+02  0.47787270029E+02  0.19999995372E+02 0.  0.
        -12    1    1    2    0    0 -0.97385435176E+01 -0.70366091587E+01 -0.41704559267E+02  0.43400729971E+02  0.00000000000E+00 0.  1.
         11    1    3    3    0    0  0.61902658040E+01  0.77220849940E+01  0.23161200742E+02  0.25187123842E+02  0.51100000000E-03 0. -1.
        -11    1    3    3    0    0 -0.37310901306E+01  0.21798548947E+01  0.31983668532E+01  0.53760907464E+01  0.51100000000E-03 0.  1.
         12    1    3    3    0    0  0.72793678442E+01 -0.28653307300E+01  0.15344991673E+02  0.17224055441E+02  0.00000000000E+00 0. -1.
</event>
<event>
 7    1  0.1542786E-009  0.4778728E+02  0.7816164E-02  0.1312668E+00
        -11   -1    0    0    0    0  0.00000000000E+00  0.00000000000E+00  0.45593999997E+02  0.45594000000E+02  0.51100000000E-03 0.  1.
         11   -1    0    0    0    0 -0.00000000000E+00 -0.00000000000E+00 -0.45593999997E+02  0.45594000000E+02  0.51100000000E-03 0. -1.
    9900012    2    1    2    0    0 -0.30001433123E+02  0.15756679412E+02  0.27115749422E+02  0.47787276478E+02  0.20000024773E+02 0.  0.
        -12    1    1    2    0    0  0.30001433123E+02 -0.15756679412E+02 -0.27115749422E+02  0.43400723522E+02  0.00000000000E+00 0.  1.
         11    1    3    3    0    0 -0.19857539008E+02  0.15553306663E+02  0.16554143719E+02  0.30170629396E+02  0.51100000000E-03 0. -1.
        -11    1    3    3    0    0 -0.11969400973E+02 -0.41479098272E+00  0.10018160349E+02  0.15614164987E+02  0.51100000000E-03 0.  1.
        -12    1    3    3    0    0  0.18255068579E+01  0.61816373138E+00  0.54344535372E+00  0.20024820946E+01  0.00000000000E+00 0.  1.
</event>
<event>
 7    1  0.1542786E-009  0.4778727E+02  0.7816164E-02  0.1312668E+00
        -11   -1    0    0    0    0  0.00000000000E+00  0.00000000000E+00  0.45593999997E+02  0.45594000000E+02  0.51100000000E-03 0. -1.
         11   -1    0    0    0    0 -0.00000000000E+00 -0.00000000000E+00 -0.45593999997E+02  0.45594000000E+02  0.51100000000E-03 0.  1.
    9900012    2    1    2    0    0 -0.27078781581E+02  0.33715711144E+02 -0.36896775199E+01  0.47787270627E+02  0.19999998098E+02 0.  0.
        -12    1    1    2    0    0  0.27078781581E+02 -0.33715711144E+02  0.36896775199E+01  0.43400729373E+02  0.00000000000E+00 0.  1.
         11    1    3    3    0    0 -0.95860798286E+01  0.19276344331E+02  0.19323049304E+01  0.21614906427E+02  0.51100000000E-03 0. -1.
        -11    1    3    3    0    0  0.97227737568E+00  0.19829174936E+01 -0.30284304503E+01  0.37481563915E+01  0.51100000000E-03 0.  1.
        -12    1    3    3    0    0 -0.18464979128E+02  0.12456449320E+02 -0.25935519999E+01  0.22424207809E+02  0.00000000000E+00 0.  1.
</event>
<event>
 7    1  0.1542786E-009  0.4778727E+02  0.7816164E-02  0.1312668E+00
        -11   -1    0    0    0    0  0.00000000000E+00  0.00000000000E+00  0.45593999997E+02  0.45594000000E+02  0.51100000000E-03 0.  1.
         11   -1    0    0    0    0 -0.00000000000E+00 -0.00000000000E+00 -0.45593999997E+02  0.45594000000E+02  0.51100000000E-03 0. -1.
    9900012    2    1    2    0    0 -0.33473848183E+02 -0.68206983715E+01 -0.26769442240E+02  0.47787268712E+02  0.19999989366E+02 0.  0.
        -12    1    1    2    0    0  0.33473848183E+02  0.68206983715E+01  0.26769442240E+02  0.43400731288E+02  0.00000000000E+00 0.  1.
         11    1    3    3    0    0 -0.80106594011E+01  0.82765321436E+00 -0.82265566781E+01  0.11512250385E+02  0.51100000000E-03 0. -1.
        -11    1    3    3    0    0 -0.17366682789E+02 -0.12005322967E+02 -0.87829921342E+01  0.22866359608E+02  0.51100000000E-03 0.  1.
        -12    1    3    3    0    0 -0.80965059932E+01  0.43569713817E+01 -0.97598934278E+01  0.13408658719E+02  0.00000000000E+00 0.  1.
</event>
<event>
 7    1  0.1542786E-009  0.4778727E+02  0.7816164E-02  0.1312668E+00
        -11   -1    0    0    0    0  0.00000000000E+00  0.00000000000E+00  0.45593999997E+02  0.45594000000E+02  0.51100000000E-03 0.  1.
         11   -1    0    0    0    0 -0.00000000000E+00 -0.00000000000E+00 -0.45593999997E+02  0.45594000000E+02  0.51100000000E-03 0. -1.
    9900012    2    1    2    0    0 -0.21946633432E+02 -0.63615722541E+01 -0.36898493963E+02  0.47787272157E+02  0.20000005074E+02 0.  0.
        -12    1    1    2    0    0  0.21946633432E+02  0.63615722541E+01  0.36898493963E+02  0.43400727843E+02  0.00000000000E+00 0.  1.
         11    1    3    3    0    0 -0.67725292380E+01 -0.61415618658E+01 -0.56959932807E+01  0.10771734965E+02  0.51100000000E-03 0. -1.
        -11    1    3    3    0    0 -0.11851815008E+02 -0.39871533155E+01 -0.28901690092E+02  0.31490801847E+02  0.51100000000E-03 0.  1.
        -12    1    3    3    0    0 -0.33222891860E+01  0.37671429272E+01 -0.23008105903E+01  0.55247353459E+01  0.00000000000E+00 0.  1.
</event>
<event>
 7    1  0.1542786E-009  0.4778727E+02  0.7816164E-02  0.1312668E+00
        -11   -1    0    0    0    0  0.00000000000E+00  0.00000000000E+00  0.45593999997E+02  0.45594000000E+02  0.51100000000E-03 0.  1.
         11   -1    0    0    0    0 -0.00000000000E+00 -0.00000000000E+00 -0.45593999997E+02  0.45594000000E+02  0.51100000000E-03 0. -1.
    9900012    2    1    2    0    0  0.17688509168E+00  0.43208418097E+02 -0.40773146329E+01  0.47787272156E+02  0.20000005068E+02 0.  0.
        -12    1    1    2    0    0 -0.17688509168E+00 -0.43208418097E+02  0.40773146329E+01  0.43400727844E+02  0.00000000000E+00 0.  1.
         11    1    3    3    0    0  0.32982685171E+01  0.26754480021E+02 -0.12098553978E+01  0.26984153253E+02  0.51100000000E-03 0. -1.
        -11    1    3    3    0    0  0.25570566042E+01 -0.54543586761E+00 -0.93411458392E+00  0.27764382002E+01  0.51100000000E-03 0.  1.
         12    1    3    3    0    0 -0.56784400296E+01  0.16999373943E+02 -0.19333446512E+01  0.18026680703E+02  0.00000000000E+00 0. -1.
</event>
<event>
 7    1  0.1542786E-009  0.4778727E+02  0.7816164E-02  0.1312668E+00
        -11   -1    0    0    0    0  0.00000000000E+00  0.00000000000E+00  0.45593999997E+02  0.45594000000E+02  0.51100000000E-03 0. -1.
         11   -1    0    0    0    0 -0.00000000000E+00 -0.00000000000E+00 -0.45593999997E+02  0.45594000000E+02  0.51100000000E-03 0.  1.
    9900012    2    1    2    0    0  0.23966756224E+02  0.25028151576E+02  0.26130624352E+02  0.47787270695E+02  0.19999998406E+02 0.  0.
        -12    1    1    2    0    0 -0.23966756224E+02 -0.25028151576E+02 -0.26130624352E+02  0.43400729305E+02  0.00000000000E+00 0.  1.
         11    1    3    3    0    0  0.94555769754E+01  0.58042420070E+01  0.31579538897E+01  0.11535589896E+02  0.51100000000E-03 0. -1.
        -11    1    3    3    0    0  0.53216227202E+01  0.17318697570E+02  0.11628167983E+02  0.21528382308E+02  0.51100000000E-03 0.  1.
        -12    1    3    3    0    0  0.91895565280E+01  0.19052119986E+01  0.11344502479E+02  0.14723298491E+02  0.00000000000E+00 0.  1.
</event>
<event>
 7    1  0.1542786E-009  0.4778727E+02  0.7816164E-02  0.1312668E+00
        -11   -1    0    0    0    0  0.00000000000E+00  0.00000000000E+00  0.45593999997E+02  0.45594000000E+02  0.51100000000E-03 0.  1.
         11   -1    0    0    0    0 -0.00000000000E+00 -0.00000000000E+00 -0.45593999997E+02  0.45594000000E+02  0.51100000000E-03 0. -1.
    9900012    2    1    2    0    0 -0.34602443810E+02  0.17601134564E+02 -0.19403456829E+02  0.47787271982E+02  0.20000004273E+02 0.  0.
        -12    1    1    2    0    0  0.34602443810E+02 -0.17601134564E+02  0.19403456829E+02  0.43400728018E+02  0.00000000000E+00 0.  1.
         11    1    3    3    0    0 -0.28854614030E+02  0.15667113900E+02 -0.11893952232E+02  0.34921530733E+02  0.51100000000E-03 0. -1.
        -11    1    3    3    0    0 -0.61744829152E+01 -0.19735819158E+00 -0.84747884883E+01  0.10487384312E+02  0.51100000000E-03 0.  1.
        -12    1    3    3    0    0  0.42665313512E+00  0.21313788560E+01  0.96528389146E+00  0.23783569363E+01  0.00000000000E+00 0.  1.
</event>
<event>
 7    1  0.1542786E-009  0.4778728E+02  0.7816164E-02  0.1312668E+00
        -11   -1    0    0    0    0  0.00000000000E+00  0.00000000000E+00  0.45593999997E+02  0.45594000000E+02  0.51100000000E-03 0.  1.
         11   -1    0    0    0    0 -0.00000000000E+00 -0.00000000000E+00 -0.45593999997E+02  0.45594000000E+02  0.51100000000E-03 0. -1.
    9900012    2    1    2    0    0 -0.39328596175E+02 -0.18278087891E+02 -0.16719716547E+01  0.47787280383E+02  0.20000042580E+02 0.  0.
        -12    1    1    2    0    0  0.39328596175E+02  0.18278087891E+02  0.16719716547E+01  0.43400719617E+02  0.00000000000E+00 0.  1.
         11    1    3    3    0    0 -0.27371264209E+02 -0.58247396161E+01  0.44092300407E+01  0.28329401790E+02  0.51100000000E-03 0. -1.
        -11    1    3    3    0    0 -0.10442914011E+01 -0.14722079270E+01 -0.32528007377E+01  0.37200340874E+01  0.51100000000E-03 0.  1.
         12    1    3    3    0    0 -0.10913040565E+02 -0.10981140348E+02 -0.28284009577E+01  0.15737844506E+02  0.00000000000E+00 0. -1.
</event>
<event>
 7    1  0.1542786E-009  0.4778727E+02  0.7816164E-02  0.1312668E+00
        -11   -1    0    0    0    0  0.00000000000E+00  0.00000000000E+00  0.45593999997E+02  0.45594000000E+02  0.51100000000E-03 0. -1.
         11   -1    0    0    0    0 -0.00000000000E+00 -0.00000000000E+00 -0.45593999997E+02  0.45594000000E+02  0.51100000000E-03 0.  1.
    9900012    2    1    2    0    0 -0.81632879298E+01  0.37179907736E+02  0.20847989722E+02  0.47787268618E+02  0.19999988935E+02 0.  0.
        -12    1    1    2    0    0  0.81632879298E+01 -0.37179907736E+02 -0.20847989722E+02  0.43400731382E+02  0.00000000000E+00 0.  1.
         11    1    3    3    0    0  0.16699514660E+01  0.13727689221E+02  0.28548375496E+01  0.14120491739E+02  0.51100000000E-03 0. -1.
        -11    1    3    3    0    0 -0.19799576446E+01 -0.13245978378E+01  0.22635985506E+01  0.32861330415E+01  0.51100000000E-03 0.  1.
         12    1    3    3    0    0 -0.78532817512E+01  0.24776816352E+02  0.15729553622E+02  0.30380643837E+02  0.00000000000E+00 0. -1.
</event>
<event>
 7    1  0.1542786E-009  0.4778727E+02  0.7816164E-02  0.1312668E+00
        -11   -1    0    0    0    0  0.00000000000E+00  0.00000000000E+00  0.45593999997E+02  0.45594000000E+02  0.51100000000E-03 0. -1.
         11   -1    0    0    0    0 -0.00000000000E+00 -0.00000000000E+00 -0.45593999997E+02  0.45594000000E+02  0.51100000000E-03 0.  1.
    9900012    2    1    2    0    0 -0.47203067086E+01  0.40385198668E+02  0.15178204777E+02  0.47787268818E+02  0.19999989848E+02 0.  0.
        -12    1    1    2    0    0  0.47203067086E+01 -0.40385198668E+02 -0.15178204777E+02  0.43400731182E+02  0.00000000000E+00 0.  1.
         11    1    3    3    0    0 -0.47948430057E-01  0.12224238738E+02 -0.10197152496E+01  0.12266789769E+02  0.51100000000E-03 0. -1.
        -11    1    3    3    0    0 -0.75763059000E+01  0.72913316445E+01  0.60831597333E+01  0.12147788311E+02  0.51100000000E-03 0.  1.
         12    1    3    3    0    0  0.29039476214E+01  0.20869628285E+02  0.10114760293E+02  0.23372690738E+02  0.00000000000E+00 0. -1.
</event>
<event>
 7    1  0.1542786E-009  0.4778727E+02  0.7816164E-02  0.1312668E+00
        -11   -1    0    0    0    0  0.00000000000E+00  0.00000000000E+00  0.45593999997E+02  0.45594000000E+02  0.51100000000E-03 0.  1.
         11   -1    0    0    0    0 -0.00000000000E+00 -0.00000000000E+00 -0.45593999997E+02  0.45594000000E+02  0.51100000000E-03 0. -1.
    9900012    2    1    2    0    0 -0.12248574029E+02  0.24055230765E+02 -0.33984429157E+02  0.47787272840E+02  0.20000008186E+02 0.  0.
        -12    1    1    2    0    0  0.12248574029E+02 -0.24055230765E+02  0.33984429157E+02  0.43400727160E+02  0.00000000000E+00 0.  1.
         11    1    3    3    0    0  0.21045996547E+00 -0.51760431182E+00  0.60116209158E+00  0.82073366091E+00  0.51100000000E-03 0. -1.
        -11    1    3    3    0    0 -0.22147057657E+01 -0.13884388342E+01 -0.11849226481E+00  0.26166246775E+01  0.51100000000E-03 0.  1.
         12    1    3    3    0    0 -0.10244328228E+02  0.25961273911E+02 -0.34467098984E+02  0.44349914502E+02  0.00000000000E+00 0. -1.
</event>
<event>
 7    1  0.1542786E-009  0.4778727E+02  0.7816164E-02  0.1312668E+00
        -11   -1    0    0    0    0  0.00000000000E+00  0.00000000000E+00  0.45593999997E+02  0.45594000000E+02  0.51100000000E-03 0.  1.
         11   -1    0    0    0    0 -0.00000000000E+00 -0.00000000000E+00 -0.45593999997E+02  0.45594000000E+02  0.51100000000E-03 0. -1.
    9900012    2    1    2    0    0 -0.37660434772E+02  0.13319098859E+02 -0.16968100663E+02  0.47787272106E+02  0.20000004840E+02 0.  0.
        -12    1    1    2    0    0  0.37660434772E+02 -0.13319098859E+02  0.16968100663E+02  0.43400727894E+02  0.00000000000E+00 0.  1.
         11    1    3    3    0    0 -0.14590948653E+02  0.55452529065E+01  0.16381653212E+01  0.15694878090E+02  0.51100000000E-03 0. -1.
        -11    1    3    3    0    0 -0.13816452301E+02  0.94021908808E+01 -0.11041565405E+02  0.20030269953E+02  0.51100000000E-03 0.  1.
        -12    1    3    3    0    0 -0.92530338182E+01 -0.16283449279E+01 -0.75647005799E+01  0.12062124063E+02  0.00000000000E+00 0.  1.
</event>
<event>
 7    1  0.1542786E-009  0.4778727E+02  0.7816164E-02  0.1312668E+00
        -11   -1    0    0    0    0  0.00000000000E+00  0.00000000000E+00  0.45593999997E+02  0.45594000000E+02  0.51100000000E-03 0.  1.
         11   -1    0    0    0    0 -0.00000000000E+00 -0.00000000000E+00 -0.45593999997E+02  0.45594000000E+02  0.51100000000E-03 0. -1.
    9900012    2    1    2    0    0  0.32178693160E+00  0.40710950446E+02 -0.15037907883E+02  0.47787266060E+02  0.19999977275E+02 0.  0.
        -12    1    1    2    0    0 -0.32178693160E+00 -0.40710950446E+02  0.15037907883E+02  0.43400733940E+02  0.00000000000E+00 0.  1.
         11    1    3    3    0    0  0.18091325225E+01  0.28755377120E+02 -0.83381418918E+01  0.29994487564E+02  0.51100000000E-03 0. -1.
        -11    1    3    3    0    0 -0.54224653697E+01  0.91688161855E+01 -0.15955392765E+01  0.10771075470E+02  0.51100000000E-03 0.  1.
         12    1    3    3    0    0  0.39351197788E+01  0.27867571406E+01 -0.51042267146E+01  0.70217030262E+01  0.00000000000E+00 0. -1.
</event>
<event>
 7    1  0.1542786E-009  0.4778727E+02  0.7816164E-02  0.1312668E+00
        -11   -1    0    0    0    0  0.00000000000E+00  0.00000000000E+00  0.45593999997E+02  0.45594000000E+02  0.51100000000E-03 0.  1.
         11   -1    0    0    0    0 -0.00000000000E+00 -0.00000000000E+00 -0.45593999997E+02  0.45594000000E+02  0.51100000000E-03 0. -1.
    9900012    2    1    2    0    0  0.13511215110E+02  0.37500778989E+01 -0.41073190161E+02  0.47787274568E+02  0.20000016066E+02 0.  0.
        -12    1    1    2    0    0 -0.13511215110E+02 -0.37500778989E+01  0.41073190161E+02  0.43400725432E+02  0.00000000000E+00 0.  1.
         11    1    3    3    0    0  0.13266971116E+01  0.68183650243E+01 -0.33800571323E+01  0.77249604083E+01  0.51100000000E-03 0.  1.
        -11    1    3    3    0    0  0.70731654329E+01  0.85444874009E+00 -0.19252779914E+02  0.20528742937E+02  0.51100000000E-03 0. -1.
        -12    1    3    3    0    0  0.51113525656E+01 -0.39227358655E+01 -0.18440353115E+02  0.19533571223E+02  0.00000000000E+00 0.  1.
</event>
<event>
 7    1  0.1542786E-009  0.4778727E+02  0.7816164E-02  0.1312668E+00
        -11   -1    0    0    0    0  0.00000000000E+00  0.00000000000E+00  0.45593999997E+02  0.45594000000E+02  0.51100000000E-03 0.  1.
         11   -1    0    0    0    0 -0.00000000000E+00 -0.00000000000E+00 -0.45593999997E+02  0.45594000000E+02  0.51100000000E-03 0. -1.
    9900012    2    1    2    0    0 -0.15887685608E+00  0.37548023541E+02 -0.21765662750E+02  0.47787269723E+02  0.19999993973E+02 0.  0.
        -12    1    1    2    0    0  0.15887685608E+00 -0.37548023541E+02  0.21765662750E+02  0.43400730277E+02  0.00000000000E+00 0.  1.
         11    1    3    3    0    0 -0.14029787227E+01  0.10879479622E+02 -0.91190723899E+01  0.14264953826E+02  0.51100000000E-03 0. -1.
        -11    1    3    3    0    0  0.34080030321E+01  0.25252986187E+02 -0.15376802308E+02  0.29761952985E+02  0.51100000000E-03 0.  1.
        -12    1    3    3    0    0 -0.21639011655E+01  0.14155577315E+01  0.27302119475E+01  0.37603629112E+01  0.00000000000E+00 0.  1.
</event>
<event>
 7    1  0.1542786E-009  0.4778726E+02  0.7816164E-02  0.1312668E+00
        -11   -1    0    0    0    0  0.00000000000E+00  0.00000000000E+00  0.45593999997E+02  0.45594000000E+02  0.51100000000E-03 0.  1.
         11   -1    0    0    0    0 -0.00000000000E+00 -0.00000000000E+00 -0.45593999997E+02  0.45594000000E+02  0.51100000000E-03 0. -1.
    9900012    2    1    2    0    0  0.77704782732E+01  0.42139888235E+02 -0.68900863877E+01  0.47787264943E+02  0.19999972182E+02 0.  0.
        -12    1    1    2    0    0 -0.77704782732E+01 -0.42139888235E+02  0.68900863877E+01  0.43400735057E+02  0.00000000000E+00 0.  1.
         11    1    3    3    0    0 -0.30845694508E+01  0.98388114980E+01 -0.41915037198E+00  0.10319518772E+02  0.51100000000E-03 0. -1.
        -11    1    3    3    0    0  0.11507147809E+02  0.18848185644E+02 -0.88499856583E+01  0.23790561136E+02  0.51100000000E-03 0.  1.
         12    1    3    3    0    0 -0.65210008476E+00  0.13452891093E+02  0.23790496426E+01  0.13677185035E+02  0.00000000000E+00 0. -1.
</event>
<event>
 7    1  0.1542786E-009  0.4778727E+02  0.7816164E-02  0.1312668E+00
        -11   -1    0    0    0    0  0.00000000000E+00  0.00000000000E+00  0.45593999997E+02  0.45594000000E+02  0.51100000000E-03 0.  1.
         11   -1    0    0    0    0 -0.00000000000E+00 -0.00000000000E+00 -0.45593999997E+02  0.45594000000E+02  0.51100000000E-03 0. -1.
    9900012    2    1    2    0    0  0.27506717486E+02  0.65238308876E+01 -0.32930888099E+02  0.47787271120E+02  0.20000000345E+02 0.  0.
        -12    1    1    2    0    0 -0.27506717486E+02 -0.65238308876E+01  0.32930888099E+02  0.43400728880E+02  0.00000000000E+00 0.  1.
         11    1    3    3    0    0  0.48520359422E+01 -0.38337772191E+01 -0.10760211888E+02  0.12410570523E+02  0.51100000000E-03 0. -1.
        -11    1    3    3    0    0  0.25947692810E+01 -0.13038073873E+01 -0.71988780968E+01  0.77625116708E+01  0.51100000000E-03 0.  1.
        -12    1    3    3    0    0  0.20059912263E+02  0.11661415494E+02 -0.14971798114E+02  0.27614188927E+02  0.00000000000E+00 0.  1.
</event>
<event>
 7    1  0.1542786E-009  0.4778729E+02  0.7816164E-02  0.1312668E+00
        -11   -1    0    0    0    0  0.00000000000E+00  0.00000000000E+00  0.45593999997E+02  0.45594000000E+02  0.51100000000E-03 0. -1.
         11   -1    0    0    0    0 -0.00000000000E+00 -0.00000000000E+00 -0.45593999997E+02  0.45594000000E+02  0.51100000000E-03 0.  1.
    9900012    2    1    2    0    0  0.41801938106E+02  0.11262961259E+02 -0.30602303798E+01  0.47787293374E+02  0.20000101807E+02 0.  0.
        -12    1    1    2    0    0 -0.41801938106E+02 -0.11262961259E+02  0.30602303798E+01  0.43400706626E+02  0.00000000000E+00 0.  1.
         11    1    3    3    0    0  0.81377962191E+01 -0.16655693828E+01  0.60095357529E+00  0.83282047365E+01  0.51100000000E-03 0. -1.
        -11    1    3    3    0    0  0.59821669309E+01  0.87760460078E+01 -0.43042454028E+01  0.11460010186E+02  0.51100000000E-03 0.  1.
        -12    1    3    3    0    0  0.27681974955E+02  0.41524846338E+01  0.64306144776E+00  0.27999078451E+02  0.00000000000E+00 0.  1.
</event>
<event>
 7    1  0.1542786E-009  0.4778727E+02  0.7816164E-02  0.1312668E+00
        -11   -1    0    0    0    0  0.00000000000E+00  0.00000000000E+00  0.45593999997E+02  0.45594000000E+02  0.51100000000E-03 0.  1.
         11   -1    0    0    0    0 -0.00000000000E+00 -0.00000000000E+00 -0.45593999997E+02  0.45594000000E+02  0.51100000000E-03 0. -1.
    9900012    2    1    2    0    0 -0.71756900879E+01  0.25034624041E+02 -0.34718875890E+02  0.47787271064E+02  0.20000000090E+02 0.  0.
        -12    1    1    2    0    0  0.71756900879E+01 -0.25034624041E+02  0.34718875890E+02  0.43400728936E+02  0.00000000000E+00 0.  1.
         11    1    3    3    0    0  0.73289114004E+00  0.60668698541E+01 -0.21481103592E+01  0.64775317542E+01  0.51100000000E-03 0. -1.
        -11    1    3    3    0    0 -0.83300857844E+01  0.18907913226E+02 -0.34018072922E+02  0.39801115528E+02  0.51100000000E-03 0.  1.
        -12    1    3    3    0    0  0.42150455645E+00  0.59840961019E-01  0.14473073909E+01  0.15086237819E+01  0.00000000000E+00 0.  1.
</event>
<event>
 7    1  0.1542786E-009  0.4778728E+02  0.7816164E-02  0.1312668E+00
        -11   -1    0    0    0    0  0.00000000000E+00  0.00000000000E+00  0.45593999997E+02  0.45594000000E+02  0.51100000000E-03 0. -1.
         11   -1    0    0    0    0 -0.00000000000E+00 -0.00000000000E+00 -0.45593999997E+02  0.45594000000E+02  0.51100000000E-03 0.  1.
    9900012    2    1    2    0    0  0.16640840692E+02  0.39639265311E+02 -0.59526268924E+01  0.47787277653E+02  0.20000030132E+02 0.  0.
        -12    1    1    2    0    0 -0.16640840692E+02 -0.39639265311E+02  0.59526268924E+01  0.43400722347E+02  0.00000000000E+00 0.  1.
         11    1    3    3    0    0  0.30312637510E+01  0.41093409440E+01 -0.46167460755E+01  0.68840095517E+01  0.51100000000E-03 0. -1.
        -11    1    3    3    0    0 -0.22061156360E+00  0.19966101459E+02  0.72663324003E+00  0.19980537357E+02  0.51100000000E-03 0.  1.
        -12    1    3    3    0    0  0.13830188505E+02  0.15563822907E+02 -0.20625140570E+01  0.20922730745E+02  0.00000000000E+00 0.  1.
</event>
<event>
 7    1  0.1542786E-009  0.4778728E+02  0.7816164E-02  0.1312668E+00
        -11   -1    0    0    0    0  0.00000000000E+00  0.00000000000E+00  0.45593999997E+02  0.45594000000E+02  0.51100000000E-03 0. -1.
         11   -1    0    0    0    0 -0.00000000000E+00 -0.00000000000E+00 -0.45593999997E+02  0.45594000000E+02  0.51100000000E-03 0.  1.
    9900012    2    1    2    0    0  0.68409535510E+01  0.29173994650E+02  0.31395892988E+02  0.47787277588E+02  0.20000029837E+02 0.  0.
        -12    1    1    2    0    0 -0.68409535510E+01 -0.29173994650E+02 -0.31395892988E+02  0.43400722412E+02  0.00000000000E+00 0.  1.
         11    1    3    3    0    0  0.69859040352E+01  0.53494019552E+01  0.18309841766E+02  0.20314262533E+02  0.51100000000E-03 0. -1.
        -11    1    3    3    0    0 -0.10653495301E+01  0.82414865069E+01  0.64103747209E+01  0.10495235766E+02  0.51100000000E-03 0.  1.
         12    1    3    3    0    0  0.92039904588E+00  0.15583106188E+02  0.66756765005E+01  0.16977779290E+02  0.00000000000E+00 0. -1.
</event>
<event>
 7    1  0.1542786E-009  0.4778727E+02  0.7816164E-02  0.1312668E+00
        -11   -1    0    0    0    0  0.00000000000E+00  0.00000000000E+00  0.45593999997E+02  0.45594000000E+02  0.51100000000E-03 0.  1.
         11   -1    0    0    0    0 -0.00000000000E+00 -0.00000000000E+00 -0.45593999997E+02  0.45594000000E+02  0.51100000000E-03 0. -1.
    9900012    2    1    2    0    0  0.54298908025E+01  0.18660322547E+02 -0.38806337444E+02  0.47787272154E+02  0.20000005060E+02 0.  0.
        -12    1    1    2    0    0 -0.54298908025E+01 -0.18660322547E+02  0.38806337444E+02  0.43400727846E+02  0.00000000000E+00 0.  1.
         11    1    3    3    0    0  0.26673965592E-01  0.57832935322E+01 -0.18413255112E+02  0.19300133669E+02  0.51100000000E-03 0. -1.
        -11    1    3    3    0    0  0.39870058549E-01 -0.67642007907E+00  0.18068256944E+01  0.19297028517E+01  0.51100000000E-03 0.  1.
         12    1    3    3    0    0  0.53633467784E+01  0.13553449094E+02 -0.22199908027E+02  0.26557435633E+02  0.00000000000E+00 0. -1.
</event>
<event>
 7    1  0.1542786E-009  0.4778727E+02  0.7816164E-02  0.1312668E+00
        -11   -1    0    0    0    0  0.00000000000E+00  0.00000000000E+00  0.45593999997E+02  0.45594000000E+02  0.51100000000E-03 0.  1.
         11   -1    0    0    0    0 -0.00000000000E+00 -0.00000000000E+00 -0.45593999997E+02  0.45594000000E+02  0.51100000000E-03 0. -1.
    9900012    2    1    2    0    0 -0.42761900749E+02 -0.25795906134E+01 -0.69562130448E+01  0.47787270245E+02  0.19999996354E+02 0.  0.
        -12    1    1    2    0    0  0.42761900749E+02  0.25795906134E+01  0.69562130448E+01  0.43400729755E+02  0.00000000000E+00 0.  1.
         11    1    3    3    0    0 -0.88641126968E+01  0.38984737518E+01 -0.13849508763E+01  0.97820591230E+01  0.51100000000E-03 0. -1.
        -11    1    3    3    0    0 -0.12693304688E+02  0.24612024919E+01  0.32975240802E+01  0.13343581488E+02  0.51100000000E-03 0.  1.
         12    1    3    3    0    0 -0.21204483364E+02 -0.89392668571E+01 -0.88687862487E+01  0.24661629634E+02  0.00000000000E+00 0. -1.
</event>
<event>
 7    1  0.1542786E-009  0.4778727E+02  0.7816164E-02  0.1312668E+00
        -11   -1    0    0    0    0  0.00000000000E+00  0.00000000000E+00  0.45593999997E+02  0.45594000000E+02  0.51100000000E-03 0.  1.
         11   -1    0    0    0    0 -0.00000000000E+00 -0.00000000000E+00 -0.45593999997E+02  0.45594000000E+02  0.51100000000E-03 0. -1.
    9900012    2    1    2    0    0  0.26832388632E+02 -0.21034232663E+02 -0.26855302640E+02  0.47787270706E+02  0.19999998455E+02 0.  0.
        -12    1    1    2    0    0 -0.26832388632E+02  0.21034232663E+02  0.26855302640E+02  0.43400729294E+02  0.00000000000E+00 0.  1.
         11    1    3    3    0    0  0.14441270541E+02 -0.87333333390E+01 -0.50379973722E+01  0.17612575730E+02  0.51100000000E-03 0. -1.
        -11    1    3    3    0    0  0.18089072648E+00 -0.75466973092E+01 -0.60542260524E+01  0.96767254320E+01  0.51100000000E-03 0.  1.
         12    1    3    3    0    0  0.12210227364E+02 -0.47542020149E+01 -0.15763079215E+02  0.20497969544E+02  0.00000000000E+00 0. -1.
</event>
<event>
 7    1  0.1542786E-009  0.4778727E+02  0.7816164E-02  0.1312668E+00
        -11   -1    0    0    0    0  0.00000000000E+00  0.00000000000E+00  0.45593999997E+02  0.45594000000E+02  0.51100000000E-03 0.  1.
         11   -1    0    0    0    0 -0.00000000000E+00 -0.00000000000E+00 -0.45593999997E+02  0.45594000000E+02  0.51100000000E-03 0. -1.
    9900012    2    1    2    0    0 -0.25021707890E+02 -0.72215601410E+01 -0.34718676402E+02  0.47787270885E+02  0.19999999275E+02 0.  0.
        -12    1    1    2    0    0  0.25021707890E+02  0.72215601410E+01  0.34718676402E+02  0.43400729115E+02  0.00000000000E+00 0.  1.
         11    1    3    3    0    0 -0.40477284684E+01  0.19246442550E+01 -0.61353533791E+01  0.75980867730E+01  0.51100000000E-03 0. -1.
        -11    1    3    3    0    0 -0.93366380172E+01 -0.12213759511E+02 -0.11091338711E+02  0.18956965092E+02  0.51100000000E-03 0.  1.
        -12    1    3    3    0    0 -0.11637341404E+02  0.30675551151E+01 -0.17491984312E+02  0.21232219020E+02  0.00000000000E+00 0.  1.
</event>
<event>
 7    1  0.1542786E-009  0.4778729E+02  0.7816164E-02  0.1312668E+00
        -11   -1    0    0    0    0  0.00000000000E+00  0.00000000000E+00  0.45593999997E+02  0.45594000000E+02  0.51100000000E-03 0.  1.
         11   -1    0    0    0    0 -0.00000000000E+00 -0.00000000000E+00 -0.45593999997E+02  0.45594000000E+02  0.51100000000E-03 0. -1.
    9900012    2    1    2    0    0  0.12762715015E+01  0.57044970509E+01 -0.43005252439E+02  0.47787286954E+02  0.20000072538E+02 0.  0.
        -12    1    1    2    0    0 -0.12762715015E+01 -0.57044970509E+01  0.43005252439E+02  0.43400713046E+02  0.00000000000E+00 0.  1.
         11    1    3    3    0    0 -0.22792299776E+01 -0.27463351804E+01 -0.11852490435E+02  0.12378157212E+02  0.51100000000E-03 0. -1.
        -11    1    3    3    0    0  0.52936152155E+01  0.38416091345E+01 -0.36934249989E+01  0.75114386954E+01  0.51100000000E-03 0.  1.
         12    1    3    3    0    0 -0.17381137363E+01  0.46092230967E+01 -0.27459337006E+02  0.27897691046E+02  0.00000000000E+00 0. -1.
</event>
<event>
 7    1  0.1542786E-009  0.4778727E+02  0.7816164E-02  0.1312668E+00
        -11   -1    0    0    0    0  0.00000000000E+00  0.00000000000E+00  0.45593999997E+02  0.45594000000E+02  0.51100000000E-03 0.  1.
         11   -1    0    0    0    0 -0.00000000000E+00 -0.00000000000E+00 -0.45593999997E+02  0.45594000000E+02  0.51100000000E-03 0. -1.
    9900012    2    1    2    0    0  0.12966887444E+02 -0.29104964409E+02 -0.29468357303E+02  0.47787271834E+02  0.20000003598E+02 0.  0.
        -12    1    1    2    0    0 -0.12966887444E+02  0.29104964409E+02  0.29468357303E+02  0.43400728166E+02  0.00000000000E+00 0.  1.
         11    1    3    3    0    0  0.53530824409E-01 -0.13612606819E+02 -0.10184677889E+02  0.17000988028E+02  0.51100000000E-03 0. -1.
        -11    1    3    3    0    0 -0.16370758988E+01 -0.68531994563E+01 -0.63890462273E+01  0.95113759384E+01  0.51100000000E-03 0.  1.
         12    1    3    3    0    0  0.14550432518E+02 -0.86391581331E+01 -0.12894633187E+02  0.21274907867E+02  0.00000000000E+00 0. -1.
</event>
<event>
 7    1  0.1542786E-009  0.4778727E+02  0.7816164E-02  0.1312668E+00
        -11   -1    0    0    0    0  0.00000000000E+00  0.00000000000E+00  0.45593999997E+02  0.45594000000E+02  0.51100000000E-03 0.  1.
         11   -1    0    0    0    0 -0.00000000000E+00 -0.00000000000E+00 -0.45593999997E+02  0.45594000000E+02  0.51100000000E-03 0. -1.
    9900012    2    1    2    0    0  0.11675663305E+02 -0.18178346347E+02 -0.37641072036E+02  0.47787266210E+02  0.19999977958E+02 0.  0.
        -12    1    1    2    0    0 -0.11675663305E+02  0.18178346347E+02  0.37641072036E+02  0.43400733790E+02  0.00000000000E+00 0.  1.
         11    1    3    3    0    0  0.50380321689E+01 -0.10418996292E+02 -0.13250489274E+02  0.17592973544E+02  0.51100000000E-03 0. -1.
        -11    1    3    3    0    0  0.27125214751E+01  0.33250754248E+00  0.12625153397E+01  0.30103619821E+01  0.51100000000E-03 0.  1.
        -12    1    3    3    0    0  0.39251096612E+01 -0.80918575977E+01 -0.25653098101E+02  0.27183930684E+02  0.00000000000E+00 0.  1.
</event>
<event>
 7    1  0.1542786E-009  0.4778726E+02  0.7816164E-02  0.1312668E+00
        -11   -1    0    0    0    0  0.00000000000E+00  0.00000000000E+00  0.45593999997E+02  0.45594000000E+02  0.51100000000E-03 0. -1.
         11   -1    0    0    0    0 -0.00000000000E+00 -0.00000000000E+00 -0.45593999997E+02  0.45594000000E+02  0.51100000000E-03 0.  1.
    9900012    2    1    2    0    0 -0.40396939860E+02 -0.30403619851E+01  0.15571361661E+02  0.47787264350E+02  0.19999969475E+02 0.  0.
        -12    1    1    2    0    0  0.40396939860E+02  0.30403619851E+01 -0.15571361661E+02  0.43400735650E+02  0.00000000000E+00 0.  1.
         11    1    3    3    0    0 -0.12816316738E+02  0.85132676552E+00  0.15423205564E+01  0.12936826695E+02  0.51100000000E-03 0. -1.
        -11    1    3    3    0    0 -0.46794405147E+01 -0.42665987584E+01 -0.22827512568E+01  0.67314175370E+01  0.51100000000E-03 0.  1.
         12    1    3    3    0    0 -0.22901182607E+02  0.37491000784E+00  0.16311792361E+02  0.28119020117E+02  0.00000000000E+00 0. -1.
</event>
<event>
 7    1  0.1542786E-009  0.4778727E+02  0.7816164E-02  0.1312668E+00
        -11   -1    0    0    0    0  0.00000000000E+00  0.00000000000E+00  0.45593999997E+02  0.45594000000E+02  0.51100000000E-03 0.  1.
         11   -1    0    0    0    0 -0.00000000000E+00 -0.00000000000E+00 -0.45593999997E+02  0.45594000000E+02  0.51100000000E-03 0. -1.
    9900012    2    1    2    0    0 -0.28496430712E+02  0.86179707370E+01 -0.31580172218E+02  0.47787271201E+02  0.20000000716E+02 0.  0.
        -12    1    1    2    0    0  0.28496430712E+02 -0.86179707370E+01  0.31580172218E+02  0.43400728799E+02  0.00000000000E+00 0.  1.
         11    1    3    3    0    0 -0.10763121432E+02 -0.33401758581E+01 -0.63707305313E+01  0.12945569338E+02  0.51100000000E-03 0. -1.
        -11    1    3    3    0    0 -0.48970384365E+01  0.95947388580E+01 -0.90475763491E+01  0.14067645050E+02  0.51100000000E-03 0.  1.
         12    1    3    3    0    0 -0.12836270843E+02  0.23634077371E+01 -0.16161865338E+02  0.20774056813E+02  0.00000000000E+00 0. -1.
</event>
<event>
 7    1  0.1542786E-009  0.4778727E+02  0.7816164E-02  0.1312668E+00
        -11   -1    0    0    0    0  0.00000000000E+00  0.00000000000E+00  0.45593999997E+02  0.45594000000E+02  0.51100000000E-03 0. -1.
         11   -1    0    0    0    0 -0.00000000000E+00 -0.00000000000E+00 -0.45593999997E+02  0.45594000000E+02  0.51100000000E-03 0.  1.
    9900012    2    1    2    0    0  0.38046477249E+02  0.20501766044E+02  0.39706965404E+01  0.47787271054E+02  0.20000000046E+02 0.  0.
        -12    1    1    2    0    0 -0.38046477249E+02 -0.20501766044E+02 -0.39706965404E+01  0.43400728946E+02  0.00000000000E+00 0.  1.
         11    1    3    3    0    0  0.10778148999E+02  0.27756069163E+01  0.87586715818E+00  0.11164212159E+02  0.51100000000E-03 0. -1.
        -11    1    3    3    0    0  0.53507424910E+01  0.74771590997E+00  0.67639487191E+01  0.86568196714E+01  0.51100000000E-03 0.  1.
        -12    1    3    3    0    0  0.21917585759E+02  0.16978443218E+02 -0.36691193369E+01  0.27966239224E+02  0.00000000000E+00 0.  1.
</event>
<event>
 7    1  0.1542786E-009  0.4778727E+02  0.7816164E-02  0.1312668E+00
        -11   -1    0    0    0    0  0.00000000000E+00  0.00000000000E+00  0.45593999997E+02  0.45594000000E+02  0.51100000000E-03 0.  1.
         11   -1    0    0    0    0 -0.00000000000E+00 -0.00000000000E+00 -0.45593999997E+02  0.45594000000E+02  0.51100000000E-03 0. -1.
    9900012    2    1    2    0    0 -0.12094496768E+02  0.20411381484E+02 -0.36341742252E+02  0.47787267563E+02  0.19999984128E+02 0.  0.
        -12    1    1    2    0    0  0.12094496768E+02 -0.20411381484E+02  0.36341742252E+02  0.43400732437E+02  0.00000000000E+00 0.  1.
         11    1    3    3    0    0 -0.17102747753E+01 -0.12585072762E+01 -0.77619839852E+01  0.80471905669E+01  0.51100000000E-03 0. -1.
        -11    1    3    3    0    0 -0.13515290237E+02  0.14871773130E+02 -0.21669469557E+02  0.29553318212E+02  0.51100000000E-03 0.  1.
         12    1    3    3    0    0  0.31310682445E+01  0.67981156305E+01 -0.69102887093E+01  0.10186758784E+02  0.00000000000E+00 0. -1.
</event>
<event>
 7    1  0.1542786E-009  0.4778727E+02  0.7816164E-02  0.1312668E+00
        -11   -1    0    0    0    0  0.00000000000E+00  0.00000000000E+00  0.45593999997E+02  0.45594000000E+02  0.51100000000E-03 0.  1.
         11   -1    0    0    0    0 -0.00000000000E+00 -0.00000000000E+00 -0.45593999997E+02  0.45594000000E+02  0.51100000000E-03 0. -1.
    9900012    2    1    2    0    0 -0.13952512739E+02 -0.31966526086E+02 -0.25828127603E+02  0.47787267550E+02  0.19999984067E+02 0.  0.
        -12    1    1    2    0    0  0.13952512739E+02  0.31966526086E+02  0.25828127603E+02  0.43400732450E+02  0.00000000000E+00 0.  1.
         11    1    3    3    0    0 -0.42519841468E+01 -0.14875708996E+02 -0.10957201631E+02  0.18958543066E+02  0.51100000000E-03 0. -1.
        -11    1    3    3    0    0 -0.85817662438E+01 -0.29951213041E+01 -0.12136158440E+01  0.91700778169E+01  0.51100000000E-03 0.  1.
        -12    1    3    3    0    0 -0.11187623487E+01 -0.14095695785E+02 -0.13657310128E+02  0.19658646667E+02  0.00000000000E+00 0.  1.
</event>
<event>
 7    1  0.1542786E-009  0.4778727E+02  0.7816164E-02  0.1312668E+00
        -11   -1    0    0    0    0  0.00000000000E+00  0.00000000000E+00  0.45593999997E+02  0.45594000000E+02  0.51100000000E-03 0.  1.
         11   -1    0    0    0    0 -0.00000000000E+00 -0.00000000000E+00 -0.45593999997E+02  0.45594000000E+02  0.51100000000E-03 0. -1.
    9900012    2    1    2    0    0 -0.70953401721E+01  0.19760837926E+02 -0.37984060047E+02  0.47787269760E+02  0.19999994143E+02 0.  0.
        -12    1    1    2    0    0  0.70953401721E+01 -0.19760837926E+02  0.37984060047E+02  0.43400730240E+02  0.00000000000E+00 0.  1.
         11    1    3    3    0    0  0.26983075097E+01  0.18158275332E+02 -0.25170655500E+02  0.31153903849E+02  0.51100000000E-03 0. -1.
        -11    1    3    3    0    0 -0.21831599645E+01 -0.80442723412E+00 -0.14322419094E+01  0.27321434358E+01  0.51100000000E-03 0.  1.
         12    1    3    3    0    0 -0.76104877173E+01  0.24069898284E+01 -0.11381162638E+02  0.13901222475E+02  0.00000000000E+00 0. -1.
</event>
<event>
 7    1  0.1542786E-009  0.4778728E+02  0.7816164E-02  0.1312668E+00
        -11   -1    0    0    0    0  0.00000000000E+00  0.00000000000E+00  0.45593999997E+02  0.45594000000E+02  0.51100000000E-03 0.  1.
         11   -1    0    0    0    0 -0.00000000000E+00 -0.00000000000E+00 -0.45593999997E+02  0.45594000000E+02  0.51100000000E-03 0. -1.
    9900012    2    1    2    0    0 -0.15213326786E+02  0.23798928927E+02 -0.32951303238E+02  0.47787277482E+02  0.20000029353E+02 0.  0.
        -12    1    1    2    0    0  0.15213326786E+02 -0.23798928927E+02  0.32951303238E+02  0.43400722518E+02  0.00000000000E+00 0.  1.
         11    1    3    3    0    0 -0.14027834115E+00  0.61424409534E+00  0.46341707490E+00  0.78213136242E+00  0.51100000000E-03 0. -1.
        -11    1    3    3    0    0 -0.10076085528E+02  0.83451894411E+01 -0.39976401087E+01  0.13680307492E+02  0.51100000000E-03 0.  1.
         12    1    3    3    0    0 -0.49969629174E+01  0.14839495391E+02 -0.29417080204E+02  0.33324838628E+02  0.00000000000E+00 0. -1.
</event>
<event>
 7    1  0.1542786E-009  0.4778727E+02  0.7816164E-02  0.1312668E+00
        -11   -1    0    0    0    0  0.00000000000E+00  0.00000000000E+00  0.45593999997E+02  0.45594000000E+02  0.51100000000E-03 0.  1.
         11   -1    0    0    0    0 -0.00000000000E+00 -0.00000000000E+00 -0.45593999997E+02  0.45594000000E+02  0.51100000000E-03 0. -1.
    9900012    2    1    2    0    0 -0.62011108049E+01 -0.27102641288E+02 -0.33325911192E+02  0.47787270781E+02  0.19999998797E+02 0.  0.
        -12    1    1    2    0    0  0.62011108049E+01  0.27102641288E+02  0.33325911192E+02  0.43400729219E+02  0.00000000000E+00 0.  1.
         11    1    3    3    0    0 -0.77878414146E+01 -0.12854546099E+02 -0.10310292829E+02  0.18226134198E+02  0.51100000000E-03 0. -1.
        -11    1    3    3    0    0  0.48322895071E+00 -0.15899524453E+02 -0.22415912644E+02  0.27486388049E+02  0.51100000000E-03 0.  1.
        -12    1    3    3    0    0  0.11035016590E+01  0.16514292651E+01 -0.59970571994E+00  0.20747485341E+01  0.00000000000E+00 0.  1.
</event>
<event>
 7    1  0.1542786E-009  0.4778727E+02  0.7816164E-02  0.1312668E+00
        -11   -1    0    0    0    0  0.00000000000E+00  0.00000000000E+00  0.45593999997E+02  0.45594000000E+02  0.51100000000E-03 0. -1.
         11   -1    0    0    0    0 -0.00000000000E+00 -0.00000000000E+00 -0.45593999997E+02  0.45594000000E+02  0.51100000000E-03 0.  1.
    9900012    2    1    2    0    0  0.30967484477E+02  0.28467234935E+02  0.10689000663E+02  0.47787270803E+02  0.19999998898E+02 0.  0.
        -12    1    1    2    0    0 -0.30967484477E+02 -0.28467234935E+02 -0.10689000663E+02  0.43400729197E+02  0.00000000000E+00 0.  1.
         11    1    3    3    0    0  0.12451090703E+02  0.20117273062E+02  0.86649169132E+01  0.25195537710E+02  0.51100000000E-03 0. -1.
        -11    1    3    3    0    0  0.12628617344E+02  0.29553701804E+01  0.52329001941E+01  0.13985686741E+02  0.51100000000E-03 0.  1.
        -12    1    3    3    0    0  0.58877764304E+01  0.53945916926E+01 -0.32088164441E+01  0.86060463510E+01  0.00000000000E+00 0.  1.
</event>
<event>
 7    1  0.1542786E-009  0.4778727E+02  0.7816164E-02  0.1312668E+00
        -11   -1    0    0    0    0  0.00000000000E+00  0.00000000000E+00  0.45593999997E+02  0.45594000000E+02  0.51100000000E-03 0. -1.
         11   -1    0    0    0    0 -0.00000000000E+00 -0.00000000000E+00 -0.45593999997E+02  0.45594000000E+02  0.51100000000E-03 0.  1.
    9900012    2    1    2    0    0 -0.14150464688E+02  0.39389318942E+02  0.11483426801E+02  0.47787272025E+02  0.20000004472E+02 0.  0.
        -12    1    1    2    0    0  0.14150464688E+02 -0.39389318942E+02 -0.11483426801E+02  0.43400727975E+02  0.00000000000E+00 0.  1.
         11    1    3    3    0    0 -0.15236470633E+02  0.26315782955E+02  0.38135605132E+01  0.30646593839E+02  0.51100000000E-03 0. -1.
        -11    1    3    3    0    0 -0.20065478943E+01  0.62687053155E+01  0.21734695878E+00  0.65856010163E+01  0.51100000000E-03 0.  1.
        -12    1    3    3    0    0  0.30925538386E+01  0.68048306720E+01  0.74525193289E+01  0.10555077170E+02  0.00000000000E+00 0.  1.
</event>
<event>
 7    1  0.1542786E-009  0.4778727E+02  0.7816164E-02  0.1312668E+00
        -11   -1    0    0    0    0  0.00000000000E+00  0.00000000000E+00  0.45593999997E+02  0.45594000000E+02  0.51100000000E-03 0.  1.
         11   -1    0    0    0    0 -0.00000000000E+00 -0.00000000000E+00 -0.45593999997E+02  0.45594000000E+02  0.51100000000E-03 0. -1.
    9900012    2    1    2    0    0  0.20460030719E+02 -0.10088938749E+01 -0.38262160016E+02  0.47787267138E+02  0.19999982189E+02 0.  0.
        -12    1    1    2    0    0 -0.20460030719E+02  0.10088938749E+01  0.38262160016E+02  0.43400732862E+02  0.00000000000E+00 0.  1.
         11    1    3    3    0    0  0.74384886302E+01  0.32933361248E+01 -0.72296177393E+01  0.10883223275E+02  0.51100000000E-03 0. -1.
        -11    1    3    3    0    0 -0.24285076644E+01 -0.37331733268E+01 -0.81638562300E+01  0.92996118935E+01  0.51100000000E-03 0.  1.
        -12    1    3    3    0    0  0.15450049754E+02 -0.56905667293E+00 -0.22868686046E+02  0.27604431970E+02  0.00000000000E+00 0.  1.
</event>
<event>
 7    1  0.1542786E-009  0.4778728E+02  0.7816164E-02  0.1312668E+00
        -11   -1    0    0    0    0  0.00000000000E+00  0.00000000000E+00  0.45593999997E+02  0.45594000000E+02  0.51100000000E-03 0.  1.
         11   -1    0    0    0    0 -0.00000000000E+00 -0.00000000000E+00 -0.45593999997E+02  0.45594000000E+02  0.51100000000E-03 0. -1.
    9900012    2    1    2    0    0  0.79715054974E+01 -0.22290155873E+02 -0.36376185634E+02  0.47787276157E+02  0.20000023312E+02 0.  0.
        -12    1    1    2    0    0 -0.79715054974E+01  0.22290155873E+02  0.36376185634E+02  0.43400723843E+02  0.00000000000E+00 0.  1.
         11    1    3    3    0    0  0.20299151188E+01  0.11141968060E+01 -0.50134121967E+01  0.55223447944E+01  0.51100000000E-03 0.  1.
        -11    1    3    3    0    0  0.54028729805E+01 -0.11980737761E+02 -0.60089780810E+01  0.14451191355E+02  0.51100000000E-03 0. -1.
         12    1    3    3    0    0  0.53871739811E+00 -0.11423614918E+02 -0.25353795357E+02  0.27813740008E+02  0.00000000000E+00 0. -1.
</event>
<event>
 7    1  0.1542786E-009  0.4778727E+02  0.7816164E-02  0.1312668E+00
        -11   -1    0    0    0    0  0.00000000000E+00  0.00000000000E+00  0.45593999997E+02  0.45594000000E+02  0.51100000000E-03 0.  1.
         11   -1    0    0    0    0 -0.00000000000E+00 -0.00000000000E+00 -0.45593999997E+02  0.45594000000E+02  0.51100000000E-03 0. -1.
    9900012    2    1    2    0    0  0.20783002320E+02  0.26321941654E+02 -0.27547152817E+02  0.47787269289E+02  0.19999991996E+02 0.  0.
        -12    1    1    2    0    0 -0.20783002320E+02 -0.26321941654E+02  0.27547152817E+02  0.43400730711E+02  0.00000000000E+00 0.  1.
         11    1    3    3    0    0  0.19628612462E+01  0.13772894724E+02 -0.33735849070E+01  0.14315255105E+02  0.51100000000E-03 0. -1.
        -11    1    3    3    0    0  0.63061526997E+01  0.16755102039E+01 -0.58698641041E+01  0.87766850905E+01  0.51100000000E-03 0.  1.
         12    1    3    3    0    0  0.12513988375E+02  0.10873536727E+02 -0.18303703806E+02  0.24695329093E+02  0.00000000000E+00 0. -1.
</event>
<event>
 7    1  0.1542786E-009  0.4778727E+02  0.7816164E-02  0.1312668E+00
        -11   -1    0    0    0    0  0.00000000000E+00  0.00000000000E+00  0.45593999997E+02  0.45594000000E+02  0.51100000000E-03 0. -1.
         11   -1    0    0    0    0 -0.00000000000E+00 -0.00000000000E+00 -0.45593999997E+02  0.45594000000E+02  0.51100000000E-03 0.  1.
    9900012    2    1    2    0    0 -0.15786576029E+02  0.40427144964E+01  0.40225164372E+02  0.47787269914E+02  0.19999994846E+02 0.  0.
        -12    1    1    2    0    0  0.15786576029E+02 -0.40427144964E+01 -0.40225164372E+02  0.43400730086E+02  0.00000000000E+00 0.  1.
         11    1    3    3    0    0 -0.89524254107E+01 -0.37911595356E+01  0.18852585453E+02  0.21211760650E+02  0.51100000000E-03 0.  1.
        -11    1    3    3    0    0 -0.10003521091E+02  0.76915582443E+01  0.17297396704E+02  0.21410988661E+02  0.51100000000E-03 0. -1.
        -12    1    3    3    0    0  0.31693704719E+01  0.14231578776E+00  0.40751822154E+01  0.51645206031E+01  0.00000000000E+00 0.  1.
</event>
<event>
 7    1  0.1542786E-009  0.4778728E+02  0.7816164E-02  0.1312668E+00
        -11   -1    0    0    0    0  0.00000000000E+00  0.00000000000E+00  0.45593999997E+02  0.45594000000E+02  0.51100000000E-03 0.  1.
         11   -1    0    0    0    0 -0.00000000000E+00 -0.00000000000E+00 -0.45593999997E+02  0.45594000000E+02  0.51100000000E-03 0. -1.
    9900012    2    1    2    0    0 -0.24340027369E+02  0.33767000476E+02 -0.12287207400E+02  0.47787277435E+02  0.20000029139E+02 0.  0.
        -12    1    1    2    0    0  0.24340027369E+02 -0.33767000476E+02  0.12287207400E+02  0.43400722565E+02  0.00000000000E+00 0.  1.
         11    1    3    3    0    0 -0.14457203971E+02  0.24433748846E+02 -0.15359578000E+02  0.32279025170E+02  0.51100000000E-03 0. -1.
        -11    1    3    3    0    0  0.22029117523E+00 -0.55762364781E+00  0.10726672464E+01  0.12288562231E+01  0.51100000000E-03 0.  1.
        -12    1    3    3    0    0 -0.10103114573E+02  0.98908752778E+01  0.19997033533E+01  0.14279396043E+02  0.00000000000E+00 0.  1.
</event>
<event>
 7    1  0.1542786E-009  0.4778727E+02  0.7816164E-02  0.1312668E+00
        -11   -1    0    0    0    0  0.00000000000E+00  0.00000000000E+00  0.45593999997E+02  0.45594000000E+02  0.51100000000E-03 0.  1.
         11   -1    0    0    0    0 -0.00000000000E+00 -0.00000000000E+00 -0.45593999997E+02  0.45594000000E+02  0.51100000000E-03 0. -1.
    9900012    2    1    2    0    0 -0.25684154442E+02 -0.41601612448E+01 -0.34736737189E+02  0.47787266809E+02  0.19999980688E+02 0.  0.
        -12    1    1    2    0    0  0.25684154442E+02  0.41601612448E+01  0.34736737189E+02  0.43400733191E+02  0.00000000000E+00 0.  1.
         11    1    3    3    0    0 -0.20595048476E+02  0.18669809650E+00 -0.23574812479E+02  0.31304355313E+02  0.51100000000E-03 0. -1.
        -11    1    3    3    0    0 -0.80283555971E+00  0.23679151261E+01  0.30668702905E+00  0.25190522375E+01  0.51100000000E-03 0.  1.
         12    1    3    3    0    0 -0.42862704066E+01 -0.67147744675E+01 -0.11468611739E+02  0.13963859258E+02  0.00000000000E+00 0. -1.
</event>
<event>
 7    1  0.1542786E-009  0.4778727E+02  0.7816164E-02  0.1312668E+00
        -11   -1    0    0    0    0  0.00000000000E+00  0.00000000000E+00  0.45593999997E+02  0.45594000000E+02  0.51100000000E-03 0. -1.
         11   -1    0    0    0    0 -0.00000000000E+00 -0.00000000000E+00 -0.45593999997E+02  0.45594000000E+02  0.51100000000E-03 0.  1.
    9900012    2    1    2    0    0 -0.31014634029E+02  0.18862924025E+02  0.23788774405E+02  0.47787271730E+02  0.20000003124E+02 0.  0.
        -12    1    1    2    0    0  0.31014634029E+02 -0.18862924025E+02 -0.23788774405E+02  0.43400728270E+02  0.00000000000E+00 0.  1.
         11    1    3    3    0    0 -0.81779487128E+01  0.32969051087E+01  0.12182843937E+02  0.15038953258E+02  0.51100000000E-03 0. -1.
        -11    1    3    3    0    0 -0.11003399177E+02  0.51503291297E+01 -0.15082225704E+01  0.12242361667E+02  0.51100000000E-03 0.  1.
        -12    1    3    3    0    0 -0.11833286139E+02  0.10415689787E+02  0.13114153039E+02  0.20505956805E+02  0.00000000000E+00 0.  1.
</event>
<event>
 7    1  0.1542786E-009  0.4778727E+02  0.7816164E-02  0.1312668E+00
        -11   -1    0    0    0    0  0.00000000000E+00  0.00000000000E+00  0.45593999997E+02  0.45594000000E+02  0.51100000000E-03 0.  1.
         11   -1    0    0    0    0 -0.00000000000E+00 -0.00000000000E+00 -0.45593999997E+02  0.45594000000E+02  0.51100000000E-03 0. -1.
    9900012    2    1    2    0    0  0.29141260583E+02 -0.14871339171E+01 -0.32127845881E+02  0.47787272856E+02  0.20000008261E+02 0.  0.
        -12    1    1    2    0    0 -0.29141260583E+02  0.14871339171E+01  0.32127845881E+02  0.43400727144E+02  0.00000000000E+00 0.  1.
         11    1    3    3    0    0  0.70027843765E+01 -0.22079429017E+01 -0.46220244800E+01  0.86762383229E+01  0.51100000000E-03 0. -1.
        -11    1    3    3    0    0  0.15385748487E+01  0.10384483332E+01  0.22513205884E+01  0.29178814504E+01  0.51100000000E-03 0.  1.
         12    1    3    3    0    0  0.20599901357E+02 -0.31763934854E+00 -0.29757141990E+02  0.36193153083E+02  0.00000000000E+00 0. -1.
</event>
<event>
 7    1  0.1542786E-009  0.4778727E+02  0.7816164E-02  0.1312668E+00
        -11   -1    0    0    0    0  0.00000000000E+00  0.00000000000E+00  0.45593999997E+02  0.45594000000E+02  0.51100000000E-03 0.  1.
         11   -1    0    0    0    0 -0.00000000000E+00 -0.00000000000E+00 -0.45593999997E+02  0.45594000000E+02  0.51100000000E-03 0. -1.
    9900012    2    1    2    0    0  0.40334828251E+01  0.65860436564E+01 -0.42708058541E+02  0.47787271676E+02  0.20000002878E+02 0.  0.
        -12    1    1    2    0    0 -0.40334828251E+01 -0.65860436564E+01  0.42708058541E+02  0.43400728324E+02  0.00000000000E+00 0.  1.
         11    1    3    3    0    0  0.16614832563E+01  0.60639896289E+01 -0.22179985899E+02  0.23053942647E+02  0.51100000000E-03 0. -1.
        -11    1    3    3    0    0  0.79741353911E+01 -0.77310800083E+00 -0.11076474722E+02  0.13670143516E+02  0.51100000000E-03 0.  1.
        -12    1    3    3    0    0 -0.56021358223E+01  0.12951620283E+01 -0.94515979199E+01  0.11063185513E+02  0.00000000000E+00 0.  1.
</event>
<event>
 7    1  0.1542786E-009  0.4778727E+02  0.7816164E-02  0.1312668E+00
        -11   -1    0    0    0    0  0.00000000000E+00  0.00000000000E+00  0.45593999997E+02  0.45594000000E+02  0.51100000000E-03 0.  1.
         11   -1    0    0    0    0 -0.00000000000E+00 -0.00000000000E+00 -0.45593999997E+02  0.45594000000E+02  0.51100000000E-03 0. -1.
    9900012    2    1    2    0    0 -0.38040035309E+02  0.53459676545E+01 -0.20198998758E+02  0.47787271811E+02  0.20000003496E+02 0.  0.
        -12    1    1    2    0    0  0.38040035309E+02 -0.53459676545E+01  0.20198998758E+02  0.43400728189E+02  0.00000000000E+00 0.  1.
         11    1    3    3    0    0 -0.11050950610E+02  0.40533853021E+01 -0.10719825317E+02  0.15920681420E+02  0.51100000000E-03 0. -1.
        -11    1    3    3    0    0 -0.14757086150E+02  0.58560576670E+01 -0.25035922946E+00  0.15878528995E+02  0.51100000000E-03 0.  1.
         12    1    3    3    0    0 -0.12231998550E+02 -0.45634753146E+01 -0.92288142119E+01  0.15988061397E+02  0.00000000000E+00 0. -1.
</event>
<event>
 7    1  0.1542786E-009  0.4778727E+02  0.7816164E-02  0.1312668E+00
        -11   -1    0    0    0    0  0.00000000000E+00  0.00000000000E+00  0.45593999997E+02  0.45594000000E+02  0.51100000000E-03 0. -1.
         11   -1    0    0    0    0 -0.00000000000E+00 -0.00000000000E+00 -0.45593999997E+02  0.45594000000E+02  0.51100000000E-03 0.  1.
    9900012    2    1    2    0    0 -0.25848029370E+02  0.27508869935E+02  0.21418805536E+02  0.47787265237E+02  0.19999973520E+02 0.  0.
        -12    1    1    2    0    0  0.25848029370E+02 -0.27508869935E+02 -0.21418805536E+02  0.43400734763E+02  0.00000000000E+00 0.  1.
         11    1    3    3    0    0 -0.16253893615E+02  0.57319974119E+01  0.11440099307E+02  0.20686244811E+02  0.51100000000E-03 0.  1.
        -11    1    3    3    0    0 -0.99860957897E+01  0.14559852754E+02  0.50869678935E+01  0.18373586039E+02  0.51100000000E-03 0. -1.
        -12    1    3    3    0    0  0.39196003454E+00  0.72170197693E+01  0.48917383350E+01  0.87274343857E+01  0.00000000000E+00 0.  1.
</event>
<event>
 7    1  0.1542786E-009  0.4778727E+02  0.7816164E-02  0.1312668E+00
        -11   -1    0    0    0    0  0.00000000000E+00  0.00000000000E+00  0.45593999997E+02  0.45594000000E+02  0.51100000000E-03 0.  1.
         11   -1    0    0    0    0 -0.00000000000E+00 -0.00000000000E+00 -0.45593999997E+02  0.45594000000E+02  0.51100000000E-03 0. -1.
    9900012    2    1    2    0    0 -0.29213276052E+02  0.41551289487E+01 -0.31826766825E+02  0.47787266356E+02  0.19999978623E+02 0.  0.
        -12    1    1    2    0    0  0.29213276052E+02 -0.41551289487E+01  0.31826766825E+02  0.43400733644E+02  0.00000000000E+00 0.  1.
         11    1    3    3    0    0  0.67442261124E+00  0.15459621116E+01 -0.22871319826E+00  0.17021030219E+01  0.51100000000E-03 0. -1.
        -11    1    3    3    0    0 -0.12497403889E+02  0.47089231933E+01 -0.50478910108E+01  0.14277263937E+02  0.51100000000E-03 0.  1.
         12    1    3    3    0    0 -0.17390294774E+02 -0.20997563562E+01 -0.26550162616E+02  0.31807899397E+02  0.00000000000E+00 0. -1.
</event>
<event>
 7    1  0.1542786E-009  0.4778727E+02  0.7816164E-02  0.1312668E+00
        -11   -1    0    0    0    0  0.00000000000E+00  0.00000000000E+00  0.45593999997E+02  0.45594000000E+02  0.51100000000E-03 0.  1.
         11   -1    0    0    0    0 -0.00000000000E+00 -0.00000000000E+00 -0.45593999997E+02  0.45594000000E+02  0.51100000000E-03 0. -1.
    9900012    2    1    2    0    0 -0.34619486378E+02  0.17729504481E+02 -0.19255627567E+02  0.47787270061E+02  0.19999995517E+02 0.  0.
        -12    1    1    2    0    0  0.34619486378E+02 -0.17729504481E+02  0.19255627567E+02  0.43400729939E+02  0.00000000000E+00 0.  1.
         11    1    3    3    0    0 -0.13243972203E+02  0.13787910221E+02 -0.67028326646E+01  0.20259250578E+02  0.51100000000E-03 0. -1.
        -11    1    3    3    0    0  0.19842389247E+00 -0.58038300719E+00 -0.37381832599E+01  0.37881698513E+01  0.51100000000E-03 0.  1.
        -12    1    3    3    0    0 -0.21573938068E+02  0.45219772666E+01 -0.88146116421E+01  0.23739849632E+02  0.00000000000E+00 0.  1.
</event>
<event>
 7    1  0.1542786E-009  0.4778726E+02  0.7816164E-02  0.1312668E+00
        -11   -1    0    0    0    0  0.00000000000E+00  0.00000000000E+00  0.45593999997E+02  0.45594000000E+02  0.51100000000E-03 0.  1.
         11   -1    0    0    0    0 -0.00000000000E+00 -0.00000000000E+00 -0.45593999997E+02  0.45594000000E+02  0.51100000000E-03 0. -1.
    9900012    2    1    2    0    0  0.33267242339E+02  0.27871280790E+02 -0.32606930490E+00  0.47787262369E+02  0.19999960444E+02 0.  0.
        -12    1    1    2    0    0 -0.33267242339E+02 -0.27871280790E+02  0.32606930490E+00  0.43400737631E+02  0.00000000000E+00 0.  1.
         11    1    3    3    0    0  0.41536943936E+01  0.93675571957E+01 -0.11433148391E+01  0.10310745560E+02  0.51100000000E-03 0. -1.
        -11    1    3    3    0    0  0.67451189587E+01  0.12378296789E+02  0.20839889396E+01  0.14249977941E+02  0.51100000000E-03 0.  1.
         12    1    3    3    0    0  0.22368428987E+02  0.61254268056E+01 -0.12667434054E+01  0.23226538867E+02  0.00000000000E+00 0. -1.
</event>
<event>
 7    1  0.1542786E-009  0.4778727E+02  0.7816164E-02  0.1312668E+00
        -11   -1    0    0    0    0  0.00000000000E+00  0.00000000000E+00  0.45593999997E+02  0.45594000000E+02  0.51100000000E-03 0.  1.
         11   -1    0    0    0    0 -0.00000000000E+00 -0.00000000000E+00 -0.45593999997E+02  0.45594000000E+02  0.51100000000E-03 0. -1.
    9900012    2    1    2    0    0 -0.37028784603E+02  0.37772057369E+01 -0.22320956260E+02  0.47787271197E+02  0.20000000694E+02 0.  0.
        -12    1    1    2    0    0  0.37028784603E+02 -0.37772057369E+01  0.22320956260E+02  0.43400728803E+02  0.00000000000E+00 0.  1.
         11    1    3    3    0    0 -0.29665708358E+02  0.48760617488E+01 -0.13952190170E+02  0.33143533929E+02  0.51100000000E-03 0. -1.
        -11    1    3    3    0    0 -0.51510985354E+01 -0.49417987868E+01 -0.31690212082E+01  0.78101144070E+01  0.51100000000E-03 0.  1.
        -12    1    3    3    0    0 -0.22119777095E+01  0.38429427749E+01 -0.51997448818E+01  0.68336228601E+01  0.00000000000E+00 0.  1.
</event>
<event>
 7    1  0.1542786E-009  0.4778724E+02  0.7816164E-02  0.1312668E+00
        -11   -1    0    0    0    0  0.00000000000E+00  0.00000000000E+00  0.45593999997E+02  0.45594000000E+02  0.51100000000E-03 0.  1.
         11   -1    0    0    0    0 -0.00000000000E+00 -0.00000000000E+00 -0.45593999997E+02  0.45594000000E+02  0.51100000000E-03 0. -1.
    9900012    2    1    2    0    0  0.16989503599E+01 -0.42574555780E+02  0.82551151696E+01  0.47787237810E+02  0.19999848472E+02 0.  0.
        -12    1    1    2    0    0 -0.16989503599E+01  0.42574555780E+02 -0.82551151696E+01  0.43400762190E+02  0.00000000000E+00 0.  1.
         11    1    3    3    0    0  0.29270599357E+01 -0.16407255814E+02  0.41288383749E+01  0.17170120261E+02  0.51100000000E-03 0. -1.
        -11    1    3    3    0    0  0.44647884239E+01 -0.18240483896E+02  0.75992723072E+01  0.20258295296E+02  0.51100000000E-03 0.  1.
        -12    1    3    3    0    0 -0.56928979997E+01 -0.79268160696E+01 -0.34729955125E+01  0.10358822253E+02  0.00000000000E+00 0.  1.
</event>
<event>
 7    1  0.1542786E-009  0.4778728E+02  0.7816164E-02  0.1312668E+00
        -11   -1    0    0    0    0  0.00000000000E+00  0.00000000000E+00  0.45593999997E+02  0.45594000000E+02  0.51100000000E-03 0.  1.
         11   -1    0    0    0    0 -0.00000000000E+00 -0.00000000000E+00 -0.45593999997E+02  0.45594000000E+02  0.51100000000E-03 0. -1.
    9900012    2    1    2    0    0  0.23379355520E+02  0.21555690596E+01 -0.36501806828E+02  0.47787278298E+02  0.20000033074E+02 0.  0.
        -12    1    1    2    0    0 -0.23379355520E+02 -0.21555690596E+01  0.36501806828E+02  0.43400721702E+02  0.00000000000E+00 0.  1.
         11    1    3    3    0    0  0.77387581647E+01 -0.68260276844E+01 -0.22976391039E+02  0.25187250292E+02  0.51100000000E-03 0.  1.
        -11    1    3    3    0    0  0.58084076959E+01  0.30142308708E+01 -0.40287192492E+01  0.76846448685E+01  0.51100000000E-03 0. -1.
        -12    1    3    3    0    0  0.98321896591E+01  0.59673658732E+01 -0.94966965405E+01  0.14915383138E+02  0.00000000000E+00 0.  1.
</event>
<event>
 7    1  0.1542786E-009  0.4778725E+02  0.7816164E-02  0.1312668E+00
        -11   -1    0    0    0    0  0.00000000000E+00  0.00000000000E+00  0.45593999997E+02  0.45594000000E+02  0.51100000000E-03 0.  1.
         11   -1    0    0    0    0 -0.00000000000E+00 -0.00000000000E+00 -0.45593999997E+02  0.45594000000E+02  0.51100000000E-03 0. -1.
    9900012    2    1    2    0    0 -0.41781251062E+02 -0.11596005624E+02 -0.18668018133E+01  0.47787248443E+02  0.19999896949E+02 0.  0.
        -12    1    1    2    0    0  0.41781251062E+02  0.11596005624E+02  0.18668018133E+01  0.43400751557E+02  0.00000000000E+00 0.  1.
         11    1    3    3    0    0  0.77234547176E+00  0.11726095942E+01 -0.14776247834E+00  0.14118657158E+01  0.51100000000E-03 0.  1.
        -11    1    3    3    0    0 -0.32961728942E+02 -0.12376373031E+02  0.36139336764E+01  0.35393653402E+02  0.51100000000E-03 0. -1.
         12    1    3    3    0    0 -0.95918675915E+01 -0.39224218697E+00 -0.53329730113E+01  0.10981729325E+02  0.00000000000E+00 0. -1.
</event>
<event>
 7    1  0.1542786E-009  0.4778727E+02  0.7816164E-02  0.1312668E+00
        -11   -1    0    0    0    0  0.00000000000E+00  0.00000000000E+00  0.45593999997E+02  0.45594000000E+02  0.51100000000E-03 0. -1.
         11   -1    0    0    0    0 -0.00000000000E+00 -0.00000000000E+00 -0.45593999997E+02  0.45594000000E+02  0.51100000000E-03 0.  1.
    9900012    2    1    2    0    0  0.24312557848E+02 -0.15179412316E+02  0.32590004380E+02  0.47787269443E+02  0.19999992700E+02 0.  0.
        -12    1    1    2    0    0 -0.24312557848E+02  0.15179412316E+02 -0.32590004380E+02  0.43400730557E+02  0.00000000000E+00 0.  1.
         11    1    3    3    0    0  0.15535617685E+02 -0.80027725835E+01  0.28803012348E+02  0.33689958540E+02  0.51100000000E-03 0.  1.
        -11    1    3    3    0    0  0.39999372404E+01 -0.66051229265E+01  0.49181258247E+01  0.91550591855E+01  0.51100000000E-03 0. -1.
        -12    1    3    3    0    0  0.47770029227E+01 -0.57151680617E+00 -0.11311337928E+01  0.49422517177E+01  0.00000000000E+00 0.  1.
</event>
<event>
 7    1  0.1542786E-009  0.4778727E+02  0.7816164E-02  0.1312668E+00
        -11   -1    0    0    0    0  0.00000000000E+00  0.00000000000E+00  0.45593999997E+02  0.45594000000E+02  0.51100000000E-03 0. -1.
         11   -1    0    0    0    0 -0.00000000000E+00 -0.00000000000E+00 -0.45593999997E+02  0.45594000000E+02  0.51100000000E-03 0.  1.
    9900012    2    1    2    0    0 -0.26676674941E+02  0.33976015590E+02  0.41962477709E+01  0.47787272856E+02  0.20000008258E+02 0.  0.
        -12    1    1    2    0    0  0.26676674941E+02 -0.33976015590E+02 -0.41962477709E+01  0.43400727144E+02  0.00000000000E+00 0.  1.
         11    1    3    3    0    0 -0.20955632895E+02  0.19107197826E+02 -0.57623428068E+01  0.28938350915E+02  0.51100000000E-03 0. -1.
        -11    1    3    3    0    0 -0.10010102859E+01  0.43718693894E+01  0.30797750483E+01  0.54406137668E+01  0.51100000000E-03 0.  1.
         12    1    3    3    0    0 -0.47200317601E+01  0.10496948374E+02  0.68788155294E+01  0.13408308174E+02  0.00000000000E+00 0. -1.
</event>
<event>
 7    1  0.1542786E-009  0.4778727E+02  0.7816164E-02  0.1312668E+00
        -11   -1    0    0    0    0  0.00000000000E+00  0.00000000000E+00  0.45593999997E+02  0.45594000000E+02  0.51100000000E-03 0.  1.
         11   -1    0    0    0    0 -0.00000000000E+00 -0.00000000000E+00 -0.45593999997E+02  0.45594000000E+02  0.51100000000E-03 0. -1.
    9900012    2    1    2    0    0 -0.41585956060E+02 -0.76225398456E+01 -0.98045110227E+01  0.47787270842E+02  0.19999999075E+02 0.  0.
        -12    1    1    2    0    0  0.41585956060E+02  0.76225398456E+01  0.98045110227E+01  0.43400729158E+02  0.00000000000E+00 0.  1.
         11    1    3    3    0    0 -0.34254680973E+02 -0.10860094739E+02 -0.21615036731E+01  0.35999957287E+02  0.51100000000E-03 0. -1.
        -11    1    3    3    0    0 -0.43691771888E+01 -0.58365819578E-01 -0.49461573281E+01  0.65998173044E+01  0.51100000000E-03 0.  1.
         12    1    3    3    0    0 -0.29620978982E+01  0.32959207132E+01 -0.26968500215E+01  0.51874962501E+01  0.00000000000E+00 0. -1.
</event>
<event>
 7    1  0.1542786E-009  0.4778731E+02  0.7816164E-02  0.1312668E+00
        -11   -1    0    0    0    0  0.00000000000E+00  0.00000000000E+00  0.45593999997E+02  0.45594000000E+02  0.51100000000E-03 0.  1.
         11   -1    0    0    0    0 -0.00000000000E+00 -0.00000000000E+00 -0.45593999997E+02  0.45594000000E+02  0.51100000000E-03 0. -1.
    9900012    2    1    2    0    0  0.13685874052E+02  0.25290577707E+02 -0.32506981594E+02  0.47787305055E+02  0.20000155069E+02 0.  0.
        -12    1    1    2    0    0 -0.13685874052E+02 -0.25290577707E+02  0.32506981594E+02  0.43400694945E+02  0.00000000000E+00 0.  1.
         11    1    3    3    0    0  0.20043037566E+00  0.78927004720E+01 -0.93635836864E+01  0.12247921978E+02  0.51100000000E-03 0. -1.
        -11    1    3    3    0    0  0.53922015017E+01  0.15816620122E+02 -0.21329593164E+02  0.27095993319E+02  0.51100000000E-03 0.  1.
        -12    1    3    3    0    0  0.80932421748E+01  0.15812571126E+01 -0.18138047430E+01  0.84433897578E+01  0.00000000000E+00 0.  1.
</event>
<event>
 7    1  0.1542786E-009  0.4778727E+02  0.7816164E-02  0.1312668E+00
        -11   -1    0    0    0    0  0.00000000000E+00  0.00000000000E+00  0.45593999997E+02  0.45594000000E+02  0.51100000000E-03 0.  1.
         11   -1    0    0    0    0 -0.00000000000E+00 -0.00000000000E+00 -0.45593999997E+02  0.45594000000E+02  0.51100000000E-03 0. -1.
    9900012    2    1    2    0    0  0.39034319841E+02  0.80568724583E+01  0.17176493211E+02  0.47787271454E+02  0.20000001869E+02 0.  0.
        -12    1    1    2    0    0 -0.39034319841E+02 -0.80568724583E+01 -0.17176493211E+02  0.43400728546E+02  0.00000000000E+00 0.  1.
         11    1    3    3    0    0  0.26270761567E+01  0.26759756466E+01  0.21617273604E+01  0.43284454757E+01  0.51100000000E-03 0.  1.
        -11    1    3    3    0    0  0.32606906839E+02  0.27884715230E+01  0.59064189788E+01  0.33254649787E+02  0.51100000000E-03 0. -1.
         12    1    3    3    0    0  0.38003368450E+01  0.25924252887E+01  0.91083468716E+01  0.10204176191E+02  0.00000000000E+00 0. -1.
</event>
<event>
 7    1  0.1542786E-009  0.4778727E+02  0.7816164E-02  0.1312668E+00
        -11   -1    0    0    0    0  0.00000000000E+00  0.00000000000E+00  0.45593999997E+02  0.45594000000E+02  0.51100000000E-03 0. -1.
         11   -1    0    0    0    0 -0.00000000000E+00 -0.00000000000E+00 -0.45593999997E+02  0.45594000000E+02  0.51100000000E-03 0.  1.
    9900012    2    1    2    0    0 -0.78967432790E+01 -0.14525026690E+02  0.40128398871E+02  0.47787270159E+02  0.19999995964E+02 0.  0.
        -12    1    1    2    0    0  0.78967432790E+01  0.14525026690E+02 -0.40128398871E+02  0.43400729841E+02  0.00000000000E+00 0.  1.
         11    1    3    3    0    0  0.30285050582E+01 -0.17694410437E+01  0.37599837141E+01  0.51420076124E+01  0.51100000000E-03 0. -1.
        -11    1    3    3    0    0  0.19061866876E+01 -0.85298770357E+01  0.15186575653E+02  0.17522112609E+02  0.51100000000E-03 0.  1.
         12    1    3    3    0    0 -0.12831435025E+02 -0.42257086102E+01  0.21181839504E+02  0.25123149938E+02  0.00000000000E+00 0. -1.
</event>
<event>
 7    1  0.1542786E-009  0.4778727E+02  0.7816164E-02  0.1312668E+00
        -11   -1    0    0    0    0  0.00000000000E+00  0.00000000000E+00  0.45593999997E+02  0.45594000000E+02  0.51100000000E-03 0.  1.
         11   -1    0    0    0    0 -0.00000000000E+00 -0.00000000000E+00 -0.45593999997E+02  0.45594000000E+02  0.51100000000E-03 0. -1.
    9900012    2    1    2    0    0  0.20960985151E+02 -0.35373765643E+02 -0.13890901258E+02  0.47787270375E+02  0.19999996946E+02 0.  0.
        -12    1    1    2    0    0 -0.20960985151E+02  0.35373765643E+02  0.13890901258E+02  0.43400729625E+02  0.00000000000E+00 0.  1.
         11    1    3    3    0    0  0.52841545642E+01 -0.12905996955E+02  0.37641976771E+01  0.14444937912E+02  0.51100000000E-03 0. -1.
        -11    1    3    3    0    0 -0.58875463452E+00 -0.12189693272E+01 -0.17508886388E+01  0.22131718250E+01  0.51100000000E-03 0.  1.
         12    1    3    3    0    0  0.16265585221E+02 -0.21248799361E+02 -0.15904210297E+02  0.31129160638E+02  0.00000000000E+00 0. -1.
</event>
<event>
 7    1  0.1542786E-009  0.4778727E+02  0.7816164E-02  0.1312668E+00
        -11   -1    0    0    0    0  0.00000000000E+00  0.00000000000E+00  0.45593999997E+02  0.45594000000E+02  0.51100000000E-03 0.  1.
         11   -1    0    0    0    0 -0.00000000000E+00 -0.00000000000E+00 -0.45593999997E+02  0.45594000000E+02  0.51100000000E-03 0. -1.
    9900012    2    1    2    0    0  0.15991364015E+02 -0.35426814423E+02 -0.19309071901E+02  0.47787272346E+02  0.20000005932E+02 0.  0.
        -12    1    1    2    0    0 -0.15991364015E+02  0.35426814423E+02  0.19309071901E+02  0.43400727654E+02  0.00000000000E+00 0.  1.
         11    1    3    3    0    0 -0.80900043011E+00 -0.14288957596E+02 -0.70630149537E+01  0.15959792335E+02  0.51100000000E-03 0. -1.
        -11    1    3    3    0    0  0.11975767261E+02 -0.11602657002E+02 -0.16130108659E+01  0.16752386556E+02  0.51100000000E-03 0.  1.
        -12    1    3    3    0    0  0.48245971840E+01 -0.95351998250E+01 -0.10633046082E+02  0.15075093455E+02  0.00000000000E+00 0.  1.
</event>
<event>
 7    1  0.1542786E-009  0.4778727E+02  0.7816164E-02  0.1312668E+00
        -11   -1    0    0    0    0  0.00000000000E+00  0.00000000000E+00  0.45593999997E+02  0.45594000000E+02  0.51100000000E-03 0. -1.
         11   -1    0    0    0    0 -0.00000000000E+00 -0.00000000000E+00 -0.45593999997E+02  0.45594000000E+02  0.51100000000E-03 0.  1.
    9900012    2    1    2    0    0 -0.33718847078E+01  0.12258845911E+02  0.41496676327E+02  0.47787273557E+02  0.20000011457E+02 0.  0.
        -12    1    1    2    0    0  0.33718847078E+01 -0.12258845911E+02 -0.41496676327E+02  0.43400726443E+02  0.00000000000E+00 0.  1.
         11    1    3    3    0    0  0.35745256821E+01  0.23337156212E+01  0.34244624412E+01  0.54726963852E+01  0.51100000000E-03 0.  1.
        -11    1    3    3    0    0 -0.85574096279E+01  0.64418276514E+01  0.36712393407E+02  0.38242989331E+02  0.51100000000E-03 0. -1.
         12    1    3    3    0    0  0.16109992380E+01  0.34833026382E+01  0.13598204790E+01  0.40715878412E+01  0.00000000000E+00 0. -1.
</event>
<event>
 7    1  0.1542786E-009  0.4778727E+02  0.7816164E-02  0.1312668E+00
        -11   -1    0    0    0    0  0.00000000000E+00  0.00000000000E+00  0.45593999997E+02  0.45594000000E+02  0.51100000000E-03 0.  1.
         11   -1    0    0    0    0 -0.00000000000E+00 -0.00000000000E+00 -0.45593999997E+02  0.45594000000E+02  0.51100000000E-03 0. -1.
    9900012    2    1    2    0    0  0.17250701138E+02  0.33731065136E+02 -0.21171957465E+02  0.47787271574E+02  0.20000002414E+02 0.  0.
        -12    1    1    2    0    0 -0.17250701138E+02 -0.33731065136E+02  0.21171957465E+02  0.43400728426E+02  0.00000000000E+00 0.  1.
         11    1    3    3    0    0  0.12712627175E+02  0.18850269337E+02 -0.58289541012E+01  0.23471690394E+02  0.51100000000E-03 0. -1.
        -11    1    3    3    0    0  0.14213084929E+01 -0.15713853513E+01 -0.17479922026E+01  0.27467884439E+01  0.51100000000E-03 0.  1.
         12    1    3    3    0    0  0.31167654708E+01  0.16452181151E+02 -0.13595011162E+02  0.21568792736E+02  0.00000000000E+00 0. -1.
</event>
<event>
 7    1  0.1542786E-009  0.4778727E+02  0.7816164E-02  0.1312668E+00
        -11   -1    0    0    0    0  0.00000000000E+00  0.00000000000E+00  0.45593999997E+02  0.45594000000E+02  0.51100000000E-03 0. -1.
         11   -1    0    0    0    0 -0.00000000000E+00 -0.00000000000E+00 -0.45593999997E+02  0.45594000000E+02  0.51100000000E-03 0.  1.
    9900012    2    1    2    0    0  0.26794059763E+02  0.27806537609E+02  0.19811563077E+02  0.47787271850E+02  0.20000003673E+02 0.  0.
        -12    1    1    2    0    0 -0.26794059763E+02 -0.27806537609E+02 -0.19811563077E+02  0.43400728150E+02  0.00000000000E+00 0.  1.
         11    1    3    3    0    0  0.15459708351E+02  0.21563232516E+02  0.17669933346E+02  0.31877925334E+02  0.51100000000E-03 0. -1.
        -11    1    3    3    0    0  0.42075859734E+01  0.69355691630E+01 -0.83505388268E+00  0.81549503117E+01  0.51100000000E-03 0.  1.
         12    1    3    3    0    0  0.71267654390E+01 -0.69226407062E+00  0.29766836136E+01  0.77543962048E+01  0.00000000000E+00 0. -1.
</event>
<event>
 7    1  0.1542786E-009  0.4778727E+02  0.7816164E-02  0.1312668E+00
        -11   -1    0    0    0    0  0.00000000000E+00  0.00000000000E+00  0.45593999997E+02  0.45594000000E+02  0.51100000000E-03 0. -1.
         11   -1    0    0    0    0 -0.00000000000E+00 -0.00000000000E+00 -0.45593999997E+02  0.45594000000E+02  0.51100000000E-03 0.  1.
    9900012    2    1    2    0    0  0.34274095266E+02 -0.26401691350E+02  0.34439190770E+01  0.47787268543E+02  0.19999988593E+02 0.  0.
        -12    1    1    2    0    0 -0.34274095266E+02  0.26401691350E+02 -0.34439190770E+01  0.43400731457E+02  0.00000000000E+00 0.  1.
         11    1    3    3    0    0  0.13188999607E+02 -0.14136536593E+02 -0.17835044955E+01  0.19415773640E+02  0.51100000000E-03 0. -1.
        -11    1    3    3    0    0  0.17447208200E+02 -0.43199691494E+01 -0.39878933314E+00  0.17978493837E+02  0.51100000000E-03 0.  1.
         12    1    3    3    0    0  0.36378874578E+01 -0.79451856083E+01  0.56262129056E+01  0.10393001066E+02  0.00000000000E+00 0. -1.
</event>
<event>
 7    1  0.1542786E-009  0.4778728E+02  0.7816164E-02  0.1312668E+00
        -11   -1    0    0    0    0  0.00000000000E+00  0.00000000000E+00  0.45593999997E+02  0.45594000000E+02  0.51100000000E-03 0.  1.
         11   -1    0    0    0    0 -0.00000000000E+00 -0.00000000000E+00 -0.45593999997E+02  0.45594000000E+02  0.51100000000E-03 0. -1.
    9900012    2    1    2    0    0 -0.17874470885E+02 -0.22392800148E+02 -0.32598900104E+02  0.47787280007E+02  0.20000040865E+02 0.  0.
        -12    1    1    2    0    0  0.17874470885E+02  0.22392800148E+02  0.32598900104E+02  0.43400719993E+02  0.00000000000E+00 0.  1.
         11    1    3    3    0    0 -0.40882014766E+01  0.10418384720E+01 -0.21716732943E+01  0.47449956663E+01  0.51100000000E-03 0. -1.
        -11    1    3    3    0    0 -0.50478932724E+01 -0.16573280740E+02 -0.10588749617E+02  0.20304592576E+02  0.51100000000E-03 0.  1.
         12    1    3    3    0    0 -0.87383761362E+01 -0.68613578799E+01 -0.19838477193E+02  0.22737691765E+02  0.00000000000E+00 0. -1.
</event>
<event>
 7    1  0.1848742E-009  0.4778727E+02  0.7816164E-02  0.1312668E+00
        -11   -1    0    0    0    0  0.00000000000E+00  0.00000000000E+00  0.45593999997E+02  0.45594000000E+02  0.51100000000E-03 0.  1.
         11   -1    0    0    0    0 -0.00000000000E+00 -0.00000000000E+00 -0.45593999997E+02  0.45594000000E+02  0.51100000000E-03 0. -1.
    9900012    2    1    2    0    0  0.31817033733E+02  0.84110955615E+01 -0.28294050148E+02  0.47787269155E+02  0.19999991386E+02 0.  0.
        -12    1    1    2    0    0 -0.31817033733E+02 -0.84110955615E+01  0.28294050148E+02  0.43400730845E+02  0.00000000000E+00 0.  1.
         11    1    3    3    0    0  0.11083353285E+02  0.11530688519E+01 -0.11507280333E+02  0.16018357866E+02  0.51100000000E-03 0. -1.
        -11    1    3    3    0    0  0.10725623084E+02  0.11323832084E+02 -0.66512025859E+01  0.16956021341E+02  0.51100000000E-03 0.  1.
        -12    1    3    3    0    0  0.10008057365E+02 -0.40658053749E+01 -0.10135567229E+02  0.14812889948E+02  0.00000000000E+00 0.  1.
</event>
<event>
 7    1  0.1542786E-009  0.4778727E+02  0.7816164E-02  0.1312668E+00
        -11   -1    0    0    0    0  0.00000000000E+00  0.00000000000E+00  0.45593999997E+02  0.45594000000E+02  0.51100000000E-03 0. -1.
         11   -1    0    0    0    0 -0.00000000000E+00 -0.00000000000E+00 -0.45593999997E+02  0.45594000000E+02  0.51100000000E-03 0.  1.
    9900012    2    1    2    0    0 -0.16998215301E+02 -0.13658342949E+02  0.37525105656E+02  0.47787271780E+02  0.20000003353E+02 0.  0.
        -12    1    1    2    0    0  0.16998215301E+02  0.13658342949E+02 -0.37525105656E+02  0.43400728220E+02  0.00000000000E+00 0.  1.
         11    1    3    3    0    0 -0.67014550341E+01 -0.17965958664E+01  0.11705749572E+02  0.13607418182E+02  0.51100000000E-03 0.  1.
        -11    1    3    3    0    0 -0.10872979805E+02 -0.13926468423E+02  0.26570349837E+02  0.31908489517E+02  0.51100000000E-03 0. -1.
        -12    1    3    3    0    0  0.57621953810E+00  0.20647213405E+01 -0.75099375237E+00  0.22713640805E+01  0.00000000000E+00 0.  1.
</event>
<event>
 7    1  0.1542786E-009  0.4778727E+02  0.7816164E-02  0.1312668E+00
        -11   -1    0    0    0    0  0.00000000000E+00  0.00000000000E+00  0.45593999997E+02  0.45594000000E+02  0.51100000000E-03 0.  1.
         11   -1    0    0    0    0 -0.00000000000E+00 -0.00000000000E+00 -0.45593999997E+02  0.45594000000E+02  0.51100000000E-03 0. -1.
    9900012    2    1    2    0    0 -0.25441491920E+01 -0.33106389871E+02 -0.27948484961E+02  0.47787267782E+02  0.19999985125E+02 0.  0.
        -12    1    1    2    0    0  0.25441491920E+01  0.33106389871E+02  0.27948484961E+02  0.43400732218E+02  0.00000000000E+00 0.  1.
         11    1    3    3    0    0  0.74368862100E-01  0.14300279274E+01 -0.19490128026E+01  0.24185040349E+01  0.51100000000E-03 0. -1.
        -11    1    3    3    0    0  0.80762544073E-01 -0.18641638239E+02 -0.57983273404E+01  0.19522750805E+02  0.51100000000E-03 0.  1.
        -12    1    3    3    0    0 -0.26992805982E+01 -0.15894779560E+02 -0.20201144818E+02  0.25846012942E+02  0.00000000000E+00 0.  1.
</event>
<event>
 7    1  0.1542786E-009  0.4778727E+02  0.7816164E-02  0.1312668E+00
        -11   -1    0    0    0    0  0.00000000000E+00  0.00000000000E+00  0.45593999997E+02  0.45594000000E+02  0.51100000000E-03 0. -1.
         11   -1    0    0    0    0 -0.00000000000E+00 -0.00000000000E+00 -0.45593999997E+02  0.45594000000E+02  0.51100000000E-03 0.  1.
    9900012    2    1    2    0    0 -0.20892164542E+02  0.38041169535E+02  0.10035115084E+00  0.47787272020E+02  0.20000004449E+02 0.  0.
        -12    1    1    2    0    0  0.20892164542E+02 -0.38041169535E+02 -0.10035115084E+00  0.43400727980E+02  0.00000000000E+00 0.  1.
         11    1    3    3    0    0 -0.21732766946E+01  0.54638994683E+01  0.37950424279E+01  0.69985481552E+01  0.51100000000E-03 0. -1.
        -11    1    3    3    0    0 -0.11399861285E+02  0.88123472624E+01 -0.64180998110E+01  0.15773595248E+02  0.51100000000E-03 0.  1.
         12    1    3    3    0    0 -0.73190265625E+01  0.23764922804E+02  0.27234085340E+01  0.25015128617E+02  0.00000000000E+00 0. -1.
</event>
<event>
 7    1  0.1542786E-009  0.4778727E+02  0.7816164E-02  0.1312668E+00
        -11   -1    0    0    0    0  0.00000000000E+00  0.00000000000E+00  0.45593999997E+02  0.45594000000E+02  0.51100000000E-03 0.  1.
         11   -1    0    0    0    0 -0.00000000000E+00 -0.00000000000E+00 -0.45593999997E+02  0.45594000000E+02  0.51100000000E-03 0. -1.
    9900012    2    1    2    0    0 -0.17129108499E+02 -0.15602365907E+02 -0.36698540807E+02  0.47787273309E+02  0.20000010327E+02 0.  0.
        -12    1    1    2    0    0  0.17129108499E+02  0.15602365907E+02  0.36698540807E+02  0.43400726691E+02  0.00000000000E+00 0.  1.
         11    1    3    3    0    0 -0.85826221624E+00  0.13106902703E+01 -0.37032271727E+01  0.40209967384E+01  0.51100000000E-03 0. -1.
        -11    1    3    3    0    0 -0.10272989413E+02 -0.17189788857E+02 -0.15663110681E+02  0.25423536121E+02  0.51100000000E-03 0.  1.
        -12    1    3    3    0    0 -0.59978568699E+01  0.27673267901E+00 -0.17332202953E+02  0.18342740450E+02  0.00000000000E+00 0.  1.
</event>
<event>
 7    1  0.1764252E-009  0.4778727E+02  0.7816164E-02  0.1312668E+00
        -11   -1    0    0    0    0  0.00000000000E+00  0.00000000000E+00  0.45593999997E+02  0.45594000000E+02  0.51100000000E-03 0.  1.
         11   -1    0    0    0    0 -0.00000000000E+00 -0.00000000000E+00 -0.45593999997E+02  0.45594000000E+02  0.51100000000E-03 0. -1.
    9900012    2    1    2    0    0 -0.23082554614E+02  0.36305017002E+02  0.57240177413E+01  0.47787274590E+02  0.20000016166E+02 0.  0.
        -12    1    1    2    0    0  0.23082554614E+02 -0.36305017002E+02 -0.57240177413E+01  0.43400725410E+02  0.00000000000E+00 0.  1.
         11    1    3    3    0    0 -0.59048570335E+01  0.14286707819E+02  0.46269356848E+01  0.16136477032E+02  0.51100000000E-03 0. -1.
        -11    1    3    3    0    0 -0.13588130106E+02  0.17065066301E+02 -0.56596936679E+01  0.22536324020E+02  0.51100000000E-03 0.  1.
        -12    1    3    3    0    0 -0.35895674746E+01  0.49532428813E+01  0.67567757245E+01  0.91144735386E+01  0.00000000000E+00 0.  1.
</event>
<event>
 7    1  0.1542786E-009  0.4778728E+02  0.7816164E-02  0.1312668E+00
        -11   -1    0    0    0    0  0.00000000000E+00  0.00000000000E+00  0.45593999997E+02  0.45594000000E+02  0.51100000000E-03 0.  1.
         11   -1    0    0    0    0 -0.00000000000E+00 -0.00000000000E+00 -0.45593999997E+02  0.45594000000E+02  0.51100000000E-03 0. -1.
    9900012    2    1    2    0    0 -0.29062008964E+02 -0.96283774605E+01 -0.30762263686E+02  0.47787275529E+02  0.20000020446E+02 0.  0.
        -12    1    1    2    0    0  0.29062008964E+02  0.96283774605E+01  0.30762263686E+02  0.43400724471E+02  0.00000000000E+00 0.  1.
         11    1    3    3    0    0 -0.15369122285E+02 -0.24762457743E+01 -0.15781852037E+02  0.22167737073E+02  0.51100000000E-03 0. -1.
        -11    1    3    3    0    0 -0.96193541672E+01 -0.71565132299E+01 -0.17210924114E+02  0.20975308468E+02  0.51100000000E-03 0.  1.
        -12    1    3    3    0    0 -0.40735325117E+01  0.43815436759E-02  0.22305124654E+01  0.46442299878E+01  0.00000000000E+00 0.  1.
</event>
<event>
 7    1  0.1542786E-009  0.4778726E+02  0.7816164E-02  0.1312668E+00
        -11   -1    0    0    0    0  0.00000000000E+00  0.00000000000E+00  0.45593999997E+02  0.45594000000E+02  0.51100000000E-03 0. -1.
         11   -1    0    0    0    0 -0.00000000000E+00 -0.00000000000E+00 -0.45593999997E+02  0.45594000000E+02  0.51100000000E-03 0.  1.
    9900012    2    1    2    0    0 -0.17864804575E+02 -0.27510055635E+02  0.28419527065E+02  0.47787263576E+02  0.19999965949E+02 0.  0.
        -12    1    1    2    0    0  0.17864804575E+02  0.27510055635E+02 -0.28419527065E+02  0.43400736424E+02  0.00000000000E+00 0.  1.
         11    1    3    3    0    0 -0.11715379088E+02 -0.20532102951E+02  0.28613665975E+02  0.37115485172E+02  0.51100000000E-03 0. -1.
        -11    1    3    3    0    0 -0.49959242383E+01 -0.34648658388E+01  0.19655230494E+01  0.63896662976E+01  0.51100000000E-03 0.  1.
         12    1    3    3    0    0 -0.11535012489E+01 -0.35130868450E+01 -0.21596619596E+01  0.42821121063E+01  0.00000000000E+00 0. -1.
</event>
<event>
 7    1  0.1542786E-009  0.4778727E+02  0.7816164E-02  0.1312668E+00
        -11   -1    0    0    0    0  0.00000000000E+00  0.00000000000E+00  0.45593999997E+02  0.45594000000E+02  0.51100000000E-03 0.  1.
         11   -1    0    0    0    0 -0.00000000000E+00 -0.00000000000E+00 -0.45593999997E+02  0.45594000000E+02  0.51100000000E-03 0. -1.
    9900012    2    1    2    0    0 -0.30356664248E+02 -0.24151645987E+02 -0.19462643198E+02  0.47787267882E+02  0.19999985581E+02 0.  0.
        -12    1    1    2    0    0  0.30356664248E+02  0.24151645987E+02  0.19462643198E+02  0.43400732118E+02  0.00000000000E+00 0.  1.
         11    1    3    3    0    0 -0.10949655921E+02 -0.27605500263E+01 -0.65036404636E+01  0.13031229442E+02  0.51100000000E-03 0. -1.
        -11    1    3    3    0    0  0.20671529087E+01 -0.23966892155E+01  0.28044967291E+00  0.31774034405E+01  0.51100000000E-03 0.  1.
         12    1    3    3    0    0 -0.21474161236E+02 -0.18994406745E+02 -0.13239452407E+02  0.31578634999E+02  0.00000000000E+00 0. -1.
</event>
<event>
 7    1  0.1542786E-009  0.4778727E+02  0.7816164E-02  0.1312668E+00
        -11   -1    0    0    0    0  0.00000000000E+00  0.00000000000E+00  0.45593999997E+02  0.45594000000E+02  0.51100000000E-03 0.  1.
         11   -1    0    0    0    0 -0.00000000000E+00 -0.00000000000E+00 -0.45593999997E+02  0.45594000000E+02  0.51100000000E-03 0. -1.
    9900012    2    1    2    0    0 -0.13102585608E+02  0.33871006863E+02 -0.23763424918E+02  0.47787271672E+02  0.20000002863E+02 0.  0.
        -12    1    1    2    0    0  0.13102585608E+02 -0.33871006863E+02  0.23763424918E+02  0.43400728328E+02  0.00000000000E+00 0.  1.
         11    1    3    3    0    0 -0.18700760953E+01  0.13054605661E+02 -0.12666067662E+02  0.18285217632E+02  0.51100000000E-03 0. -1.
        -11    1    3    3    0    0 -0.71582381873E+01  0.15215185829E+02 -0.47573585660E+00  0.16821669912E+02  0.51100000000E-03 0.  1.
        -12    1    3    3    0    0 -0.40742713251E+01  0.56012153729E+01 -0.10621621399E+02  0.12680384128E+02  0.00000000000E+00 0.  1.
</event>
<event>
 7    1  0.1542786E-009  0.4778727E+02  0.7816164E-02  0.1312668E+00
        -11   -1    0    0    0    0  0.00000000000E+00  0.00000000000E+00  0.45593999997E+02  0.45594000000E+02  0.51100000000E-03 0. -1.
         11   -1    0    0    0    0 -0.00000000000E+00 -0.00000000000E+00 -0.45593999997E+02  0.45594000000E+02  0.51100000000E-03 0.  1.
    9900012    2    1    2    0    0  0.25706439056E+02 -0.27605878047E+02 -0.21464342896E+02  0.47787268121E+02  0.19999986670E+02 0.  0.
        -12    1    1    2    0    0 -0.25706439056E+02  0.27605878047E+02  0.21464342896E+02  0.43400731879E+02  0.00000000000E+00 0.  1.
         11    1    3    3    0    0  0.36963171569E+01 -0.83586454015E+01 -0.73309057224E+01  0.11716308823E+02  0.51100000000E-03 0. -1.
        -11    1    3    3    0    0  0.64053099642E+01  0.61719032807E+00  0.11638946153E+01  0.65393861008E+01  0.51100000000E-03 0.  1.
        -12    1    3    3    0    0  0.15604811935E+02 -0.19864422974E+02 -0.15297331789E+02  0.29531573197E+02  0.00000000000E+00 0.  1.
</event>
<event>
 7    1  0.1542786E-009  0.4778728E+02  0.7816164E-02  0.1312668E+00
        -11   -1    0    0    0    0  0.00000000000E+00  0.00000000000E+00  0.45593999997E+02  0.45594000000E+02  0.51100000000E-03 0.  1.
         11   -1    0    0    0    0 -0.00000000000E+00 -0.00000000000E+00 -0.45593999997E+02  0.45594000000E+02  0.51100000000E-03 0. -1.
    9900012    2    1    2    0    0  0.25952242313E+02 -0.16491368484E+02 -0.30629047268E+02  0.47787278207E+02  0.20000032659E+02 0.  0.
        -12    1    1    2    0    0 -0.25952242313E+02  0.16491368484E+02  0.30629047268E+02  0.43400721793E+02  0.00000000000E+00 0.  1.
         11    1    3    3    0    0  0.20082448372E+01 -0.22413952624E+01  0.25699173587E+01  0.39574455827E+01  0.51100000000E-03 0.  1.
        -11    1    3    3    0    0  0.95994099307E+01 -0.92245655156E+01 -0.17367692761E+02  0.21883282022E+02  0.51100000000E-03 0. -1.
        -12    1    3    3    0    0  0.14344587545E+02 -0.50254077058E+01 -0.15831271866E+02  0.21946550602E+02  0.00000000000E+00 0.  1.
</event>
<event>
 7    1  0.1542786E-009  0.4778727E+02  0.7816164E-02  0.1312668E+00
        -11   -1    0    0    0    0  0.00000000000E+00  0.00000000000E+00  0.45593999997E+02  0.45594000000E+02  0.51100000000E-03 0.  1.
         11   -1    0    0    0    0 -0.00000000000E+00 -0.00000000000E+00 -0.45593999997E+02  0.45594000000E+02  0.51100000000E-03 0. -1.
    9900012    2    1    2    0    0 -0.85880758745E+01  0.42398105974E+02 -0.35026925639E+01  0.47787270829E+02  0.19999999017E+02 0.  0.
        -12    1    1    2    0    0  0.85880758745E+01 -0.42398105974E+02  0.35026925639E+01  0.43400729171E+02  0.00000000000E+00 0.  1.
         11    1    3    3    0    0  0.54166426987E+00  0.11754244704E+02  0.91191563191E+00  0.11802002335E+02  0.51100000000E-03 0. -1.
        -11    1    3    3    0    0 -0.14235867729E+01  0.33615091437E+01 -0.66095047302E+01  0.75506222302E+01  0.51100000000E-03 0.  1.
        -12    1    3    3    0    0 -0.77061533715E+01  0.27282352126E+02  0.21948965344E+01  0.28434646263E+02  0.00000000000E+00 0.  1.
</event>
<event>
 7    1  0.1542786E-009  0.4778729E+02  0.7816164E-02  0.1312668E+00
        -11   -1    0    0    0    0  0.00000000000E+00  0.00000000000E+00  0.45593999997E+02  0.45594000000E+02  0.51100000000E-03 0. -1.
         11   -1    0    0    0    0 -0.00000000000E+00 -0.00000000000E+00 -0.45593999997E+02  0.45594000000E+02  0.51100000000E-03 0.  1.
    9900012    2    1    2    0    0 -0.30805656461E+02 -0.18743112931E+02  0.24152205996E+02  0.47787287946E+02  0.20000077059E+02 0.  0.
        -12    1    1    2    0    0  0.30805656461E+02  0.18743112931E+02 -0.24152205996E+02  0.43400712054E+02  0.00000000000E+00 0.  1.
         11    1    3    3    0    0 -0.41341886361E+01 -0.47098490903E+01  0.26247359502E+01  0.67943677558E+01  0.51100000000E-03 0. -1.
        -11    1    3    3    0    0 -0.47024115915E+01 -0.78591145680E+01 -0.63695843468E+00  0.91806357556E+01  0.51100000000E-03 0.  1.
         12    1    3    3    0    0 -0.21969056234E+02 -0.61741492725E+01  0.22164428481E+02  0.31812284434E+02  0.00000000000E+00 0. -1.
</event>
<event>
 7    1  0.2360453E-009  0.4778727E+02  0.7816164E-02  0.1312668E+00
        -11   -1    0    0    0    0  0.00000000000E+00  0.00000000000E+00  0.45593999997E+02  0.45594000000E+02  0.51100000000E-03 0.  1.
         11   -1    0    0    0    0 -0.00000000000E+00 -0.00000000000E+00 -0.45593999997E+02  0.45594000000E+02  0.51100000000E-03 0. -1.
    9900012    2    1    2    0    0 -0.18120561151E+02  0.37548987058E+02  0.12055790236E+02  0.47787271392E+02  0.20000001584E+02 0.  0.
        -12    1    1    2    0    0  0.18120561151E+02 -0.37548987058E+02 -0.12055790236E+02  0.43400728608E+02  0.00000000000E+00 0.  1.
         11    1    3    3    0    0 -0.48837768873E+01  0.10401739117E+02  0.57670199909E+01  0.12857137053E+02  0.51100000000E-03 0. -1.
        -11    1    3    3    0    0 -0.73696798103E+01  0.60689596800E+01 -0.44778695558E+01  0.10544940404E+02  0.51100000000E-03 0.  1.
        -12    1    3    3    0    0 -0.58671044538E+01  0.21078288260E+02  0.10766639801E+02  0.24385193935E+02  0.00000000000E+00 0.  1.
</event>
<event>
 7    1  0.1542786E-009  0.4778727E+02  0.7816164E-02  0.1312668E+00
        -11   -1    0    0    0    0  0.00000000000E+00  0.00000000000E+00  0.45593999997E+02  0.45594000000E+02  0.51100000000E-03 0. -1.
         11   -1    0    0    0    0 -0.00000000000E+00 -0.00000000000E+00 -0.45593999997E+02  0.45594000000E+02  0.51100000000E-03 0.  1.
    9900012    2    1    2    0    0  0.37927555014E+02 -0.18790080244E+02  0.95946435349E+01  0.47787265795E+02  0.19999976067E+02 0.  0.
        -12    1    1    2    0    0 -0.37927555014E+02  0.18790080244E+02 -0.95946435349E+01  0.43400734205E+02  0.00000000000E+00 0.  1.
         11    1    3    3    0    0  0.88931861457E+01  0.11073096390E+00 -0.26460134744E+01  0.92791383617E+01  0.51100000000E-03 0. -1.
        -11    1    3    3    0    0  0.13376997059E+01 -0.28014126464E+01 -0.17351949779E+01  0.35564385543E+01  0.51100000000E-03 0.  1.
         12    1    3    3    0    0  0.27696669163E+02 -0.16099398561E+02  0.13975851987E+02  0.34951688879E+02  0.00000000000E+00 0. -1.
</event>
<event>
 7    1  0.1542786E-009  0.4778727E+02  0.7816164E-02  0.1312668E+00
        -11   -1    0    0    0    0  0.00000000000E+00  0.00000000000E+00  0.45593999997E+02  0.45594000000E+02  0.51100000000E-03 0.  1.
         11   -1    0    0    0    0 -0.00000000000E+00 -0.00000000000E+00 -0.45593999997E+02  0.45594000000E+02  0.51100000000E-03 0. -1.
    9900012    2    1    2    0    0 -0.12174956236E+02  0.16664522900E+02 -0.38179672218E+02  0.47787271279E+02  0.20000001069E+02 0.  0.
        -12    1    1    2    0    0  0.12174956236E+02 -0.16664522900E+02  0.38179672218E+02  0.43400728721E+02  0.00000000000E+00 0.  1.
         11    1    3    3    0    0  0.18712081889E+01  0.47898858688E+01 -0.10892408355E+02  0.12045288986E+02  0.51100000000E-03 0. -1.
        -11    1    3    3    0    0 -0.13898198449E+02  0.63684062893E+01 -0.25877900808E+02  0.30056318292E+02  0.51100000000E-03 0.  1.
        -12    1    3    3    0    0 -0.14796597610E+00  0.55062307416E+01 -0.14093630557E+01  0.56856640010E+01  0.00000000000E+00 0.  1.
</event>
<event>
 7    1  0.1542786E-009  0.4778727E+02  0.7816164E-02  0.1312668E+00
        -11   -1    0    0    0    0  0.00000000000E+00  0.00000000000E+00  0.45593999997E+02  0.45594000000E+02  0.51100000000E-03 0.  1.
         11   -1    0    0    0    0 -0.00000000000E+00 -0.00000000000E+00 -0.45593999997E+02  0.45594000000E+02  0.51100000000E-03 0. -1.
    9900012    2    1    2    0    0  0.95868149355E+00  0.23535469018E+01 -0.43326258716E+02  0.47787274804E+02  0.20000017142E+02 0.  0.
        -12    1    1    2    0    0 -0.95868149355E+00 -0.23535469018E+01  0.43326258716E+02  0.43400725196E+02  0.00000000000E+00 0.  1.
         11    1    3    3    0    0  0.84306941359E+01  0.30676399135E+01 -0.33420253436E+02  0.34603473210E+02  0.51100000000E-03 0. -1.
        -11    1    3    3    0    0 -0.13109460797E+01 -0.20720509158E+00  0.19478256329E+00  0.13414373195E+01  0.51100000000E-03 0.  1.
         12    1    3    3    0    0 -0.61610665626E+01 -0.50688792014E+00 -0.10100787843E+02  0.11842364274E+02  0.00000000000E+00 0. -1.
</event>
<event>
 7    1  0.1542786E-009  0.4778731E+02  0.7816164E-02  0.1312668E+00
        -11   -1    0    0    0    0  0.00000000000E+00  0.00000000000E+00  0.45593999997E+02  0.45594000000E+02  0.51100000000E-03 0.  1.
         11   -1    0    0    0    0 -0.00000000000E+00 -0.00000000000E+00 -0.45593999997E+02  0.45594000000E+02  0.51100000000E-03 0. -1.
    9900012    2    1    2    0    0  0.19492163557E+02  0.21750424617E+02 -0.32102878279E+02  0.47787306401E+02  0.20000161202E+02 0.  0.
        -12    1    1    2    0    0 -0.19492163557E+02 -0.21750424617E+02  0.32102878279E+02  0.43400693599E+02  0.00000000000E+00 0.  1.
         11    1    3    3    0    0 -0.86601323141E+00 -0.10329336521E+01 -0.13483426749E+01  0.19065568642E+01  0.51100000000E-03 0.  1.
        -11    1    3    3    0    0  0.80893994102E+01  0.10508483269E+01 -0.12637668704E+02  0.15041719834E+02  0.51100000000E-03 0. -1.
         12    1    3    3    0    0  0.12268777378E+02  0.21732509942E+02 -0.18116866900E+02  0.30839029703E+02  0.00000000000E+00 0. -1.
</event>
<event>
 7    1  0.1542786E-009  0.4778727E+02  0.7816164E-02  0.1312668E+00
        -11   -1    0    0    0    0  0.00000000000E+00  0.00000000000E+00  0.45593999997E+02  0.45594000000E+02  0.51100000000E-03 0.  1.
         11   -1    0    0    0    0 -0.00000000000E+00 -0.00000000000E+00 -0.45593999997E+02  0.45594000000E+02  0.51100000000E-03 0. -1.
    9900012    2    1    2    0    0  0.32043443464E+02  0.17932850747E+02 -0.23135549282E+02  0.47787273675E+02  0.20000011992E+02 0.  0.
        -12    1    1    2    0    0 -0.32043443464E+02 -0.17932850747E+02  0.23135549282E+02  0.43400726325E+02  0.00000000000E+00 0.  1.
         11    1    3    3    0    0  0.15498218466E+01  0.19117040023E+01 -0.65418494881E+01  0.69894459677E+01  0.51100000000E-03 0. -1.
        -11    1    3    3    0    0  0.14538873796E+02  0.95776027413E+01 -0.77912249056E+00  0.17427459874E+02  0.51100000000E-03 0.  1.
        -12    1    3    3    0    0  0.15954747821E+02  0.64435440039E+01 -0.15814577304E+02  0.23370367833E+02  0.00000000000E+00 0.  1.
</event>
<event>
 7    1  0.1542786E-009  0.4778727E+02  0.7816164E-02  0.1312668E+00
        -11   -1    0    0    0    0  0.00000000000E+00  0.00000000000E+00  0.45593999997E+02  0.45594000000E+02  0.51100000000E-03 0.  1.
         11   -1    0    0    0    0 -0.00000000000E+00 -0.00000000000E+00 -0.45593999997E+02  0.45594000000E+02  0.51100000000E-03 0. -1.
    9900012    2    1    2    0    0 -0.23412144749E+02  0.22703574765E+02 -0.28636382037E+02  0.47787271838E+02  0.20000003618E+02 0.  0.
        -12    1    1    2    0    0  0.23412144749E+02 -0.22703574765E+02  0.28636382037E+02  0.43400728162E+02  0.00000000000E+00 0.  1.
         11    1    3    3    0    0 -0.24884742541E+02  0.19090383347E+02 -0.23073515139E+02  0.38936875180E+02  0.51100000000E-03 0.  1.
        -11    1    3    3    0    0 -0.15012983383E+01  0.19528828342E+01 -0.47470214578E+01  0.53480707780E+01  0.51100000000E-03 0. -1.
        -12    1    3    3    0    0  0.29738961303E+01  0.16603085833E+01 -0.81584543972E+00  0.35023258796E+01  0.00000000000E+00 0.  1.
</event>
<event>
 7    1  0.1542786E-009  0.4778727E+02  0.7816164E-02  0.1312668E+00
        -11   -1    0    0    0    0  0.00000000000E+00  0.00000000000E+00  0.45593999997E+02  0.45594000000E+02  0.51100000000E-03 0.  1.
         11   -1    0    0    0    0 -0.00000000000E+00 -0.00000000000E+00 -0.45593999997E+02  0.45594000000E+02  0.51100000000E-03 0. -1.
    9900012    2    1    2    0    0 -0.19203942441E+02 -0.14419271599E+02 -0.36151300630E+02  0.47787270329E+02  0.19999996737E+02 0.  0.
        -12    1    1    2    0    0  0.19203942441E+02  0.14419271599E+02  0.36151300630E+02  0.43400729671E+02  0.00000000000E+00 0.  1.
         11    1    3    3    0    0  0.25465927866E+01  0.14294779475E+01 -0.89448099980E+00  0.30542820013E+01  0.51100000000E-03 0.  1.
        -11    1    3    3    0    0 -0.23515873231E+01 -0.35905419411E+01 -0.34198858564E+01  0.54879480593E+01  0.51100000000E-03 0. -1.
         12    1    3    3    0    0 -0.19398947905E+02 -0.12258207605E+02 -0.31836933774E+02  0.39245040268E+02  0.00000000000E+00 0. -1.
</event>
<event>
 7    1  0.1542786E-009  0.4778727E+02  0.7816164E-02  0.1312668E+00
        -11   -1    0    0    0    0  0.00000000000E+00  0.00000000000E+00  0.45593999997E+02  0.45594000000E+02  0.51100000000E-03 0.  1.
         11   -1    0    0    0    0 -0.00000000000E+00 -0.00000000000E+00 -0.45593999997E+02  0.45594000000E+02  0.51100000000E-03 0. -1.
    9900012    2    1    2    0    0  0.19281227001E+02  0.28715760599E+02 -0.26215693396E+02  0.47787271876E+02  0.20000003792E+02 0.  0.
        -12    1    1    2    0    0 -0.19281227001E+02 -0.28715760599E+02  0.26215693396E+02  0.43400728124E+02  0.00000000000E+00 0.  1.
         11    1    3    3    0    0  0.74131228194E+01  0.62603244986E+01 -0.13187878717E+02  0.16372727264E+02  0.51100000000E-03 0. -1.
        -11    1    3    3    0    0 -0.20153504269E+01  0.52766660847E+01 -0.59892496446E+01  0.82326152515E+01  0.51100000000E-03 0.  1.
         12    1    3    3    0    0  0.13883454609E+02  0.17178770016E+02 -0.70385650349E+01  0.23181929360E+02  0.00000000000E+00 0. -1.
</event>
<event>
 7    1  0.1542786E-009  0.4778727E+02  0.7816164E-02  0.1312668E+00
        -11   -1    0    0    0    0  0.00000000000E+00  0.00000000000E+00  0.45593999997E+02  0.45594000000E+02  0.51100000000E-03 0. -1.
         11   -1    0    0    0    0 -0.00000000000E+00 -0.00000000000E+00 -0.45593999997E+02  0.45594000000E+02  0.51100000000E-03 0.  1.
    9900012    2    1    2    0    0 -0.32088459484E+02  0.91376187915E+00  0.29208202366E+02  0.47787270993E+02  0.19999999768E+02 0.  0.
        -12    1    1    2    0    0  0.32088459484E+02 -0.91376187915E+00 -0.29208202366E+02  0.43400729007E+02  0.00000000000E+00 0.  1.
         11    1    3    3    0    0 -0.34754486632E+01 -0.88538629874E-01  0.87283317621E+01  0.93952306044E+01  0.51100000000E-03 0. -1.
        -11    1    3    3    0    0 -0.13426399641E+02  0.75188496466E+01  0.63420076409E+01  0.16643988960E+02  0.51100000000E-03 0.  1.
        -12    1    3    3    0    0 -0.15186611181E+02 -0.65165491376E+01  0.14137862963E+02  0.21748051429E+02  0.00000000000E+00 0.  1.
</event>
<event>
 7    1  0.1542786E-009  0.4778728E+02  0.7816164E-02  0.1312668E+00
        -11   -1    0    0    0    0  0.00000000000E+00  0.00000000000E+00  0.45593999997E+02  0.45594000000E+02  0.51100000000E-03 0.  1.
         11   -1    0    0    0    0 -0.00000000000E+00 -0.00000000000E+00 -0.45593999997E+02  0.45594000000E+02  0.51100000000E-03 0. -1.
    9900012    2    1    2    0    0 -0.24856107189E+02  0.14681491537E+02 -0.32407564862E+02  0.47787279745E+02  0.20000039670E+02 0.  0.
        -12    1    1    2    0    0  0.24856107189E+02 -0.14681491537E+02  0.32407564862E+02  0.43400720255E+02  0.00000000000E+00 0.  1.
         11    1    3    3    0    0 -0.16103349528E+01  0.49324732814E+00 -0.98869946707E+01  0.10029413516E+02  0.51100000000E-03 0. -1.
        -11    1    3    3    0    0 -0.23503158494E+02  0.10476812944E+02 -0.22266598059E+02  0.34028862132E+02  0.51100000000E-03 0.  1.
         12    1    3    3    0    0  0.25738625745E+00  0.37114312640E+01 -0.25397213283E+00  0.37290040972E+01  0.00000000000E+00 0. -1.
</event>
<event>
 7    1  0.1542786E-009  0.4778727E+02  0.7816164E-02  0.1312668E+00
        -11   -1    0    0    0    0  0.00000000000E+00  0.00000000000E+00  0.45593999997E+02  0.45594000000E+02  0.51100000000E-03 0.  1.
         11   -1    0    0    0    0 -0.00000000000E+00 -0.00000000000E+00 -0.45593999997E+02  0.45594000000E+02  0.51100000000E-03 0. -1.
    9900012    2    1    2    0    0 -0.36817738204E+02  0.15633840742E+02 -0.16842220417E+02  0.47787271764E+02  0.20000003280E+02 0.  0.
        -12    1    1    2    0    0  0.36817738204E+02 -0.15633840742E+02  0.16842220417E+02  0.43400728236E+02  0.00000000000E+00 0.  1.
         11    1    3    3    0    0 -0.94423872978E+01  0.77500127824E+01 -0.90828822456E+01  0.15222356130E+02  0.51100000000E-03 0. -1.
        -11    1    3    3    0    0 -0.28437864281E+02  0.90017409025E+01 -0.82465098461E+01  0.30947510224E+02  0.51100000000E-03 0.  1.
         12    1    3    3    0    0  0.10625133747E+01 -0.11179129425E+01  0.48717167459E+00  0.16174054096E+01  0.00000000000E+00 0. -1.
</event>
<event>
 7    1  0.1542786E-009  0.4778727E+02  0.7816164E-02  0.1312668E+00
        -11   -1    0    0    0    0  0.00000000000E+00  0.00000000000E+00  0.45593999997E+02  0.45594000000E+02  0.51100000000E-03 0. -1.
         11   -1    0    0    0    0 -0.00000000000E+00 -0.00000000000E+00 -0.45593999997E+02  0.45594000000E+02  0.51100000000E-03 0.  1.
    9900012    2    1    2    0    0 -0.11096181810E+02  0.21204683763E+02  0.36205792902E+02  0.47787270698E+02  0.19999998421E+02 0.  0.
        -12    1    1    2    0    0  0.11096181810E+02 -0.21204683763E+02 -0.36205792902E+02  0.43400729302E+02  0.00000000000E+00 0.  1.
         11    1    3    3    0    0 -0.97028437873E+01  0.15416540974E+02  0.21733247224E+02  0.28357520137E+02  0.51100000000E-03 0. -1.
        -11    1    3    3    0    0 -0.33672426363E+01 -0.66759677279E+00 -0.30069277397E-01  0.34329160848E+01  0.51100000000E-03 0.  1.
         12    1    3    3    0    0  0.19739046135E+01  0.64557395619E+01  0.14502614956E+02  0.15996834477E+02  0.00000000000E+00 0. -1.
</event>
<event>
 7    1  0.1542786E-009  0.4778727E+02  0.7816164E-02  0.1312668E+00
        -11   -1    0    0    0    0  0.00000000000E+00  0.00000000000E+00  0.45593999997E+02  0.45594000000E+02  0.51100000000E-03 0. -1.
         11   -1    0    0    0    0 -0.00000000000E+00 -0.00000000000E+00 -0.45593999997E+02  0.45594000000E+02  0.51100000000E-03 0.  1.
    9900012    2    1    2    0    0 -0.24887689135E+02 -0.35338461849E+02 -0.39267431301E+01  0.47787271113E+02  0.20000000312E+02 0.  0.
        -12    1    1    2    0    0  0.24887689135E+02  0.35338461849E+02  0.39267431301E+01  0.43400728887E+02  0.00000000000E+00 0.  1.
         11    1    3    3    0    0 -0.82114747054E+01 -0.12503021668E+02 -0.66891639995E+01  0.16385932471E+02  0.51100000000E-03 0. -1.
        -11    1    3    3    0    0 -0.12505271133E+02 -0.13446644450E+02 -0.43936133832E+01  0.18881151763E+02  0.51100000000E-03 0.  1.
        -12    1    3    3    0    0 -0.41709432968E+01 -0.93887957312E+01  0.71560342526E+01  0.12520186879E+02  0.00000000000E+00 0.  1.
</event>
<event>
 7    1  0.1542786E-009  0.4778726E+02  0.7816164E-02  0.1312668E+00
        -11   -1    0    0    0    0  0.00000000000E+00  0.00000000000E+00  0.45593999997E+02  0.45594000000E+02  0.51100000000E-03 0.  1.
         11   -1    0    0    0    0 -0.00000000000E+00 -0.00000000000E+00 -0.45593999997E+02  0.45594000000E+02  0.51100000000E-03 0. -1.
    9900012    2    1    2    0    0 -0.35550314035E+02  0.22245626731E+02 -0.11177261176E+02  0.47787263785E+02  0.19999966902E+02 0.  0.
        -12    1    1    2    0    0  0.35550314035E+02 -0.22245626731E+02  0.11177261176E+02  0.43400736215E+02  0.00000000000E+00 0.  1.
         11    1    3    3    0    0 -0.21413219825E+02  0.96173077388E+01 -0.16505670902E+01  0.23531743739E+02  0.51100000000E-03 0. -1.
        -11    1    3    3    0    0 -0.98280150865E+01  0.26327711728E+01 -0.86162299888E+01  0.13332696054E+02  0.51100000000E-03 0.  1.
        -12    1    3    3    0    0 -0.43090791234E+01  0.99955478191E+01 -0.91046409697E+00  0.10922823992E+02  0.00000000000E+00 0.  1.
</event>
<event>
 7    1  0.1542786E-009  0.4778727E+02  0.7816164E-02  0.1312668E+00
        -11   -1    0    0    0    0  0.00000000000E+00  0.00000000000E+00  0.45593999997E+02  0.45594000000E+02  0.51100000000E-03 0.  1.
         11   -1    0    0    0    0 -0.00000000000E+00 -0.00000000000E+00 -0.45593999997E+02  0.45594000000E+02  0.51100000000E-03 0. -1.
    9900012    2    1    2    0    0 -0.17579306263E+01 -0.30190713326E+02  0.31129629295E+02  0.47787270613E+02  0.19999998035E+02 0.  0.
        -12    1    1    2    0    0  0.17579306263E+01  0.30190713326E+02 -0.31129629295E+02  0.43400729387E+02  0.00000000000E+00 0.  1.
         11    1    3    3    0    0 -0.23681558531E+01 -0.82034240207E+01  0.40329957872E+01  0.94429541505E+01  0.51100000000E-03 0. -1.
        -11    1    3    3    0    0 -0.40042439207E+01 -0.46677140280E+01  0.36618475545E+00  0.61608128652E+01  0.51100000000E-03 0.  1.
        -12    1    3    3    0    0  0.46144691476E+01 -0.17319575278E+02  0.26730448752E+02  0.32183503598E+02  0.00000000000E+00 0.  1.
</event>
<event>
 7    1  0.1542786E-009  0.4778727E+02  0.7816164E-02  0.1312668E+00
        -11   -1    0    0    0    0  0.00000000000E+00  0.00000000000E+00  0.45593999997E+02  0.45594000000E+02  0.51100000000E-03 0.  1.
         11   -1    0    0    0    0 -0.00000000000E+00 -0.00000000000E+00 -0.45593999997E+02  0.45594000000E+02  0.51100000000E-03 0. -1.
    9900012    2    1    2    0    0  0.58052584807E+01 -0.32925333993E+02 -0.27673899299E+02  0.47787270202E+02  0.19999996159E+02 0.  0.
        -12    1    1    2    0    0 -0.58052584807E+01  0.32925333993E+02  0.27673899299E+02  0.43400729798E+02  0.00000000000E+00 0.  1.
         11    1    3    3    0    0 -0.65125321508E+00 -0.53469753450E+01 -0.38203286158E+01  0.66037252429E+01  0.51100000000E-03 0. -1.
        -11    1    3    3    0    0 -0.43056597758E+01 -0.18864379804E+01 -0.30886027884E+00  0.47109180943E+01  0.51100000000E-03 0.  1.
         12    1    3    3    0    0  0.10762171472E+02 -0.25691920668E+02 -0.23544710405E+02  0.36472626865E+02  0.00000000000E+00 0. -1.
</event>
<event>
 7    1  0.1542786E-009  0.4778727E+02  0.7816164E-02  0.1312668E+00
        -11   -1    0    0    0    0  0.00000000000E+00  0.00000000000E+00  0.45593999997E+02  0.45594000000E+02  0.51100000000E-03 0.  1.
         11   -1    0    0    0    0 -0.00000000000E+00 -0.00000000000E+00 -0.45593999997E+02  0.45594000000E+02  0.51100000000E-03 0. -1.
    9900012    2    1    2    0    0  0.23505083076E+01  0.27454453690E+02 -0.33531350168E+02  0.47787270043E+02  0.19999995435E+02 0.  0.
        -12    1    1    2    0    0 -0.23505083076E+01 -0.27454453690E+02  0.33531350168E+02  0.43400729957E+02  0.00000000000E+00 0.  1.
         11    1    3    3    0    0  0.86014991534E-01  0.13278237800E+02 -0.66213447057E+01  0.14837830152E+02  0.51100000000E-03 0. -1.
        -11    1    3    3    0    0 -0.82483027680E+00 -0.21979363815E+01 -0.31349448340E+01  0.39165225260E+01  0.51100000000E-03 0.  1.
         12    1    3    3    0    0  0.30893235928E+01  0.16374152271E+02 -0.23775060628E+02  0.29032917365E+02  0.00000000000E+00 0. -1.
</event>
<event>
 7    1  0.1542786E-009  0.4778728E+02  0.7816164E-02  0.1312668E+00
        -11   -1    0    0    0    0  0.00000000000E+00  0.00000000000E+00  0.45593999997E+02  0.45594000000E+02  0.51100000000E-03 0.  1.
         11   -1    0    0    0    0 -0.00000000000E+00 -0.00000000000E+00 -0.45593999997E+02  0.45594000000E+02  0.51100000000E-03 0. -1.
    9900012    2    1    2    0    0  0.21164763996E+02 -0.37698525650E+02  0.38074342282E+01  0.47787278502E+02  0.20000034001E+02 0.  0.
        -12    1    1    2    0    0 -0.21164763996E+02  0.37698525650E+02 -0.38074342282E+01  0.43400721498E+02  0.00000000000E+00 0.  1.
         11    1    3    3    0    0  0.11427467909E+02 -0.23536699432E+02 -0.35111920052E+01  0.26398706645E+02  0.51100000000E-03 0. -1.
        -11    1    3    3    0    0 -0.53126909157E+00  0.94319829497E+00 -0.85381888307E+00  0.13787228937E+01  0.51100000000E-03 0.  1.
        -12    1    3    3    0    0  0.10268565178E+02 -0.15105024512E+02  0.81724451165E+01  0.20009848963E+02  0.00000000000E+00 0.  1.
</event>
<event>
 7    1  0.1542786E-009  0.4778727E+02  0.7816164E-02  0.1312668E+00
        -11   -1    0    0    0    0  0.00000000000E+00  0.00000000000E+00  0.45593999997E+02  0.45594000000E+02  0.51100000000E-03 0. -1.
         11   -1    0    0    0    0 -0.00000000000E+00 -0.00000000000E+00 -0.45593999997E+02  0.45594000000E+02  0.51100000000E-03 0.  1.
    9900012    2    1    2    0    0 -0.39248007508E+02  0.16683703406E+02 -0.80542844370E+01  0.47787267857E+02  0.19999985469E+02 0.  0.
        -12    1    1    2    0    0  0.39248007508E+02 -0.16683703406E+02  0.80542844370E+01  0.43400732143E+02  0.00000000000E+00 0.  1.
         11    1    3    3    0    0 -0.13666234570E+02  0.12886127902E+02 -0.59138876312E+01  0.19692443394E+02  0.51100000000E-03 0. -1.
        -11    1    3    3    0    0 -0.17222039317E+02  0.50748627749E+01  0.29930464673E+01  0.18201955880E+02  0.51100000000E-03 0.  1.
        -12    1    3    3    0    0 -0.83597336207E+01 -0.12772872706E+01 -0.51334432731E+01  0.98928685839E+01  0.00000000000E+00 0.  1.
</event>
<event>
 7    1  0.1542786E-009  0.4778727E+02  0.7816164E-02  0.1312668E+00
        -11   -1    0    0    0    0  0.00000000000E+00  0.00000000000E+00  0.45593999997E+02  0.45594000000E+02  0.51100000000E-03 0.  1.
         11   -1    0    0    0    0 -0.00000000000E+00 -0.00000000000E+00 -0.45593999997E+02  0.45594000000E+02  0.51100000000E-03 0. -1.
    9900012    2    1    2    0    0  0.26272882407E+02  0.78078912636E+01 -0.33651088509E+02  0.47787271045E+02  0.20000000001E+02 0.  0.
        -12    1    1    2    0    0 -0.26272882407E+02 -0.78078912636E+01  0.33651088509E+02  0.43400728955E+02  0.00000000000E+00 0.  1.
         11    1    3    3    0    0  0.84224714490E+01  0.54781698177E+01 -0.20918738876E+02  0.23206507843E+02  0.51100000000E-03 0. -1.
        -11    1    3    3    0    0  0.31247102032E+01 -0.37629603189E+01 -0.16193296599E+01  0.51522726077E+01  0.51100000000E-03 0.  1.
         12    1    3    3    0    0  0.14725700755E+02  0.60926817649E+01 -0.11113019974E+02  0.19428490594E+02  0.00000000000E+00 0. -1.
</event>
<event>
 7    1  0.1542786E-009  0.4778728E+02  0.7816164E-02  0.1312668E+00
        -11   -1    0    0    0    0  0.00000000000E+00  0.00000000000E+00  0.45593999997E+02  0.45594000000E+02  0.51100000000E-03 0.  1.
         11   -1    0    0    0    0 -0.00000000000E+00 -0.00000000000E+00 -0.45593999997E+02  0.45594000000E+02  0.51100000000E-03 0. -1.
    9900012    2    1    2    0    0 -0.10705173914E+01 -0.39675887762E+02 -0.17558495019E+02  0.47787276221E+02  0.20000023600E+02 0.  0.
        -12    1    1    2    0    0  0.10705173914E+01  0.39675887762E+02  0.17558495019E+02  0.43400723779E+02  0.00000000000E+00 0.  1.
         11    1    3    3    0    0  0.11551636915E+01 -0.17327004920E+01  0.21554179404E+01  0.29970787291E+01  0.51100000000E-03 0. -1.
        -11    1    3    3    0    0 -0.29236542398E+01 -0.18050100839E+02 -0.24642891418E+01  0.18450653529E+02  0.51100000000E-03 0.  1.
         12    1    3    3    0    0  0.69797315679E+00 -0.19893086432E+02 -0.17249623818E+02  0.26339543963E+02  0.00000000000E+00 0. -1.
</event>
<event>
 7    1  0.1542786E-009  0.4778727E+02  0.7816164E-02  0.1312668E+00
        -11   -1    0    0    0    0  0.00000000000E+00  0.00000000000E+00  0.45593999997E+02  0.45594000000E+02  0.51100000000E-03 0. -1.
         11   -1    0    0    0    0 -0.00000000000E+00 -0.00000000000E+00 -0.45593999997E+02  0.45594000000E+02  0.51100000000E-03 0.  1.
    9900012    2    1    2    0    0  0.22878166461E+02 -0.36145054498E+02 -0.73312904031E+01  0.47787270925E+02  0.19999999455E+02 0.  0.
        -12    1    1    2    0    0 -0.22878166461E+02  0.36145054498E+02  0.73312904031E+01  0.43400729075E+02  0.00000000000E+00 0.  1.
         11    1    3    3    0    0 -0.38000221468E+00 -0.54432881623E+01 -0.27966276685E+01  0.61314691778E+01  0.51100000000E-03 0. -1.
        -11    1    3    3    0    0  0.55200353328E+00 -0.79888472240E+01  0.31963735668E+01  0.86222498287E+01  0.51100000000E-03 0.  1.
         12    1    3    3    0    0  0.22706165142E+02 -0.22712919112E+02 -0.77310363014E+01  0.33033551918E+02  0.00000000000E+00 0. -1.
</event>
<event>
 7    1  0.1542786E-009  0.4778731E+02  0.7816164E-02  0.1312668E+00
        -11   -1    0    0    0    0  0.00000000000E+00  0.00000000000E+00  0.45593999997E+02  0.45594000000E+02  0.51100000000E-03 0.  1.
         11   -1    0    0    0    0 -0.00000000000E+00 -0.00000000000E+00 -0.45593999997E+02  0.45594000000E+02  0.51100000000E-03 0. -1.
    9900012    2    1    2    0    0 -0.26394646582E+02  0.28146955189E+02 -0.19866843652E+02  0.47787309553E+02  0.20000175575E+02 0.  0.
        -12    1    1    2    0    0  0.26394646582E+02 -0.28146955189E+02  0.19866843652E+02  0.43400690447E+02  0.00000000000E+00 0.  1.
         11    1    3    3    0    0  0.81959459390E+00  0.29795858783E+00 -0.27050236072E+01  0.28421237825E+01  0.51100000000E-03 0. -1.
        -11    1    3    3    0    0 -0.25130447933E+02  0.21366895681E+02 -0.18765141967E+02  0.37950154119E+02  0.51100000000E-03 0.  1.
        -12    1    3    3    0    0 -0.20837932431E+01  0.64821009199E+01  0.16033219229E+01  0.69950316514E+01  0.00000000000E+00 0.  1.
</event>
<event>
 7    1  0.1542786E-009  0.4778726E+02  0.7816164E-02  0.1312668E+00
        -11   -1    0    0    0    0  0.00000000000E+00  0.00000000000E+00  0.45593999997E+02  0.45594000000E+02  0.51100000000E-03 0.  1.
         11   -1    0    0    0    0 -0.00000000000E+00 -0.00000000000E+00 -0.45593999997E+02  0.45594000000E+02  0.51100000000E-03 0. -1.
    9900012    2    1    2    0    0 -0.54826050296E+01  0.24058858564E+02 -0.35703447722E+02  0.47787264839E+02  0.19999971705E+02 0.  0.
        -12    1    1    2    0    0  0.54826050296E+01 -0.24058858564E+02  0.35703447722E+02  0.43400735161E+02  0.00000000000E+00 0.  1.
         11    1    3    3    0    0  0.29228762686E+01  0.44474079622E+00 -0.33712720838E+01  0.44840245072E+01  0.51100000000E-03 0. -1.
        -11    1    3    3    0    0 -0.79051776727E+01  0.17377251431E+02 -0.13294682317E+02  0.23263905078E+02  0.51100000000E-03 0.  1.
         12    1    3    3    0    0 -0.50030362550E+00  0.62368663367E+01 -0.19037493322E+02  0.20039335253E+02  0.00000000000E+00 0. -1.
</event>
<event>
 7    1  0.1542786E-009  0.4778727E+02  0.7816164E-02  0.1312668E+00
        -11   -1    0    0    0    0  0.00000000000E+00  0.00000000000E+00  0.45593999997E+02  0.45594000000E+02  0.51100000000E-03 0. -1.
         11   -1    0    0    0    0 -0.00000000000E+00 -0.00000000000E+00 -0.45593999997E+02  0.45594000000E+02  0.51100000000E-03 0.  1.
    9900012    2    1    2    0    0  0.42338950902E+02  0.94417580452E+01  0.13746099595E+01  0.47787272921E+02  0.20000008556E+02 0.  0.
        -12    1    1    2    0    0 -0.42338950902E+02 -0.94417580452E+01 -0.13746099595E+01  0.43400727079E+02  0.00000000000E+00 0.  1.
         11    1    3    3    0    0  0.97838350724E+01  0.79121951768E+01  0.51257682159E+01  0.13586749475E+02  0.51100000000E-03 0. -1.
        -11    1    3    3    0    0  0.17278742263E+02  0.51376407969E+01  0.14726724715E+00  0.18026979088E+02  0.51100000000E-03 0.  1.
         12    1    3    3    0    0  0.15276373566E+02 -0.36080779285E+01 -0.38984255036E+01  0.16173544358E+02  0.00000000000E+00 0. -1.
</event>
<event>
 7    1  0.1542786E-009  0.4778727E+02  0.7816164E-02  0.1312668E+00
        -11   -1    0    0    0    0  0.00000000000E+00  0.00000000000E+00  0.45593999997E+02  0.45594000000E+02  0.51100000000E-03 0.  1.
         11   -1    0    0    0    0 -0.00000000000E+00 -0.00000000000E+00 -0.45593999997E+02  0.45594000000E+02  0.51100000000E-03 0. -1.
    9900012    2    1    2    0    0 -0.29970521991E+02  0.25868025599E+02 -0.17783033530E+02  0.47787271684E+02  0.20000002916E+02 0.  0.
        -12    1    1    2    0    0  0.29970521991E+02 -0.25868025599E+02  0.17783033530E+02  0.43400728316E+02  0.00000000000E+00 0.  1.
         11    1    3    3    0    0 -0.13406586483E+02  0.53933959443E+01 -0.72776385554E+01  0.16179904331E+02  0.51100000000E-03 0. -1.
        -11    1    3    3    0    0 -0.15571967263E+02  0.14684696985E+02 -0.13197489082E+02  0.25145580294E+02  0.51100000000E-03 0.  1.
        -12    1    3    3    0    0 -0.99196824469E+00  0.57899326696E+01  0.26920941073E+01  0.64617870593E+01  0.00000000000E+00 0.  1.
</event>
<event>
 7    1  0.1542786E-009  0.4778727E+02  0.7816164E-02  0.1312668E+00
        -11   -1    0    0    0    0  0.00000000000E+00  0.00000000000E+00  0.45593999997E+02  0.45594000000E+02  0.51100000000E-03 0.  1.
         11   -1    0    0    0    0 -0.00000000000E+00 -0.00000000000E+00 -0.45593999997E+02  0.45594000000E+02  0.51100000000E-03 0. -1.
    9900012    2    1    2    0    0  0.31127918496E+02 -0.27922257374E+02 -0.11619950254E+02  0.47787274077E+02  0.20000013825E+02 0.  0.
        -12    1    1    2    0    0 -0.31127918496E+02  0.27922257374E+02  0.11619950254E+02  0.43400725923E+02  0.00000000000E+00 0.  1.
         11    1    3    3    0    0  0.18889202340E+02 -0.22622616893E+02 -0.13609868291E+02  0.32462490282E+02  0.51100000000E-03 0. -1.
        -11    1    3    3    0    0  0.61999369896E+01  0.56050911316E+00 -0.11738366731E+01  0.63349255668E+01  0.51100000000E-03 0.  1.
        -12    1    3    3    0    0  0.60387791662E+01 -0.58601495947E+01  0.31637547105E+01  0.89898582279E+01  0.00000000000E+00 0.  1.
</event>
<event>
 7    1  0.1542786E-009  0.4778727E+02  0.7816164E-02  0.1312668E+00
        -11   -1    0    0    0    0  0.00000000000E+00  0.00000000000E+00  0.45593999997E+02  0.45594000000E+02  0.51100000000E-03 0.  1.
         11   -1    0    0    0    0 -0.00000000000E+00 -0.00000000000E+00 -0.45593999997E+02  0.45594000000E+02  0.51100000000E-03 0. -1.
    9900012    2    1    2    0    0  0.69411187227E+01  0.30291917073E+02 -0.30295936044E+02  0.47787272934E+02  0.20000008616E+02 0.  0.
        -12    1    1    2    0    0 -0.69411187227E+01 -0.30291917073E+02  0.30295936044E+02  0.43400727066E+02  0.00000000000E+00 0.  1.
         11    1    3    3    0    0  0.92293647874E+01  0.21102031472E+02 -0.10542782817E+02  0.25330360764E+02  0.51100000000E-03 0.  1.
        -11    1    3    3    0    0 -0.88295545619E+00  0.36469836715E+01 -0.31586389537E+01  0.49048038226E+01  0.51100000000E-03 0. -1.
        -12    1    3    3    0    0 -0.14052906085E+01  0.55429019296E+01 -0.16594514273E+02  0.17552108348E+02  0.00000000000E+00 0.  1.
</event>
<event>
 7    1  0.1542786E-009  0.4778727E+02  0.7816164E-02  0.1312668E+00
        -11   -1    0    0    0    0  0.00000000000E+00  0.00000000000E+00  0.45593999997E+02  0.45594000000E+02  0.51100000000E-03 0. -1.
         11   -1    0    0    0    0 -0.00000000000E+00 -0.00000000000E+00 -0.45593999997E+02  0.45594000000E+02  0.51100000000E-03 0.  1.
    9900012    2    1    2    0    0 -0.23133770513E+02 -0.17165154441E+02  0.32462430915E+02  0.47787270904E+02  0.19999999361E+02 0.  0.
        -12    1    1    2    0    0  0.23133770513E+02  0.17165154441E+02 -0.32462430915E+02  0.43400729096E+02  0.00000000000E+00 0.  1.
         11    1    3    3    0    0 -0.11176162864E+02 -0.69800836626E+01  0.12119357586E+02  0.17902709651E+02  0.51100000000E-03 0. -1.
        -11    1    3    3    0    0  0.24015827200E+01 -0.59321353253E+01  0.92484227929E+01  0.11246828597E+02  0.51100000000E-03 0.  1.
        -12    1    3    3    0    0 -0.14359190369E+02 -0.42529354536E+01  0.11094650536E+02  0.18637732656E+02  0.00000000000E+00 0.  1.
</event>
<event>
 7    1  0.1542786E-009  0.4778727E+02  0.7816164E-02  0.1312668E+00
        -11   -1    0    0    0    0  0.00000000000E+00  0.00000000000E+00  0.45593999997E+02  0.45594000000E+02  0.51100000000E-03 0. -1.
         11   -1    0    0    0    0 -0.00000000000E+00 -0.00000000000E+00 -0.45593999997E+02  0.45594000000E+02  0.51100000000E-03 0.  1.
    9900012    2    1    2    0    0  0.14354464076E+01  0.22879048121E+02  0.36852571705E+02  0.47787269700E+02  0.19999993869E+02 0.  0.
        -12    1    1    2    0    0 -0.14354464076E+01 -0.22879048121E+02 -0.36852571705E+02  0.43400730300E+02  0.00000000000E+00 0.  1.
         11    1    3    3    0    0 -0.13363999847E+01  0.51597086217E+01  0.12738237313E+02  0.13808376012E+02  0.51100000000E-03 0. -1.
        -11    1    3    3    0    0  0.76562417796E-01  0.64754547974E+01 -0.78752755533E+00  0.65236168303E+01  0.51100000000E-03 0.  1.
        -12    1    3    3    0    0  0.26952839745E+01  0.11243884702E+02  0.24901861947E+02  0.27455276857E+02  0.00000000000E+00 0.  1.
</event>
<event>
 7    1  0.1542786E-009  0.4778727E+02  0.7816164E-02  0.1312668E+00
        -11   -1    0    0    0    0  0.00000000000E+00  0.00000000000E+00  0.45593999997E+02  0.45594000000E+02  0.51100000000E-03 0.  1.
         11   -1    0    0    0    0 -0.00000000000E+00 -0.00000000000E+00 -0.45593999997E+02  0.45594000000E+02  0.51100000000E-03 0. -1.
    9900012    2    1    2    0    0  0.34434173856E+02 -0.26165442984E+02 -0.36442331584E+01  0.47787272230E+02  0.20000005404E+02 0.  0.
        -12    1    1    2    0    0 -0.34434173856E+02  0.26165442984E+02  0.36442331584E+01  0.43400727770E+02  0.00000000000E+00 0.  1.
         11    1    3    3    0    0  0.32886962259E+02 -0.15172504501E+02 -0.73809524732E+00  0.36225708610E+02  0.51100000000E-03 0. -1.
        -11    1    3    3    0    0  0.63652351135E+00 -0.60401387393E+01 -0.89579921849E+00  0.61392910561E+01  0.51100000000E-03 0.  1.
         12    1    3    3    0    0  0.91068808546E+00 -0.49527997437E+01 -0.20103386926E+01  0.54222725632E+01  0.00000000000E+00 0. -1.
</event>
<event>
 7    1  0.1542786E-009  0.4778727E+02  0.7816164E-02  0.1312668E+00
        -11   -1    0    0    0    0  0.00000000000E+00  0.00000000000E+00  0.45593999997E+02  0.45594000000E+02  0.51100000000E-03 0. -1.
         11   -1    0    0    0    0 -0.00000000000E+00 -0.00000000000E+00 -0.45593999997E+02  0.45594000000E+02  0.51100000000E-03 0.  1.
    9900012    2    1    2    0    0  0.34664026231E+02  0.26029724859E+02 -0.21170795947E+01  0.47787270550E+02  0.19999997745E+02 0.  0.
        -12    1    1    2    0    0 -0.34664026231E+02 -0.26029724859E+02  0.21170795947E+01  0.43400729450E+02  0.00000000000E+00 0.  1.
         11    1    3    3    0    0 -0.24240266177E+00  0.97181782653E+00  0.45076299387E+00  0.10983517088E+01  0.51100000000E-03 0.  1.
        -11    1    3    3    0    0  0.30948824242E+02  0.27953687618E+02 -0.19977542943E+01  0.41751998705E+02  0.51100000000E-03 0. -1.
         12    1    3    3    0    0  0.39576046510E+01 -0.28957805848E+01 -0.57008829429E+00  0.49369201363E+01  0.00000000000E+00 0. -1.
</event>
<event>
 7    1  0.1542786E-009  0.4778727E+02  0.7816164E-02  0.1312668E+00
        -11   -1    0    0    0    0  0.00000000000E+00  0.00000000000E+00  0.45593999997E+02  0.45594000000E+02  0.51100000000E-03 0. -1.
         11   -1    0    0    0    0 -0.00000000000E+00 -0.00000000000E+00 -0.45593999997E+02  0.45594000000E+02  0.51100000000E-03 0.  1.
    9900012    2    1    2    0    0 -0.34140535143E+02  0.26550190657E+02  0.36241442039E+01  0.47787272068E+02  0.20000004668E+02 0.  0.
        -12    1    1    2    0    0  0.34140535143E+02 -0.26550190657E+02 -0.36241442039E+01  0.43400727932E+02  0.00000000000E+00 0.  1.
         11    1    3    3    0    0 -0.35421617985E+01 -0.13681968727E+01 -0.14191747534E+01  0.40537550655E+01  0.51100000000E-03 0. -1.
        -11    1    3    3    0    0 -0.46373282189E+01 -0.68330908722E+00  0.16023605997E+01  0.49537141693E+01  0.51100000000E-03 0.  1.
         12    1    3    3    0    0 -0.25961045126E+02  0.28601696617E+02  0.34409583576E+01  0.38779802834E+02  0.00000000000E+00 0. -1.
</event>
<event>
 7    1  0.1542786E-009  0.4778727E+02  0.7816164E-02  0.1312668E+00
        -11   -1    0    0    0    0  0.00000000000E+00  0.00000000000E+00  0.45593999997E+02  0.45594000000E+02  0.51100000000E-03 0. -1.
         11   -1    0    0    0    0 -0.00000000000E+00 -0.00000000000E+00 -0.45593999997E+02  0.45594000000E+02  0.51100000000E-03 0.  1.
    9900012    2    1    2    0    0 -0.28483109958E+02 -0.32562397359E+02 -0.34678870460E+01  0.47787268264E+02  0.19999987323E+02 0.  0.
        -12    1    1    2    0    0  0.28483109958E+02  0.32562397359E+02  0.34678870460E+01  0.43400731736E+02  0.00000000000E+00 0.  1.
         11    1    3    3    0    0 -0.17141711776E+02 -0.17511505355E+02 -0.72265381088E+01  0.25548267176E+02  0.51100000000E-03 0. -1.
        -11    1    3    3    0    0 -0.12387064037E+02 -0.83572584097E+01  0.39694423860E+01  0.15460905429E+02  0.51100000000E-03 0.  1.
        -12    1    3    3    0    0  0.10456658544E+01 -0.66936335944E+01 -0.21079132318E+00  0.67780956586E+01  0.00000000000E+00 0.  1.
</event>
<event>
 7    1  0.1547512E-009  0.4778727E+02  0.7816164E-02  0.1312668E+00
        -11   -1    0    0    0    0  0.00000000000E+00  0.00000000000E+00  0.45593999997E+02  0.45594000000E+02  0.51100000000E-03 0.  1.
         11   -1    0    0    0    0 -0.00000000000E+00 -0.00000000000E+00 -0.45593999997E+02  0.45594000000E+02  0.51100000000E-03 0. -1.
    9900012    2    1    2    0    0 -0.76442302729E+01  0.40565422916E+02  0.13402822784E+02  0.47787268999E+02  0.19999990676E+02 0.  0.
        -12    1    1    2    0    0  0.76442302729E+01 -0.40565422916E+02 -0.13402822784E+02  0.43400731001E+02  0.00000000000E+00 0.  1.
         11    1    3    3    0    0 -0.35564263719E+01  0.31497432626E+02  0.43194287909E+01  0.31990528222E+02  0.51100000000E-03 0. -1.
        -11    1    3    3    0    0  0.18082872119E+01 -0.29780328751E+00  0.96484580705E+00  0.20711149488E+01  0.51100000000E-03 0.  1.
        -12    1    3    3    0    0 -0.58960911129E+01  0.93657935775E+01  0.81185481859E+01  0.13725625829E+02  0.00000000000E+00 0.  1.
</event>
<event>
 7    1  0.1885650E-009  0.4778727E+02  0.7816164E-02  0.1312668E+00
        -11   -1    0    0    0    0  0.00000000000E+00  0.00000000000E+00  0.45593999997E+02  0.45594000000E+02  0.51100000000E-03 0. -1.
         11   -1    0    0    0    0 -0.00000000000E+00 -0.00000000000E+00 -0.45593999997E+02  0.45594000000E+02  0.51100000000E-03 0.  1.
    9900012    2    1    2    0    0  0.24166555469E+02 -0.32769331577E+02  0.15025708245E+02  0.47787269551E+02  0.19999993191E+02 0.  0.
        -12    1    1    2    0    0 -0.24166555469E+02  0.32769331577E+02 -0.15025708245E+02  0.43400730449E+02  0.00000000000E+00 0.  1.
         11    1    3    3    0    0  0.13771388533E+01 -0.49910940399E+01  0.58275042439E+01  0.77953407309E+01  0.51100000000E-03 0. -1.
        -11    1    3    3    0    0  0.18178474751E+02 -0.10432369007E+02  0.54543874609E+01  0.21657368497E+02  0.51100000000E-03 0.  1.
        -12    1    3    3    0    0  0.46109418643E+01 -0.17345868531E+02  0.37438165399E+01  0.18334560323E+02  0.00000000000E+00 0.  1.
</event>
<event>
 7    1  0.1542786E-009  0.4778727E+02  0.7816164E-02  0.1312668E+00
        -11   -1    0    0    0    0  0.00000000000E+00  0.00000000000E+00  0.45593999997E+02  0.45594000000E+02  0.51100000000E-03 0. -1.
         11   -1    0    0    0    0 -0.00000000000E+00 -0.00000000000E+00 -0.45593999997E+02  0.45594000000E+02  0.51100000000E-03 0.  1.
    9900012    2    1    2    0    0 -0.45701528100E+01 -0.38629789173E+02  0.19247761243E+02  0.47787271652E+02  0.20000002770E+02 0.  0.
        -12    1    1    2    0    0  0.45701528100E+01  0.38629789173E+02 -0.19247761243E+02  0.43400728348E+02  0.00000000000E+00 0.  1.
         11    1    3    3    0    0 -0.12195551949E+01 -0.29243821828E+02  0.12687828792E+02  0.31900931487E+02  0.51100000000E-03 0. -1.
        -11    1    3    3    0    0  0.26847157083E+01 -0.22895608212E+01 -0.12362491994E+01  0.37387296683E+01  0.51100000000E-03 0.  1.
        -12    1    3    3    0    0 -0.60353133235E+01 -0.70964065237E+01  0.77961816503E+01  0.12147610497E+02  0.00000000000E+00 0.  1.
</event>
<event>
 7    1  0.1542786E-009  0.4778727E+02  0.7816164E-02  0.1312668E+00
        -11   -1    0    0    0    0  0.00000000000E+00  0.00000000000E+00  0.45593999997E+02  0.45594000000E+02  0.51100000000E-03 0.  1.
         11   -1    0    0    0    0 -0.00000000000E+00 -0.00000000000E+00 -0.45593999997E+02  0.45594000000E+02  0.51100000000E-03 0. -1.
    9900012    2    1    2    0    0 -0.24884439502E+02 -0.34473016051E+02 -0.87177407993E+01  0.47787272246E+02  0.20000005477E+02 0.  0.
        -12    1    1    2    0    0  0.24884439502E+02  0.34473016051E+02  0.87177407993E+01  0.43400727754E+02  0.00000000000E+00 0.  1.
         11    1    3    3    0    0 -0.38580008957E+01  0.36939269814E+00 -0.30164973230E+01  0.49111992668E+01  0.51100000000E-03 0. -1.
        -11    1    3    3    0    0 -0.11517274804E+02 -0.27387035835E+02 -0.75439827176E+01  0.30653042691E+02  0.51100000000E-03 0.  1.
         12    1    3    3    0    0 -0.95091638023E+01 -0.74553729145E+01  0.18427392413E+01  0.12223030288E+02  0.00000000000E+00 0. -1.
</event>
<event>
 7    1  0.1542786E-009  0.4778727E+02  0.7816164E-02  0.1312668E+00
        -11   -1    0    0    0    0  0.00000000000E+00  0.00000000000E+00  0.45593999997E+02  0.45594000000E+02  0.51100000000E-03 0.  1.
         11   -1    0    0    0    0 -0.00000000000E+00 -0.00000000000E+00 -0.45593999997E+02  0.45594000000E+02  0.51100000000E-03 0. -1.
    9900012    2    1    2    0    0 -0.30027320900E+02  0.23799805590E+02 -0.20385106880E+02  0.47787270409E+02  0.19999997102E+02 0.  0.
        -12    1    1    2    0    0  0.30027320900E+02 -0.23799805590E+02  0.20385106880E+02  0.43400729591E+02  0.00000000000E+00 0.  1.
         11    1    3    3    0    0 -0.12189488510E+02  0.72153300490E+01 -0.81440935208E+01  0.16339243477E+02  0.51100000000E-03 0. -1.
        -11    1    3    3    0    0 -0.35203810440E+00  0.37876095699E+01  0.30931418198E+01  0.49027995736E+01  0.51100000000E-03 0.  1.
        -12    1    3    3    0    0 -0.17485794285E+02  0.12796865971E+02 -0.15334155179E+02  0.26545227359E+02  0.00000000000E+00 0.  1.
</event>
<event>
 7    1  0.1542786E-009  0.4778728E+02  0.7816164E-02  0.1312668E+00
        -11   -1    0    0    0    0  0.00000000000E+00  0.00000000000E+00  0.45593999997E+02  0.45594000000E+02  0.51100000000E-03 0. -1.
         11   -1    0    0    0    0 -0.00000000000E+00 -0.00000000000E+00 -0.45593999997E+02  0.45594000000E+02  0.51100000000E-03 0.  1.
    9900012    2    1    2    0    0 -0.24109158222E+02  0.16656197185E+02  0.32014723318E+02  0.47787275075E+02  0.20000018379E+02 0.  0.
        -12    1    1    2    0    0  0.24109158222E+02 -0.16656197185E+02 -0.32014723318E+02  0.43400724925E+02  0.00000000000E+00 0.  1.
         11    1    3    3    0    0 -0.10847214394E+01  0.39489290295E+01  0.82083816528E+01  0.91732322929E+01  0.51100000000E-03 0. -1.
        -11    1    3    3    0    0 -0.19942747193E+02  0.35040748721E+01  0.19069560609E+02  0.27814382042E+02  0.51100000000E-03 0.  1.
        -12    1    3    3    0    0 -0.30816895900E+01  0.92031932832E+01  0.47367810568E+01  0.10799660741E+02  0.00000000000E+00 0.  1.
</event>
<event>
 7    1  0.1542786E-009  0.4778727E+02  0.7816164E-02  0.1312668E+00
        -11   -1    0    0    0    0  0.00000000000E+00  0.00000000000E+00  0.45593999997E+02  0.45594000000E+02  0.51100000000E-03 0.  1.
         11   -1    0    0    0    0 -0.00000000000E+00 -0.00000000000E+00 -0.45593999997E+02  0.45594000000E+02  0.51100000000E-03 0. -1.
    9900012    2    1    2    0    0  0.11332266614E+02 -0.27124574978E+02 -0.31928987288E+02  0.47787273467E+02  0.20000011046E+02 0.  0.
        -12    1    1    2    0    0 -0.11332266614E+02  0.27124574978E+02  0.31928987288E+02  0.43400726533E+02  0.00000000000E+00 0.  1.
         11    1    3    3    0    0  0.13523514199E+01 -0.44784152297E+01  0.72819334153E+00  0.47344823514E+01  0.51100000000E-03 0.  1.
        -11    1    3    3    0    0 -0.67307559836E+00 -0.14277588681E+02 -0.19413003006E+02  0.24107410796E+02  0.51100000000E-03 0. -1.
         12    1    3    3    0    0  0.10652990793E+02 -0.83685710669E+01 -0.13244177623E+02  0.18945380319E+02  0.00000000000E+00 0. -1.
</event>
<event>
 7    1  0.1542786E-009  0.4778727E+02  0.7816164E-02  0.1312668E+00
        -11   -1    0    0    0    0  0.00000000000E+00  0.00000000000E+00  0.45593999997E+02  0.45594000000E+02  0.51100000000E-03 0.  1.
         11   -1    0    0    0    0 -0.00000000000E+00 -0.00000000000E+00 -0.45593999997E+02  0.45594000000E+02  0.51100000000E-03 0. -1.
    9900012    2    1    2    0    0  0.99662222541E+01 -0.42208709333E+02  0.16500163581E+01  0.47787270933E+02  0.19999999490E+02 0.  0.
        -12    1    1    2    0    0 -0.99662222541E+01  0.42208709333E+02 -0.16500163581E+01  0.43400729067E+02  0.00000000000E+00 0.  1.
         11    1    3    3    0    0  0.66508198661E+01 -0.11130265237E+02  0.66770141056E+00  0.12983144248E+02  0.51100000000E-03 0. -1.
        -11    1    3    3    0    0  0.89986035315E+01 -0.24188521274E+02 -0.92493770395E-01  0.25808292898E+02  0.51100000000E-03 0.  1.
        -12    1    3    3    0    0 -0.56832011435E+01 -0.68899228225E+01  0.10748087179E+01  0.89958337867E+01  0.00000000000E+00 0.  1.
</event>
<event>
 7    1  0.1542786E-009  0.4778728E+02  0.7816164E-02  0.1312668E+00
        -11   -1    0    0    0    0  0.00000000000E+00  0.00000000000E+00  0.45593999997E+02  0.45594000000E+02  0.51100000000E-03 0. -1.
         11   -1    0    0    0    0 -0.00000000000E+00 -0.00000000000E+00 -0.45593999997E+02  0.45594000000E+02  0.51100000000E-03 0.  1.
    9900012    2    1    2    0    0  0.29308584350E+02  0.31502580170E+02  0.56760237650E+01  0.47787275124E+02  0.20000018601E+02 0.  0.
        -12    1    1    2    0    0 -0.29308584350E+02 -0.31502580170E+02 -0.56760237650E+01  0.43400724876E+02  0.00000000000E+00 0.  1.
         11    1    3    3    0    0  0.68360010752E+01  0.10065471829E+02  0.75907368066E+01  0.14340987391E+02  0.51100000000E-03 0. -1.
        -11    1    3    3    0    0  0.26969676005E+01  0.31069028835E+01  0.41119329258E+01  0.58167407036E+01  0.51100000000E-03 0.  1.
        -12    1    3    3    0    0  0.19775615674E+02  0.18330205458E+02 -0.60266459673E+01  0.27629547029E+02  0.00000000000E+00 0.  1.
</event>
<event>
 7    1  0.1542786E-009  0.4778727E+02  0.7816164E-02  0.1312668E+00
        -11   -1    0    0    0    0  0.00000000000E+00  0.00000000000E+00  0.45593999997E+02  0.45594000000E+02  0.51100000000E-03 0. -1.
         11   -1    0    0    0    0 -0.00000000000E+00 -0.00000000000E+00 -0.45593999997E+02  0.45594000000E+02  0.51100000000E-03 0.  1.
    9900012    2    1    2    0    0 -0.39493261204E+02 -0.81989536350E+01  0.16021321494E+02  0.47787271162E+02  0.20000000535E+02 0.  0.
        -12    1    1    2    0    0  0.39493261204E+02  0.81989536350E+01 -0.16021321494E+02  0.43400728838E+02  0.00000000000E+00 0.  1.
         11    1    3    3    0    0 -0.13505750139E+02 -0.70826522934E+01  0.55251171950E+01  0.16220239536E+02  0.51100000000E-03 0. -1.
        -11    1    3    3    0    0 -0.18969992241E+02  0.37395812052E+01  0.12203475908E+02  0.22864161863E+02  0.51100000000E-03 0.  1.
        -12    1    3    3    0    0 -0.70175188247E+01 -0.48558825467E+01 -0.17072716085E+01  0.87028697628E+01  0.00000000000E+00 0.  1.
</event>
<event>
 7    1  0.1542786E-009  0.4778727E+02  0.7816164E-02  0.1312668E+00
        -11   -1    0    0    0    0  0.00000000000E+00  0.00000000000E+00  0.45593999997E+02  0.45594000000E+02  0.51100000000E-03 0.  1.
         11   -1    0    0    0    0 -0.00000000000E+00 -0.00000000000E+00 -0.45593999997E+02  0.45594000000E+02  0.51100000000E-03 0. -1.
    9900012    2    1    2    0    0 -0.64886429831E+01  0.21313346948E+02 -0.37245971421E+02  0.47787266908E+02  0.19999981139E+02 0.  0.
        -12    1    1    2    0    0  0.64886429831E+01 -0.21313346948E+02  0.37245971421E+02  0.43400733092E+02  0.00000000000E+00 0.  1.
         11    1    3    3    0    0 -0.11063977171E+01 -0.12975048973E+01 -0.46721565469E+01  0.49735984887E+01  0.51100000000E-03 0. -1.
        -11    1    3    3    0    0 -0.32665065004E+01  0.21810541463E+02 -0.33709331858E+02  0.40282612107E+02  0.51100000000E-03 0.  1.
        -12    1    3    3    0    0 -0.21157387656E+01  0.80031038218E+00  0.11355169840E+01  0.25310563117E+01  0.00000000000E+00 0.  1.
</event>
<event>
 7    1  0.1542786E-009  0.4778727E+02  0.7816164E-02  0.1312668E+00
        -11   -1    0    0    0    0  0.00000000000E+00  0.00000000000E+00  0.45593999997E+02  0.45594000000E+02  0.51100000000E-03 0.  1.
         11   -1    0    0    0    0 -0.00000000000E+00 -0.00000000000E+00 -0.45593999997E+02  0.45594000000E+02  0.51100000000E-03 0. -1.
    9900012    2    1    2    0    0  0.35897777578E+02 -0.20808196505E+02  0.12727594292E+02  0.47787272664E+02  0.20000007384E+02 0.  0.
        -12    1    1    2    0    0 -0.35897777578E+02  0.20808196505E+02 -0.12727594292E+02  0.43400727336E+02  0.00000000000E+00 0.  1.
         11    1    3    3    0    0  0.24042749729E+02 -0.62316820604E+01  0.10815803505E+02  0.27090021808E+02  0.51100000000E-03 0. -1.
        -11    1    3    3    0    0  0.42544457168E+01 -0.20682482646E+01  0.36265620448E+01  0.59606972552E+01  0.51100000000E-03 0.  1.
        -12    1    3    3    0    0  0.76005821322E+01 -0.12508266180E+02 -0.17147712571E+01  0.14736553601E+02  0.00000000000E+00 0.  1.
</event>
<event>
 7    1  0.1542786E-009  0.4778727E+02  0.7816164E-02  0.1312668E+00
        -11   -1    0    0    0    0  0.00000000000E+00  0.00000000000E+00  0.45593999997E+02  0.45594000000E+02  0.51100000000E-03 0.  1.
         11   -1    0    0    0    0 -0.00000000000E+00 -0.00000000000E+00 -0.45593999997E+02  0.45594000000E+02  0.51100000000E-03 0. -1.
    9900012    2    1    2    0    0  0.33607733874E+02 -0.27382263224E+02 -0.20868377562E+01  0.47787274116E+02  0.20000014006E+02 0.  0.
        -12    1    1    2    0    0 -0.33607733874E+02  0.27382263224E+02  0.20868377562E+01  0.43400725884E+02  0.00000000000E+00 0.  1.
         11    1    3    3    0    0  0.22783755892E+02 -0.19782933608E+02  0.14305445941E+01  0.30207787950E+02  0.51100000000E-03 0. -1.
        -11    1    3    3    0    0 -0.18119851766E+00 -0.59442117153E+01 -0.13726499161E+00  0.59485567794E+01  0.51100000000E-03 0.  1.
         12    1    3    3    0    0  0.11005176500E+02 -0.16551179000E+01 -0.33801173586E+01  0.11630929387E+02  0.00000000000E+00 0. -1.
</event>
<event>
 7    1  0.1542786E-009  0.4778727E+02  0.7816164E-02  0.1312668E+00
        -11   -1    0    0    0    0  0.00000000000E+00  0.00000000000E+00  0.45593999997E+02  0.45594000000E+02  0.51100000000E-03 0.  1.
         11   -1    0    0    0    0 -0.00000000000E+00 -0.00000000000E+00 -0.45593999997E+02  0.45594000000E+02  0.51100000000E-03 0. -1.
    9900012    2    1    2    0    0 -0.16507207460E+02  0.31281785924E+02 -0.25151250065E+02  0.47787269493E+02  0.19999992926E+02 0.  0.
        -12    1    1    2    0    0  0.16507207460E+02 -0.31281785924E+02  0.25151250065E+02  0.43400730507E+02  0.00000000000E+00 0.  1.
         11    1    3    3    0    0 -0.30806540066E+01 -0.28321885612E+00 -0.16957345628E+01  0.35279112797E+01  0.51100000000E-03 0. -1.
        -11    1    3    3    0    0  0.31551124511E+01  0.27222258430E+01 -0.36587002406E+01  0.55453886998E+01  0.51100000000E-03 0.  1.
         12    1    3    3    0    0 -0.16581665904E+02  0.28842778937E+02 -0.19796815262E+02  0.38713969513E+02  0.00000000000E+00 0. -1.
</event>
<event>
 7    1  0.1542786E-009  0.4778723E+02  0.7816164E-02  0.1312668E+00
        -11   -1    0    0    0    0  0.00000000000E+00  0.00000000000E+00  0.45593999997E+02  0.45594000000E+02  0.51100000000E-03 0.  1.
         11   -1    0    0    0    0 -0.00000000000E+00 -0.00000000000E+00 -0.45593999997E+02  0.45594000000E+02  0.51100000000E-03 0. -1.
    9900012    2    1    2    0    0 -0.20260189144E+02 -0.31692462495E+02 -0.21650385050E+02  0.47787232542E+02  0.19999824452E+02 0.  0.
        -12    1    1    2    0    0  0.20260189144E+02  0.31692462495E+02  0.21650385050E+02  0.43400767458E+02  0.00000000000E+00 0.  1.
         11    1    3    3    0    0  0.89380395615E+00 -0.20329943873E+01  0.47535342008E+00  0.22711038783E+01  0.51100000000E-03 0. -1.
        -11    1    3    3    0    0 -0.82615039796E+01 -0.10181237111E+01 -0.37855823523E+01  0.91443784865E+01  0.51100000000E-03 0.  1.
         12    1    3    3    0    0 -0.12892489121E+02 -0.28641344396E+02 -0.18340156118E+02  0.36371750177E+02  0.00000000000E+00 0. -1.
</event>
<event>
 7    1  0.1542786E-009  0.4778728E+02  0.7816164E-02  0.1312668E+00
        -11   -1    0    0    0    0  0.00000000000E+00  0.00000000000E+00  0.45593999997E+02  0.45594000000E+02  0.51100000000E-03 0.  1.
         11   -1    0    0    0    0 -0.00000000000E+00 -0.00000000000E+00 -0.45593999997E+02  0.45594000000E+02  0.51100000000E-03 0. -1.
    9900012    2    1    2    0    0 -0.15382607314E+02  0.31660011535E+02 -0.25389799029E+02  0.47787276125E+02  0.20000023164E+02 0.  0.
        -12    1    1    2    0    0  0.15382607314E+02 -0.31660011535E+02  0.25389799029E+02  0.43400723875E+02  0.00000000000E+00 0.  1.
         11    1    3    3    0    0  0.66267150101E+00  0.15611084576E+02 -0.79254116035E+01  0.17520195333E+02  0.51100000000E-03 0. -1.
        -11    1    3    3    0    0 -0.19160390178E+01  0.44257425529E+01  0.21176566591E+00  0.48273437438E+01  0.51100000000E-03 0.  1.
         12    1    3    3    0    0 -0.14129239797E+02  0.11623184405E+02 -0.17676153091E+02  0.25439737048E+02  0.00000000000E+00 0. -1.
</event>
<event>
 7    1  0.1542786E-009  0.4778728E+02  0.7816164E-02  0.1312668E+00
        -11   -1    0    0    0    0  0.00000000000E+00  0.00000000000E+00  0.45593999997E+02  0.45594000000E+02  0.51100000000E-03 0.  1.
         11   -1    0    0    0    0 -0.00000000000E+00 -0.00000000000E+00 -0.45593999997E+02  0.45594000000E+02  0.51100000000E-03 0. -1.
    9900012    2    1    2    0    0 -0.35695591226E+02 -0.16315072545E+02 -0.18527437250E+02  0.47787277009E+02  0.20000027193E+02 0.  0.
        -12    1    1    2    0    0  0.35695591226E+02  0.16315072545E+02  0.18527437250E+02  0.43400722991E+02  0.00000000000E+00 0.  1.
         11    1    3    3    0    0 -0.23665427303E+02 -0.38279371329E+01 -0.11913938345E+02  0.26770272305E+02  0.51100000000E-03 0. -1.
        -11    1    3    3    0    0  0.20339757220E+00 -0.18490016387E+01 -0.42426675350E+01  0.46325377177E+01  0.51100000000E-03 0.  1.
         12    1    3    3    0    0 -0.12233561496E+02 -0.10638133773E+02 -0.23708313696E+01  0.16384466986E+02  0.00000000000E+00 0. -1.
</event>
<event>
 7    1  0.1542786E-009  0.4778727E+02  0.7816164E-02  0.1312668E+00
        -11   -1    0    0    0    0  0.00000000000E+00  0.00000000000E+00  0.45593999997E+02  0.45594000000E+02  0.51100000000E-03 0.  1.
         11   -1    0    0    0    0 -0.00000000000E+00 -0.00000000000E+00 -0.45593999997E+02  0.45594000000E+02  0.51100000000E-03 0. -1.
    9900012    2    1    2    0    0  0.12142317337E+02 -0.26189311016E+02 -0.32408449246E+02  0.47787268850E+02  0.19999989996E+02 0.  0.
        -12    1    1    2    0    0 -0.12142317337E+02  0.26189311016E+02  0.32408449246E+02  0.43400731150E+02  0.00000000000E+00 0.  1.
         11    1    3    3    0    0 -0.43222574669E+00 -0.19493263335E+02 -0.13842888955E+02  0.23912333834E+02  0.51100000000E-03 0. -1.
        -11    1    3    3    0    0  0.20099360225E+01 -0.33075924291E+01 -0.56472785749E+01  0.68462957908E+01  0.51100000000E-03 0.  1.
        -12    1    3    3    0    0  0.10564607061E+02 -0.33884552524E+01 -0.12918281716E+02  0.17028639225E+02  0.00000000000E+00 0.  1.
</event>
<event>
 7    1  0.1542786E-009  0.4778727E+02  0.7816164E-02  0.1312668E+00
        -11   -1    0    0    0    0  0.00000000000E+00  0.00000000000E+00  0.45593999997E+02  0.45594000000E+02  0.51100000000E-03 0.  1.
         11   -1    0    0    0    0 -0.00000000000E+00 -0.00000000000E+00 -0.45593999997E+02  0.45594000000E+02  0.51100000000E-03 0. -1.
    9900012    2    1    2    0    0 -0.25248406948E+02 -0.27432366865E+02 -0.22217258345E+02  0.47787269896E+02  0.19999994762E+02 0.  0.
        -12    1    1    2    0    0  0.25248406948E+02  0.27432366865E+02  0.22217258345E+02  0.43400730104E+02  0.00000000000E+00 0.  1.
         11    1    3    3    0    0 -0.14882454165E+02 -0.13751700033E+02 -0.62596135195E+01  0.21208004561E+02  0.51100000000E-03 0. -1.
        -11    1    3    3    0    0 -0.90059480702E+00 -0.11422665566E+02 -0.75760377821E+01  0.13736255253E+02  0.51100000000E-03 0.  1.
         12    1    3    3    0    0 -0.94653579761E+01 -0.22580012661E+01 -0.83816070434E+01  0.12843010082E+02  0.00000000000E+00 0. -1.
</event>
<event>
 7    1  0.1542786E-009  0.4778728E+02  0.7816164E-02  0.1312668E+00
        -11   -1    0    0    0    0  0.00000000000E+00  0.00000000000E+00  0.45593999997E+02  0.45594000000E+02  0.51100000000E-03 0. -1.
         11   -1    0    0    0    0 -0.00000000000E+00 -0.00000000000E+00 -0.45593999997E+02  0.45594000000E+02  0.51100000000E-03 0.  1.
    9900012    2    1    2    0    0 -0.30853272747E+02  0.21130358112E+02 -0.22027400101E+02  0.47787276177E+02  0.20000023404E+02 0.  0.
        -12    1    1    2    0    0  0.30853272747E+02 -0.21130358112E+02  0.22027400101E+02  0.43400723823E+02  0.00000000000E+00 0.  1.
         11    1    3    3    0    0 -0.36245372825E+01 -0.11330646045E+01 -0.16016080049E+01  0.41214383864E+01  0.51100000000E-03 0. -1.
        -11    1    3    3    0    0 -0.22686383249E+02  0.22413192698E+02 -0.11964676467E+02  0.34061366312E+02  0.51100000000E-03 0.  1.
        -12    1    3    3    0    0 -0.45423522151E+01 -0.14976998175E+00 -0.84611156296E+01  0.96044714791E+01  0.00000000000E+00 0.  1.
</event>
<event>
 7    1  0.1542786E-009  0.4778728E+02  0.7816164E-02  0.1312668E+00
        -11   -1    0    0    0    0  0.00000000000E+00  0.00000000000E+00  0.45593999997E+02  0.45594000000E+02  0.51100000000E-03 0.  1.
         11   -1    0    0    0    0 -0.00000000000E+00 -0.00000000000E+00 -0.45593999997E+02  0.45594000000E+02  0.51100000000E-03 0. -1.
    9900012    2    1    2    0    0  0.33263062735E+02  0.23211582782E+02 -0.15440653358E+02  0.47787277726E+02  0.20000030465E+02 0.  0.
        -12    1    1    2    0    0 -0.33263062735E+02 -0.23211582782E+02  0.15440653358E+02  0.43400722274E+02  0.00000000000E+00 0.  1.
         11    1    3    3    0    0  0.53429952110E+01  0.56061619185E+00 -0.60890274491E+01  0.81202305310E+01  0.51100000000E-03 0. -1.
        -11    1    3    3    0    0 -0.80503001971E+00  0.35839351518E+01 -0.26880179353E+01  0.45517145326E+01  0.51100000000E-03 0.  1.
         12    1    3    3    0    0  0.28725097544E+02  0.19067031439E+02 -0.66636079734E+01  0.35115332663E+02  0.00000000000E+00 0. -1.
</event>
<event>
 7    1  0.1542786E-009  0.4778728E+02  0.7816164E-02  0.1312668E+00
        -11   -1    0    0    0    0  0.00000000000E+00  0.00000000000E+00  0.45593999997E+02  0.45594000000E+02  0.51100000000E-03 0.  1.
         11   -1    0    0    0    0 -0.00000000000E+00 -0.00000000000E+00 -0.45593999997E+02  0.45594000000E+02  0.51100000000E-03 0. -1.
    9900012    2    1    2    0    0  0.13117488644E+02  0.26627601468E+01 -0.41285152674E+02  0.47787278448E+02  0.20000033755E+02 0.  0.
        -12    1    1    2    0    0 -0.13117488644E+02 -0.26627601468E+01  0.41285152674E+02  0.43400721552E+02  0.00000000000E+00 0.  1.
         11    1    3    3    0    0 -0.15456368429E+01  0.35305791115E+01 -0.61945683978E+01  0.72956603545E+01  0.51100000000E-03 0. -1.
        -11    1    3    3    0    0  0.44029115964E+01  0.19870361025E+01 -0.12144452879E+01  0.49808453717E+01  0.51100000000E-03 0.  1.
        -12    1    3    3    0    0  0.10260213891E+02 -0.28548550672E+01 -0.33876138988E+02  0.35510772722E+02  0.00000000000E+00 0.  1.
</event>
<event>
 7    1  0.1542786E-009  0.4778727E+02  0.7816164E-02  0.1312668E+00
        -11   -1    0    0    0    0  0.00000000000E+00  0.00000000000E+00  0.45593999997E+02  0.45594000000E+02  0.51100000000E-03 0. -1.
         11   -1    0    0    0    0 -0.00000000000E+00 -0.00000000000E+00 -0.45593999997E+02  0.45594000000E+02  0.51100000000E-03 0.  1.
    9900012    2    1    2    0    0 -0.36025859679E+01  0.42143215228E+02 -0.97259339191E+01  0.47787274131E+02  0.20000014072E+02 0.  0.
        -12    1    1    2    0    0  0.36025859679E+01 -0.42143215228E+02  0.97259339191E+01  0.43400725869E+02  0.00000000000E+00 0.  1.
         11    1    3    3    0    0 -0.37549677106E+01  0.12885334907E+02 -0.53090736441E+01  0.14433222142E+02  0.51100000000E-03 0. -1.
        -11    1    3    3    0    0 -0.66437256268E+01  0.15446820590E+02 -0.60607866870E+01  0.17873905339E+02  0.51100000000E-03 0.  1.
        -12    1    3    3    0    0  0.67961073695E+01  0.13811059731E+02  0.16439264120E+01  0.15480146650E+02  0.00000000000E+00 0.  1.
</event>
<event>
 7    1  0.1542786E-009  0.4778727E+02  0.7816164E-02  0.1312668E+00
        -11   -1    0    0    0    0  0.00000000000E+00  0.00000000000E+00  0.45593999997E+02  0.45594000000E+02  0.51100000000E-03 0.  1.
         11   -1    0    0    0    0 -0.00000000000E+00 -0.00000000000E+00 -0.45593999997E+02  0.45594000000E+02  0.51100000000E-03 0. -1.
    9900012    2    1    2    0    0  0.31899777840E+02  0.22256266329E+02 -0.19253209030E+02  0.47787271030E+02  0.19999999935E+02 0.  0.
        -12    1    1    2    0    0 -0.31899777840E+02 -0.22256266329E+02  0.19253209030E+02  0.43400728970E+02  0.00000000000E+00 0.  1.
         11    1    3    3    0    0  0.13994740009E+02  0.88548871111E+01 -0.68372460896E+01  0.17916743789E+02  0.51100000000E-03 0. -1.
        -11    1    3    3    0    0  0.12768044439E+02  0.43199026758E+01  0.22358429364E+00  0.13480894189E+02  0.51100000000E-03 0.  1.
         12    1    3    3    0    0  0.51369933919E+01  0.90814765422E+01 -0.12639547234E+02  0.16389633052E+02  0.00000000000E+00 0. -1.
</event>
<event>
 7    1  0.1542786E-009  0.4778727E+02  0.7816164E-02  0.1312668E+00
        -11   -1    0    0    0    0  0.00000000000E+00  0.00000000000E+00  0.45593999997E+02  0.45594000000E+02  0.51100000000E-03 0.  1.
         11   -1    0    0    0    0 -0.00000000000E+00 -0.00000000000E+00 -0.45593999997E+02  0.45594000000E+02  0.51100000000E-03 0. -1.
    9900012    2    1    2    0    0  0.26896160936E+02 -0.17501189582E+02 -0.29222050535E+02  0.47787270198E+02  0.19999996139E+02 0.  0.
        -12    1    1    2    0    0 -0.26896160936E+02  0.17501189582E+02  0.29222050535E+02  0.43400729802E+02  0.00000000000E+00 0.  1.
         11    1    3    3    0    0  0.26269999031E+01  0.85063328631E+00 -0.38802513952E+01  0.47624632943E+01  0.51100000000E-03 0. -1.
        -11    1    3    3    0    0  0.12523141234E+01 -0.52672968967E+01 -0.12451330635E+02  0.13577493956E+02  0.51100000000E-03 0.  1.
         12    1    3    3    0    0  0.23016846910E+02 -0.13084525971E+02 -0.12890468505E+02  0.29447312948E+02  0.00000000000E+00 0. -1.
</event>
<event>
 7    1  0.1542786E-009  0.4778728E+02  0.7816164E-02  0.1312668E+00
        -11   -1    0    0    0    0  0.00000000000E+00  0.00000000000E+00  0.45593999997E+02  0.45594000000E+02  0.51100000000E-03 0.  1.
         11   -1    0    0    0    0 -0.00000000000E+00 -0.00000000000E+00 -0.45593999997E+02  0.45594000000E+02  0.51100000000E-03 0. -1.
    9900012    2    1    2    0    0 -0.15033212238E+02  0.11990451801E+02 -0.38908274286E+02  0.47787283272E+02  0.20000055749E+02 0.  0.
        -12    1    1    2    0    0  0.15033212238E+02 -0.11990451801E+02  0.38908274286E+02  0.43400716728E+02  0.00000000000E+00 0.  1.
         11    1    3    3    0    0 -0.12426206433E+02  0.68567224837E+01 -0.31035822147E+02  0.34126932270E+02  0.51100000000E-03 0. -1.
        -11    1    3    3    0    0 -0.42536308339E+01  0.41275926264E+01 -0.94587389382E+01  0.11162353637E+02  0.51100000000E-03 0.  1.
        -12    1    3    3    0    0  0.16466250284E+01  0.10061366910E+01  0.15862867991E+01  0.24979973647E+01  0.00000000000E+00 0.  1.
</event>
<event>
 7    1  0.1605674E-009  0.4778727E+02  0.7816164E-02  0.1312668E+00
        -11   -1    0    0    0    0  0.00000000000E+00  0.00000000000E+00  0.45593999997E+02  0.45594000000E+02  0.51100000000E-03 0. -1.
         11   -1    0    0    0    0 -0.00000000000E+00 -0.00000000000E+00 -0.45593999997E+02  0.45594000000E+02  0.51100000000E-03 0.  1.
    9900012    2    1    2    0    0  0.26375006081E+02  0.12607491915E+01  0.34444054599E+02  0.47787270381E+02  0.19999996974E+02 0.  0.
        -12    1    1    2    0    0 -0.26375006081E+02 -0.12607491915E+01 -0.34444054599E+02  0.43400729619E+02  0.00000000000E+00 0.  1.
         11    1    3    3    0    0  0.14290480886E+02  0.80244984572E+00  0.12529760441E+02  0.19022530502E+02  0.51100000000E-03 0. -1.
        -11    1    3    3    0    0  0.26638276919E+01 -0.50809357801E+01  0.20490549703E+01  0.60918398621E+01  0.51100000000E-03 0.  1.
         12    1    3    3    0    0  0.94206975026E+01  0.55392351258E+01  0.19865239187E+02  0.22672900017E+02  0.00000000000E+00 0. -1.
</event>
<event>
 7    1  0.1542786E-009  0.4778727E+02  0.7816164E-02  0.1312668E+00
        -11   -1    0    0    0    0  0.00000000000E+00  0.00000000000E+00  0.45593999997E+02  0.45594000000E+02  0.51100000000E-03 0.  1.
         11   -1    0    0    0    0 -0.00000000000E+00 -0.00000000000E+00 -0.45593999997E+02  0.45594000000E+02  0.51100000000E-03 0. -1.
    9900012    2    1    2    0    0  0.30023647313E+02  0.46908246714E+01 -0.30987095917E+02  0.47787270197E+02  0.19999996136E+02 0.  0.
        -12    1    1    2    0    0 -0.30023647313E+02 -0.46908246714E+01  0.30987095917E+02  0.43400729803E+02  0.00000000000E+00 0.  1.
         11    1    3    3    0    0  0.11794666390E+02  0.41943419048E+01 -0.46242145563E+01  0.13345037272E+02  0.51100000000E-03 0. -1.
        -11    1    3    3    0    0  0.78637978660E+01 -0.19559001056E+01 -0.27824743770E+01  0.85677900312E+01  0.51100000000E-03 0.  1.
         12    1    3    3    0    0  0.10365183057E+02  0.24523828722E+01 -0.23580406983E+02  0.25874442894E+02  0.00000000000E+00 0. -1.
</event>
<event>
 7    1  0.1542786E-009  0.4778727E+02  0.7816164E-02  0.1312668E+00
        -11   -1    0    0    0    0  0.00000000000E+00  0.00000000000E+00  0.45593999997E+02  0.45594000000E+02  0.51100000000E-03 0.  1.
         11   -1    0    0    0    0 -0.00000000000E+00 -0.00000000000E+00 -0.45593999997E+02  0.45594000000E+02  0.51100000000E-03 0. -1.
    9900012    2    1    2    0    0  0.55601158981E+01 -0.72524899623E+01 -0.42427701811E+02  0.47787269817E+02  0.19999994405E+02 0.  0.
        -12    1    1    2    0    0 -0.55601158981E+01  0.72524899623E+01  0.42427701811E+02  0.43400730183E+02  0.00000000000E+00 0.  1.
         11    1    3    3    0    0  0.25986816508E+01 -0.37741528904E+01 -0.49966328777E+01  0.67796546179E+01  0.51100000000E-03 0. -1.
        -11    1    3    3    0    0  0.23364083049E+01 -0.59702455637E+00  0.89209891653E+00  0.25712026031E+01  0.51100000000E-03 0.  1.
         12    1    3    3    0    0  0.62502594243E+00 -0.28813125156E+01 -0.38323167850E+02  0.38436412596E+02  0.00000000000E+00 0. -1.
</event>
<event>
 7    1  0.1542786E-009  0.4778727E+02  0.7816164E-02  0.1312668E+00
        -11   -1    0    0    0    0  0.00000000000E+00  0.00000000000E+00  0.45593999997E+02  0.45594000000E+02  0.51100000000E-03 0.  1.
         11   -1    0    0    0    0 -0.00000000000E+00 -0.00000000000E+00 -0.45593999997E+02  0.45594000000E+02  0.51100000000E-03 0. -1.
    9900012    2    1    2    0    0 -0.27833213049E+02  0.17011776654E+02 -0.28627520333E+02  0.47787271735E+02  0.20000003148E+02 0.  0.
        -12    1    1    2    0    0  0.27833213049E+02 -0.17011776654E+02  0.28627520333E+02  0.43400728265E+02  0.00000000000E+00 0.  1.
         11    1    3    3    0    0 -0.46426848877E+01 -0.21585978395E+01 -0.41765247875E+01  0.66073767231E+01  0.51100000000E-03 0. -1.
        -11    1    3    3    0    0 -0.21698542183E+02  0.13424814499E+02 -0.13855695149E+02  0.29035024807E+02  0.51100000000E-03 0.  1.
        -12    1    3    3    0    0 -0.14919859779E+01  0.57455599941E+01 -0.10595300396E+02  0.12144870204E+02  0.00000000000E+00 0.  1.
</event>
<event>
 7    1  0.1542786E-009  0.4778727E+02  0.7816164E-02  0.1312668E+00
        -11   -1    0    0    0    0  0.00000000000E+00  0.00000000000E+00  0.45593999997E+02  0.45594000000E+02  0.51100000000E-03 0.  1.
         11   -1    0    0    0    0 -0.00000000000E+00 -0.00000000000E+00 -0.45593999997E+02  0.45594000000E+02  0.51100000000E-03 0. -1.
    9900012    2    1    2    0    0  0.29931301361E+02 -0.16686012948E+02 -0.26633017608E+02  0.47787268944E+02  0.19999990425E+02 0.  0.
        -12    1    1    2    0    0 -0.29931301361E+02  0.16686012948E+02  0.26633017608E+02  0.43400731056E+02  0.00000000000E+00 0.  1.
         11    1    3    3    0    0  0.11172401016E+02 -0.10965354919E+02 -0.39574652256E+01  0.16146921819E+02  0.51100000000E-03 0. -1.
        -11    1    3    3    0    0  0.27862971648E-01 -0.12499130681E+01 -0.61156231081E+01  0.62421074394E+01  0.51100000000E-03 0.  1.
        -12    1    3    3    0    0  0.18731037373E+02 -0.44707449614E+01 -0.16559929274E+02  0.25398239686E+02  0.00000000000E+00 0.  1.
</event>
<event>
 7    1  0.1542786E-009  0.4778727E+02  0.7816164E-02  0.1312668E+00
        -11   -1    0    0    0    0  0.00000000000E+00  0.00000000000E+00  0.45593999997E+02  0.45594000000E+02  0.51100000000E-03 0.  1.
         11   -1    0    0    0    0 -0.00000000000E+00 -0.00000000000E+00 -0.45593999997E+02  0.45594000000E+02  0.51100000000E-03 0. -1.
    9900012    2    1    2    0    0  0.33974909399E+02  0.24344428558E+02 -0.11690916770E+02  0.47787271834E+02  0.20000003598E+02 0.  0.
        -12    1    1    2    0    0 -0.33974909399E+02 -0.24344428558E+02  0.11690916770E+02  0.43400728166E+02  0.00000000000E+00 0.  1.
         11    1    3    3    0    0  0.13138695547E+02  0.12588749573E+01 -0.29945760034E+01  0.13534310937E+02  0.51100000000E-03 0. -1.
        -11    1    3    3    0    0  0.14455246919E+02  0.20494490586E+02 -0.10412988888E+02  0.27155269207E+02  0.51100000000E-03 0.  1.
         12    1    3    3    0    0  0.63809669332E+01  0.25910630143E+01  0.17166481219E+01  0.70976916896E+01  0.00000000000E+00 0. -1.
</event>
<event>
 7    1  0.1542786E-009  0.4778727E+02  0.7816164E-02  0.1312668E+00
        -11   -1    0    0    0    0  0.00000000000E+00  0.00000000000E+00  0.45593999997E+02  0.45594000000E+02  0.51100000000E-03 0.  1.
         11   -1    0    0    0    0 -0.00000000000E+00 -0.00000000000E+00 -0.45593999997E+02  0.45594000000E+02  0.51100000000E-03 0. -1.
    9900012    2    1    2    0    0 -0.56681009720E+01 -0.10257280747E+02 -0.41788563184E+02  0.47787272011E+02  0.20000004409E+02 0.  0.
        -12    1    1    2    0    0  0.56681009720E+01  0.10257280747E+02  0.41788563184E+02  0.43400727989E+02  0.00000000000E+00 0.  1.
         11    1    3    3    0    0 -0.83547653260E+01 -0.52250284440E+01 -0.35246130438E+02  0.36597714915E+02  0.51100000000E-03 0. -1.
        -11    1    3    3    0    0  0.32580102063E+01 -0.73304346945E+00 -0.59352871790E+01  0.68102582470E+01  0.51100000000E-03 0.  1.
        -12    1    3    3    0    0 -0.57134585240E+00 -0.42992088332E+01 -0.60714556751E+00  0.43792988497E+01  0.00000000000E+00 0.  1.
</event>
<event>
 7    1  0.1542786E-009  0.4778727E+02  0.7816164E-02  0.1312668E+00
        -11   -1    0    0    0    0  0.00000000000E+00  0.00000000000E+00  0.45593999997E+02  0.45594000000E+02  0.51100000000E-03 0. -1.
         11   -1    0    0    0    0 -0.00000000000E+00 -0.00000000000E+00 -0.45593999997E+02  0.45594000000E+02  0.51100000000E-03 0.  1.
    9900012    2    1    2    0    0 -0.37398959673E+02  0.14041602121E+02  0.16963924351E+02  0.47787268391E+02  0.19999987903E+02 0.  0.
        -12    1    1    2    0    0  0.37398959673E+02 -0.14041602121E+02 -0.16963924351E+02  0.43400731609E+02  0.00000000000E+00 0.  1.
         11    1    3    3    0    0 -0.55027040002E+01 -0.25679081346E+01  0.61905586778E+01  0.86716157956E+01  0.51100000000E-03 0. -1.
        -11    1    3    3    0    0 -0.12412569745E+02  0.29808466245E+01 -0.55540746946E+00  0.12777551095E+02  0.51100000000E-03 0.  1.
         12    1    3    3    0    0 -0.19483685928E+02  0.13628663631E+02  0.11328773143E+02  0.26338101501E+02  0.00000000000E+00 0. -1.
</event>
<event>
 7    1  0.1542786E-009  0.4778727E+02  0.7816164E-02  0.1312668E+00
        -11   -1    0    0    0    0  0.00000000000E+00  0.00000000000E+00  0.45593999997E+02  0.45594000000E+02  0.51100000000E-03 0. -1.
         11   -1    0    0    0    0 -0.00000000000E+00 -0.00000000000E+00 -0.45593999997E+02  0.45594000000E+02  0.51100000000E-03 0.  1.
    9900012    2    1    2    0    0 -0.31386900686E+02  0.19758925545E+02  0.22540421416E+02  0.47787271078E+02  0.20000000154E+02 0.  0.
        -12    1    1    2    0    0  0.31386900686E+02 -0.19758925545E+02 -0.22540421416E+02  0.43400728922E+02  0.00000000000E+00 0.  1.
         11    1    3    3    0    0 -0.12191324505E+02  0.33599097170E+01  0.40369369249E+00  0.12652286566E+02  0.51100000000E-03 0. -1.
        -11    1    3    3    0    0 -0.69870759846E-01  0.46425714033E+01  0.54678137762E+01  0.71732376867E+01  0.51100000000E-03 0.  1.
         12    1    3    3    0    0 -0.19125705421E+02  0.11756444424E+02  0.16668913947E+02  0.27961746825E+02  0.00000000000E+00 0. -1.
</event>
<event>
 7    1  0.1542786E-009  0.4778727E+02  0.7816164E-02  0.1312668E+00
        -11   -1    0    0    0    0  0.00000000000E+00  0.00000000000E+00  0.45593999997E+02  0.45594000000E+02  0.51100000000E-03 0.  1.
         11   -1    0    0    0    0 -0.00000000000E+00 -0.00000000000E+00 -0.45593999997E+02  0.45594000000E+02  0.51100000000E-03 0. -1.
    9900012    2    1    2    0    0  0.26021178985E+02 -0.30720912676E+02 -0.16209465912E+02  0.47787274009E+02  0.20000013516E+02 0.  0.
        -12    1    1    2    0    0 -0.26021178985E+02  0.30720912676E+02  0.16209465912E+02  0.43400725991E+02  0.00000000000E+00 0.  1.
         11    1    3    3    0    0  0.94412903534E+01 -0.43333810144E+01 -0.33263501365E+01  0.10907830217E+02  0.51100000000E-03 0. -1.
        -11    1    3    3    0    0  0.11298693386E+02 -0.24118294630E+02 -0.49611522208E+01  0.27091800230E+02  0.51100000000E-03 0.  1.
        -12    1    3    3    0    0  0.52811952458E+01 -0.22692370317E+01 -0.79219635544E+01  0.97876435615E+01  0.00000000000E+00 0.  1.
</event>
<event>
 7    1  0.1542786E-009  0.4778727E+02  0.7816164E-02  0.1312668E+00
        -11   -1    0    0    0    0  0.00000000000E+00  0.00000000000E+00  0.45593999997E+02  0.45594000000E+02  0.51100000000E-03 0.  1.
         11   -1    0    0    0    0 -0.00000000000E+00 -0.00000000000E+00 -0.45593999997E+02  0.45594000000E+02  0.51100000000E-03 0. -1.
    9900012    2    1    2    0    0 -0.30165135631E+01  0.17799945411E+02 -0.39467528932E+02  0.47787271311E+02  0.20000001218E+02 0.  0.
        -12    1    1    2    0    0  0.30165135631E+01 -0.17799945411E+02  0.39467528932E+02  0.43400728689E+02  0.00000000000E+00 0.  1.
         11    1    3    3    0    0 -0.74787792145E+01  0.20237764276E+01 -0.60326146500E+01  0.98193813117E+01  0.51100000000E-03 0.  1.
        -11    1    3    3    0    0  0.23794122498E+01  0.69625584174E+01 -0.23014022003E+02  0.24161623111E+02  0.51100000000E-03 0. -1.
        -12    1    3    3    0    0  0.20828534016E+01  0.88136105663E+01 -0.10420892279E+02  0.13806266889E+02  0.00000000000E+00 0.  1.
</event>
<event>
 7    1  0.1542786E-009  0.4778727E+02  0.7816164E-02  0.1312668E+00
        -11   -1    0    0    0    0  0.00000000000E+00  0.00000000000E+00  0.45593999997E+02  0.45594000000E+02  0.51100000000E-03 0. -1.
         11   -1    0    0    0    0 -0.00000000000E+00 -0.00000000000E+00 -0.45593999997E+02  0.45594000000E+02  0.51100000000E-03 0.  1.
    9900012    2    1    2    0    0 -0.24406193384E+02  0.86520999444E+01  0.34829614875E+02  0.47787272111E+02  0.20000004864E+02 0.  0.
        -12    1    1    2    0    0  0.24406193384E+02 -0.86520999444E+01 -0.34829614875E+02  0.43400727889E+02  0.00000000000E+00 0.  1.
         11    1    3    3    0    0 -0.14066258118E+02 -0.34514433674E+01  0.21286764784E+02  0.25746814055E+02  0.51100000000E-03 0. -1.
        -11    1    3    3    0    0 -0.97369459773E+01  0.63974310387E+01  0.91479637611E+01  0.14812848548E+02  0.51100000000E-03 0.  1.
         12    1    3    3    0    0 -0.60298928930E+00  0.57061122732E+01  0.43948863296E+01  0.72276095085E+01  0.00000000000E+00 0. -1.
</event>
<event>
 7    1  0.1542786E-009  0.4778727E+02  0.7816164E-02  0.1312668E+00
        -11   -1    0    0    0    0  0.00000000000E+00  0.00000000000E+00  0.45593999997E+02  0.45594000000E+02  0.51100000000E-03 0.  1.
         11   -1    0    0    0    0 -0.00000000000E+00 -0.00000000000E+00 -0.45593999997E+02  0.45594000000E+02  0.51100000000E-03 0. -1.
    9900012    2    1    2    0    0 -0.37570853685E+02  0.20827257753E+02 -0.61870379074E+01  0.47787272470E+02  0.20000006499E+02 0.  0.
        -12    1    1    2    0    0  0.37570853685E+02 -0.20827257753E+02  0.61870379074E+01  0.43400727530E+02  0.00000000000E+00 0.  1.
         11    1    3    3    0    0 -0.21961060681E+02  0.18174985937E+02  0.32344205067E+00  0.28508295548E+02  0.51100000000E-03 0. -1.
        -11    1    3    3    0    0  0.89587042368E+00 -0.28508293434E+00 -0.15195297484E+01  0.17868483464E+01  0.51100000000E-03 0.  1.
        -12    1    3    3    0    0 -0.16505663427E+02  0.29373547502E+01 -0.49909502096E+01  0.17492128575E+02  0.00000000000E+00 0.  1.
</event>
<event>
 7    1  0.1542786E-009  0.4778728E+02  0.7816164E-02  0.1312668E+00
        -11   -1    0    0    0    0  0.00000000000E+00  0.00000000000E+00  0.45593999997E+02  0.45594000000E+02  0.51100000000E-03 0.  1.
         11   -1    0    0    0    0 -0.00000000000E+00 -0.00000000000E+00 -0.45593999997E+02  0.45594000000E+02  0.51100000000E-03 0. -1.
    9900012    2    1    2    0    0  0.83428335633E+01 -0.17533629623E+01 -0.42555208373E+02  0.47787275200E+02  0.20000018945E+02 0.  0.
        -12    1    1    2    0    0 -0.83428335633E+01  0.17533629623E+01  0.42555208373E+02  0.43400724800E+02  0.00000000000E+00 0.  1.
         11    1    3    3    0    0 -0.17506868532E+01 -0.12964897943E+01 -0.53515662608E+01  0.57779799194E+01  0.51100000000E-03 0. -1.
        -11    1    3    3    0    0  0.13426692013E+02  0.38289524670E+01 -0.24600656691E+02  0.28286555911E+02  0.51100000000E-03 0.  1.
        -12    1    3    3    0    0 -0.33331715968E+01 -0.42858256351E+01 -0.12602985421E+02  0.13722739369E+02  0.00000000000E+00 0.  1.
</event>
<event>
 7    1  0.1542786E-009  0.4778727E+02  0.7816164E-02  0.1312668E+00
        -11   -1    0    0    0    0  0.00000000000E+00  0.00000000000E+00  0.45593999997E+02  0.45594000000E+02  0.51100000000E-03 0. -1.
         11   -1    0    0    0    0 -0.00000000000E+00 -0.00000000000E+00 -0.45593999997E+02  0.45594000000E+02  0.51100000000E-03 0.  1.
    9900012    2    1    2    0    0  0.30712918083E+02 -0.11261371607E+02  0.28522299469E+02  0.47787269653E+02  0.19999993657E+02 0.  0.
        -12    1    1    2    0    0 -0.30712918083E+02  0.11261371607E+02 -0.28522299469E+02  0.43400730347E+02  0.00000000000E+00 0.  1.
         11    1    3    3    0    0  0.29385891427E+01 -0.51388602975E+01  0.25901666095E+01  0.64615907200E+01  0.51100000000E-03 0.  1.
        -11    1    3    3    0    0  0.25823454459E+02 -0.80711813101E+01  0.27134003488E+02  0.38317736278E+02  0.51100000000E-03 0. -1.
        -12    1    3    3    0    0  0.19508744806E+01  0.19486700003E+01 -0.12018706280E+01  0.30079426550E+01  0.00000000000E+00 0.  1.
</event>
<event>
 7    1  0.1542786E-009  0.4778727E+02  0.7816164E-02  0.1312668E+00
        -11   -1    0    0    0    0  0.00000000000E+00  0.00000000000E+00  0.45593999997E+02  0.45594000000E+02  0.51100000000E-03 0.  1.
         11   -1    0    0    0    0 -0.00000000000E+00 -0.00000000000E+00 -0.45593999997E+02  0.45594000000E+02  0.51100000000E-03 0. -1.
    9900012    2    1    2    0    0  0.20021393819E+02 -0.12890387175E+02 -0.36285052610E+02  0.47787270342E+02  0.19999996795E+02 0.  0.
        -12    1    1    2    0    0 -0.20021393819E+02  0.12890387175E+02  0.36285052610E+02  0.43400729658E+02  0.00000000000E+00 0.  1.
         11    1    3    3    0    0  0.21869553605E+02 -0.10685070931E+02 -0.35464021753E+02  0.43013311368E+02  0.51100000000E-03 0. -1.
        -11    1    3    3    0    0  0.73303576619E-01  0.49902054919E+00  0.90372232327E+00  0.10349440669E+01  0.51100000000E-03 0.  1.
         12    1    3    3    0    0 -0.19214633620E+01 -0.27043367926E+01 -0.17247531799E+01  0.37390149065E+01  0.00000000000E+00 0. -1.
</event>
<event>
 7    1  0.1542786E-009  0.4778727E+02  0.7816164E-02  0.1312668E+00
        -11   -1    0    0    0    0  0.00000000000E+00  0.00000000000E+00  0.45593999997E+02  0.45594000000E+02  0.51100000000E-03 0.  1.
         11   -1    0    0    0    0 -0.00000000000E+00 -0.00000000000E+00 -0.45593999997E+02  0.45594000000E+02  0.51100000000E-03 0. -1.
    9900012    2    1    2    0    0 -0.39092710065E+02 -0.15087099628E+02 -0.11303218132E+02  0.47787270795E+02  0.19999998861E+02 0.  0.
        -12    1    1    2    0    0  0.39092710065E+02  0.15087099628E+02  0.11303218132E+02  0.43400729205E+02  0.00000000000E+00 0.  1.
         11    1    3    3    0    0 -0.70288684101E+01 -0.84845190514E+01 -0.54926903765E+00  0.11031489083E+02  0.51100000000E-03 0. -1.
        -11    1    3    3    0    0 -0.18427685923E+02 -0.10089658715E+02 -0.75173680812E+01  0.22313485711E+02  0.51100000000E-03 0.  1.
        -12    1    3    3    0    0 -0.13636155732E+02  0.34870781383E+01 -0.32365810129E+01  0.14442296000E+02  0.00000000000E+00 0.  1.
</event>
<event>
 7    1  0.1542786E-009  0.4778727E+02  0.7816164E-02  0.1312668E+00
        -11   -1    0    0    0    0  0.00000000000E+00  0.00000000000E+00  0.45593999997E+02  0.45594000000E+02  0.51100000000E-03 0.  1.
         11   -1    0    0    0    0 -0.00000000000E+00 -0.00000000000E+00 -0.45593999997E+02  0.45594000000E+02  0.51100000000E-03 0. -1.
    9900012    2    1    2    0    0  0.25588572650E+02  0.12418266583E+02 -0.32781624362E+02  0.47787270847E+02  0.19999999100E+02 0.  0.
        -12    1    1    2    0    0 -0.25588572650E+02 -0.12418266583E+02  0.32781624362E+02  0.43400729153E+02  0.00000000000E+00 0.  1.
         11    1    3    3    0    0  0.11628066646E+02  0.65392393659E+01 -0.55545441543E+01  0.14450832032E+02  0.51100000000E-03 0.  1.
        -11    1    3    3    0    0  0.12448069055E+02 -0.65871402980E+00 -0.16422860007E+02  0.20617920808E+02  0.51100000000E-03 0. -1.
         12    1    3    3    0    0  0.15124369486E+01  0.65377412464E+01 -0.10804220201E+02  0.12718518007E+02  0.00000000000E+00 0. -1.
</event>
<event>
 7    1  0.1542786E-009  0.4778727E+02  0.7816164E-02  0.1312668E+00
        -11   -1    0    0    0    0  0.00000000000E+00  0.00000000000E+00  0.45593999997E+02  0.45594000000E+02  0.51100000000E-03 0.  1.
         11   -1    0    0    0    0 -0.00000000000E+00 -0.00000000000E+00 -0.45593999997E+02  0.45594000000E+02  0.51100000000E-03 0. -1.
    9900012    2    1    2    0    0 -0.35300936478E+02  0.19174178221E+02 -0.16426135362E+02  0.47787272476E+02  0.20000006526E+02 0.  0.
        -12    1    1    2    0    0  0.35300936478E+02 -0.19174178221E+02  0.16426135362E+02  0.43400727524E+02  0.00000000000E+00 0.  1.
         11    1    3    3    0    0 -0.10316638561E+02 -0.31683900636E+01 -0.64134403893E+01  0.12554040970E+02  0.51100000000E-03 0. -1.
        -11    1    3    3    0    0 -0.68846752947E+01  0.82236559502E+01 -0.44638010887E+01  0.11616918332E+02  0.51100000000E-03 0.  1.
         12    1    3    3    0    0 -0.18099622623E+02  0.14118912335E+02 -0.55488938841E+01  0.23616313174E+02  0.00000000000E+00 0. -1.
</event>
<event>
 7    1  0.1542786E-009  0.4778725E+02  0.7816164E-02  0.1312668E+00
        -11   -1    0    0    0    0  0.00000000000E+00  0.00000000000E+00  0.45593999997E+02  0.45594000000E+02  0.51100000000E-03 0.  1.
         11   -1    0    0    0    0 -0.00000000000E+00 -0.00000000000E+00 -0.45593999997E+02  0.45594000000E+02  0.51100000000E-03 0. -1.
    9900012    2    1    2    0    0  0.53927895157E+01  0.40102488954E+02 -0.15695008885E+02  0.47787249972E+02  0.19999903921E+02 0.  0.
        -12    1    1    2    0    0 -0.53927895157E+01 -0.40102488954E+02  0.15695008885E+02  0.43400750028E+02  0.00000000000E+00 0.  1.
         11    1    3    3    0    0  0.10972210589E+01 -0.10174333236E+00 -0.37618302063E-01  0.11025702497E+01  0.51100000000E-03 0. -1.
        -11    1    3    3    0    0  0.10589105404E+02  0.18757477002E+02 -0.91737713526E+01  0.23412180117E+02  0.51100000000E-03 0.  1.
         12    1    3    3    0    0 -0.62935369470E+01  0.21446755284E+02 -0.64836192306E+01  0.23272499605E+02  0.00000000000E+00 0. -1.
</event>
<event>
 7    1  0.3359085E-009  0.4778729E+02  0.7816164E-02  0.1312668E+00
        -11   -1    0    0    0    0  0.00000000000E+00  0.00000000000E+00  0.45593999997E+02  0.45594000000E+02  0.51100000000E-03 0. -1.
         11   -1    0    0    0    0 -0.00000000000E+00 -0.00000000000E+00 -0.45593999997E+02  0.45594000000E+02  0.51100000000E-03 0.  1.
    9900012    2    1    2    0    0  0.12090332341E+02  0.48072987321E+00  0.41679907888E+02  0.47787286194E+02  0.20000069071E+02 0.  0.
        -12    1    1    2    0    0 -0.12090332341E+02 -0.48072987321E+00 -0.41679907888E+02  0.43400713806E+02  0.00000000000E+00 0.  1.
         11    1    3    3    0    0  0.96089322661E+01 -0.65633531693E+00  0.18321732277E+02  0.20698991020E+02  0.51100000000E-03 0. -1.
        -11    1    3    3    0    0  0.42696214006E+00 -0.58854953489E+00 -0.17198083849E+01  0.18671979986E+01  0.51100000000E-03 0.  1.
         12    1    3    3    0    0  0.20544379346E+01  0.17256147250E+01  0.25077983996E+02  0.25221097175E+02  0.00000000000E+00 0. -1.
</event>
<event>
 7    1  0.1542786E-009  0.4778728E+02  0.7816164E-02  0.1312668E+00
        -11   -1    0    0    0    0  0.00000000000E+00  0.00000000000E+00  0.45593999997E+02  0.45594000000E+02  0.51100000000E-03 0. -1.
         11   -1    0    0    0    0 -0.00000000000E+00 -0.00000000000E+00 -0.45593999997E+02  0.45594000000E+02  0.51100000000E-03 0.  1.
    9900012    2    1    2    0    0  0.42963449540E+02  0.21946719794E+01  0.57400583213E+01  0.47787275916E+02  0.20000022210E+02 0.  0.
        -12    1    1    2    0    0 -0.42963449540E+02 -0.21946719794E+01 -0.57400583213E+01  0.43400724084E+02  0.00000000000E+00 0.  1.
         11    1    3    3    0    0  0.65261655066E+01  0.46861653385E+01  0.15859623056E+01  0.81893991535E+01  0.51100000000E-03 0. -1.
        -11    1    3    3    0    0  0.93304452900E+01 -0.36332150467E+01 -0.46968914366E+01  0.11059758149E+02  0.51100000000E-03 0.  1.
         12    1    3    3    0    0  0.27106838744E+02  0.11417216876E+01  0.88509874523E+01  0.28538118613E+02  0.00000000000E+00 0. -1.
</event>
<event>
 7    1  0.1542786E-009  0.4778729E+02  0.7816164E-02  0.1312668E+00
        -11   -1    0    0    0    0  0.00000000000E+00  0.00000000000E+00  0.45593999997E+02  0.45594000000E+02  0.51100000000E-03 0.  1.
         11   -1    0    0    0    0 -0.00000000000E+00 -0.00000000000E+00 -0.45593999997E+02  0.45594000000E+02  0.51100000000E-03 0. -1.
    9900012    2    1    2    0    0  0.37392422593E+02 -0.75794218701E+01 -0.20687702075E+02  0.47787286637E+02  0.20000071094E+02 0.  0.
        -12    1    1    2    0    0 -0.37392422593E+02  0.75794218701E+01  0.20687702075E+02  0.43400713363E+02  0.00000000000E+00 0.  1.
         11    1    3    3    0    0  0.65082061375E+01  0.33518812696E+01 -0.29315001689E+01  0.78857814246E+01  0.51100000000E-03 0. -1.
        -11    1    3    3    0    0  0.10897607310E+01 -0.88995436707E+00  0.22365491212E+01  0.26423000320E+01  0.51100000000E-03 0.  1.
         12    1    3    3    0    0  0.29794455724E+02 -0.10041348773E+02 -0.19992751027E+02  0.37259205181E+02  0.00000000000E+00 0. -1.
</event>
<event>
 7    1  0.1542786E-009  0.4778722E+02  0.7816164E-02  0.1312668E+00
        -11   -1    0    0    0    0  0.00000000000E+00  0.00000000000E+00  0.45593999997E+02  0.45594000000E+02  0.51100000000E-03 0.  1.
         11   -1    0    0    0    0 -0.00000000000E+00 -0.00000000000E+00 -0.45593999997E+02  0.45594000000E+02  0.51100000000E-03 0. -1.
    9900012    2    1    2    0    0  0.14963843360E+02  0.26391738672E+02 -0.31035262904E+02  0.47787216346E+02  0.19999750607E+02 0.  0.
        -12    1    1    2    0    0 -0.14963843360E+02 -0.26391738672E+02  0.31035262904E+02  0.43400783654E+02  0.00000000000E+00 0.  1.
         11    1    3    3    0    0  0.33735477303E+01  0.17286511710E+02 -0.73688346668E+01  0.19091988791E+02  0.51100000000E-03 0. -1.
        -11    1    3    3    0    0  0.33433068465E+01 -0.39013429505E+00 -0.30327783201E+01  0.45307449760E+01  0.51100000000E-03 0.  1.
        -12    1    3    3    0    0  0.82469887830E+01  0.94953612570E+01 -0.20633649917E+02  0.24164482579E+02  0.00000000000E+00 0.  1.
</event>
<event>
 7    1  0.1542786E-009  0.4778729E+02  0.7816164E-02  0.1312668E+00
        -11   -1    0    0    0    0  0.00000000000E+00  0.00000000000E+00  0.45593999997E+02  0.45594000000E+02  0.51100000000E-03 0.  1.
         11   -1    0    0    0    0 -0.00000000000E+00 -0.00000000000E+00 -0.45593999997E+02  0.45594000000E+02  0.51100000000E-03 0. -1.
    9900012    2    1    2    0    0  0.28350142130E+02 -0.22916308429E+02 -0.23552795022E+02  0.47787286824E+02  0.20000071946E+02 0.  0.
        -12    1    1    2    0    0 -0.28350142130E+02  0.22916308429E+02  0.23552795022E+02  0.43400713176E+02  0.00000000000E+00 0.  1.
         11    1    3    3    0    0  0.17334177732E+02 -0.20854646835E+02 -0.19520605399E+02  0.33413231626E+02  0.51100000000E-03 0. -1.
        -11    1    3    3    0    0  0.96379116698E+01 -0.45642312566E+01 -0.19548024425E+01  0.10841715785E+02  0.51100000000E-03 0.  1.
         12    1    3    3    0    0  0.13780527281E+01  0.25025696618E+01 -0.20773871804E+01  0.35323394133E+01  0.00000000000E+00 0. -1.
</event>
<event>
 7    1  0.1542786E-009  0.4778727E+02  0.7816164E-02  0.1312668E+00
        -11   -1    0    0    0    0  0.00000000000E+00  0.00000000000E+00  0.45593999997E+02  0.45594000000E+02  0.51100000000E-03 0.  1.
         11   -1    0    0    0    0 -0.00000000000E+00 -0.00000000000E+00 -0.45593999997E+02  0.45594000000E+02  0.51100000000E-03 0. -1.
    9900012    2    1    2    0    0 -0.94760076330E+01 -0.42659677467E+01 -0.42138226616E+02  0.47787270239E+02  0.19999996326E+02 0.  0.
        -12    1    1    2    0    0  0.94760076330E+01  0.42659677467E+01  0.42138226616E+02  0.43400729761E+02  0.00000000000E+00 0.  1.
         11    1    3    3    0    0  0.25439226948E+01  0.12935690145E+01 -0.96245269163E+01  0.10038744050E+02  0.51100000000E-03 0. -1.
        -11    1    3    3    0    0 -0.85807323563E+01 -0.94858961854E+01 -0.28242679931E+02  0.31004195913E+02  0.51100000000E-03 0.  1.
         12    1    3    3    0    0 -0.34391979714E+01  0.39263594242E+01 -0.42710197683E+01  0.67443302763E+01  0.00000000000E+00 0. -1.
</event>
<event>
 7    1  0.1542786E-009  0.4778727E+02  0.7816164E-02  0.1312668E+00
        -11   -1    0    0    0    0  0.00000000000E+00  0.00000000000E+00  0.45593999997E+02  0.45594000000E+02  0.51100000000E-03 0.  1.
         11   -1    0    0    0    0 -0.00000000000E+00 -0.00000000000E+00 -0.45593999997E+02  0.45594000000E+02  0.51100000000E-03 0. -1.
    9900012    2    1    2    0    0 -0.18958896738E+02  0.22733672161E+02 -0.31738999672E+02  0.47787265955E+02  0.19999976795E+02 0.  0.
        -12    1    1    2    0    0  0.18958896738E+02 -0.22733672161E+02  0.31738999672E+02  0.43400734045E+02  0.00000000000E+00 0.  1.
         11    1    3    3    0    0 -0.56941056599E+01 -0.20270142425E+01 -0.27333017122E+01  0.66334428856E+01  0.51100000000E-03 0.  1.
        -11    1    3    3    0    0 -0.44662506241E+01  0.70680570440E+01 -0.14138926605E+02  0.16426018106E+02  0.51100000000E-03 0. -1.
        -12    1    3    3    0    0 -0.87985404540E+01  0.17692629360E+02 -0.14866771355E+02  0.24727804963E+02  0.00000000000E+00 0.  1.
</event>
<event>
 7    1  0.1542786E-009  0.4778727E+02  0.7816164E-02  0.1312668E+00
        -11   -1    0    0    0    0  0.00000000000E+00  0.00000000000E+00  0.45593999997E+02  0.45594000000E+02  0.51100000000E-03 0.  1.
         11   -1    0    0    0    0 -0.00000000000E+00 -0.00000000000E+00 -0.45593999997E+02  0.45594000000E+02  0.51100000000E-03 0. -1.
    9900012    2    1    2    0    0  0.39868736911E+02 -0.16341600685E+01 -0.17071522894E+02  0.47787267795E+02  0.19999985183E+02 0.  0.
        -12    1    1    2    0    0 -0.39868736911E+02  0.16341600685E+01  0.17071522894E+02  0.43400732205E+02  0.00000000000E+00 0.  1.
         11    1    3    3    0    0  0.20508641037E+02 -0.24123431436E+01 -0.10392089182E+02  0.23117510126E+02  0.51100000000E-03 0. -1.
        -11    1    3    3    0    0  0.10822010804E+02  0.24075901123E+01  0.31724052262E+01  0.11531546434E+02  0.51100000000E-03 0.  1.
         12    1    3    3    0    0  0.85380850711E+01 -0.16294070371E+01 -0.98518389380E+01  0.13138211234E+02  0.00000000000E+00 0. -1.
</event>
<event>
 7    1  0.1542786E-009  0.4778727E+02  0.7816164E-02  0.1312668E+00
        -11   -1    0    0    0    0  0.00000000000E+00  0.00000000000E+00  0.45593999997E+02  0.45594000000E+02  0.51100000000E-03 0.  1.
         11   -1    0    0    0    0 -0.00000000000E+00 -0.00000000000E+00 -0.45593999997E+02  0.45594000000E+02  0.51100000000E-03 0. -1.
    9900012    2    1    2    0    0  0.42198353899E+02 -0.73759604346E+01 -0.69654383445E+01  0.47787271948E+02  0.20000004118E+02 0.  0.
        -12    1    1    2    0    0 -0.42198353899E+02  0.73759604346E+01  0.69654383445E+01  0.43400728052E+02  0.00000000000E+00 0.  1.
         11    1    3    3    0    0  0.23903599430E+02 -0.16679568421E+00  0.11454718698E+01  0.23931610739E+02  0.51100000000E-03 0. -1.
        -11    1    3    3    0    0  0.13397161679E+02 -0.18347631240E+01 -0.94034795922E+01  0.16470450069E+02  0.51100000000E-03 0.  1.
         12    1    3    3    0    0  0.48975927909E+01 -0.53744016263E+01  0.12925693779E+01  0.73852111400E+01  0.00000000000E+00 0. -1.
</event>
<event>
 7    1  0.1542786E-009  0.4778727E+02  0.7816164E-02  0.1312668E+00
        -11   -1    0    0    0    0  0.00000000000E+00  0.00000000000E+00  0.45593999997E+02  0.45594000000E+02  0.51100000000E-03 0.  1.
         11   -1    0    0    0    0 -0.00000000000E+00 -0.00000000000E+00 -0.45593999997E+02  0.45594000000E+02  0.51100000000E-03 0. -1.
    9900012    2    1    2    0    0 -0.11179522312E+02 -0.38761973227E+02 -0.16004720853E+02  0.47787269855E+02  0.19999994575E+02 0.  0.
        -12    1    1    2    0    0  0.11179522312E+02  0.38761973227E+02  0.16004720853E+02  0.43400730145E+02  0.00000000000E+00 0.  1.
         11    1    3    3    0    0 -0.24902321514E+01 -0.11954786386E+02 -0.28755073932E+01  0.12545386273E+02  0.51100000000E-03 0. -1.
        -11    1    3    3    0    0 -0.23434533581E+01 -0.37878614562E+01 -0.10268742998E+02  0.11193156440E+02  0.51100000000E-03 0.  1.
        -12    1    3    3    0    0 -0.63458368023E+01 -0.23019325385E+02 -0.28604704614E+01  0.24048727142E+02  0.00000000000E+00 0.  1.
</event>
<event>
 7    1  0.1542786E-009  0.4778727E+02  0.7816164E-02  0.1312668E+00
        -11   -1    0    0    0    0  0.00000000000E+00  0.00000000000E+00  0.45593999997E+02  0.45594000000E+02  0.51100000000E-03 0.  1.
         11   -1    0    0    0    0 -0.00000000000E+00 -0.00000000000E+00 -0.45593999997E+02  0.45594000000E+02  0.51100000000E-03 0. -1.
    9900012    2    1    2    0    0  0.29910182368E+02  0.80779044130E+01 -0.30393284540E+02  0.47787270811E+02  0.19999998937E+02 0.  0.
        -12    1    1    2    0    0 -0.29910182368E+02 -0.80779044130E+01  0.30393284540E+02  0.43400729189E+02  0.00000000000E+00 0.  1.
         11    1    3    3    0    0  0.98678309949E+01  0.26367620983E+01 -0.64289571110E+01  0.12068889456E+02  0.51100000000E-03 0. -1.
        -11    1    3    3    0    0 -0.43002402532E+00 -0.39262138919E+01 -0.30634150422E+01  0.49984585793E+01  0.51100000000E-03 0.  1.
        -12    1    3    3    0    0  0.20472375398E+02  0.93673562066E+01 -0.20900912387E+02  0.30719922776E+02  0.00000000000E+00 0.  1.
</event>
<event>
 7    1  0.1542786E-009  0.4778727E+02  0.7816164E-02  0.1312668E+00
        -11   -1    0    0    0    0  0.00000000000E+00  0.00000000000E+00  0.45593999997E+02  0.45594000000E+02  0.51100000000E-03 0. -1.
         11   -1    0    0    0    0 -0.00000000000E+00 -0.00000000000E+00 -0.45593999997E+02  0.45594000000E+02  0.51100000000E-03 0.  1.
    9900012    2    1    2    0    0  0.39402839944E+02 -0.17211779220E+02 -0.58986555584E+01  0.47787271009E+02  0.19999999839E+02 0.  0.
        -12    1    1    2    0    0 -0.39402839944E+02  0.17211779220E+02  0.58986555584E+01  0.43400728991E+02  0.00000000000E+00 0.  1.
         11    1    3    3    0    0  0.18555256727E+02  0.92594665893E+00 -0.53228013494E+01  0.19325815478E+02  0.51100000000E-03 0. -1.
        -11    1    3    3    0    0  0.14779545826E+02 -0.88188360961E+01 -0.16486861409E+01  0.17289447972E+02  0.51100000000E-03 0.  1.
        -12    1    3    3    0    0  0.60680373905E+01 -0.93188897826E+01  0.10728319320E+01  0.11172007559E+02  0.00000000000E+00 0.  1.
</event>
<event>
 7    1  0.1542786E-009  0.4778723E+02  0.7816164E-02  0.1312668E+00
        -11   -1    0    0    0    0  0.00000000000E+00  0.00000000000E+00  0.45593999997E+02  0.45594000000E+02  0.51100000000E-03 0. -1.
         11   -1    0    0    0    0 -0.00000000000E+00 -0.00000000000E+00 -0.45593999997E+02  0.45594000000E+02  0.51100000000E-03 0.  1.
    9900012    2    1    2    0    0  0.71236065869E+01  0.61729890248E+01  0.42364786482E+02  0.47787231597E+02  0.19999820143E+02 0.  0.
        -12    1    1    2    0    0 -0.71236065869E+01 -0.61729890248E+01 -0.42364786482E+02  0.43400768403E+02  0.00000000000E+00 0.  1.
         11    1    3    3    0    0  0.61056108497E+00 -0.39455988802E+01  0.14941299640E+01  0.42629754834E+01  0.51100000000E-03 0. -1.
        -11    1    3    3    0    0  0.18195024067E+01  0.21642502774E+01  0.17434389944E+01  0.33217688149E+01  0.51100000000E-03 0.  1.
        -12    1    3    3    0    0  0.46935430952E+01  0.79543376276E+01  0.39127217523E+02  0.40202487299E+02  0.00000000000E+00 0.  1.
</event>
<event>
 7    1  0.1542786E-009  0.4778727E+02  0.7816164E-02  0.1312668E+00
        -11   -1    0    0    0    0  0.00000000000E+00  0.00000000000E+00  0.45593999997E+02  0.45594000000E+02  0.51100000000E-03 0.  1.
         11   -1    0    0    0    0 -0.00000000000E+00 -0.00000000000E+00 -0.45593999997E+02  0.45594000000E+02  0.51100000000E-03 0. -1.
    9900012    2    1    2    0    0 -0.25542717869E+01 -0.32328597923E+02 -0.28843730837E+02  0.47787270091E+02  0.19999995653E+02 0.  0.
        -12    1    1    2    0    0  0.25542717869E+01  0.32328597923E+02  0.28843730837E+02  0.43400729909E+02  0.00000000000E+00 0.  1.
         11    1    3    3    0    0  0.50867825051E+01 -0.59639778470E+01 -0.14844140601E+02  0.16786688133E+02  0.51100000000E-03 0. -1.
        -11    1    3    3    0    0 -0.14742382261E+01 -0.77023190477E+01 -0.25106320753E+01  0.82342194978E+01  0.51100000000E-03 0.  1.
         12    1    3    3    0    0 -0.61668160659E+01 -0.18662301029E+02 -0.11488958160E+02  0.22766362461E+02  0.00000000000E+00 0. -1.
</event>
<event>
 7    1  0.1542786E-009  0.4778727E+02  0.7816164E-02  0.1312668E+00
        -11   -1    0    0    0    0  0.00000000000E+00  0.00000000000E+00  0.45593999997E+02  0.45594000000E+02  0.51100000000E-03 0.  1.
         11   -1    0    0    0    0 -0.00000000000E+00 -0.00000000000E+00 -0.45593999997E+02  0.45594000000E+02  0.51100000000E-03 0. -1.
    9900012    2    1    2    0    0  0.35071206572E+02 -0.45572780307E+01  0.25156810160E+02  0.47787269466E+02  0.19999992802E+02 0.  0.
        -12    1    1    2    0    0 -0.35071206572E+02  0.45572780307E+01 -0.25156810160E+02  0.43400730534E+02  0.00000000000E+00 0.  1.
         11    1    3    3    0    0  0.12347498672E+02  0.32496287903E+00  0.16299445902E+02  0.20450874340E+02  0.51100000000E-03 0. -1.
        -11    1    3    3    0    0  0.82168507282E+01 -0.72391964483E+01  0.55273185691E+01  0.12266778384E+02  0.51100000000E-03 0.  1.
        -12    1    3    3    0    0  0.14506857173E+02  0.23569555386E+01  0.33300456892E+01  0.15069616741E+02  0.00000000000E+00 0.  1.
</event>
<event>
 7    1  0.1542786E-009  0.4778726E+02  0.7816164E-02  0.1312668E+00
        -11   -1    0    0    0    0  0.00000000000E+00  0.00000000000E+00  0.45593999997E+02  0.45594000000E+02  0.51100000000E-03 0.  1.
         11   -1    0    0    0    0 -0.00000000000E+00 -0.00000000000E+00 -0.45593999997E+02  0.45594000000E+02  0.51100000000E-03 0. -1.
    9900012    2    1    2    0    0 -0.31841319942E+02 -0.14947178248E+02 -0.25423142906E+02  0.47787262812E+02  0.19999962466E+02 0.  0.
        -12    1    1    2    0    0  0.31841319942E+02  0.14947178248E+02  0.25423142906E+02  0.43400737188E+02  0.00000000000E+00 0.  1.
         11    1    3    3    0    0 -0.94691991258E+00 -0.12406462729E+01 -0.31104277024E+01  0.34800317884E+01  0.51100000000E-03 0.  1.
        -11    1    3    3    0    0 -0.16415203750E+02 -0.11697001826E+02 -0.21785514454E+02  0.29679747408E+02  0.51100000000E-03 0. -1.
         12    1    3    3    0    0 -0.14479196279E+02 -0.20095301492E+01 -0.52720074899E+00  0.14627483616E+02  0.00000000000E+00 0. -1.
</event>
<event>
 7    1  0.2085103E-009  0.4778727E+02  0.7816164E-02  0.1312668E+00
        -11   -1    0    0    0    0  0.00000000000E+00  0.00000000000E+00  0.45593999997E+02  0.45594000000E+02  0.51100000000E-03 0.  1.
         11   -1    0    0    0    0 -0.00000000000E+00 -0.00000000000E+00 -0.45593999997E+02  0.45594000000E+02  0.51100000000E-03 0. -1.
    9900012    2    1    2    0    0 -0.22093222790E+02  0.32795459008E+02 -0.17887728438E+02  0.47787268975E+02  0.19999990566E+02 0.  0.
        -12    1    1    2    0    0  0.22093222790E+02 -0.32795459008E+02  0.17887728438E+02  0.43400731025E+02  0.00000000000E+00 0.  1.
         11    1    3    3    0    0 -0.16179556707E+02  0.21474425646E+02 -0.13287431672E+02  0.29991412984E+02  0.51100000000E-03 0. -1.
        -11    1    3    3    0    0 -0.62959516852E+01  0.62421698897E+01  0.23566931834E+01  0.91737503550E+01  0.51100000000E-03 0.  1.
        -12    1    3    3    0    0  0.38228560253E+00  0.50788634730E+01 -0.69569899485E+01  0.86221056363E+01  0.00000000000E+00 0.  1.
</event>
<event>
 7    1  0.1542786E-009  0.4778728E+02  0.7816164E-02  0.1312668E+00
        -11   -1    0    0    0    0  0.00000000000E+00  0.00000000000E+00  0.45593999997E+02  0.45594000000E+02  0.51100000000E-03 0.  1.
         11   -1    0    0    0    0 -0.00000000000E+00 -0.00000000000E+00 -0.45593999997E+02  0.45594000000E+02  0.51100000000E-03 0. -1.
    9900012    2    1    2    0    0 -0.41457457245E+01  0.25089326033E+01 -0.43129351628E+02  0.47787275095E+02  0.20000018467E+02 0.  0.
        -12    1    1    2    0    0  0.41457457245E+01 -0.25089326033E+01  0.43129351628E+02  0.43400724905E+02  0.00000000000E+00 0.  1.
         11    1    3    3    0    0  0.89647936878E+00 -0.18744840881E+00  0.16625150670E+01  0.18980960918E+01  0.51100000000E-03 0. -1.
        -11    1    3    3    0    0 -0.16171699422E+01 -0.18698190747E+00 -0.10913302589E+01  0.19598986838E+01  0.51100000000E-03 0.  1.
         12    1    3    3    0    0 -0.34250551511E+01  0.28833629195E+01 -0.43700536437E+02  0.43929280319E+02  0.00000000000E+00 0. -1.
</event>
<event>
 7    1  0.1542786E-009  0.4778727E+02  0.7816164E-02  0.1312668E+00
        -11   -1    0    0    0    0  0.00000000000E+00  0.00000000000E+00  0.45593999997E+02  0.45594000000E+02  0.51100000000E-03 0.  1.
         11   -1    0    0    0    0 -0.00000000000E+00 -0.00000000000E+00 -0.45593999997E+02  0.45594000000E+02  0.51100000000E-03 0. -1.
    9900012    2    1    2    0    0  0.95022988182E+01 -0.42344050725E+02  0.55752537785E+00  0.47787272481E+02  0.20000006551E+02 0.  0.
        -12    1    1    2    0    0 -0.95022988182E+01  0.42344050725E+02 -0.55752537785E+00  0.43400727519E+02  0.00000000000E+00 0.  1.
         11    1    3    3    0    0  0.94006929634E+01 -0.12882871737E+02  0.10204004154E-01  0.15948088186E+02  0.51100000000E-03 0. -1.
        -11    1    3    3    0    0  0.30440300472E+01 -0.26473878674E+02 -0.23359007094E+01  0.26750491647E+02  0.51100000000E-03 0.  1.
        -12    1    3    3    0    0 -0.29424241924E+01 -0.29873003131E+01  0.28832220831E+01  0.50886926484E+01  0.00000000000E+00 0.  1.
</event>
<event>
 7    1  0.1913978E-009  0.4778727E+02  0.7816164E-02  0.1312668E+00
        -11   -1    0    0    0    0  0.00000000000E+00  0.00000000000E+00  0.45593999997E+02  0.45594000000E+02  0.51100000000E-03 0.  1.
         11   -1    0    0    0    0 -0.00000000000E+00 -0.00000000000E+00 -0.45593999997E+02  0.45594000000E+02  0.51100000000E-03 0. -1.
    9900012    2    1    2    0    0  0.27387827765E+02  0.26007400598E+02 -0.21380954063E+02  0.47787271986E+02  0.20000004292E+02 0.  0.
        -12    1    1    2    0    0 -0.27387827765E+02 -0.26007400598E+02  0.21380954063E+02  0.43400728014E+02  0.00000000000E+00 0.  1.
         11    1    3    3    0    0  0.14091887595E+02  0.12332660131E+02 -0.99725743864E+01  0.21216221201E+02  0.51100000000E-03 0. -1.
        -11    1    3    3    0    0  0.87684177543E+01  0.15710212854E+02 -0.11918064259E+02  0.21580921986E+02  0.51100000000E-03 0.  1.
        -12    1    3    3    0    0  0.45275224155E+01 -0.20354723865E+01  0.50968458218E+00  0.49901287991E+01  0.00000000000E+00 0.  1.
</event>
<event>
 7    1  0.1542786E-009  0.4778729E+02  0.7816164E-02  0.1312668E+00
        -11   -1    0    0    0    0  0.00000000000E+00  0.00000000000E+00  0.45593999997E+02  0.45594000000E+02  0.51100000000E-03 0.  1.
         11   -1    0    0    0    0 -0.00000000000E+00 -0.00000000000E+00 -0.45593999997E+02  0.45594000000E+02  0.51100000000E-03 0. -1.
    9900012    2    1    2    0    0  0.12031393856E+02  0.39393276377E+02 -0.13676145742E+02  0.47787290050E+02  0.20000086653E+02 0.  0.
        -12    1    1    2    0    0 -0.12031393856E+02 -0.39393276377E+02  0.13676145742E+02  0.43400709950E+02  0.00000000000E+00 0.  1.
         11    1    3    3    0    0  0.13547410406E+02  0.28849125663E+02 -0.93956719148E+01  0.33227744901E+02  0.51100000000E-03 0. -1.
        -11    1    3    3    0    0  0.10555563295E+01 -0.13640809373E+01 -0.70141907159E+00  0.18619626590E+01  0.51100000000E-03 0.  1.
        -12    1    3    3    0    0 -0.25715728796E+01  0.11908231651E+02 -0.35790547553E+01  0.12697582490E+02  0.00000000000E+00 0.  1.
</event>
<event>
 7    1  0.1542786E-009  0.4778727E+02  0.7816164E-02  0.1312668E+00
        -11   -1    0    0    0    0  0.00000000000E+00  0.00000000000E+00  0.45593999997E+02  0.45594000000E+02  0.51100000000E-03 0.  1.
         11   -1    0    0    0    0 -0.00000000000E+00 -0.00000000000E+00 -0.45593999997E+02  0.45594000000E+02  0.51100000000E-03 0. -1.
    9900012    2    1    2    0    0 -0.11357315872E+02  0.38780933041E+02 -0.15832688591E+02  0.47787269368E+02  0.19999992358E+02 0.  0.
        -12    1    1    2    0    0  0.11357315872E+02 -0.38780933041E+02  0.15832688591E+02  0.43400730632E+02  0.00000000000E+00 0.  1.
         11    1    3    3    0    0  0.24195035227E+01  0.29409723665E+01 -0.53264097126E+01  0.65478207401E+01  0.51100000000E-03 0. -1.
        -11    1    3    3    0    0 -0.51557329890E+01  0.19373854872E+02 -0.33284333270E+00  0.20050900733E+02  0.51100000000E-03 0.  1.
         12    1    3    3    0    0 -0.86210864061E+01  0.16466105802E+02 -0.10173435546E+02  0.21188547895E+02  0.00000000000E+00 0. -1.
</event>
<event>
 7    1  0.1542786E-009  0.4778727E+02  0.7816164E-02  0.1312668E+00
        -11   -1    0    0    0    0  0.00000000000E+00  0.00000000000E+00  0.45593999997E+02  0.45594000000E+02  0.51100000000E-03 0.  1.
         11   -1    0    0    0    0 -0.00000000000E+00 -0.00000000000E+00 -0.45593999997E+02  0.45594000000E+02  0.51100000000E-03 0. -1.
    9900012    2    1    2    0    0 -0.24924871992E+02  0.10841650850E+02 -0.33835375499E+02  0.47787271065E+02  0.20000000094E+02 0.  0.
        -12    1    1    2    0    0  0.24924871992E+02 -0.10841650850E+02  0.33835375499E+02  0.43400728935E+02  0.00000000000E+00 0.  1.
         11    1    3    3    0    0 -0.57940932734E+01 -0.10707592829E+01 -0.18353862523E+01  0.61714411006E+01  0.51100000000E-03 0. -1.
        -11    1    3    3    0    0 -0.30905034035E+01  0.13776708965E+01 -0.16793437019E+02  0.17130928626E+02  0.51100000000E-03 0.  1.
         12    1    3    3    0    0 -0.16040275315E+02  0.10534739236E+02 -0.15206552227E+02  0.24484901339E+02  0.00000000000E+00 0. -1.
</event>
<event>
 7    1  0.1542786E-009  0.4778727E+02  0.7816164E-02  0.1312668E+00
        -11   -1    0    0    0    0  0.00000000000E+00  0.00000000000E+00  0.45593999997E+02  0.45594000000E+02  0.51100000000E-03 0.  1.
         11   -1    0    0    0    0 -0.00000000000E+00 -0.00000000000E+00 -0.45593999997E+02  0.45594000000E+02  0.51100000000E-03 0. -1.
    9900012    2    1    2    0    0 -0.68067770580E+01  0.69864773397E+01 -0.42290424938E+02  0.47787272806E+02  0.20000008030E+02 0.  0.
        -12    1    1    2    0    0  0.68067770580E+01 -0.69864773397E+01  0.42290424938E+02  0.43400727194E+02  0.00000000000E+00 0.  1.
         11    1    3    3    0    0 -0.67412422743E+01  0.48897969089E+01 -0.29995402088E+02  0.31130027432E+02  0.51100000000E-03 0. -1.
        -11    1    3    3    0    0 -0.42932627847E+01 -0.13464212920E+01 -0.18306498860E+01  0.48575955884E+01  0.51100000000E-03 0.  1.
        -12    1    3    3    0    0  0.42277280010E+01  0.34431017228E+01 -0.10464372964E+02  0.11799649785E+02  0.00000000000E+00 0.  1.
</event>
<event>
 7    1  0.1542786E-009  0.4778727E+02  0.7816164E-02  0.1312668E+00
        -11   -1    0    0    0    0  0.00000000000E+00  0.00000000000E+00  0.45593999997E+02  0.45594000000E+02  0.51100000000E-03 0.  1.
         11   -1    0    0    0    0 -0.00000000000E+00 -0.00000000000E+00 -0.45593999997E+02  0.45594000000E+02  0.51100000000E-03 0. -1.
    9900012    2    1    2    0    0 -0.19684723943E+02  0.35477957867E+02 -0.15409389612E+02  0.47787272595E+02  0.20000007068E+02 0.  0.
        -12    1    1    2    0    0  0.19684723943E+02 -0.35477957867E+02  0.15409389612E+02  0.43400727405E+02  0.00000000000E+00 0.  1.
         11    1    3    3    0    0 -0.60912432647E+01  0.11201872882E+02 -0.71613514058E+00  0.12770984706E+02  0.51100000000E-03 0. -1.
        -11    1    3    3    0    0 -0.14199787812E+02  0.17347755619E+02 -0.16493939294E+02  0.27832151060E+02  0.51100000000E-03 0.  1.
         12    1    3    3    0    0  0.60630713375E+00  0.69283293661E+01  0.18006848225E+01  0.71841368289E+01  0.00000000000E+00 0. -1.
</event>
<event>
 7    1  0.1542786E-009  0.4778727E+02  0.7816164E-02  0.1312668E+00
        -11   -1    0    0    0    0  0.00000000000E+00  0.00000000000E+00  0.45593999997E+02  0.45594000000E+02  0.51100000000E-03 0.  1.
         11   -1    0    0    0    0 -0.00000000000E+00 -0.00000000000E+00 -0.45593999997E+02  0.45594000000E+02  0.51100000000E-03 0. -1.
    9900012    2    1    2    0    0 -0.84503863950E+01 -0.32310008721E+02 -0.27717821077E+02  0.47787270754E+02  0.19999998676E+02 0.  0.
        -12    1    1    2    0    0  0.84503863950E+01  0.32310008721E+02  0.27717821077E+02  0.43400729246E+02  0.00000000000E+00 0.  1.
         11    1    3    3    0    0 -0.31228781020E+01 -0.73766105187E+00 -0.56831133446E+01  0.65264300361E+01  0.51100000000E-03 0. -1.
        -11    1    3    3    0    0  0.10921348040E+01 -0.18681394991E+02 -0.18748842587E+02  0.26489740955E+02  0.51100000000E-03 0.  1.
         12    1    3    3    0    0 -0.64196430969E+01 -0.12890952678E+02 -0.32858651455E+01  0.14771099763E+02  0.00000000000E+00 0. -1.
</event>
<event>
 7    1  0.1858203E-009  0.4778725E+02  0.7816164E-02  0.1312668E+00
        -11   -1    0    0    0    0  0.00000000000E+00  0.00000000000E+00  0.45593999997E+02  0.45594000000E+02  0.51100000000E-03 0. -1.
         11   -1    0    0    0    0 -0.00000000000E+00 -0.00000000000E+00 -0.45593999997E+02  0.45594000000E+02  0.51100000000E-03 0.  1.
    9900012    2    1    2    0    0 -0.13726572005E+01  0.25825141279E+02  0.34854019962E+02  0.47787253263E+02  0.19999918927E+02 0.  0.
        -12    1    1    2    0    0  0.13726572005E+01 -0.25825141279E+02 -0.34854019962E+02  0.43400746737E+02  0.00000000000E+00 0.  1.
         11    1    3    3    0    0  0.19049797040E+01  0.15383955104E+02  0.17509324104E+02  0.23385282833E+02  0.51100000000E-03 0. -1.
        -11    1    3    3    0    0 -0.22328084406E+01  0.54325672123E+01 -0.44575071580E+00  0.58904086455E+01  0.51100000000E-03 0.  1.
        -12    1    3    3    0    0 -0.10448284639E+01  0.50086189620E+01  0.17790446573E+02  0.18511561785E+02  0.00000000000E+00 0.  1.
</event>
<event>
 7    1  0.1542786E-009  0.4778727E+02  0.7816164E-02  0.1312668E+00
        -11   -1    0    0    0    0  0.00000000000E+00  0.00000000000E+00  0.45593999997E+02  0.45594000000E+02  0.51100000000E-03 0.  1.
         11   -1    0    0    0    0 -0.00000000000E+00 -0.00000000000E+00 -0.45593999997E+02  0.45594000000E+02  0.51100000000E-03 0. -1.
    9900012    2    1    2    0    0 -0.50839404796E+01  0.24781367686E+02 -0.35265576702E+02  0.47787268032E+02  0.19999986266E+02 0.  0.
        -12    1    1    2    0    0  0.50839404796E+01 -0.24781367686E+02  0.35265576702E+02  0.43400731968E+02  0.00000000000E+00 0.  1.
         11    1    3    3    0    0 -0.24729614102E+01  0.89599102768E+01 -0.56071260252E+01  0.10855201188E+02  0.51100000000E-03 0. -1.
        -11    1    3    3    0    0 -0.19632299151E+01 -0.23845110105E+01 -0.83202348856E+01  0.88750477898E+01  0.51100000000E-03 0.  1.
        -12    1    3    3    0    0 -0.64774915429E+00  0.18205968420E+02 -0.21338215791E+02  0.28057019055E+02  0.00000000000E+00 0.  1.
</event>
<event>
 7    1  0.1542786E-009  0.4778727E+02  0.7816164E-02  0.1312668E+00
        -11   -1    0    0    0    0  0.00000000000E+00  0.00000000000E+00  0.45593999997E+02  0.45594000000E+02  0.51100000000E-03 0.  1.
         11   -1    0    0    0    0 -0.00000000000E+00 -0.00000000000E+00 -0.45593999997E+02  0.45594000000E+02  0.51100000000E-03 0. -1.
    9900012    2    1    2    0    0 -0.12451592892E+02 -0.28978572764E+02 -0.29813145485E+02  0.47787268570E+02  0.19999988716E+02 0.  0.
        -12    1    1    2    0    0  0.12451592892E+02  0.28978572764E+02  0.29813145485E+02  0.43400731430E+02  0.00000000000E+00 0.  1.
         11    1    3    3    0    0 -0.15384254808E+01 -0.85591905196E+00 -0.84884106410E+00  0.19544517893E+01  0.51100000000E-03 0. -1.
        -11    1    3    3    0    0 -0.72043774364E+01 -0.10039083616E+02 -0.10960676556E+01  0.12405144847E+02  0.51100000000E-03 0.  1.
         12    1    3    3    0    0 -0.37087899748E+01 -0.18083570096E+02 -0.27868236765E+02  0.33427671933E+02  0.00000000000E+00 0. -1.
</event>
<event>
 7    1  0.1542786E-009  0.4778727E+02  0.7816164E-02  0.1312668E+00
        -11   -1    0    0    0    0  0.00000000000E+00  0.00000000000E+00  0.45593999997E+02  0.45594000000E+02  0.51100000000E-03 0.  1.
         11   -1    0    0    0    0 -0.00000000000E+00 -0.00000000000E+00 -0.45593999997E+02  0.45594000000E+02  0.51100000000E-03 0. -1.
    9900012    2    1    2    0    0 -0.28067682344E+02 -0.31639142052E+02 -0.97361787258E+01  0.47787270995E+02  0.19999999775E+02 0.  0.
        -12    1    1    2    0    0  0.28067682344E+02  0.31639142052E+02  0.97361787258E+01  0.43400729005E+02  0.00000000000E+00 0.  1.
         11    1    3    3    0    0 -0.37820397472E+01 -0.72064936816E+01 -0.64934797725E+01  0.10411659601E+02  0.51100000000E-03 0.  1.
        -11    1    3    3    0    0 -0.94804507799E+01 -0.14008323040E+02  0.47706816357E+01  0.17574739398E+02  0.51100000000E-03 0. -1.
         12    1    3    3    0    0 -0.14805191817E+02 -0.10424325331E+02 -0.80133805889E+01  0.19800871996E+02  0.00000000000E+00 0. -1.
</event>
<event>
 7    1  0.1542786E-009  0.4778727E+02  0.7816164E-02  0.1312668E+00
        -11   -1    0    0    0    0  0.00000000000E+00  0.00000000000E+00  0.45593999997E+02  0.45594000000E+02  0.51100000000E-03 0.  1.
         11   -1    0    0    0    0 -0.00000000000E+00 -0.00000000000E+00 -0.45593999997E+02  0.45594000000E+02  0.51100000000E-03 0. -1.
    9900012    2    1    2    0    0 -0.15406868547E+02 -0.94923286252E+01 -0.39448031157E+02  0.47787273470E+02  0.20000011059E+02 0.  0.
        -12    1    1    2    0    0  0.15406868547E+02  0.94923286252E+01  0.39448031157E+02  0.43400726530E+02  0.00000000000E+00 0.  1.
         11    1    3    3    0    0 -0.12293592448E+02 -0.93039256966E+01 -0.16886733119E+02  0.22866071030E+02  0.51100000000E-03 0. -1.
        -11    1    3    3    0    0 -0.47396468749E+01  0.39262130405E+01 -0.12690698438E+02  0.14104369126E+02  0.51100000000E-03 0.  1.
         12    1    3    3    0    0  0.16263707763E+01 -0.41146159691E+01 -0.98705995998E+01  0.10816833314E+02  0.00000000000E+00 0. -1.
</event>
<event>
 7    1  0.1542786E-009  0.4778727E+02  0.7816164E-02  0.1312668E+00
        -11   -1    0    0    0    0  0.00000000000E+00  0.00000000000E+00  0.45593999997E+02  0.45594000000E+02  0.51100000000E-03 0. -1.
         11   -1    0    0    0    0 -0.00000000000E+00 -0.00000000000E+00 -0.45593999997E+02  0.45594000000E+02  0.51100000000E-03 0.  1.
    9900012    2    1    2    0    0  0.30428825805E+02 -0.30945655212E+02  0.27630326937E+00  0.47787270054E+02  0.19999995484E+02 0.  0.
        -12    1    1    2    0    0 -0.30428825805E+02  0.30945655212E+02 -0.27630326937E+00  0.43400729946E+02  0.00000000000E+00 0.  1.
         11    1    3    3    0    0  0.18027432116E+02 -0.63690747241E+01  0.20013636459E+00  0.19120498853E+02  0.51100000000E-03 0. -1.
        -11    1    3    3    0    0  0.38993717208E+01 -0.10157196731E+02 -0.37275146930E+01  0.11500787421E+02  0.51100000000E-03 0.  1.
        -12    1    3    3    0    0  0.85020219678E+01 -0.14419383757E+02  0.38036815978E+01  0.17165983781E+02  0.00000000000E+00 0.  1.
</event>
<event>
 7    1  0.1542786E-009  0.4778727E+02  0.7816164E-02  0.1312668E+00
        -11   -1    0    0    0    0  0.00000000000E+00  0.00000000000E+00  0.45593999997E+02  0.45594000000E+02  0.51100000000E-03 0.  1.
         11   -1    0    0    0    0 -0.00000000000E+00 -0.00000000000E+00 -0.45593999997E+02  0.45594000000E+02  0.51100000000E-03 0. -1.
    9900012    2    1    2    0    0  0.30031906534E+02 -0.26281924875E+02 -0.17057800325E+02  0.47787268012E+02  0.19999986174E+02 0.  0.
        -12    1    1    2    0    0 -0.30031906534E+02  0.26281924875E+02  0.17057800325E+02  0.43400731988E+02  0.00000000000E+00 0.  1.
         11    1    3    3    0    0  0.26713067843E+02 -0.17381951467E+02 -0.74344572304E+01  0.32726004720E+02  0.51100000000E-03 0. -1.
        -11    1    3    3    0    0 -0.12010519618E+01 -0.22871831653E+01 -0.56508717768E-01  0.25839748727E+01  0.51100000000E-03 0.  1.
         12    1    3    3    0    0  0.45198906527E+01 -0.66127902427E+01 -0.95668343765E+01  0.12477288419E+02  0.00000000000E+00 0. -1.
</event>
<event>
 7    1  0.1542786E-009  0.4778727E+02  0.7816164E-02  0.1312668E+00
        -11   -1    0    0    0    0  0.00000000000E+00  0.00000000000E+00  0.45593999997E+02  0.45594000000E+02  0.51100000000E-03 0.  1.
         11   -1    0    0    0    0 -0.00000000000E+00 -0.00000000000E+00 -0.45593999997E+02  0.45594000000E+02  0.51100000000E-03 0. -1.
    9900012    2    1    2    0    0  0.38928444380E+02  0.61897419796E+01 -0.18162779468E+02  0.47787271370E+02  0.20000001484E+02 0.  0.
        -12    1    1    2    0    0 -0.38928444380E+02 -0.61897419796E+01  0.18162779468E+02  0.43400728630E+02  0.00000000000E+00 0.  1.
         11    1    3    3    0    0  0.58876589537E+01 -0.43990224917E+01 -0.54523155719E+01  0.91511568774E+01  0.51100000000E-03 0. -1.
        -11    1    3    3    0    0  0.44911083503E+01  0.52608994222E+01  0.41550949561E-01  0.69172858614E+01  0.51100000000E-03 0.  1.
        -12    1    3    3    0    0  0.28549677076E+02  0.53278650491E+01 -0.12752014846E+02  0.31718828631E+02  0.00000000000E+00 0.  1.
</event>
<event>
 7    1  0.1542786E-009  0.4778727E+02  0.7816164E-02  0.1312668E+00
        -11   -1    0    0    0    0  0.00000000000E+00  0.00000000000E+00  0.45593999997E+02  0.45594000000E+02  0.51100000000E-03 0.  1.
         11   -1    0    0    0    0 -0.00000000000E+00 -0.00000000000E+00 -0.45593999997E+02  0.45594000000E+02  0.51100000000E-03 0. -1.
    9900012    2    1    2    0    0 -0.23508555284E+01  0.41767253765E+02 -0.11558255405E+02  0.47787271010E+02  0.19999999845E+02 0.  0.
        -12    1    1    2    0    0  0.23508555284E+01 -0.41767253765E+02  0.11558255405E+02  0.43400728990E+02  0.00000000000E+00 0.  1.
         11    1    3    3    0    0 -0.70899964352E+01  0.21288903612E+02 -0.33014768348E+01  0.22680062081E+02  0.51100000000E-03 0. -1.
        -11    1    3    3    0    0  0.56360606510E+00 -0.13548993468E+01 -0.72634892712E+00  0.16373719985E+01  0.51100000000E-03 0.  1.
         12    1    3    3    0    0  0.41755348417E+01  0.21833249500E+02 -0.75304296431E+01  0.23469836931E+02  0.00000000000E+00 0. -1.
</event>
<event>
 7    1  0.1542786E-009  0.4778725E+02  0.7816164E-02  0.1312668E+00
        -11   -1    0    0    0    0  0.00000000000E+00  0.00000000000E+00  0.45593999997E+02  0.45594000000E+02  0.51100000000E-03 0.  1.
         11   -1    0    0    0    0 -0.00000000000E+00 -0.00000000000E+00 -0.45593999997E+02  0.45594000000E+02  0.51100000000E-03 0. -1.
    9900012    2    1    2    0    0 -0.10190128590E+02  0.34200000871E+02 -0.24701146087E+02  0.47787246570E+02  0.19999888411E+02 0.  0.
        -12    1    1    2    0    0  0.10190128590E+02 -0.34200000871E+02  0.24701146087E+02  0.43400753430E+02  0.00000000000E+00 0.  1.
         11    1    3    3    0    0 -0.35296366132E+01  0.24571307274E+02 -0.17260647473E+02  0.30234705675E+02  0.51100000000E-03 0.  1.
        -11    1    3    3    0    0 -0.56585804022E+01  0.60756634663E+01 -0.10046908460E+02  0.13033556253E+02  0.51100000000E-03 0. -1.
        -12    1    3    3    0    0 -0.10019115749E+01  0.35530301303E+01  0.26064098464E+01  0.45189846424E+01  0.00000000000E+00 0.  1.
</event>
<event>
 7    1  0.1542786E-009  0.4778727E+02  0.7816164E-02  0.1312668E+00
        -11   -1    0    0    0    0  0.00000000000E+00  0.00000000000E+00  0.45593999997E+02  0.45594000000E+02  0.51100000000E-03 0. -1.
         11   -1    0    0    0    0 -0.00000000000E+00 -0.00000000000E+00 -0.45593999997E+02  0.45594000000E+02  0.51100000000E-03 0.  1.
    9900012    2    1    2    0    0  0.62268574264E+01  0.42435039061E+02 -0.66420660948E+01  0.47787270334E+02  0.19999996761E+02 0.  0.
        -12    1    1    2    0    0 -0.62268574264E+01 -0.42435039061E+02  0.66420660948E+01  0.43400729666E+02  0.00000000000E+00 0.  1.
         11    1    3    3    0    0 -0.58130730667E+00  0.35297784309E+01 -0.43437142892E+01  0.56271758497E+01  0.51100000000E-03 0. -1.
        -11    1    3    3    0    0  0.97073707665E+01  0.16299046360E+02  0.15982767727E+01  0.19038026377E+02  0.51100000000E-03 0.  1.
         12    1    3    3    0    0 -0.28992060335E+01  0.22606214271E+02 -0.38966285783E+01  0.23122068107E+02  0.00000000000E+00 0. -1.
</event>
<event>
 7    1  0.1542786E-009  0.4778727E+02  0.7816164E-02  0.1312668E+00
        -11   -1    0    0    0    0  0.00000000000E+00  0.00000000000E+00  0.45593999997E+02  0.45594000000E+02  0.51100000000E-03 0. -1.
         11   -1    0    0    0    0 -0.00000000000E+00 -0.00000000000E+00 -0.45593999997E+02  0.45594000000E+02  0.51100000000E-03 0.  1.
    9900012    2    1    2    0    0 -0.39711938053E+02  0.83122041280E+01 -0.15410802449E+02  0.47787267362E+02  0.19999983210E+02 0.  0.
        -12    1    1    2    0    0  0.39711938053E+02 -0.83122041280E+01  0.15410802449E+02  0.43400732638E+02  0.00000000000E+00 0.  1.
         11    1    3    3    0    0 -0.14863208975E+01 -0.20708948304E+01 -0.13729992271E+00  0.25527645287E+01  0.51100000000E-03 0. -1.
        -11    1    3    3    0    0 -0.10535405725E+02 -0.40697653045E+01 -0.31091288632E+01  0.11714283844E+02  0.51100000000E-03 0.  1.
         12    1    3    3    0    0 -0.27690211430E+02  0.14452864263E+02 -0.12164373663E+02  0.33520218989E+02  0.00000000000E+00 0. -1.
</event>
<event>
 7    1  0.1542786E-009  0.4778727E+02  0.7816164E-02  0.1312668E+00
        -11   -1    0    0    0    0  0.00000000000E+00  0.00000000000E+00  0.45593999997E+02  0.45594000000E+02  0.51100000000E-03 0.  1.
         11   -1    0    0    0    0 -0.00000000000E+00 -0.00000000000E+00 -0.45593999997E+02  0.45594000000E+02  0.51100000000E-03 0. -1.
    9900012    2    1    2    0    0 -0.30888094891E+02  0.27222270095E+02 -0.13729412410E+02  0.47787272354E+02  0.20000005969E+02 0.  0.
        -12    1    1    2    0    0  0.30888094891E+02 -0.27222270095E+02  0.13729412410E+02  0.43400727646E+02  0.00000000000E+00 0.  1.
         11    1    3    3    0    0 -0.17061376095E+02  0.76196867065E+01 -0.79108878322E+01  0.20291188391E+02  0.51100000000E-03 0.  1.
        -11    1    3    3    0    0 -0.71275704226E+01  0.33850429244E+01 -0.60577811383E+01  0.99477378489E+01  0.51100000000E-03 0. -1.
        -12    1    3    3    0    0 -0.66991483736E+01  0.16217540464E+02  0.23925656094E+00  0.17548346114E+02  0.00000000000E+00 0.  1.
</event>
<event>
 7    1  0.1542786E-009  0.4778727E+02  0.7816164E-02  0.1312668E+00
        -11   -1    0    0    0    0  0.00000000000E+00  0.00000000000E+00  0.45593999997E+02  0.45594000000E+02  0.51100000000E-03 0.  1.
         11   -1    0    0    0    0 -0.00000000000E+00 -0.00000000000E+00 -0.45593999997E+02  0.45594000000E+02  0.51100000000E-03 0. -1.
    9900012    2    1    2    0    0 -0.18203641510E+02 -0.16097475000E+02 -0.35960003419E+02  0.47787272915E+02  0.20000008528E+02 0.  0.
        -12    1    1    2    0    0  0.18203641510E+02  0.16097475000E+02  0.35960003419E+02  0.43400727085E+02  0.00000000000E+00 0.  1.
         11    1    3    3    0    0 -0.64328324033E+01 -0.56599334074E+01 -0.15658064996E+02  0.17849122627E+02  0.51100000000E-03 0. -1.
        -11    1    3    3    0    0  0.25827399818E+01 -0.57396445228E-01  0.48399019023E+00  0.26283239775E+01  0.51100000000E-03 0.  1.
        -12    1    3    3    0    0 -0.14353549089E+02 -0.10380145147E+02 -0.20785928614E+02  0.27309826310E+02  0.00000000000E+00 0.  1.
</event>
<event>
 7    1  0.1542786E-009  0.4778727E+02  0.7816164E-02  0.1312668E+00
        -11   -1    0    0    0    0  0.00000000000E+00  0.00000000000E+00  0.45593999997E+02  0.45594000000E+02  0.51100000000E-03 0. -1.
         11   -1    0    0    0    0 -0.00000000000E+00 -0.00000000000E+00 -0.45593999997E+02  0.45594000000E+02  0.51100000000E-03 0.  1.
    9900012    2    1    2    0    0  0.34885847946E+02  0.22074026662E+02  0.13391718484E+02  0.47787272311E+02  0.20000005775E+02 0.  0.
        -12    1    1    2    0    0 -0.34885847946E+02 -0.22074026662E+02 -0.13391718484E+02  0.43400727689E+02  0.00000000000E+00 0.  1.
         11    1    3    3    0    0  0.61101988270E+01  0.63889395259E+01  0.20966028279E+01  0.90856382082E+01  0.51100000000E-03 0. -1.
        -11    1    3    3    0    0  0.49705331557E+01  0.98679387207E+01  0.86919746956E+01  0.14058194721E+02  0.51100000000E-03 0.  1.
         12    1    3    3    0    0  0.23805115963E+02  0.58171484155E+01  0.26031409604E+01  0.24643439382E+02  0.00000000000E+00 0. -1.
</event>
<event>
 7    1  0.1542786E-009  0.4778727E+02  0.7816164E-02  0.1312668E+00
        -11   -1    0    0    0    0  0.00000000000E+00  0.00000000000E+00  0.45593999997E+02  0.45594000000E+02  0.51100000000E-03 0.  1.
         11   -1    0    0    0    0 -0.00000000000E+00 -0.00000000000E+00 -0.45593999997E+02  0.45594000000E+02  0.51100000000E-03 0. -1.
    9900012    2    1    2    0    0  0.16463275254E+02 -0.35266759367E+02 -0.19205193966E+02  0.47787271624E+02  0.20000002643E+02 0.  0.
        -12    1    1    2    0    0 -0.16463275254E+02  0.35266759367E+02  0.19205193966E+02  0.43400728376E+02  0.00000000000E+00 0.  1.
         11    1    3    3    0    0 -0.18360788629E+01 -0.48348083502E+01 -0.18996817400E+01  0.55095687988E+01  0.51100000000E-03 0.  1.
        -11    1    3    3    0    0  0.97021520587E+01 -0.58064951942E+01 -0.10239921629E+02  0.15254610327E+02  0.51100000000E-03 0. -1.
        -12    1    3    3    0    0  0.85972020578E+01 -0.24625455822E+02 -0.70655905968E+01  0.27023092498E+02  0.00000000000E+00 0.  1.
</event>
<event>
 7    1  0.1542786E-009  0.4778727E+02  0.7816164E-02  0.1312668E+00
        -11   -1    0    0    0    0  0.00000000000E+00  0.00000000000E+00  0.45593999997E+02  0.45594000000E+02  0.51100000000E-03 0.  1.
         11   -1    0    0    0    0 -0.00000000000E+00 -0.00000000000E+00 -0.45593999997E+02  0.45594000000E+02  0.51100000000E-03 0. -1.
    9900012    2    1    2    0    0  0.92073853892E+01 -0.40189999034E+02 -0.13550340141E+02  0.47787266297E+02  0.19999978353E+02 0.  0.
        -12    1    1    2    0    0 -0.92073853892E+01  0.40189999034E+02  0.13550340141E+02  0.43400733703E+02  0.00000000000E+00 0.  1.
         11    1    3    3    0    0  0.67200553938E+01 -0.22250710747E+02 -0.58368734381E-01  0.23243422305E+02  0.51100000000E-03 0. -1.
        -11    1    3    3    0    0 -0.15548961966E+01 -0.14552512692E+02 -0.71280420942E+01  0.16278891614E+02  0.51100000000E-03 0.  1.
         12    1    3    3    0    0  0.40422261919E+01 -0.33867755948E+01 -0.63639293124E+01  0.82649523780E+01  0.00000000000E+00 0. -1.
</event>
<event>
 7    1  0.1542786E-009  0.4778727E+02  0.7816164E-02  0.1312668E+00
        -11   -1    0    0    0    0  0.00000000000E+00  0.00000000000E+00  0.45593999997E+02  0.45594000000E+02  0.51100000000E-03 0. -1.
         11   -1    0    0    0    0 -0.00000000000E+00 -0.00000000000E+00 -0.45593999997E+02  0.45594000000E+02  0.51100000000E-03 0.  1.
    9900012    2    1    2    0    0 -0.32854412703E+02  0.21288481642E+02  0.18735298709E+02  0.47787270715E+02  0.19999998500E+02 0.  0.
        -12    1    1    2    0    0  0.32854412703E+02 -0.21288481642E+02 -0.18735298709E+02  0.43400729285E+02  0.00000000000E+00 0.  1.
         11    1    3    3    0    0 -0.26634215836E+01  0.42265766117E+01  0.67164737983E+01  0.83707099419E+01  0.51100000000E-03 0. -1.
        -11    1    3    3    0    0 -0.25962457971E+02  0.75174053464E+01  0.97495856699E+01  0.28733517502E+02  0.51100000000E-03 0.  1.
        -12    1    3    3    0    0 -0.42285331487E+01  0.95444996843E+01  0.22692392409E+01  0.10683043272E+02  0.00000000000E+00 0.  1.
</event>
<event>
 7    1  0.1542786E-009  0.4778728E+02  0.7816164E-02  0.1312668E+00
        -11   -1    0    0    0    0  0.00000000000E+00  0.00000000000E+00  0.45593999997E+02  0.45594000000E+02  0.51100000000E-03 0.  1.
         11   -1    0    0    0    0 -0.00000000000E+00 -0.00000000000E+00 -0.45593999997E+02  0.45594000000E+02  0.51100000000E-03 0. -1.
    9900012    2    1    2    0    0 -0.12205202802E+02  0.18515814057E+02 -0.37307111661E+02  0.47787275051E+02  0.20000018268E+02 0.  0.
        -12    1    1    2    0    0  0.12205202802E+02 -0.18515814057E+02  0.37307111661E+02  0.43400724949E+02  0.00000000000E+00 0.  1.
         11    1    3    3    0    0 -0.63895648090E+00 -0.85593807823E-01  0.92685982150E+00  0.11290088902E+01  0.51100000000E-03 0. -1.
        -11    1    3    3    0    0 -0.47690727245E+01 -0.43974434552E+00 -0.20513814550E+01  0.52101435561E+01  0.51100000000E-03 0.  1.
         12    1    3    3    0    0 -0.67971735967E+01  0.19041152210E+02 -0.36182590027E+02  0.41448122605E+02  0.00000000000E+00 0. -1.
</event>
<event>
 7    1  0.1542786E-009  0.4778727E+02  0.7816164E-02  0.1312668E+00
        -11   -1    0    0    0    0  0.00000000000E+00  0.00000000000E+00  0.45593999997E+02  0.45594000000E+02  0.51100000000E-03 0.  1.
         11   -1    0    0    0    0 -0.00000000000E+00 -0.00000000000E+00 -0.45593999997E+02  0.45594000000E+02  0.51100000000E-03 0. -1.
    9900012    2    1    2    0    0  0.26973459732E+02 -0.11385708449E+01 -0.33981751952E+02  0.47787270292E+02  0.19999996568E+02 0.  0.
        -12    1    1    2    0    0 -0.26973459732E+02  0.11385708449E+01  0.33981751952E+02  0.43400729708E+02  0.00000000000E+00 0.  1.
         11    1    3    3    0    0  0.25265114911E+01  0.48076222979E+01 -0.13015011746E+02  0.14102731065E+02  0.51100000000E-03 0. -1.
        -11    1    3    3    0    0  0.55361630306E+01 -0.48814772279E+01 -0.67484574347E+01  0.10000979904E+02  0.51100000000E-03 0.  1.
         12    1    3    3    0    0  0.18910785210E+02 -0.10647159149E+01 -0.14218282771E+02  0.23683559323E+02  0.00000000000E+00 0. -1.
</event>
<event>
 7    1  0.1542786E-009  0.4778727E+02  0.7816164E-02  0.1312668E+00
        -11   -1    0    0    0    0  0.00000000000E+00  0.00000000000E+00  0.45593999997E+02  0.45594000000E+02  0.51100000000E-03 0.  1.
         11   -1    0    0    0    0 -0.00000000000E+00 -0.00000000000E+00 -0.45593999997E+02  0.45594000000E+02  0.51100000000E-03 0. -1.
    9900012    2    1    2    0    0 -0.10526595523E+02 -0.40130789572E+01 -0.41913116339E+02  0.47787270314E+02  0.19999996669E+02 0.  0.
        -12    1    1    2    0    0  0.10526595523E+02  0.40130789572E+01  0.41913116339E+02  0.43400729686E+02  0.00000000000E+00 0.  1.
         11    1    3    3    0    0  0.36503153131E+00  0.44363554916E+01 -0.12834577149E+02  0.13584582030E+02  0.51100000000E-03 0. -1.
        -11    1    3    3    0    0 -0.76210047527E+00 -0.71577221412E+01 -0.16494321798E+02  0.17996567318E+02  0.51100000000E-03 0.  1.
         12    1    3    3    0    0 -0.10129526580E+02 -0.12917123077E+01 -0.12584217392E+02  0.16206120967E+02  0.00000000000E+00 0. -1.
</event>
<event>
 7    1  0.1542786E-009  0.4778727E+02  0.7816164E-02  0.1312668E+00
        -11   -1    0    0    0    0  0.00000000000E+00  0.00000000000E+00  0.45593999997E+02  0.45594000000E+02  0.51100000000E-03 0. -1.
         11   -1    0    0    0    0 -0.00000000000E+00 -0.00000000000E+00 -0.45593999997E+02  0.45594000000E+02  0.51100000000E-03 0.  1.
    9900012    2    1    2    0    0 -0.42831880921E+02  0.70014586502E+01  0.18036058164E+00  0.47787274472E+02  0.20000015626E+02 0.  0.
        -12    1    1    2    0    0  0.42831880921E+02 -0.70014586502E+01 -0.18036058164E+00  0.43400725528E+02  0.00000000000E+00 0.  1.
         11    1    3    3    0    0 -0.10852690610E+02  0.38814589728E+01  0.30407034622E+01  0.11920255662E+02  0.51100000000E-03 0. -1.
        -11    1    3    3    0    0 -0.15494184760E+02 -0.24024477302E+01 -0.81814449314E+01  0.17685518310E+02  0.51100000000E-03 0.  1.
        -12    1    3    3    0    0 -0.16485005551E+02  0.55224474076E+01  0.53211020508E+01  0.18181500500E+02  0.00000000000E+00 0.  1.
</event>
<event>
 7    1  0.1542786E-009  0.4778727E+02  0.7816164E-02  0.1312668E+00
        -11   -1    0    0    0    0  0.00000000000E+00  0.00000000000E+00  0.45593999997E+02  0.45594000000E+02  0.51100000000E-03 0.  1.
         11   -1    0    0    0    0 -0.00000000000E+00 -0.00000000000E+00 -0.45593999997E+02  0.45594000000E+02  0.51100000000E-03 0. -1.
    9900012    2    1    2    0    0  0.36490810759E+01 -0.23369775731E+02 -0.36389024498E+02  0.47787270578E+02  0.19999997873E+02 0.  0.
        -12    1    1    2    0    0 -0.36490810759E+01  0.23369775731E+02  0.36389024498E+02  0.43400729422E+02  0.00000000000E+00 0.  1.
         11    1    3    3    0    0 -0.15383983543E+01 -0.32998726928E+01 -0.27099852162E+01  0.45387056986E+01  0.51100000000E-03 0. -1.
        -11    1    3    3    0    0  0.65107352927E+01 -0.63857496510E+01 -0.29509183125E+01  0.95851651944E+01  0.51100000000E-03 0.  1.
         12    1    3    3    0    0 -0.13232558625E+01 -0.13684153388E+02 -0.30728120970E+02  0.33663399685E+02  0.00000000000E+00 0. -1.
</event>
<event>
 7    1  0.1542786E-009  0.4778727E+02  0.7816164E-02  0.1312668E+00
        -11   -1    0    0    0    0  0.00000000000E+00  0.00000000000E+00  0.45593999997E+02  0.45594000000E+02  0.51100000000E-03 0. -1.
         11   -1    0    0    0    0 -0.00000000000E+00 -0.00000000000E+00 -0.45593999997E+02  0.45594000000E+02  0.51100000000E-03 0.  1.
    9900012    2    1    2    0    0 -0.24888771910E+01 -0.22017698860E+02  0.37318227108E+02  0.47787266743E+02  0.19999980390E+02 0.  0.
        -12    1    1    2    0    0  0.24888771910E+01  0.22017698860E+02 -0.37318227108E+02  0.43400733257E+02  0.00000000000E+00 0.  1.
         11    1    3    3    0    0  0.25986312753E+01  0.54470476120E+00  0.67564065366E+00  0.27397223100E+01  0.51100000000E-03 0. -1.
        -11    1    3    3    0    0  0.37910284118E+01 -0.45589733872E+01  0.61678976923E+01  0.85556470807E+01  0.51100000000E-03 0.  1.
         12    1    3    3    0    0 -0.88785368781E+01 -0.18003430234E+02  0.30474688762E+02  0.36491897353E+02  0.00000000000E+00 0. -1.
</event>
<event>
 7    1  0.1542786E-009  0.4778727E+02  0.7816164E-02  0.1312668E+00
        -11   -1    0    0    0    0  0.00000000000E+00  0.00000000000E+00  0.45593999997E+02  0.45594000000E+02  0.51100000000E-03 0. -1.
         11   -1    0    0    0    0 -0.00000000000E+00 -0.00000000000E+00 -0.45593999997E+02  0.45594000000E+02  0.51100000000E-03 0.  1.
    9900012    2    1    2    0    0  0.30966376197E+01  0.43084906627E+02 -0.42100909409E+01  0.47787271788E+02  0.20000003391E+02 0.  0.
        -12    1    1    2    0    0 -0.30966376197E+01 -0.43084906627E+02  0.42100909409E+01  0.43400728212E+02  0.00000000000E+00 0.  1.
         11    1    3    3    0    0 -0.44605907401E+01  0.11366574187E+02  0.14441940615E+01  0.12295591700E+02  0.51100000000E-03 0. -1.
        -11    1    3    3    0    0  0.30656403363E+01  0.29691063908E+02 -0.63443399990E+01  0.30515702137E+02  0.51100000000E-03 0.  1.
        -12    1    3    3    0    0  0.44915880235E+01  0.20272685320E+01  0.69005499668E+00  0.49759779513E+01  0.00000000000E+00 0.  1.
</event>
<event>
 7    1  0.1542786E-009  0.4778727E+02  0.7816164E-02  0.1312668E+00
        -11   -1    0    0    0    0  0.00000000000E+00  0.00000000000E+00  0.45593999997E+02  0.45594000000E+02  0.51100000000E-03 0.  1.
         11   -1    0    0    0    0 -0.00000000000E+00 -0.00000000000E+00 -0.45593999997E+02  0.45594000000E+02  0.51100000000E-03 0. -1.
    9900012    2    1    2    0    0 -0.43372760630E+02 -0.12722134908E+01 -0.89896766063E+00  0.47787273800E+02  0.20000012564E+02 0.  0.
        -12    1    1    2    0    0  0.43372760630E+02  0.12722134908E+01  0.89896766063E+00  0.43400726200E+02  0.00000000000E+00 0.  1.
         11    1    3    3    0    0 -0.90254274703E+01  0.19986268072E+00 -0.50720107633E+00  0.90418769791E+01  0.51100000000E-03 0. -1.
        -11    1    3    3    0    0 -0.23785717428E+02  0.53719340046E+01  0.52659682509E+01  0.24946912643E+02  0.51100000000E-03 0.  1.
        -12    1    3    3    0    0 -0.10561615732E+02 -0.68440101761E+01 -0.56577348352E+01  0.13798484178E+02  0.00000000000E+00 0.  1.
</event>
<event>
 7    1  0.1542786E-009  0.4778727E+02  0.7816164E-02  0.1312668E+00
        -11   -1    0    0    0    0  0.00000000000E+00  0.00000000000E+00  0.45593999997E+02  0.45594000000E+02  0.51100000000E-03 0.  1.
         11   -1    0    0    0    0 -0.00000000000E+00 -0.00000000000E+00 -0.45593999997E+02  0.45594000000E+02  0.51100000000E-03 0. -1.
    9900012    2    1    2    0    0 -0.15716071503E+02 -0.99117546623E+01 -0.39222260349E+02  0.47787268544E+02  0.19999988601E+02 0.  0.
        -12    1    1    2    0    0  0.15716071503E+02  0.99117546623E+01  0.39222260349E+02  0.43400731456E+02  0.00000000000E+00 0.  1.
         11    1    3    3    0    0 -0.41733069384E-01 -0.56355576511E+01 -0.14951129395E+02  0.15978032487E+02  0.51100000000E-03 0. -1.
        -11    1    3    3    0    0 -0.42320485236E+01  0.40801406861E+01 -0.10596309815E+02  0.12117737605E+02  0.51100000000E-03 0.  1.
         12    1    3    3    0    0 -0.11442289910E+02 -0.83563376973E+01 -0.13674821140E+02  0.19691498452E+02  0.00000000000E+00 0. -1.
</event>
<event>
 7    1  0.1542786E-009  0.4778727E+02  0.7816164E-02  0.1312668E+00
        -11   -1    0    0    0    0  0.00000000000E+00  0.00000000000E+00  0.45593999997E+02  0.45594000000E+02  0.51100000000E-03 0. -1.
         11   -1    0    0    0    0 -0.00000000000E+00 -0.00000000000E+00 -0.45593999997E+02  0.45594000000E+02  0.51100000000E-03 0.  1.
    9900012    2    1    2    0    0  0.33507144864E+02 -0.22931538284E+02 -0.15330976679E+02  0.47787273613E+02  0.20000011710E+02 0.  0.
        -12    1    1    2    0    0 -0.33507144864E+02  0.22931538284E+02  0.15330976679E+02  0.43400726387E+02  0.00000000000E+00 0.  1.
         11    1    3    3    0    0  0.63579528616E+01 -0.10400322679E+02 -0.49592179006E+01  0.13159943725E+02  0.51100000000E-03 0.  1.
        -11    1    3    3    0    0  0.21154284463E+02 -0.89565516817E+01 -0.13854734278E+02  0.26826800617E+02  0.51100000000E-03 0. -1.
         12    1    3    3    0    0  0.59949075395E+01 -0.35746639240E+01  0.34829754989E+01  0.78005292707E+01  0.00000000000E+00 0. -1.
</event>
<event>
 7    1  0.1542786E-009  0.4778727E+02  0.7816164E-02  0.1312668E+00
        -11   -1    0    0    0    0  0.00000000000E+00  0.00000000000E+00  0.45593999997E+02  0.45594000000E+02  0.51100000000E-03 0.  1.
         11   -1    0    0    0    0 -0.00000000000E+00 -0.00000000000E+00 -0.45593999997E+02  0.45594000000E+02  0.51100000000E-03 0. -1.
    9900012    2    1    2    0    0 -0.16094170381E+02  0.15679087240E-01 -0.40306335654E+02  0.47787271205E+02  0.20000000732E+02 0.  0.
        -12    1    1    2    0    0  0.16094170381E+02 -0.15679087240E-01  0.40306335654E+02  0.43400728795E+02  0.00000000000E+00 0.  1.
         11    1    3    3    0    0 -0.47852494130E+01  0.53106273088E+01 -0.69538911336E+01  0.99728620023E+01  0.51100000000E-03 0. -1.
        -11    1    3    3    0    0 -0.39364326658E+01 -0.63186848035E+00 -0.26289796584E+02  0.26590377293E+02  0.51100000000E-03 0.  1.
        -12    1    3    3    0    0 -0.73724883018E+01 -0.46630797412E+01 -0.70626479369E+01  0.11224031910E+02  0.00000000000E+00 0.  1.
</event>
<event>
 7    1  0.1542786E-009  0.4778728E+02  0.7816164E-02  0.1312668E+00
        -11   -1    0    0    0    0  0.00000000000E+00  0.00000000000E+00  0.45593999997E+02  0.45594000000E+02  0.51100000000E-03 0.  1.
         11   -1    0    0    0    0 -0.00000000000E+00 -0.00000000000E+00 -0.45593999997E+02  0.45594000000E+02  0.51100000000E-03 0. -1.
    9900012    2    1    2    0    0 -0.30036226767E+02  0.32968746688E+01 -0.31154110399E+02  0.47787275400E+02  0.20000019860E+02 0.  0.
        -12    1    1    2    0    0  0.30036226767E+02 -0.32968746688E+01  0.31154110399E+02  0.43400724600E+02  0.00000000000E+00 0.  1.
         11    1    3    3    0    0 -0.95393793353E+01 -0.73225004744E+01 -0.16184147807E+02  0.20162971304E+02  0.51100000000E-03 0. -1.
        -11    1    3    3    0    0 -0.53082431859E+01  0.33512925280E+01 -0.29501988258E+01  0.69363016588E+01  0.51100000000E-03 0.  1.
         12    1    3    3    0    0 -0.15188604246E+02  0.72680826152E+01 -0.12019763766E+02  0.20688002437E+02  0.00000000000E+00 0. -1.
</event>
<event>
 7    1  0.1542786E-009  0.4778726E+02  0.7816164E-02  0.1312668E+00
        -11   -1    0    0    0    0  0.00000000000E+00  0.00000000000E+00  0.45593999997E+02  0.45594000000E+02  0.51100000000E-03 0.  1.
         11   -1    0    0    0    0 -0.00000000000E+00 -0.00000000000E+00 -0.45593999997E+02  0.45594000000E+02  0.51100000000E-03 0. -1.
    9900012    2    1    2    0    0 -0.23682807432E+02 -0.15156772885E+02 -0.33060870780E+02  0.47787259121E+02  0.19999945634E+02 0.  0.
        -12    1    1    2    0    0  0.23682807432E+02  0.15156772885E+02  0.33060870780E+02  0.43400740879E+02  0.00000000000E+00 0.  1.
         11    1    3    3    0    0 -0.18796896757E+01 -0.19629794869E+01  0.16427987796E+01  0.31757376835E+01  0.51100000000E-03 0. -1.
        -11    1    3    3    0    0 -0.20289469432E+01 -0.30449268797E+01 -0.13153901149E+02  0.13653326375E+02  0.51100000000E-03 0.  1.
         12    1    3    3    0    0 -0.19774170813E+02 -0.10148866518E+02 -0.21549768410E+02  0.30958195062E+02  0.00000000000E+00 0. -1.
</event>
<event>
 7    1  0.1542786E-009  0.4778727E+02  0.7816164E-02  0.1312668E+00
        -11   -1    0    0    0    0  0.00000000000E+00  0.00000000000E+00  0.45593999997E+02  0.45594000000E+02  0.51100000000E-03 0.  1.
         11   -1    0    0    0    0 -0.00000000000E+00 -0.00000000000E+00 -0.45593999997E+02  0.45594000000E+02  0.51100000000E-03 0. -1.
    9900012    2    1    2    0    0 -0.25382430907E+02  0.35179598018E+02  0.13232830767E+01  0.47787274274E+02  0.20000014725E+02 0.  0.
        -12    1    1    2    0    0  0.25382430907E+02 -0.35179598018E+02 -0.13232830767E+01  0.43400725726E+02  0.00000000000E+00 0.  1.
         11    1    3    3    0    0 -0.11043943000E+02  0.11662844753E+02 -0.54984756107E+01  0.16977156977E+02  0.51100000000E-03 0. -1.
        -11    1    3    3    0    0 -0.11041033820E+01  0.72247218954E+00  0.41060950245E+01  0.43128907886E+01  0.51100000000E-03 0.  1.
        -12    1    3    3    0    0 -0.13234384525E+02  0.22794281076E+02  0.27156636629E+01  0.26497226509E+02  0.00000000000E+00 0.  1.
</event>
<event>
 7    1  0.1542786E-009  0.4778725E+02  0.7816164E-02  0.1312668E+00
        -11   -1    0    0    0    0  0.00000000000E+00  0.00000000000E+00  0.45593999997E+02  0.45594000000E+02  0.51100000000E-03 0.  1.
         11   -1    0    0    0    0 -0.00000000000E+00 -0.00000000000E+00 -0.45593999997E+02  0.45594000000E+02  0.51100000000E-03 0. -1.
    9900012    2    1    2    0    0  0.95563732842E+01  0.27560218191E+02 -0.32136194730E+02  0.47787252209E+02  0.19999914124E+02 0.  0.
        -12    1    1    2    0    0 -0.95563732842E+01 -0.27560218191E+02  0.32136194730E+02  0.43400747791E+02  0.00000000000E+00 0.  1.
         11    1    3    3    0    0  0.66524706128E+01  0.11690910841E+02 -0.10444629552E+02  0.17030063073E+02  0.51100000000E-03 0. -1.
        -11    1    3    3    0    0  0.88548521319E+01  0.79562254844E+01 -0.11764791356E+02  0.16736793186E+02  0.51100000000E-03 0.  1.
         12    1    3    3    0    0 -0.59509494605E+01  0.79130818650E+01 -0.99267738218E+01  0.14020395950E+02  0.00000000000E+00 0. -1.
</event>
<event>
 7    1  0.1542786E-009  0.4778727E+02  0.7816164E-02  0.1312668E+00
        -11   -1    0    0    0    0  0.00000000000E+00  0.00000000000E+00  0.45593999997E+02  0.45594000000E+02  0.51100000000E-03 0. -1.
         11   -1    0    0    0    0 -0.00000000000E+00 -0.00000000000E+00 -0.45593999997E+02  0.45594000000E+02  0.51100000000E-03 0.  1.
    9900012    2    1    2    0    0  0.92267410668E-02 -0.36156431144E+02  0.24006996740E+02  0.47787268547E+02  0.19999988612E+02 0.  0.
        -12    1    1    2    0    0 -0.92267410668E-02  0.36156431144E+02 -0.24006996740E+02  0.43400731453E+02  0.00000000000E+00 0.  1.
         11    1    3    3    0    0 -0.21154552664E+01 -0.17082167733E+02  0.11637813345E+02  0.20777735804E+02  0.51100000000E-03 0. -1.
        -11    1    3    3    0    0  0.51871548275E+00 -0.85061342736E+01 -0.23298287945E+01  0.88346753480E+01  0.51100000000E-03 0.  1.
        -12    1    3    3    0    0  0.16059665247E+01 -0.10568129137E+02  0.14699012190E+02  0.18174857394E+02  0.00000000000E+00 0.  1.
</event>
<event>
 7    1  0.1542786E-009  0.4778727E+02  0.7816164E-02  0.1312668E+00
        -11   -1    0    0    0    0  0.00000000000E+00  0.00000000000E+00  0.45593999997E+02  0.45594000000E+02  0.51100000000E-03 0.  1.
         11   -1    0    0    0    0 -0.00000000000E+00 -0.00000000000E+00 -0.45593999997E+02  0.45594000000E+02  0.51100000000E-03 0. -1.
    9900012    2    1    2    0    0 -0.23617751495E+02  0.27813544640E+02 -0.23499613990E+02  0.47787270642E+02  0.19999998164E+02 0.  0.
        -12    1    1    2    0    0  0.23617751495E+02 -0.27813544640E+02  0.23499613990E+02  0.43400729358E+02  0.00000000000E+00 0.  1.
         11    1    3    3    0    0 -0.74602637592E+00 -0.68847116702E+00 -0.26450703732E+01  0.28331864467E+01  0.51100000000E-03 0. -1.
        -11    1    3    3    0    0 -0.32850902378E+01  0.81789080356E+00  0.21179837791E+01  0.39933217735E+01  0.51100000000E-03 0.  1.
         12    1    3    3    0    0 -0.19586634882E+02  0.27684125004E+02 -0.22972527396E+02  0.40960762422E+02  0.00000000000E+00 0. -1.
</event>
<event>
 7    1  0.1542786E-009  0.4778727E+02  0.7816164E-02  0.1312668E+00
        -11   -1    0    0    0    0  0.00000000000E+00  0.00000000000E+00  0.45593999997E+02  0.45594000000E+02  0.51100000000E-03 0.  1.
         11   -1    0    0    0    0 -0.00000000000E+00 -0.00000000000E+00 -0.45593999997E+02  0.45594000000E+02  0.51100000000E-03 0. -1.
    9900012    2    1    2    0    0  0.20685666553E+01  0.89884431601E+01 -0.42409340417E+02  0.47787271515E+02  0.20000002143E+02 0.  0.
        -12    1    1    2    0    0 -0.20685666553E+01 -0.89884431601E+01  0.42409340417E+02  0.43400728485E+02  0.00000000000E+00 0.  1.
         11    1    3    3    0    0  0.18337934797E+01  0.54319714327E+01 -0.99610756689E+01  0.11493134512E+02  0.51100000000E-03 0. -1.
        -11    1    3    3    0    0 -0.49143671042E+01 -0.16124627506E+01 -0.26147264712E+02  0.26653902010E+02  0.51100000000E-03 0.  1.
        -12    1    3    3    0    0  0.51491402798E+01  0.51689344780E+01 -0.63010000363E+01  0.96402349928E+01  0.00000000000E+00 0.  1.
</event>
<event>
 7    1  0.1542786E-009  0.4778727E+02  0.7816164E-02  0.1312668E+00
        -11   -1    0    0    0    0  0.00000000000E+00  0.00000000000E+00  0.45593999997E+02  0.45594000000E+02  0.51100000000E-03 0.  1.
         11   -1    0    0    0    0 -0.00000000000E+00 -0.00000000000E+00 -0.45593999997E+02  0.45594000000E+02  0.51100000000E-03 0. -1.
    9900012    2    1    2    0    0 -0.31362253746E+02  0.99313774121E+01 -0.28309010833E+02  0.47787270609E+02  0.19999998014E+02 0.  0.
        -12    1    1    2    0    0  0.31362253746E+02 -0.99313774121E+01  0.28309010833E+02  0.43400729391E+02  0.00000000000E+00 0.  1.
         11    1    3    3    0    0  0.82594850201E+00  0.11613895092E+01 -0.32303034790E+01  0.35307049363E+01  0.51100000000E-03 0. -1.
        -11    1    3    3    0    0 -0.18588038512E+02 -0.19365709925E+01 -0.94778352094E+01  0.20954590033E+02  0.51100000000E-03 0.  1.
         12    1    3    3    0    0 -0.13600163736E+02  0.10706558895E+02 -0.15600872145E+02  0.23301975640E+02  0.00000000000E+00 0. -1.
</event>
<event>
 7    1  0.1542786E-009  0.4778727E+02  0.7816164E-02  0.1312668E+00
        -11   -1    0    0    0    0  0.00000000000E+00  0.00000000000E+00  0.45593999997E+02  0.45594000000E+02  0.51100000000E-03 0.  1.
         11   -1    0    0    0    0 -0.00000000000E+00 -0.00000000000E+00 -0.45593999997E+02  0.45594000000E+02  0.51100000000E-03 0. -1.
    9900012    2    1    2    0    0 -0.42092393473E+02  0.25923185507E+01  0.10253458938E+02  0.47787272772E+02  0.20000007875E+02 0.  0.
        -12    1    1    2    0    0  0.42092393473E+02 -0.25923185507E+01 -0.10253458938E+02  0.43400727228E+02  0.00000000000E+00 0.  1.
         11    1    3    3    0    0 -0.93782729273E+01  0.25062180006E+01 -0.24422474180E+01  0.10009880343E+02  0.51100000000E-03 0. -1.
        -11    1    3    3    0    0 -0.80318737725E+01  0.55475894727E+01  0.67269605487E+00  0.97846443726E+01  0.51100000000E-03 0.  1.
        -12    1    3    3    0    0 -0.24682246773E+02 -0.54614889226E+01  0.12023010302E+02  0.27992748056E+02  0.00000000000E+00 0.  1.
</event>
<event>
 7    1  0.1542786E-009  0.4778727E+02  0.7816164E-02  0.1312668E+00
        -11   -1    0    0    0    0  0.00000000000E+00  0.00000000000E+00  0.45593999997E+02  0.45594000000E+02  0.51100000000E-03 0.  1.
         11   -1    0    0    0    0 -0.00000000000E+00 -0.00000000000E+00 -0.45593999997E+02  0.45594000000E+02  0.51100000000E-03 0. -1.
    9900012    2    1    2    0    0 -0.24307511618E+02 -0.31290563688E+02 -0.17710695962E+02  0.47787271338E+02  0.20000001337E+02 0.  0.
        -12    1    1    2    0    0  0.24307511618E+02  0.31290563688E+02  0.17710695962E+02  0.43400728662E+02  0.00000000000E+00 0.  1.
         11    1    3    3    0    0 -0.39785390372E+01 -0.14135179131E+02 -0.52187401509E+01  0.15584200684E+02  0.51100000000E-03 0. -1.
        -11    1    3    3    0    0 -0.89670585686E+01 -0.11139757956E+02 -0.33133493458E-01  0.14300470089E+02  0.51100000000E-03 0.  1.
         12    1    3    3    0    0 -0.11361914012E+02 -0.60156266009E+01 -0.12458822317E+02  0.17902600564E+02  0.00000000000E+00 0. -1.
</event>
<event>
 7    1  0.1542786E-009  0.4778727E+02  0.7816164E-02  0.1312668E+00
        -11   -1    0    0    0    0  0.00000000000E+00  0.00000000000E+00  0.45593999997E+02  0.45594000000E+02  0.51100000000E-03 0.  1.
         11   -1    0    0    0    0 -0.00000000000E+00 -0.00000000000E+00 -0.45593999997E+02  0.45594000000E+02  0.51100000000E-03 0. -1.
    9900012    2    1    2    0    0 -0.15633192473E+02 -0.31024885480E+02 -0.26013141304E+02  0.47787265600E+02  0.19999975178E+02 0.  0.
        -12    1    1    2    0    0  0.15633192473E+02  0.31024885480E+02  0.26013141304E+02  0.43400734400E+02  0.00000000000E+00 0.  1.
         11    1    3    3    0    0  0.68392915269E-01 -0.78127009350E+00 -0.21284122224E+01  0.22683031983E+01  0.51100000000E-03 0. -1.
        -11    1    3    3    0    0  0.17154213880E+01 -0.10937463004E+01  0.19758333570E+01  0.28359952792E+01  0.51100000000E-03 0.  1.
         12    1    3    3    0    0 -0.17417006776E+02 -0.29149869086E+02 -0.25860562438E+02  0.42682967123E+02  0.00000000000E+00 0. -1.
</event>
<event>
 7    1  0.1542786E-009  0.4778727E+02  0.7816164E-02  0.1312668E+00
        -11   -1    0    0    0    0  0.00000000000E+00  0.00000000000E+00  0.45593999997E+02  0.45594000000E+02  0.51100000000E-03 0.  1.
         11   -1    0    0    0    0 -0.00000000000E+00 -0.00000000000E+00 -0.45593999997E+02  0.45594000000E+02  0.51100000000E-03 0. -1.
    9900012    2    1    2    0    0  0.90555838484E+01  0.42093453181E+02  0.54553603512E+01  0.47787270097E+02  0.19999995682E+02 0.  0.
        -12    1    1    2    0    0 -0.90555838484E+01 -0.42093453181E+02 -0.54553603512E+01  0.43400729903E+02  0.00000000000E+00 0.  1.
         11    1    3    3    0    0  0.80977186621E+01  0.77559753249E+01  0.69416480886E+01  0.13187671486E+02  0.51100000000E-03 0. -1.
        -11    1    3    3    0    0  0.60895529508E+00  0.12806602157E+02  0.12981323947E+01  0.12886622262E+02  0.51100000000E-03 0.  1.
         12    1    3    3    0    0  0.34890989121E+00  0.21530875699E+02 -0.27844201322E+01  0.21712976350E+02  0.00000000000E+00 0. -1.
</event>
<event>
 7    1  0.1542786E-009  0.4778727E+02  0.7816164E-02  0.1312668E+00
        -11   -1    0    0    0    0  0.00000000000E+00  0.00000000000E+00  0.45593999997E+02  0.45594000000E+02  0.51100000000E-03 0.  1.
         11   -1    0    0    0    0 -0.00000000000E+00 -0.00000000000E+00 -0.45593999997E+02  0.45594000000E+02  0.51100000000E-03 0. -1.
    9900012    2    1    2    0    0 -0.31205715734E+01  0.43477684748E+01 -0.43069503860E+02  0.47787271661E+02  0.20000002810E+02 0.  0.
        -12    1    1    2    0    0  0.31205715734E+01 -0.43477684748E+01  0.43069503860E+02  0.43400728339E+02  0.00000000000E+00 0.  1.
         11    1    3    3    0    0 -0.48095071098E+01  0.10305305561E+02 -0.20321032843E+02  0.23286800068E+02  0.51100000000E-03 0. -1.
        -11    1    3    3    0    0 -0.21487463577E+01 -0.43484094211E+01 -0.13909060383E+02  0.14730503603E+02  0.51100000000E-03 0.  1.
        -12    1    3    3    0    0  0.38376818941E+01 -0.16091276649E+01 -0.88394106332E+01  0.97699679889E+01  0.00000000000E+00 0.  1.
</event>
<event>
 7    1  0.1542786E-009  0.4778725E+02  0.7816164E-02  0.1312668E+00
        -11   -1    0    0    0    0  0.00000000000E+00  0.00000000000E+00  0.45593999997E+02  0.45594000000E+02  0.51100000000E-03 0.  1.
         11   -1    0    0    0    0 -0.00000000000E+00 -0.00000000000E+00 -0.45593999997E+02  0.45594000000E+02  0.51100000000E-03 0. -1.
    9900012    2    1    2    0    0  0.29178241293E+01 -0.39126572018E+02 -0.18553241432E+02  0.47787249970E+02  0.19999903912E+02 0.  0.
        -12    1    1    2    0    0 -0.29178241293E+01  0.39126572018E+02  0.18553241432E+02  0.43400750030E+02  0.00000000000E+00 0.  1.
         11    1    3    3    0    0  0.27199291478E+01 -0.25007193433E+02 -0.82682529817E+01  0.26478703624E+02  0.51100000000E-03 0. -1.
        -11    1    3    3    0    0  0.30610039148E+00 -0.15634385686E+02 -0.59771546939E+01  0.16740791252E+02  0.51100000000E-03 0.  1.
         12    1    3    3    0    0 -0.10820540996E+00  0.15150071012E+01 -0.43078337562E+01  0.45677550940E+01  0.00000000000E+00 0. -1.
</event>
<event>
 7    1  0.1542786E-009  0.4778728E+02  0.7816164E-02  0.1312668E+00
        -11   -1    0    0    0    0  0.00000000000E+00  0.00000000000E+00  0.45593999997E+02  0.45594000000E+02  0.51100000000E-03 0.  1.
         11   -1    0    0    0    0 -0.00000000000E+00 -0.00000000000E+00 -0.45593999997E+02  0.45594000000E+02  0.51100000000E-03 0. -1.
    9900012    2    1    2    0    0 -0.41807933603E+02 -0.28618610124E+01 -0.11292878967E+02  0.47787277933E+02  0.20000031406E+02 0.  0.
        -12    1    1    2    0    0  0.41807933603E+02  0.28618610124E+01  0.11292878967E+02  0.43400722067E+02  0.00000000000E+00 0.  1.
         11    1    3    3    0    0 -0.30220491513E+02  0.42109476602E+01 -0.12482588428E+02  0.32967032041E+02  0.51100000000E-03 0. -1.
        -11    1    3    3    0    0 -0.11237771090E+02 -0.56382287210E+01 -0.49174331574E+00  0.12582485205E+02  0.51100000000E-03 0.  1.
        -12    1    3    3    0    0 -0.34967099985E+00 -0.14345799516E+01  0.16814527772E+01  0.22377606860E+01  0.00000000000E+00 0.  1.
</event>
<event>
 7    1  0.1542786E-009  0.4778727E+02  0.7816164E-02  0.1312668E+00
        -11   -1    0    0    0    0  0.00000000000E+00  0.00000000000E+00  0.45593999997E+02  0.45594000000E+02  0.51100000000E-03 0.  1.
         11   -1    0    0    0    0 -0.00000000000E+00 -0.00000000000E+00 -0.45593999997E+02  0.45594000000E+02  0.51100000000E-03 0. -1.
    9900012    2    1    2    0    0 -0.59198691578E+01 -0.56316597833E+01 -0.42624676994E+02  0.47787268075E+02  0.19999986461E+02 0.  0.
        -12    1    1    2    0    0  0.59198691578E+01  0.56316597833E+01  0.42624676994E+02  0.43400731925E+02  0.00000000000E+00 0.  1.
         11    1    3    3    0    0 -0.61964857603E+01 -0.74505874102E+01 -0.13258624945E+02  0.16422509681E+02  0.51100000000E-03 0. -1.
        -11    1    3    3    0    0  0.38161614893E+01 -0.31262719306E+01 -0.13503669296E+02  0.14376569459E+02  0.51100000000E-03 0.  1.
         12    1    3    3    0    0 -0.35395448868E+01  0.49451995575E+01 -0.15862382754E+02  0.16988188935E+02  0.00000000000E+00 0. -1.
</event>
<event>
 7    1  0.1542786E-009  0.4778727E+02  0.7816164E-02  0.1312668E+00
        -11   -1    0    0    0    0  0.00000000000E+00  0.00000000000E+00  0.45593999997E+02  0.45594000000E+02  0.51100000000E-03 0.  1.
         11   -1    0    0    0    0 -0.00000000000E+00 -0.00000000000E+00 -0.45593999997E+02  0.45594000000E+02  0.51100000000E-03 0. -1.
    9900012    2    1    2    0    0  0.36886205800E+02  0.13675815625E+02 -0.18330388898E+02  0.47787271106E+02  0.20000000282E+02 0.  0.
        -12    1    1    2    0    0 -0.36886205800E+02 -0.13675815625E+02  0.18330388898E+02  0.43400728894E+02  0.00000000000E+00 0.  1.
         11    1    3    3    0    0  0.98800793108E+00  0.22937786631E+01 -0.16744172325E+01  0.30068677318E+01  0.51100000000E-03 0. -1.
        -11    1    3    3    0    0 -0.16583444711E+01  0.17688583680E+01 -0.25701840824E+01  0.35333854572E+01  0.51100000000E-03 0.  1.
         12    1    3    3    0    0  0.37556542340E+02  0.96131785938E+01 -0.14085787583E+02  0.41247017917E+02  0.00000000000E+00 0. -1.
</event>
<event>
 7    1  0.1542786E-009  0.4778727E+02  0.7816164E-02  0.1312668E+00
        -11   -1    0    0    0    0  0.00000000000E+00  0.00000000000E+00  0.45593999997E+02  0.45594000000E+02  0.51100000000E-03 0.  1.
         11   -1    0    0    0    0 -0.00000000000E+00 -0.00000000000E+00 -0.45593999997E+02  0.45594000000E+02  0.51100000000E-03 0. -1.
    9900012    2    1    2    0    0 -0.25281894373E+02 -0.30274286179E+02 -0.18108461338E+02  0.47787274675E+02  0.20000016552E+02 0.  0.
        -12    1    1    2    0    0  0.25281894373E+02  0.30274286179E+02  0.18108461338E+02  0.43400725325E+02  0.00000000000E+00 0.  1.
         11    1    3    3    0    0 -0.25838938704E+02 -0.25145785012E+02 -0.11253320845E+02  0.37770338726E+02  0.51100000000E-03 0. -1.
        -11    1    3    3    0    0 -0.50706206072E+00 -0.58541494584E+01 -0.62982572648E+01  0.86137229262E+01  0.51100000000E-03 0.  1.
        -12    1    3    3    0    0  0.10641063915E+01  0.72564829152E+00 -0.55688322853E+00  0.14032130222E+01  0.00000000000E+00 0.  1.
</event>
<event>
 7    1  0.1542786E-009  0.4778727E+02  0.7816164E-02  0.1312668E+00
        -11   -1    0    0    0    0  0.00000000000E+00  0.00000000000E+00  0.45593999997E+02  0.45594000000E+02  0.51100000000E-03 0.  1.
         11   -1    0    0    0    0 -0.00000000000E+00 -0.00000000000E+00 -0.45593999997E+02  0.45594000000E+02  0.51100000000E-03 0. -1.
    9900012    2    1    2    0    0  0.19454437649E+02 -0.15723702461E+02 -0.35467071482E+02  0.47787272784E+02  0.20000007933E+02 0.  0.
        -12    1    1    2    0    0 -0.19454437649E+02  0.15723702461E+02  0.35467071482E+02  0.43400727216E+02  0.00000000000E+00 0.  1.
         11    1    3    3    0    0  0.45896984794E+01 -0.13952691230E+01 -0.14245339998E+02  0.15031361215E+02  0.51100000000E-03 0. -1.
        -11    1    3    3    0    0  0.27518753009E+01 -0.78468669333E+01 -0.10945133530E+01  0.83871388496E+01  0.51100000000E-03 0.  1.
         12    1    3    3    0    0  0.12112863869E+02 -0.64815664050E+01 -0.20127218131E+02  0.24368772719E+02  0.00000000000E+00 0. -1.
</event>
<event>
 7    1  0.1542786E-009  0.4778727E+02  0.7816164E-02  0.1312668E+00
        -11   -1    0    0    0    0  0.00000000000E+00  0.00000000000E+00  0.45593999997E+02  0.45594000000E+02  0.51100000000E-03 0.  1.
         11   -1    0    0    0    0 -0.00000000000E+00 -0.00000000000E+00 -0.45593999997E+02  0.45594000000E+02  0.51100000000E-03 0. -1.
    9900012    2    1    2    0    0 -0.74697634167E+01 -0.42579159785E+02 -0.38524074338E+01  0.47787271244E+02  0.20000000911E+02 0.  0.
        -12    1    1    2    0    0  0.74697634167E+01  0.42579159785E+02  0.38524074338E+01  0.43400728756E+02  0.00000000000E+00 0.  1.
         11    1    3    3    0    0 -0.15509553569E+01 -0.20876236580E+02 -0.48019218960E+01  0.21477457262E+02  0.51100000000E-03 0. -1.
        -11    1    3    3    0    0 -0.41293910584E+01 -0.20226071752E+02 -0.38312285316E+01  0.20995812948E+02  0.51100000000E-03 0.  1.
        -12    1    3    3    0    0 -0.17894170013E+01 -0.14768514526E+01  0.47807429938E+01  0.53140010341E+01  0.00000000000E+00 0.  1.
</event>
<event>
 7    1  0.1542786E-009  0.4778727E+02  0.7816164E-02  0.1312668E+00
        -11   -1    0    0    0    0  0.00000000000E+00  0.00000000000E+00  0.45593999997E+02  0.45594000000E+02  0.51100000000E-03 0.  1.
         11   -1    0    0    0    0 -0.00000000000E+00 -0.00000000000E+00 -0.45593999997E+02  0.45594000000E+02  0.51100000000E-03 0. -1.
    9900012    2    1    2    0    0 -0.70174504889E+01  0.29542946602E+02 -0.31009566269E+02  0.47787268376E+02  0.19999987832E+02 0.  0.
        -12    1    1    2    0    0  0.70174504889E+01 -0.29542946602E+02  0.31009566269E+02  0.43400731624E+02  0.00000000000E+00 0.  1.
         11    1    3    3    0    0  0.18852124565E+01  0.70079713435E+01 -0.14951700820E+02  0.16619838929E+02  0.51100000000E-03 0. -1.
        -11    1    3    3    0    0  0.12023034895E+01 -0.52054613811E+00 -0.18343500051E+01  0.22541832590E+01  0.51100000000E-03 0.  1.
         12    1    3    3    0    0 -0.10104966435E+02  0.23055521397E+02 -0.14223515445E+02  0.28913246188E+02  0.00000000000E+00 0. -1.
</event>
<event>
 7    1  0.1542786E-009  0.4778728E+02  0.7816164E-02  0.1312668E+00
        -11   -1    0    0    0    0  0.00000000000E+00  0.00000000000E+00  0.45593999997E+02  0.45594000000E+02  0.51100000000E-03 0. -1.
         11   -1    0    0    0    0 -0.00000000000E+00 -0.00000000000E+00 -0.45593999997E+02  0.45594000000E+02  0.51100000000E-03 0.  1.
    9900012    2    1    2    0    0 -0.23783590585E+02  0.28805510691E+02  0.22095388999E+02  0.47787276016E+02  0.20000022669E+02 0.  0.
        -12    1    1    2    0    0  0.23783590585E+02 -0.28805510691E+02 -0.22095388999E+02  0.43400723984E+02  0.00000000000E+00 0.  1.
         11    1    3    3    0    0 -0.12401332819E+02  0.76839623636E+01  0.40798104784E+01  0.15148636476E+02  0.51100000000E-03 0.  1.
        -11    1    3    3    0    0 -0.11172253993E+02  0.22073042544E+02  0.13833165875E+02  0.28344222424E+02  0.51100000000E-03 0. -1.
         12    1    3    3    0    0 -0.21000377307E+00 -0.95149421639E+00  0.41824126456E+01  0.42944171161E+01  0.00000000000E+00 0. -1.
</event>
<event>
 7    1  0.1542786E-009  0.4778727E+02  0.7816164E-02  0.1312668E+00
        -11   -1    0    0    0    0  0.00000000000E+00  0.00000000000E+00  0.45593999997E+02  0.45594000000E+02  0.51100000000E-03 0.  1.
         11   -1    0    0    0    0 -0.00000000000E+00 -0.00000000000E+00 -0.45593999997E+02  0.45594000000E+02  0.51100000000E-03 0. -1.
    9900012    2    1    2    0    0 -0.21837062773E+02  0.28190747621E+02 -0.24739595571E+02  0.47787272460E+02  0.20000006454E+02 0.  0.
        -12    1    1    2    0    0  0.21837062773E+02 -0.28190747621E+02  0.24739595571E+02  0.43400727540E+02  0.00000000000E+00 0.  1.
         11    1    3    3    0    0 -0.11380580009E+02  0.10076763131E+02 -0.68663163211E+01  0.16679480107E+02  0.51100000000E-03 0. -1.
        -11    1    3    3    0    0  0.38661287994E+00 -0.22950681187E+01 -0.12704149285E+01  0.26515583229E+01  0.51100000000E-03 0.  1.
         12    1    3    3    0    0 -0.10843095644E+02  0.20409052608E+02 -0.16602864322E+02  0.28456234030E+02  0.00000000000E+00 0. -1.
</event>
<event>
 7    1  0.1542786E-009  0.4778727E+02  0.7816164E-02  0.1312668E+00
        -11   -1    0    0    0    0  0.00000000000E+00  0.00000000000E+00  0.45593999997E+02  0.45594000000E+02  0.51100000000E-03 0.  1.
         11   -1    0    0    0    0 -0.00000000000E+00 -0.00000000000E+00 -0.45593999997E+02  0.45594000000E+02  0.51100000000E-03 0. -1.
    9900012    2    1    2    0    0 -0.66563540005E+00  0.19154592401E+02 -0.38939464588E+02  0.47787269788E+02  0.19999994270E+02 0.  0.
        -12    1    1    2    0    0  0.66563540005E+00 -0.19154592401E+02  0.38939464588E+02  0.43400730212E+02  0.00000000000E+00 0.  1.
         11    1    3    3    0    0 -0.48268636843E+01  0.90100004105E+01 -0.15486591773E+02  0.18555679600E+02  0.51100000000E-03 0. -1.
        -11    1    3    3    0    0 -0.39406309687E+01  0.35349472035E+01 -0.25861041548E+01  0.58917195388E+01  0.51100000000E-03 0.  1.
         12    1    3    3    0    0  0.81018592530E+01  0.66096447866E+01 -0.20866768661E+02  0.23339870649E+02  0.00000000000E+00 0. -1.
</event>
<event>
 7    1  0.1542786E-009  0.4778728E+02  0.7816164E-02  0.1312668E+00
        -11   -1    0    0    0    0  0.00000000000E+00  0.00000000000E+00  0.45593999997E+02  0.45594000000E+02  0.51100000000E-03 0.  1.
         11   -1    0    0    0    0 -0.00000000000E+00 -0.00000000000E+00 -0.45593999997E+02  0.45594000000E+02  0.51100000000E-03 0. -1.
    9900012    2    1    2    0    0 -0.18744788666E+02  0.26091081550E+02 -0.29180663188E+02  0.47787277165E+02  0.20000027904E+02 0.  0.
        -12    1    1    2    0    0  0.18744788666E+02 -0.26091081550E+02  0.29180663188E+02  0.43400722835E+02  0.00000000000E+00 0.  1.
         11    1    3    3    0    0  0.62605867282E-01  0.56147293049E+01 -0.11171911516E+02  0.12503627947E+02  0.51100000000E-03 0. -1.
        -11    1    3    3    0    0 -0.60884716047E+01  0.14904263902E+02 -0.69666868599E+01  0.17542556684E+02  0.51100000000E-03 0.  1.
         12    1    3    3    0    0 -0.12718922928E+02  0.55720883423E+01 -0.11042064812E+02  0.17741092533E+02  0.00000000000E+00 0. -1.
</event>
<event>
 7    1  0.1542786E-009  0.4778727E+02  0.7816164E-02  0.1312668E+00
        -11   -1    0    0    0    0  0.00000000000E+00  0.00000000000E+00  0.45593999997E+02  0.45594000000E+02  0.51100000000E-03 0.  1.
         11   -1    0    0    0    0 -0.00000000000E+00 -0.00000000000E+00 -0.45593999997E+02  0.45594000000E+02  0.51100000000E-03 0. -1.
    9900012    2    1    2    0    0  0.29387674785E+02  0.30239629504E+02  0.10273879658E+02  0.47787271607E+02  0.20000002564E+02 0.  0.
        -12    1    1    2    0    0 -0.29387674785E+02 -0.30239629504E+02 -0.10273879658E+02  0.43400728393E+02  0.00000000000E+00 0.  1.
         11    1    3    3    0    0  0.16235714560E+02  0.85536964207E+01  0.69444406289E+01  0.19621146899E+02  0.51100000000E-03 0. -1.
        -11    1    3    3    0    0  0.14490567987E+01  0.91126787663E+00 -0.30374091485E+01  0.34865497767E+01  0.51100000000E-03 0.  1.
         12    1    3    3    0    0  0.11702903427E+02  0.20774665207E+02  0.63668481773E+01  0.24679574931E+02  0.00000000000E+00 0. -1.
</event>
<event>
 7    1  0.1542786E-009  0.4778728E+02  0.7816164E-02  0.1312668E+00
        -11   -1    0    0    0    0  0.00000000000E+00  0.00000000000E+00  0.45593999997E+02  0.45594000000E+02  0.51100000000E-03 0. -1.
         11   -1    0    0    0    0 -0.00000000000E+00 -0.00000000000E+00 -0.45593999997E+02  0.45594000000E+02  0.51100000000E-03 0.  1.
    9900012    2    1    2    0    0 -0.37835902224E+02  0.90105666179E+01  0.19258168764E+02  0.47787275674E+02  0.20000021107E+02 0.  0.
        -12    1    1    2    0    0  0.37835902224E+02 -0.90105666179E+01 -0.19258168764E+02  0.43400724326E+02  0.00000000000E+00 0.  1.
         11    1    3    3    0    0 -0.98216794753E+00 -0.36353322971E+01  0.92600403782E+00  0.38778574660E+01  0.51100000000E-03 0. -1.
        -11    1    3    3    0    0 -0.11473817408E+02  0.53350094228E+01  0.18797260711E+01  0.12792348565E+02  0.51100000000E-03 0.  1.
         12    1    3    3    0    0 -0.25379916869E+02  0.73108894922E+01  0.16452438655E+02  0.31117069642E+02  0.00000000000E+00 0. -1.
</event>
<event>
 7    1  0.1542786E-009  0.4778727E+02  0.7816164E-02  0.1312668E+00
        -11   -1    0    0    0    0  0.00000000000E+00  0.00000000000E+00  0.45593999997E+02  0.45594000000E+02  0.51100000000E-03 0.  1.
         11   -1    0    0    0    0 -0.00000000000E+00 -0.00000000000E+00 -0.45593999997E+02  0.45594000000E+02  0.51100000000E-03 0. -1.
    9900012    2    1    2    0    0 -0.17724129446E+02 -0.49659789792E+00 -0.39613533051E+02  0.47787269881E+02  0.19999994693E+02 0.  0.
        -12    1    1    2    0    0  0.17724129446E+02  0.49659789792E+00  0.39613533051E+02  0.43400730119E+02  0.00000000000E+00 0.  1.
         11    1    3    3    0    0  0.17171222023E+00 -0.33860092816E+01 -0.43118128650E+01  0.54850956588E+01  0.51100000000E-03 0.  1.
        -11    1    3    3    0    0 -0.18069763789E+02 -0.17405707541E+01 -0.31284122820E+02  0.36169632163E+02  0.51100000000E-03 0. -1.
         12    1    3    3    0    0  0.17392212285E+00  0.46299821378E+01 -0.40175973662E+01  0.61325420584E+01  0.00000000000E+00 0. -1.
</event>
<event>
 7    1  0.1542786E-009  0.4778727E+02  0.7816164E-02  0.1312668E+00
        -11   -1    0    0    0    0  0.00000000000E+00  0.00000000000E+00  0.45593999997E+02  0.45594000000E+02  0.51100000000E-03 0.  1.
         11   -1    0    0    0    0 -0.00000000000E+00 -0.00000000000E+00 -0.45593999997E+02  0.45594000000E+02  0.51100000000E-03 0. -1.
    9900012    2    1    2    0    0 -0.39848405700E+02  0.75693383635E+01 -0.15441277484E+02  0.47787269932E+02  0.19999994929E+02 0.  0.
        -12    1    1    2    0    0  0.39848405700E+02 -0.75693383635E+01  0.15441277484E+02  0.43400730068E+02  0.00000000000E+00 0.  1.
         11    1    3    3    0    0 -0.82163613660E+01  0.10481792672E+01 -0.10263396687E+02  0.13188805317E+02  0.51100000000E-03 0.  1.
        -11    1    3    3    0    0 -0.27294111688E+02  0.71150525333E+01 -0.80858605429E+01  0.29342352434E+02  0.51100000000E-03 0. -1.
        -12    1    3    3    0    0 -0.43379326462E+01 -0.59389343700E+00  0.29079797462E+01  0.52561121812E+01  0.00000000000E+00 0.  1.
</event>
<event>
 7    1  0.1542786E-009  0.4778727E+02  0.7816164E-02  0.1312668E+00
        -11   -1    0    0    0    0  0.00000000000E+00  0.00000000000E+00  0.45593999997E+02  0.45594000000E+02  0.51100000000E-03 0.  1.
         11   -1    0    0    0    0 -0.00000000000E+00 -0.00000000000E+00 -0.45593999997E+02  0.45594000000E+02  0.51100000000E-03 0. -1.
    9900012    2    1    2    0    0  0.53742468242E+01  0.15014836308E+02 -0.40364533065E+02  0.47787269961E+02  0.19999995062E+02 0.  0.
        -12    1    1    2    0    0 -0.53742468242E+01 -0.15014836308E+02  0.40364533065E+02  0.43400730039E+02  0.00000000000E+00 0.  1.
         11    1    3    3    0    0  0.38160669886E+01  0.17384974723E+01 -0.18998229458E+02  0.19455525270E+02  0.51100000000E-03 0. -1.
        -11    1    3    3    0    0 -0.40563129454E+01  0.37486504526E+00 -0.24402821233E+01  0.47485972260E+01  0.51100000000E-03 0.  1.
        -12    1    3    3    0    0  0.56144927809E+01  0.12901473791E+02 -0.18926021484E+02  0.23583147466E+02  0.00000000000E+00 0.  1.
</event>
<event>
 7    1  0.1542786E-009  0.4778727E+02  0.7816164E-02  0.1312668E+00
        -11   -1    0    0    0    0  0.00000000000E+00  0.00000000000E+00  0.45593999997E+02  0.45594000000E+02  0.51100000000E-03 0.  1.
         11   -1    0    0    0    0 -0.00000000000E+00 -0.00000000000E+00 -0.45593999997E+02  0.45594000000E+02  0.51100000000E-03 0. -1.
    9900012    2    1    2    0    0  0.11170488109E+02 -0.22310351027E+02 -0.35511853374E+02  0.47787270771E+02  0.19999998753E+02 0.  0.
        -12    1    1    2    0    0 -0.11170488109E+02  0.22310351027E+02  0.35511853374E+02  0.43400729229E+02  0.00000000000E+00 0.  1.
         11    1    3    3    0    0  0.28577608657E+01 -0.13818380736E+02 -0.24013758147E+02  0.27852738177E+02  0.51100000000E-03 0. -1.
        -11    1    3    3    0    0  0.33973301657E+01 -0.95942935573E+01 -0.40748589077E+01  0.10963429960E+02  0.51100000000E-03 0.  1.
        -12    1    3    3    0    0  0.49153970776E+01  0.11023232659E+01 -0.74232363191E+01  0.89711026336E+01  0.00000000000E+00 0.  1.
</event>
<event>
 7    1  0.1542786E-009  0.4778727E+02  0.7816164E-02  0.1312668E+00
        -11   -1    0    0    0    0  0.00000000000E+00  0.00000000000E+00  0.45593999997E+02  0.45594000000E+02  0.51100000000E-03 0.  1.
         11   -1    0    0    0    0 -0.00000000000E+00 -0.00000000000E+00 -0.45593999997E+02  0.45594000000E+02  0.51100000000E-03 0. -1.
    9900012    2    1    2    0    0  0.51027926834E+01 -0.16933871393E+02 -0.39633688466E+02  0.47787265502E+02  0.19999974730E+02 0.  0.
        -12    1    1    2    0    0 -0.51027926834E+01  0.16933871393E+02  0.39633688466E+02  0.43400734498E+02  0.00000000000E+00 0.  1.
         11    1    3    3    0    0 -0.33007381111E+01 -0.11494131630E+01 -0.73182024726E+01  0.81100006404E+01  0.51100000000E-03 0.  1.
        -11    1    3    3    0    0  0.89642307784E+01 -0.19639515501E+01 -0.13542509703E+02  0.16358915259E+02  0.51100000000E-03 0. -1.
         12    1    3    3    0    0 -0.56069998386E+00 -0.13820506680E+02 -0.18772976290E+02  0.23318349602E+02  0.00000000000E+00 0. -1.
</event>
<event>
 7    1  0.1542786E-009  0.4778732E+02  0.7816164E-02  0.1312668E+00
        -11   -1    0    0    0    0  0.00000000000E+00  0.00000000000E+00  0.45593999997E+02  0.45594000000E+02  0.51100000000E-03 0. -1.
         11   -1    0    0    0    0 -0.00000000000E+00 -0.00000000000E+00 -0.45593999997E+02  0.45594000000E+02  0.51100000000E-03 0.  1.
    9900012    2    1    2    0    0  0.16927500754E+02 -0.39526462668E+02  0.58938762547E+01  0.47787316709E+02  0.20000208203E+02 0.  0.
        -12    1    1    2    0    0 -0.16927500754E+02  0.39526462668E+02 -0.58938762547E+01  0.43400683291E+02  0.00000000000E+00 0.  1.
         11    1    3    3    0    0  0.12045807380E+02 -0.13960706040E+02  0.91093250524E+01  0.20566540588E+02  0.51100000000E-03 0. -1.
        -11    1    3    3    0    0 -0.10078063012E+01 -0.10148217762E+01 -0.12455813442E+01  0.18965784783E+01  0.51100000000E-03 0.  1.
         12    1    3    3    0    0  0.58894996761E+01 -0.24550934851E+02 -0.19698674535E+01  0.25324197643E+02  0.00000000000E+00 0. -1.
</event>
<event>
 7    1  0.1542786E-009  0.4778731E+02  0.7816164E-02  0.1312668E+00
        -11   -1    0    0    0    0  0.00000000000E+00  0.00000000000E+00  0.45593999997E+02  0.45594000000E+02  0.51100000000E-03 0.  1.
         11   -1    0    0    0    0 -0.00000000000E+00 -0.00000000000E+00 -0.45593999997E+02  0.45594000000E+02  0.51100000000E-03 0. -1.
    9900012    2    1    2    0    0  0.14763488449E+02  0.25753318598E+02  0.31661113735E+02  0.47787307230E+02  0.20000164984E+02 0.  0.
        -12    1    1    2    0    0 -0.14763488449E+02 -0.25753318598E+02 -0.31661113735E+02  0.43400692770E+02  0.00000000000E+00 0.  1.
         11    1    3    3    0    0  0.25417399099E+01  0.59424728788E-01  0.22462786847E+01  0.33926009578E+01  0.51100000000E-03 0. -1.
        -11    1    3    3    0    0  0.86566528087E+00  0.14492990972E+02  0.23007054687E+02  0.27205159976E+02  0.51100000000E-03 0.  1.
         12    1    3    3    0    0  0.11356083259E+02  0.11200902897E+02  0.64077803625E+01  0.17189546296E+02  0.00000000000E+00 0. -1.
</event>
<event>
 7    1  0.1542786E-009  0.4778727E+02  0.7816164E-02  0.1312668E+00
        -11   -1    0    0    0    0  0.00000000000E+00  0.00000000000E+00  0.45593999997E+02  0.45594000000E+02  0.51100000000E-03 0.  1.
         11   -1    0    0    0    0 -0.00000000000E+00 -0.00000000000E+00 -0.45593999997E+02  0.45594000000E+02  0.51100000000E-03 0. -1.
    9900012    2    1    2    0    0 -0.21816256576E+02  0.12928291255E+02 -0.35221213832E+02  0.47787266486E+02  0.19999979218E+02 0.  0.
        -12    1    1    2    0    0  0.21816256576E+02 -0.12928291255E+02  0.35221213832E+02  0.43400733514E+02  0.00000000000E+00 0.  1.
         11    1    3    3    0    0 -0.78033793154E+00  0.78906943712E+01 -0.10901876168E+02  0.13480463241E+02  0.51100000000E-03 0. -1.
        -11    1    3    3    0    0 -0.13971882577E+02  0.80708837291E+01 -0.13522154099E+02  0.21052347106E+02  0.51100000000E-03 0.  1.
        -12    1    3    3    0    0 -0.70640360675E+01 -0.30332868450E+01 -0.10797183564E+02  0.13254456140E+02  0.00000000000E+00 0.  1.
</event>
<event>
 7    1  0.1542786E-009  0.4778727E+02  0.7816164E-02  0.1312668E+00
        -11   -1    0    0    0    0  0.00000000000E+00  0.00000000000E+00  0.45593999997E+02  0.45594000000E+02  0.51100000000E-03 0. -1.
         11   -1    0    0    0    0 -0.00000000000E+00 -0.00000000000E+00 -0.45593999997E+02  0.45594000000E+02  0.51100000000E-03 0.  1.
    9900012    2    1    2    0    0  0.18675372091E+02  0.38814804718E+02 -0.53164335872E+01  0.47787273576E+02  0.20000011542E+02 0.  0.
        -12    1    1    2    0    0 -0.18675372091E+02 -0.38814804718E+02  0.53164335872E+01  0.43400726424E+02  0.00000000000E+00 0.  1.
         11    1    3    3    0    0  0.11180287993E+02  0.19810714220E+02 -0.68535969826E+01  0.23757841429E+02  0.51100000000E-03 0. -1.
        -11    1    3    3    0    0  0.10443008035E+02  0.16587632279E+02  0.32179267014E+01  0.19863559952E+02  0.51100000000E-03 0.  1.
        -12    1    3    3    0    0 -0.29479239359E+01  0.24164582191E+01 -0.16807633060E+01  0.41658721952E+01  0.00000000000E+00 0.  1.
</event>
<event>
 7    1  0.1699399E-009  0.4778727E+02  0.7816164E-02  0.1312668E+00
        -11   -1    0    0    0    0  0.00000000000E+00  0.00000000000E+00  0.45593999997E+02  0.45594000000E+02  0.51100000000E-03 0.  1.
         11   -1    0    0    0    0 -0.00000000000E+00 -0.00000000000E+00 -0.45593999997E+02  0.45594000000E+02  0.51100000000E-03 0. -1.
    9900012    2    1    2    0    0  0.53294116507E+01 -0.24347366428E+02 -0.35530639990E+02  0.47787271221E+02  0.20000000803E+02 0.  0.
        -12    1    1    2    0    0 -0.53294116507E+01  0.24347366428E+02  0.35530639990E+02  0.43400728779E+02  0.00000000000E+00 0.  1.
         11    1    3    3    0    0  0.51550658699E+01 -0.16008983310E+02 -0.21652664215E+02  0.27417150082E+02  0.51100000000E-03 0. -1.
        -11    1    3    3    0    0 -0.48268867239E+01 -0.59903735622E+01 -0.12497108183E+02  0.14675187360E+02  0.51100000000E-03 0.  1.
        -12    1    3    3    0    0  0.50012325047E+01 -0.23480095552E+01 -0.13808675924E+01  0.56949337788E+01  0.00000000000E+00 0.  1.
</event>
<event>
 7    1  0.1542786E-009  0.4778727E+02  0.7816164E-02  0.1312668E+00
        -11   -1    0    0    0    0  0.00000000000E+00  0.00000000000E+00  0.45593999997E+02  0.45594000000E+02  0.51100000000E-03 0. -1.
         11   -1    0    0    0    0 -0.00000000000E+00 -0.00000000000E+00 -0.45593999997E+02  0.45594000000E+02  0.51100000000E-03 0.  1.
    9900012    2    1    2    0    0  0.17331257055E+02  0.14327426224E+01  0.39764281737E+02  0.47787270460E+02  0.19999997334E+02 0.  0.
        -12    1    1    2    0    0 -0.17331257055E+02 -0.14327426224E+01 -0.39764281737E+02  0.43400729540E+02  0.00000000000E+00 0.  1.
         11    1    3    3    0    0  0.38392336539E+00 -0.28142858061E+01  0.55924735174E+01  0.62724287204E+01  0.51100000000E-03 0. -1.
        -11    1    3    3    0    0  0.14159018500E+02  0.89620236942E+01  0.18738059644E+02  0.25137831113E+02  0.51100000000E-03 0.  1.
        -12    1    3    3    0    0  0.27883151901E+01 -0.47149952657E+01  0.15433748576E+02  0.16377010626E+02  0.00000000000E+00 0.  1.
</event>
<event>
 7    1  0.1565988E-009  0.4778727E+02  0.7816164E-02  0.1312668E+00
        -11   -1    0    0    0    0  0.00000000000E+00  0.00000000000E+00  0.45593999997E+02  0.45594000000E+02  0.51100000000E-03 0. -1.
         11   -1    0    0    0    0 -0.00000000000E+00 -0.00000000000E+00 -0.45593999997E+02  0.45594000000E+02  0.51100000000E-03 0.  1.
    9900012    2    1    2    0    0  0.18200330912E+02  0.15286021897E+02  0.36314032358E+02  0.47787268937E+02  0.19999990391E+02 0.  0.
        -12    1    1    2    0    0 -0.18200330912E+02 -0.15286021897E+02 -0.36314032358E+02  0.43400731063E+02  0.00000000000E+00 0.  1.
         11    1    3    3    0    0  0.10196366403E+02  0.59237736775E+01  0.20150605925E+02  0.23347460286E+02  0.51100000000E-03 0. -1.
        -11    1    3    3    0    0  0.98913251171E+01  0.20388040558E+01  0.12400239152E+02  0.15992528438E+02  0.51100000000E-03 0.  1.
        -12    1    3    3    0    0 -0.18873606082E+01  0.73234441638E+01  0.37631872806E+01  0.84472802128E+01  0.00000000000E+00 0.  1.
</event>
<event>
 7    1  0.1542786E-009  0.4778722E+02  0.7816164E-02  0.1312668E+00
        -11   -1    0    0    0    0  0.00000000000E+00  0.00000000000E+00  0.45593999997E+02  0.45594000000E+02  0.51100000000E-03 0.  1.
         11   -1    0    0    0    0 -0.00000000000E+00 -0.00000000000E+00 -0.45593999997E+02  0.45594000000E+02  0.51100000000E-03 0. -1.
    9900012    2    1    2    0    0 -0.31234807041E+02 -0.24833431620E+02 -0.17067965292E+02  0.47787217333E+02  0.19999755108E+02 0.  0.
        -12    1    1    2    0    0  0.31234807041E+02  0.24833431620E+02  0.17067965292E+02  0.43400782667E+02  0.00000000000E+00 0.  1.
         11    1    3    3    0    0 -0.20403718508E+02 -0.14572219439E+02 -0.12829123160E+02  0.28164653551E+02  0.51100000000E-03 0. -1.
        -11    1    3    3    0    0 -0.96190521320E+01 -0.11500364634E+02  0.54073502625E-01  0.14992914154E+02  0.51100000000E-03 0.  1.
         12    1    3    3    0    0 -0.12120364006E+01  0.12391524524E+01 -0.42929156345E+01  0.46296496283E+01  0.00000000000E+00 0. -1.
</event>
<event>
 7    1  0.1542786E-009  0.4778728E+02  0.7816164E-02  0.1312668E+00
        -11   -1    0    0    0    0  0.00000000000E+00  0.00000000000E+00  0.45593999997E+02  0.45594000000E+02  0.51100000000E-03 0. -1.
         11   -1    0    0    0    0 -0.00000000000E+00 -0.00000000000E+00 -0.45593999997E+02  0.45594000000E+02  0.51100000000E-03 0.  1.
    9900012    2    1    2    0    0 -0.25362055018E+02 -0.26321854249E+02  0.23399758468E+02  0.47787279474E+02  0.20000038433E+02 0.  0.
        -12    1    1    2    0    0  0.25362055018E+02  0.26321854249E+02 -0.23399758468E+02  0.43400720526E+02  0.00000000000E+00 0.  1.
         11    1    3    3    0    0 -0.23409739422E+02 -0.11743724473E+02  0.13399988234E+02  0.29419222444E+02  0.51100000000E-03 0. -1.
        -11    1    3    3    0    0  0.81046653756E+00 -0.10338123168E+01  0.20121235699E+01  0.24029701281E+01  0.51100000000E-03 0.  1.
         12    1    3    3    0    0 -0.27627821336E+01 -0.13544317459E+02  0.79876466645E+01  0.15965086902E+02  0.00000000000E+00 0. -1.
</event>
<event>
 7    1  0.1542786E-009  0.4778727E+02  0.7816164E-02  0.1312668E+00
        -11   -1    0    0    0    0  0.00000000000E+00  0.00000000000E+00  0.45593999997E+02  0.45594000000E+02  0.51100000000E-03 0. -1.
         11   -1    0    0    0    0 -0.00000000000E+00 -0.00000000000E+00 -0.45593999997E+02  0.45594000000E+02  0.51100000000E-03 0.  1.
    9900012    2    1    2    0    0  0.30671779210E+02  0.25827991145E+02  0.16606629677E+02  0.47787270562E+02  0.19999997801E+02 0.  0.
        -12    1    1    2    0    0 -0.30671779210E+02 -0.25827991145E+02 -0.16606629677E+02  0.43400729438E+02  0.00000000000E+00 0.  1.
         11    1    3    3    0    0  0.89275267974E+01  0.15049249542E+01  0.16589153920E+01  0.92042128602E+01  0.51100000000E-03 0. -1.
        -11    1    3    3    0    0  0.26955563077E+01 -0.48447327488E-01  0.56875004989E+01  0.62941268766E+01  0.51100000000E-03 0.  1.
         12    1    3    3    0    0  0.19048696105E+02  0.24371513518E+02  0.92602137860E+01  0.32288930825E+02  0.00000000000E+00 0. -1.
</event>
<event>
 7    1  0.1542786E-009  0.4778727E+02  0.7816164E-02  0.1312668E+00
        -11   -1    0    0    0    0  0.00000000000E+00  0.00000000000E+00  0.45593999997E+02  0.45594000000E+02  0.51100000000E-03 0.  1.
         11   -1    0    0    0    0 -0.00000000000E+00 -0.00000000000E+00 -0.45593999997E+02  0.45594000000E+02  0.51100000000E-03 0. -1.
    9900012    2    1    2    0    0  0.21639641949E+01  0.33561479601E+02 -0.27432965581E+02  0.47787271267E+02  0.20000001013E+02 0.  0.
        -12    1    1    2    0    0 -0.21639641949E+01 -0.33561479601E+02  0.27432965581E+02  0.43400728733E+02  0.00000000000E+00 0.  1.
         11    1    3    3    0    0 -0.40362899396E+01  0.36894311854E+01 -0.12498983317E+01  0.56094371419E+01  0.51100000000E-03 0.  1.
        -11    1    3    3    0    0 -0.29280579014E+01  0.13081463264E+02 -0.70963801531E+01  0.15167623932E+02  0.51100000000E-03 0. -1.
         12    1    3    3    0    0  0.91283120360E+01  0.16790585152E+02 -0.19086687096E+02  0.27010210193E+02  0.00000000000E+00 0. -1.
</event>
<event>
 7    1  0.1542786E-009  0.4778727E+02  0.7816164E-02  0.1312668E+00
        -11   -1    0    0    0    0  0.00000000000E+00  0.00000000000E+00  0.45593999997E+02  0.45594000000E+02  0.51100000000E-03 0.  1.
         11   -1    0    0    0    0 -0.00000000000E+00 -0.00000000000E+00 -0.45593999997E+02  0.45594000000E+02  0.51100000000E-03 0. -1.
    9900012    2    1    2    0    0  0.58995996911E+01 -0.53972460377E+01 -0.42657802085E+02  0.47787267057E+02  0.19999981818E+02 0.  0.
        -12    1    1    2    0    0 -0.58995996911E+01  0.53972460377E+01  0.42657802085E+02  0.43400732943E+02  0.00000000000E+00 0.  1.
         11    1    3    3    0    0  0.41070460472E+00  0.65824921079E+01 -0.18111659503E+02  0.19275115845E+02  0.51100000000E-03 0. -1.
        -11    1    3    3    0    0 -0.18591024384E+00 -0.67680303780E+01 -0.10558877757E+02  0.12543153414E+02  0.51100000000E-03 0.  1.
        -12    1    3    3    0    0  0.56748053302E+01 -0.52117077675E+01 -0.13987264824E+02  0.15968997798E+02  0.00000000000E+00 0.  1.
</event>
<event>
 7    1  0.1542786E-009  0.4778726E+02  0.7816164E-02  0.1312668E+00
        -11   -1    0    0    0    0  0.00000000000E+00  0.00000000000E+00  0.45593999997E+02  0.45594000000E+02  0.51100000000E-03 0.  1.
         11   -1    0    0    0    0 -0.00000000000E+00 -0.00000000000E+00 -0.45593999997E+02  0.45594000000E+02  0.51100000000E-03 0. -1.
    9900012    2    1    2    0    0 -0.43207780982E+02 -0.37421768458E+01  0.16455472521E+01  0.47787262095E+02  0.19999959198E+02 0.  0.
        -12    1    1    2    0    0  0.43207780982E+02  0.37421768458E+01 -0.16455472521E+01  0.43400737905E+02  0.00000000000E+00 0.  1.
         11    1    3    3    0    0 -0.23329619658E+02 -0.46711165692E+01 -0.15659028609E+01  0.23844129999E+02  0.51100000000E-03 0. -1.
        -11    1    3    3    0    0 -0.18469701777E+02  0.52272870212E+01  0.28485143611E+01  0.19405371619E+02  0.51100000000E-03 0.  1.
        -12    1    3    3    0    0 -0.14084595461E+01 -0.42983472978E+01  0.36293575188E+00  0.45377604769E+01  0.00000000000E+00 0.  1.
</event>
<event>
 7    1  0.1542786E-009  0.4778727E+02  0.7816164E-02  0.1312668E+00
        -11   -1    0    0    0    0  0.00000000000E+00  0.00000000000E+00  0.45593999997E+02  0.45594000000E+02  0.51100000000E-03 0. -1.
         11   -1    0    0    0    0 -0.00000000000E+00 -0.00000000000E+00 -0.45593999997E+02  0.45594000000E+02  0.51100000000E-03 0.  1.
    9900012    2    1    2    0    0 -0.15744151250E+02  0.32003168862E-01  0.40444337992E+02  0.47787265002E+02  0.19999972450E+02 0.  0.
        -12    1    1    2    0    0  0.15744151250E+02 -0.32003168862E-01 -0.40444337992E+02  0.43400734998E+02  0.00000000000E+00 0.  1.
         11    1    3    3    0    0 -0.10264763420E+02  0.24883559608E+01  0.19643317712E+02  0.22302852160E+02  0.51100000000E-03 0. -1.
        -11    1    3    3    0    0 -0.79503844037E+01 -0.54677769829E+01  0.18737826115E+02  0.21076321431E+02  0.51100000000E-03 0.  1.
        -12    1    3    3    0    0  0.24709965740E+01  0.30114241909E+01  0.20631941646E+01  0.44080914109E+01  0.00000000000E+00 0.  1.
</event>
<event>
 7    1  0.1542786E-009  0.4778727E+02  0.7816164E-02  0.1312668E+00
        -11   -1    0    0    0    0  0.00000000000E+00  0.00000000000E+00  0.45593999997E+02  0.45594000000E+02  0.51100000000E-03 0. -1.
         11   -1    0    0    0    0 -0.00000000000E+00 -0.00000000000E+00 -0.45593999997E+02  0.45594000000E+02  0.51100000000E-03 0.  1.
    9900012    2    1    2    0    0 -0.27389110139E+02  0.18033630678E+02  0.28429708223E+02  0.47787268448E+02  0.19999988162E+02 0.  0.
        -12    1    1    2    0    0  0.27389110139E+02 -0.18033630678E+02 -0.28429708223E+02  0.43400731552E+02  0.00000000000E+00 0.  1.
         11    1    3    3    0    0  0.13191827708E+01  0.17165800835E+01  0.82791121925E+01  0.85574873253E+01  0.51100000000E-03 0. -1.
        -11    1    3    3    0    0 -0.11031740530E+02  0.96954273687E+01  0.10295155417E+02  0.17935741867E+02  0.51100000000E-03 0.  1.
         12    1    3    3    0    0 -0.17676552379E+02  0.66216232253E+01  0.98554406135E+01  0.21294039256E+02  0.00000000000E+00 0. -1.
</event>
<event>
 7    1  0.1542786E-009  0.4778727E+02  0.7816164E-02  0.1312668E+00
        -11   -1    0    0    0    0  0.00000000000E+00  0.00000000000E+00  0.45593999997E+02  0.45594000000E+02  0.51100000000E-03 0. -1.
         11   -1    0    0    0    0 -0.00000000000E+00 -0.00000000000E+00 -0.45593999997E+02  0.45594000000E+02  0.51100000000E-03 0.  1.
    9900012    2    1    2    0    0  0.31023777051E+02 -0.26387744946E+02  0.14994510564E+02  0.47787272208E+02  0.20000005303E+02 0.  0.
        -12    1    1    2    0    0 -0.31023777051E+02  0.26387744946E+02 -0.14994510564E+02  0.43400727792E+02  0.00000000000E+00 0.  1.
         11    1    3    3    0    0 -0.55258222543E+00 -0.32045492344E+01 -0.10181891214E+01  0.34075199573E+01  0.51100000000E-03 0. -1.
        -11    1    3    3    0    0  0.18891244062E+02 -0.59084898872E+01  0.96666744158E+01  0.22028026454E+02  0.51100000000E-03 0.  1.
         12    1    3    3    0    0  0.12685115215E+02 -0.17274705824E+02  0.63460252701E+01  0.22351725796E+02  0.00000000000E+00 0. -1.
</event>
<event>
 7    1  0.1542786E-009  0.4778727E+02  0.7816164E-02  0.1312668E+00
        -11   -1    0    0    0    0  0.00000000000E+00  0.00000000000E+00  0.45593999997E+02  0.45594000000E+02  0.51100000000E-03 0. -1.
         11   -1    0    0    0    0 -0.00000000000E+00 -0.00000000000E+00 -0.45593999997E+02  0.45594000000E+02  0.51100000000E-03 0.  1.
    9900012    2    1    2    0    0  0.22582076414E+02  0.31379867712E+02 -0.19722492106E+02  0.47787274572E+02  0.20000016085E+02 0.  0.
        -12    1    1    2    0    0 -0.22582076414E+02 -0.31379867712E+02  0.19722492106E+02  0.43400725428E+02  0.00000000000E+00 0.  1.
         11    1    3    3    0    0  0.32563327975E+01  0.96552676551E+01  0.16192026535E+01  0.10317447081E+02  0.51100000000E-03 0. -1.
        -11    1    3    3    0    0  0.19250992629E+01  0.30217436511E+01 -0.77393584795E+01  0.85284589347E+01  0.51100000000E-03 0.  1.
         12    1    3    3    0    0  0.17400644353E+02  0.18702856406E+02 -0.13602336280E+02  0.28941368556E+02  0.00000000000E+00 0. -1.
</event>
<event>
 7    1  0.1542786E-009  0.4778727E+02  0.7816164E-02  0.1312668E+00
        -11   -1    0    0    0    0  0.00000000000E+00  0.00000000000E+00  0.45593999997E+02  0.45594000000E+02  0.51100000000E-03 0.  1.
         11   -1    0    0    0    0 -0.00000000000E+00 -0.00000000000E+00 -0.45593999997E+02  0.45594000000E+02  0.51100000000E-03 0. -1.
    9900012    2    1    2    0    0 -0.18077886939E+02 -0.25859515804E+02 -0.29800986922E+02  0.47787269876E+02  0.19999994673E+02 0.  0.
        -12    1    1    2    0    0  0.18077886939E+02  0.25859515804E+02  0.29800986922E+02  0.43400730124E+02  0.00000000000E+00 0.  1.
         11    1    3    3    0    0 -0.87017682673E+01 -0.21089354941E+02 -0.20548960537E+02  0.30704094877E+02  0.51100000000E-03 0. -1.
        -11    1    3    3    0    0  0.11696675856E+00 -0.21641123287E+01  0.13989883021E+01  0.25795797961E+01  0.51100000000E-03 0.  1.
         12    1    3    3    0    0 -0.94930854303E+01 -0.26060485338E+01 -0.10651014687E+02  0.14503595203E+02  0.00000000000E+00 0. -1.
</event>
<event>
 7    1  0.1542786E-009  0.4778727E+02  0.7816164E-02  0.1312668E+00
        -11   -1    0    0    0    0  0.00000000000E+00  0.00000000000E+00  0.45593999997E+02  0.45594000000E+02  0.51100000000E-03 0.  1.
         11   -1    0    0    0    0 -0.00000000000E+00 -0.00000000000E+00 -0.45593999997E+02  0.45594000000E+02  0.51100000000E-03 0. -1.
    9900012    2    1    2    0    0  0.10794891224E+02 -0.39100337306E+02 -0.15435584058E+02  0.47787270637E+02  0.19999998142E+02 0.  0.
        -12    1    1    2    0    0 -0.10794891224E+02  0.39100337306E+02  0.15435584058E+02  0.43400729363E+02  0.00000000000E+00 0.  1.
         11    1    3    3    0    0  0.11882210876E+01 -0.28484078635E+02 -0.59373926335E+01  0.29120563810E+02  0.51100000000E-03 0. -1.
        -11    1    3    3    0    0  0.29633151451E+01  0.63840659211E-01 -0.10015422166E+00  0.29656944226E+01  0.51100000000E-03 0.  1.
        -12    1    3    3    0    0  0.66433549918E+01 -0.10680099330E+02 -0.93980372032E+01  0.15701012405E+02  0.00000000000E+00 0.  1.
</event>
<event>
 7    1  0.1542786E-009  0.4778727E+02  0.7816164E-02  0.1312668E+00
        -11   -1    0    0    0    0  0.00000000000E+00  0.00000000000E+00  0.45593999997E+02  0.45594000000E+02  0.51100000000E-03 0.  1.
         11   -1    0    0    0    0 -0.00000000000E+00 -0.00000000000E+00 -0.45593999997E+02  0.45594000000E+02  0.51100000000E-03 0. -1.
    9900012    2    1    2    0    0  0.16682803023E+02 -0.23380847856E+02 -0.32536802869E+02  0.47787268392E+02  0.19999987905E+02 0.  0.
        -12    1    1    2    0    0 -0.16682803023E+02  0.23380847856E+02  0.32536802869E+02  0.43400731608E+02  0.00000000000E+00 0.  1.
         11    1    3    3    0    0  0.88153696531E+01 -0.13160027456E+02 -0.19919380236E+02  0.25449533866E+02  0.51100000000E-03 0. -1.
        -11    1    3    3    0    0  0.95582903764E+01 -0.16634205670E+01 -0.69760217551E+01  0.11949592574E+02  0.51100000000E-03 0.  1.
        -12    1    3    3    0    0 -0.16908570066E+01 -0.85573998336E+01 -0.56414008783E+01  0.10388141951E+02  0.00000000000E+00 0.  1.
</event>
<event>
 7    1  0.1542786E-009  0.4778726E+02  0.7816164E-02  0.1312668E+00
        -11   -1    0    0    0    0  0.00000000000E+00  0.00000000000E+00  0.45593999997E+02  0.45594000000E+02  0.51100000000E-03 0.  1.
         11   -1    0    0    0    0 -0.00000000000E+00 -0.00000000000E+00 -0.45593999997E+02  0.45594000000E+02  0.51100000000E-03 0. -1.
    9900012    2    1    2    0    0 -0.33721411648E+02  0.25210798800E+02  0.10531201082E+02  0.47787260653E+02  0.19999952621E+02 0.  0.
        -12    1    1    2    0    0  0.33721411648E+02 -0.25210798800E+02 -0.10531201082E+02  0.43400739347E+02  0.00000000000E+00 0.  1.
         11    1    3    3    0    0  0.54637667230E+00  0.12083920702E+01 -0.17146968135E+01  0.21677002299E+01  0.51100000000E-03 0. -1.
        -11    1    3    3    0    0 -0.20078426693E+02  0.21661903149E+02  0.74686996922E+01  0.30465763438E+02  0.51100000000E-03 0.  1.
         12    1    3    3    0    0 -0.14189361627E+02  0.23405035803E+01  0.47771982034E+01  0.15153796985E+02  0.00000000000E+00 0. -1.
</event>
<event>
 7    1  0.1542786E-009  0.4778727E+02  0.7816164E-02  0.1312668E+00
        -11   -1    0    0    0    0  0.00000000000E+00  0.00000000000E+00  0.45593999997E+02  0.45594000000E+02  0.51100000000E-03 0. -1.
         11   -1    0    0    0    0 -0.00000000000E+00 -0.00000000000E+00 -0.45593999997E+02  0.45594000000E+02  0.51100000000E-03 0.  1.
    9900012    2    1    2    0    0 -0.10652230429E+02 -0.32483546955E+02  0.26738971716E+02  0.47787269081E+02  0.19999991049E+02 0.  0.
        -12    1    1    2    0    0  0.10652230429E+02  0.32483546955E+02 -0.26738971716E+02  0.43400730919E+02  0.00000000000E+00 0.  1.
         11    1    3    3    0    0 -0.30060913368E+01 -0.23803637689E+02  0.18487309510E+02  0.30289112987E+02  0.51100000000E-03 0. -1.
        -11    1    3    3    0    0 -0.55626093351E+01 -0.10844349256E+02  0.77741310468E+01  0.14456128361E+02  0.51100000000E-03 0.  1.
         12    1    3    3    0    0 -0.20835297570E+01  0.21644399906E+01  0.47753115928E+00  0.30420277331E+01  0.00000000000E+00 0. -1.
</event>
<event>
 7    1  0.1542786E-009  0.4778727E+02  0.7816164E-02  0.1312668E+00
        -11   -1    0    0    0    0  0.00000000000E+00  0.00000000000E+00  0.45593999997E+02  0.45594000000E+02  0.51100000000E-03 0.  1.
         11   -1    0    0    0    0 -0.00000000000E+00 -0.00000000000E+00 -0.45593999997E+02  0.45594000000E+02  0.51100000000E-03 0. -1.
    9900012    2    1    2    0    0  0.42265781647E+01 -0.28335679845E+02 -0.32601355683E+02  0.47787272960E+02  0.20000008734E+02 0.  0.
        -12    1    1    2    0    0 -0.42265781647E+01  0.28335679845E+02  0.32601355683E+02  0.43400727040E+02  0.00000000000E+00 0.  1.
         11    1    3    3    0    0  0.46212562704E+01 -0.54718748192E+01 -0.12985491662E+02  0.14829714007E+02  0.51100000000E-03 0. -1.
        -11    1    3    3    0    0  0.57390159811E+01 -0.96944766312E+01 -0.49208432078E+01  0.12293652009E+02  0.51100000000E-03 0.  1.
         12    1    3    3    0    0 -0.61336940868E+01 -0.13169328394E+02 -0.14695020813E+02  0.20663906944E+02  0.00000000000E+00 0. -1.
</event>
<event>
 7    1  0.1542786E-009  0.4778727E+02  0.7816164E-02  0.1312668E+00
        -11   -1    0    0    0    0  0.00000000000E+00  0.00000000000E+00  0.45593999997E+02  0.45594000000E+02  0.51100000000E-03 0.  1.
         11   -1    0    0    0    0 -0.00000000000E+00 -0.00000000000E+00 -0.45593999997E+02  0.45594000000E+02  0.51100000000E-03 0. -1.
    9900012    2    1    2    0    0 -0.29954559688E+02 -0.23636373617E+02 -0.20680178142E+02  0.47787267612E+02  0.19999984348E+02 0.  0.
        -12    1    1    2    0    0  0.29954559688E+02  0.23636373617E+02  0.20680178142E+02  0.43400732388E+02  0.00000000000E+00 0.  1.
         11    1    3    3    0    0 -0.58404782698E+00  0.80205155363E+00 -0.90524552016E+00  0.13430816326E+01  0.51100000000E-03 0. -1.
        -11    1    3    3    0    0 -0.12572221789E+02 -0.20181489370E+02 -0.16140349919E+02  0.28737852558E+02  0.51100000000E-03 0.  1.
         12    1    3    3    0    0 -0.16798290073E+02 -0.42569358002E+01 -0.36345827028E+01  0.17706333420E+02  0.00000000000E+00 0. -1.
</event>
<event>
 7    1  0.1542786E-009  0.4778727E+02  0.7816164E-02  0.1312668E+00
        -11   -1    0    0    0    0  0.00000000000E+00  0.00000000000E+00  0.45593999997E+02  0.45594000000E+02  0.51100000000E-03 0.  1.
         11   -1    0    0    0    0 -0.00000000000E+00 -0.00000000000E+00 -0.45593999997E+02  0.45594000000E+02  0.51100000000E-03 0. -1.
    9900012    2    1    2    0    0  0.51489053005E+01  0.30679241957E+02 -0.30263775208E+02  0.47787271865E+02  0.20000003741E+02 0.  0.
        -12    1    1    2    0    0 -0.51489053005E+01 -0.30679241957E+02  0.30263775208E+02  0.43400728135E+02  0.00000000000E+00 0.  1.
         11    1    3    3    0    0  0.25200222908E+00  0.14190213270E+02 -0.23363014601E+01  0.14383461424E+02  0.51100000000E-03 0. -1.
        -11    1    3    3    0    0 -0.11079958061E+01  0.59329539539E+01 -0.11334927370E+02  0.12841657840E+02  0.51100000000E-03 0.  1.
        -12    1    3    3    0    0  0.60048988775E+01  0.10556074733E+02 -0.16592546377E+02  0.20562152601E+02  0.00000000000E+00 0.  1.
</event>
<event>
 7    1  0.1542786E-009  0.4778727E+02  0.7816164E-02  0.1312668E+00
        -11   -1    0    0    0    0  0.00000000000E+00  0.00000000000E+00  0.45593999997E+02  0.45594000000E+02  0.51100000000E-03 0.  1.
         11   -1    0    0    0    0 -0.00000000000E+00 -0.00000000000E+00 -0.45593999997E+02  0.45594000000E+02  0.51100000000E-03 0. -1.
    9900012    2    1    2    0    0 -0.20329191206E+02 -0.25510529320E+01 -0.38260155648E+02  0.47787269634E+02  0.19999993569E+02 0.  0.
        -12    1    1    2    0    0  0.20329191206E+02  0.25510529320E+01  0.38260155648E+02  0.43400730366E+02  0.00000000000E+00 0.  1.
         11    1    3    3    0    0 -0.15968500029E+02 -0.37249775951E+01 -0.35877633823E+02  0.39447091911E+02  0.51100000000E-03 0. -1.
        -11    1    3    3    0    0 -0.11884442490E+01 -0.27194893305E+01 -0.98927360232E+00  0.31283677010E+01  0.51100000000E-03 0.  1.
         12    1    3    3    0    0 -0.31722469274E+01  0.38934139935E+01 -0.13932482223E+01  0.52118100217E+01  0.00000000000E+00 0. -1.
</event>
<event>
 7    1  0.1542786E-009  0.4778726E+02  0.7816164E-02  0.1312668E+00
        -11   -1    0    0    0    0  0.00000000000E+00  0.00000000000E+00  0.45593999997E+02  0.45594000000E+02  0.51100000000E-03 0.  1.
         11   -1    0    0    0    0 -0.00000000000E+00 -0.00000000000E+00 -0.45593999997E+02  0.45594000000E+02  0.51100000000E-03 0. -1.
    9900012    2    1    2    0    0 -0.12496739787E+01  0.34947066764E+02 -0.25705347107E+02  0.47787262329E+02  0.19999960265E+02 0.  0.
        -12    1    1    2    0    0  0.12496739787E+01 -0.34947066764E+02  0.25705347107E+02  0.43400737671E+02  0.00000000000E+00 0.  1.
         11    1    3    3    0    0  0.81838258173E+01  0.11701838224E+02 -0.10151665789E+02  0.17520397866E+02  0.51100000000E-03 0. -1.
        -11    1    3    3    0    0 -0.28570894852E+01  0.22152304108E+01 -0.39838153421E+01  0.53796831729E+01  0.51100000000E-03 0.  1.
         12    1    3    3    0    0 -0.65764103108E+01  0.21029998129E+02 -0.11569865975E+02  0.24887181290E+02  0.00000000000E+00 0. -1.
</event>
<event>
 7    1  0.1542786E-009  0.4778727E+02  0.7816164E-02  0.1312668E+00
        -11   -1    0    0    0    0  0.00000000000E+00  0.00000000000E+00  0.45593999997E+02  0.45594000000E+02  0.51100000000E-03 0. -1.
         11   -1    0    0    0    0 -0.00000000000E+00 -0.00000000000E+00 -0.45593999997E+02  0.45594000000E+02  0.51100000000E-03 0.  1.
    9900012    2    1    2    0    0  0.29128333956E+02 -0.29752319429E+02 -0.12245951738E+02  0.47787266314E+02  0.19999978433E+02 0.  0.
        -12    1    1    2    0    0 -0.29128333956E+02  0.29752319429E+02  0.12245951738E+02  0.43400733686E+02  0.00000000000E+00 0.  1.
         11    1    3    3    0    0  0.19624610809E+02 -0.20801547433E+02 -0.52225979737E+01  0.29070694090E+02  0.51100000000E-03 0. -1.
        -11    1    3    3    0    0  0.10524609940E+02 -0.29179173121E+01 -0.61551841111E+01  0.12536664131E+02  0.51100000000E-03 0.  1.
         12    1    3    3    0    0 -0.10208867934E+01 -0.60328546846E+01 -0.86816965361E+00  0.61799080931E+01  0.00000000000E+00 0. -1.
</event>
<event>
 7    1  0.1542786E-009  0.4778727E+02  0.7816164E-02  0.1312668E+00
        -11   -1    0    0    0    0  0.00000000000E+00  0.00000000000E+00  0.45593999997E+02  0.45594000000E+02  0.51100000000E-03 0. -1.
         11   -1    0    0    0    0 -0.00000000000E+00 -0.00000000000E+00 -0.45593999997E+02  0.45594000000E+02  0.51100000000E-03 0.  1.
    9900012    2    1    2    0    0  0.39776130811E+02  0.47932811841E+01  0.16688529268E+02  0.47787272634E+02  0.20000007246E+02 0.  0.
        -12    1    1    2    0    0 -0.39776130811E+02 -0.47932811841E+01 -0.16688529268E+02  0.43400727366E+02  0.00000000000E+00 0.  1.
         11    1    3    3    0    0  0.11068126206E+02  0.43386329247E+01  0.50134612313E+01  0.12902013298E+02  0.51100000000E-03 0. -1.
        -11    1    3    3    0    0  0.43556347265E+01 -0.30635601358E+01 -0.31225904959E+01  0.61731293719E+01  0.51100000000E-03 0.  1.
        -12    1    3    3    0    0  0.24352369879E+02  0.35182083952E+01  0.14797658532E+02  0.28712129964E+02  0.00000000000E+00 0.  1.
</event>
<event>
 7    1  0.1542786E-009  0.4778727E+02  0.7816164E-02  0.1312668E+00
        -11   -1    0    0    0    0  0.00000000000E+00  0.00000000000E+00  0.45593999997E+02  0.45594000000E+02  0.51100000000E-03 0.  1.
         11   -1    0    0    0    0 -0.00000000000E+00 -0.00000000000E+00 -0.45593999997E+02  0.45594000000E+02  0.51100000000E-03 0. -1.
    9900012    2    1    2    0    0 -0.20254157912E+02 -0.26735424316E+02 -0.27542870589E+02  0.47787267905E+02  0.19999985687E+02 0.  0.
        -12    1    1    2    0    0  0.20254157912E+02  0.26735424316E+02  0.27542870589E+02  0.43400732095E+02  0.00000000000E+00 0.  1.
         11    1    3    3    0    0 -0.15954542218E+02 -0.95648668248E+01 -0.13748158168E+02  0.23131060245E+02  0.51100000000E-03 0. -1.
        -11    1    3    3    0    0 -0.21611267682E+01 -0.74870860722E+01 -0.12394975368E+02  0.14641118174E+02  0.51100000000E-03 0.  1.
         12    1    3    3    0    0 -0.21384889253E+01 -0.96834714190E+01 -0.13997370539E+01  0.10015089487E+02  0.00000000000E+00 0. -1.
</event>
<event>
 7    1  0.1542786E-009  0.4778727E+02  0.7816164E-02  0.1312668E+00
        -11   -1    0    0    0    0  0.00000000000E+00  0.00000000000E+00  0.45593999997E+02  0.45594000000E+02  0.51100000000E-03 0.  1.
         11   -1    0    0    0    0 -0.00000000000E+00 -0.00000000000E+00 -0.45593999997E+02  0.45594000000E+02  0.51100000000E-03 0. -1.
    9900012    2    1    2    0    0  0.58715307570E+01 -0.64353736050E+01 -0.42517458879E+02  0.47787271707E+02  0.20000003019E+02 0.  0.
        -12    1    1    2    0    0 -0.58715307570E+01  0.64353736050E+01  0.42517458879E+02  0.43400728293E+02  0.00000000000E+00 0.  1.
         11    1    3    3    0    0  0.50031911944E+01 -0.36197016600E+01 -0.85085109836E+01  0.10513273594E+02  0.51100000000E-03 0. -1.
        -11    1    3    3    0    0  0.46100136689E+01 -0.32103655675E+00 -0.21458047486E+01  0.50950729905E+01  0.51100000000E-03 0.  1.
        -12    1    3    3    0    0 -0.37416741063E+01 -0.24946353883E+01 -0.31863143147E+02  0.32178925122E+02  0.00000000000E+00 0.  1.
</event>
<event>
 7    1  0.1542786E-009  0.4778726E+02  0.7816164E-02  0.1312668E+00
        -11   -1    0    0    0    0  0.00000000000E+00  0.00000000000E+00  0.45593999997E+02  0.45594000000E+02  0.51100000000E-03 0.  1.
         11   -1    0    0    0    0 -0.00000000000E+00 -0.00000000000E+00 -0.45593999997E+02  0.45594000000E+02  0.51100000000E-03 0. -1.
    9900012    2    1    2    0    0 -0.16558515867E+02  0.29109103867E+02 -0.27606159461E+02  0.47787257888E+02  0.19999940015E+02 0.  0.
        -12    1    1    2    0    0  0.16558515867E+02 -0.29109103867E+02  0.27606159461E+02  0.43400742112E+02  0.00000000000E+00 0.  1.
         11    1    3    3    0    0 -0.89235988238E+01  0.25693299697E+01 -0.85557216852E+01  0.12626656180E+02  0.51100000000E-03 0. -1.
        -11    1    3    3    0    0 -0.77681318065E+01  0.18762756589E+02 -0.18317395322E+02  0.27347977590E+02  0.51100000000E-03 0.  1.
        -12    1    3    3    0    0  0.13321476292E+00  0.77770173079E+01 -0.73304245344E+00  0.78126241187E+01  0.00000000000E+00 0.  1.
</event>
<event>
 7    1  0.1542786E-009  0.4778727E+02  0.7816164E-02  0.1312668E+00
        -11   -1    0    0    0    0  0.00000000000E+00  0.00000000000E+00  0.45593999997E+02  0.45594000000E+02  0.51100000000E-03 0.  1.
         11   -1    0    0    0    0 -0.00000000000E+00 -0.00000000000E+00 -0.45593999997E+02  0.45594000000E+02  0.51100000000E-03 0. -1.
    9900012    2    1    2    0    0  0.41139969104E+02  0.79238455933E+01 -0.11328686289E+02  0.47787268210E+02  0.19999987076E+02 0.  0.
        -12    1    1    2    0    0 -0.41139969104E+02 -0.79238455933E+01  0.11328686289E+02  0.43400731790E+02  0.00000000000E+00 0.  1.
         11    1    3    3    0    0  0.27315036962E+02 -0.59764985603E+00 -0.27524046608E+01  0.27459864553E+02  0.51100000000E-03 0. -1.
        -11    1    3    3    0    0  0.13379537991E+02  0.72623921528E+01 -0.42586448408E+01  0.15807923101E+02  0.51100000000E-03 0.  1.
        -12    1    3    3    0    0  0.44539415126E+00  0.12591032966E+01 -0.43176367877E+01  0.45194805556E+01  0.00000000000E+00 0.  1.
</event>
<event>
 7    1  0.1542786E-009  0.4778727E+02  0.7816164E-02  0.1312668E+00
        -11   -1    0    0    0    0  0.00000000000E+00  0.00000000000E+00  0.45593999997E+02  0.45594000000E+02  0.51100000000E-03 0.  1.
         11   -1    0    0    0    0 -0.00000000000E+00 -0.00000000000E+00 -0.45593999997E+02  0.45594000000E+02  0.51100000000E-03 0. -1.
    9900012    2    1    2    0    0 -0.27732568579E+02  0.43247314366E+01 -0.33103244441E+02  0.47787268964E+02  0.19999990512E+02 0.  0.
        -12    1    1    2    0    0  0.27732568579E+02 -0.43247314366E+01  0.33103244441E+02  0.43400731036E+02  0.00000000000E+00 0.  1.
         11    1    3    3    0    0 -0.40121694625E+01 -0.53394212938E+01 -0.13688152869E+02  0.15230641903E+02  0.51100000000E-03 0. -1.
        -11    1    3    3    0    0 -0.47146804523E+01  0.42547179999E+00 -0.54892916981E+01  0.72485558305E+01  0.51100000000E-03 0.  1.
        -12    1    3    3    0    0 -0.19005718664E+02  0.92386809304E+01 -0.13925799874E+02  0.25308071230E+02  0.00000000000E+00 0.  1.
</event>
<event>
 7    1  0.1542786E-009  0.4778727E+02  0.7816164E-02  0.1312668E+00
        -11   -1    0    0    0    0  0.00000000000E+00  0.00000000000E+00  0.45593999997E+02  0.45594000000E+02  0.51100000000E-03 0. -1.
         11   -1    0    0    0    0 -0.00000000000E+00 -0.00000000000E+00 -0.45593999997E+02  0.45594000000E+02  0.51100000000E-03 0.  1.
    9900012    2    1    2    0    0  0.11103823503E+02 -0.41137793824E+02  0.82468520303E+01  0.47787267915E+02  0.19999985733E+02 0.  0.
        -12    1    1    2    0    0 -0.11103823503E+02  0.41137793824E+02 -0.82468520303E+01  0.43400732085E+02  0.00000000000E+00 0.  1.
         11    1    3    3    0    0  0.91198042288E+01 -0.13545624898E+02  0.82132825607E+01  0.18278752521E+02  0.51100000000E-03 0. -1.
        -11    1    3    3    0    0  0.49164291716E+01 -0.25257510597E+02 -0.40433303581E+00  0.25734735336E+02  0.51100000000E-03 0.  1.
        -12    1    3    3    0    0 -0.29324098976E+01 -0.23346583291E+01  0.43790250540E+00  0.37737800579E+01  0.00000000000E+00 0.  1.
</event>
<event>
 7    1  0.1542786E-009  0.4778727E+02  0.7816164E-02  0.1312668E+00
        -11   -1    0    0    0    0  0.00000000000E+00  0.00000000000E+00  0.45593999997E+02  0.45594000000E+02  0.51100000000E-03 0. -1.
         11   -1    0    0    0    0 -0.00000000000E+00 -0.00000000000E+00 -0.45593999997E+02  0.45594000000E+02  0.51100000000E-03 0.  1.
    9900012    2    1    2    0    0 -0.25538504888E+02 -0.26186758298E+02  0.23359405415E+02  0.47787270013E+02  0.19999995298E+02 0.  0.
        -12    1    1    2    0    0  0.25538504888E+02  0.26186758298E+02 -0.23359405415E+02  0.43400729987E+02  0.00000000000E+00 0.  1.
         11    1    3    3    0    0 -0.22812624247E+02 -0.17622756034E+02  0.10006544768E+02  0.30514067145E+02  0.51100000000E-03 0. -1.
        -11    1    3    3    0    0  0.12858318484E+01  0.16144583991E+00  0.10628211755E+01  0.16760123549E+01  0.51100000000E-03 0.  1.
         12    1    3    3    0    0 -0.40117124890E+01 -0.87254481037E+01  0.12290039471E+02  0.15597190513E+02  0.00000000000E+00 0. -1.
</event>
<event>
 7    1  0.1542786E-009  0.4778727E+02  0.7816164E-02  0.1312668E+00
        -11   -1    0    0    0    0  0.00000000000E+00  0.00000000000E+00  0.45593999997E+02  0.45594000000E+02  0.51100000000E-03 0. -1.
         11   -1    0    0    0    0 -0.00000000000E+00 -0.00000000000E+00 -0.45593999997E+02  0.45594000000E+02  0.51100000000E-03 0.  1.
    9900012    2    1    2    0    0  0.29722533476E+02  0.22901673494E+02  0.21810718999E+02  0.47787272952E+02  0.20000008698E+02 0.  0.
        -12    1    1    2    0    0 -0.29722533476E+02 -0.22901673494E+02 -0.21810718999E+02  0.43400727048E+02  0.00000000000E+00 0.  1.
         11    1    3    3    0    0  0.40835757021E+01  0.62478130081E+01  0.52264340886E+00  0.74822399248E+01  0.51100000000E-03 0.  1.
        -11    1    3    3    0    0  0.14825117558E+02  0.11203286774E+02  0.21205091405E+02  0.28194922360E+02  0.51100000000E-03 0. -1.
         12    1    3    3    0    0  0.10813840215E+02  0.54505737121E+01  0.82984185266E-01  0.12110110667E+02  0.00000000000E+00 0. -1.
</event>
<event>
 7    1  0.1542786E-009  0.4778727E+02  0.7816164E-02  0.1312668E+00
        -11   -1    0    0    0    0  0.00000000000E+00  0.00000000000E+00  0.45593999997E+02  0.45594000000E+02  0.51100000000E-03 0.  1.
         11   -1    0    0    0    0 -0.00000000000E+00 -0.00000000000E+00 -0.45593999997E+02  0.45594000000E+02  0.51100000000E-03 0. -1.
    9900012    2    1    2    0    0  0.86262996137E+01 -0.29558749652E+02 -0.30585788798E+02  0.47787271868E+02  0.20000003756E+02 0.  0.
        -12    1    1    2    0    0 -0.86262996137E+01  0.29558749652E+02  0.30585788798E+02  0.43400728132E+02  0.00000000000E+00 0.  1.
         11    1    3    3    0    0 -0.12400415599E+01 -0.11476034167E+02 -0.50380476164E+01  0.12594403015E+02  0.51100000000E-03 0. -1.
        -11    1    3    3    0    0 -0.33447463297E+00 -0.24064321161E+01 -0.11626304339E+02  0.11877446765E+02  0.51100000000E-03 0.  1.
         12    1    3    3    0    0  0.10200815807E+02 -0.15676283369E+02 -0.13921436842E+02  0.23315422088E+02  0.00000000000E+00 0. -1.
</event>
<event>
 7    1  0.1542786E-009  0.4778727E+02  0.7816164E-02  0.1312668E+00
        -11   -1    0    0    0    0  0.00000000000E+00  0.00000000000E+00  0.45593999997E+02  0.45594000000E+02  0.51100000000E-03 0.  1.
         11   -1    0    0    0    0 -0.00000000000E+00 -0.00000000000E+00 -0.45593999997E+02  0.45594000000E+02  0.51100000000E-03 0. -1.
    9900012    2    1    2    0    0 -0.35020055696E+02  0.11794807206E+02 -0.22761850204E+02  0.47787267256E+02  0.19999982727E+02 0.  0.
        -12    1    1    2    0    0  0.35020055696E+02 -0.11794807206E+02  0.22761850204E+02  0.43400732744E+02  0.00000000000E+00 0.  1.
         11    1    3    3    0    0 -0.11245406418E+02  0.67130619496E+01 -0.10587603651E+02  0.16841072340E+02  0.51100000000E-03 0. -1.
        -11    1    3    3    0    0 -0.65382861377E+01 -0.49905990008E+01 -0.16901918314E+01  0.83971431269E+01  0.51100000000E-03 0.  1.
        -12    1    3    3    0    0 -0.17236363141E+02  0.10072344257E+02 -0.10484054722E+02  0.22549051789E+02  0.00000000000E+00 0.  1.
</event>
<event>
 7    1  0.1542786E-009  0.4778728E+02  0.7816164E-02  0.1312668E+00
        -11   -1    0    0    0    0  0.00000000000E+00  0.00000000000E+00  0.45593999997E+02  0.45594000000E+02  0.51100000000E-03 0.  1.
         11   -1    0    0    0    0 -0.00000000000E+00 -0.00000000000E+00 -0.45593999997E+02  0.45594000000E+02  0.51100000000E-03 0. -1.
    9900012    2    1    2    0    0  0.10401732420E+02  0.17994185448E+01 -0.42097373864E+02  0.47787276150E+02  0.20000023280E+02 0.  0.
        -12    1    1    2    0    0 -0.10401732420E+02 -0.17994185448E+01  0.42097373864E+02  0.43400723850E+02  0.00000000000E+00 0.  1.
         11    1    3    3    0    0 -0.17374735655E+01  0.43312808584E+01 -0.19842708612E+02  0.20384108850E+02  0.51100000000E-03 0. -1.
        -11    1    3    3    0    0 -0.11015700291E+01 -0.22495691264E+01 -0.55219670127E+01  0.60635086983E+01  0.51100000000E-03 0.  1.
         12    1    3    3    0    0  0.13240776014E+02 -0.28229318715E+00 -0.16732698239E+02  0.21339658602E+02  0.00000000000E+00 0. -1.
</event>
<event>
 7    1  0.1542786E-009  0.4778727E+02  0.7816164E-02  0.1312668E+00
        -11   -1    0    0    0    0  0.00000000000E+00  0.00000000000E+00  0.45593999997E+02  0.45594000000E+02  0.51100000000E-03 0. -1.
         11   -1    0    0    0    0 -0.00000000000E+00 -0.00000000000E+00 -0.45593999997E+02  0.45594000000E+02  0.51100000000E-03 0.  1.
    9900012    2    1    2    0    0 -0.39591666533E+02  0.12131934434E+02  0.12997672391E+02  0.47787269827E+02  0.19999994451E+02 0.  0.
        -12    1    1    2    0    0  0.39591666533E+02 -0.12131934434E+02 -0.12997672391E+02  0.43400730173E+02  0.00000000000E+00 0.  1.
         11    1    3    3    0    0 -0.25199567267E+02 -0.13267255331E+01  0.82626033223E+01  0.26552758896E+02  0.51100000000E-03 0. -1.
        -11    1    3    3    0    0 -0.23188880339E+00  0.28239424634E+01  0.15878299382E+01  0.32480190313E+01  0.51100000000E-03 0.  1.
         12    1    3    3    0    0 -0.14160210462E+02  0.10634717504E+02  0.31472391302E+01  0.17986491900E+02  0.00000000000E+00 0. -1.
</event>
<event>
 7    1  0.1594261E-009  0.4778728E+02  0.7816164E-02  0.1312668E+00
        -11   -1    0    0    0    0  0.00000000000E+00  0.00000000000E+00  0.45593999997E+02  0.45594000000E+02  0.51100000000E-03 0.  1.
         11   -1    0    0    0    0 -0.00000000000E+00 -0.00000000000E+00 -0.45593999997E+02  0.45594000000E+02  0.51100000000E-03 0. -1.
    9900012    2    1    2    0    0 -0.70019887247E+01  0.42455775965E+02 -0.56658705296E+01  0.47787275954E+02  0.20000022384E+02 0.  0.
        -12    1    1    2    0    0  0.70019887247E+01 -0.42455775965E+02  0.56658705296E+01  0.43400724046E+02  0.00000000000E+00 0.  1.
         11    1    3    3    0    0 -0.10499654702E+02  0.21572873256E+02 -0.71637578939E+00  0.24003016558E+02  0.51100000000E-03 0. -1.
        -11    1    3    3    0    0 -0.36627763211E-01  0.84318785681E+01 -0.66384746064E+01  0.10731601145E+02  0.51100000000E-03 0.  1.
        -12    1    3    3    0    0  0.35342937406E+01  0.12451024141E+02  0.16889798662E+01  0.13052658250E+02  0.00000000000E+00 0.  1.
</event>
<event>
 7    1  0.1542786E-009  0.4778727E+02  0.7816164E-02  0.1312668E+00
        -11   -1    0    0    0    0  0.00000000000E+00  0.00000000000E+00  0.45593999997E+02  0.45594000000E+02  0.51100000000E-03 0.  1.
         11   -1    0    0    0    0 -0.00000000000E+00 -0.00000000000E+00 -0.45593999997E+02  0.45594000000E+02  0.51100000000E-03 0. -1.
    9900012    2    1    2    0    0  0.33255196258E+02 -0.14949467532E+02 -0.23542062506E+02  0.47787269998E+02  0.19999995230E+02 0.  0.
        -12    1    1    2    0    0 -0.33255196258E+02  0.14949467532E+02  0.23542062506E+02  0.43400730002E+02  0.00000000000E+00 0.  1.
         11    1    3    3    0    0  0.12127401245E+02 -0.54249840253E+00 -0.11150394790E+02  0.16483308821E+02  0.51100000000E-03 0. -1.
        -11    1    3    3    0    0  0.17719258297E+02 -0.97107918106E+01 -0.32344374459E+01  0.20462970900E+02  0.51100000000E-03 0.  1.
         12    1    3    3    0    0  0.34085367155E+01 -0.46961773192E+01 -0.91572302707E+01  0.10840990277E+02  0.00000000000E+00 0. -1.
</event>
<event>
 7    1  0.1542786E-009  0.4778727E+02  0.7816164E-02  0.1312668E+00
        -11   -1    0    0    0    0  0.00000000000E+00  0.00000000000E+00  0.45593999997E+02  0.45594000000E+02  0.51100000000E-03 0. -1.
         11   -1    0    0    0    0 -0.00000000000E+00 -0.00000000000E+00 -0.45593999997E+02  0.45594000000E+02  0.51100000000E-03 0.  1.
    9900012    2    1    2    0    0 -0.24074981712E+02  0.35929460190E+02  0.36183490032E+01  0.47787270703E+02  0.19999998443E+02 0.  0.
        -12    1    1    2    0    0  0.24074981712E+02 -0.35929460190E+02 -0.36183490032E+01  0.43400729297E+02  0.00000000000E+00 0.  1.
         11    1    3    3    0    0 -0.20153245125E+02  0.35221776341E+02  0.35228628729E+01  0.40732510121E+02  0.51100000000E-03 0. -1.
        -11    1    3    3    0    0 -0.41136389229E+01  0.16390270395E+01 -0.19198031527E+01  0.48263940194E+01  0.51100000000E-03 0.  1.
        -12    1    3    3    0    0  0.19190233521E+00 -0.93134318997E+00  0.20152892830E+01  0.22283665627E+01  0.00000000000E+00 0.  1.
</event>
<event>
 7    1  0.1542786E-009  0.4778729E+02  0.7816164E-02  0.1312668E+00
        -11   -1    0    0    0    0  0.00000000000E+00  0.00000000000E+00  0.45593999997E+02  0.45594000000E+02  0.51100000000E-03 0.  1.
         11   -1    0    0    0    0 -0.00000000000E+00 -0.00000000000E+00 -0.45593999997E+02  0.45594000000E+02  0.51100000000E-03 0. -1.
    9900012    2    1    2    0    0  0.15314051602E+02 -0.39768383233E+02  0.82205440884E+01  0.47787287718E+02  0.20000076023E+02 0.  0.
        -12    1    1    2    0    0 -0.15314051602E+02  0.39768383233E+02 -0.82205440884E+01  0.43400712282E+02  0.00000000000E+00 0.  1.
         11    1    3    3    0    0 -0.26954852462E+01 -0.65675277254E+01  0.17621629670E+01  0.73145936127E+01  0.51100000000E-03 0. -1.
        -11    1    3    3    0    0  0.83384435761E+01 -0.51100733387E+01  0.43065250628E+01  0.10685908907E+02  0.51100000000E-03 0.  1.
         12    1    3    3    0    0  0.96710932722E+01 -0.28090782169E+02  0.21518560586E+01  0.29786785198E+02  0.00000000000E+00 0. -1.
</event>
<event>
 7    1  0.1542786E-009  0.4778728E+02  0.7816164E-02  0.1312668E+00
        -11   -1    0    0    0    0  0.00000000000E+00  0.00000000000E+00  0.45593999997E+02  0.45594000000E+02  0.51100000000E-03 0.  1.
         11   -1    0    0    0    0 -0.00000000000E+00 -0.00000000000E+00 -0.45593999997E+02  0.45594000000E+02  0.51100000000E-03 0. -1.
    9900012    2    1    2    0    0 -0.68658368461E+01  0.26222039650E+02 -0.33895247069E+02  0.47787275895E+02  0.20000022114E+02 0.  0.
        -12    1    1    2    0    0  0.68658368461E+01 -0.26222039650E+02  0.33895247069E+02  0.43400724105E+02  0.00000000000E+00 0.  1.
         11    1    3    3    0    0 -0.17191767542E+01  0.22622273773E+02 -0.25358897782E+02  0.34026409396E+02  0.51100000000E-03 0. -1.
        -11    1    3    3    0    0  0.24921805563E+01  0.68968981364E+00 -0.16054981511E+01  0.30437247804E+01  0.51100000000E-03 0.  1.
        -12    1    3    3    0    0 -0.76388406482E+01  0.29100760626E+01 -0.69308511361E+01  0.10717141718E+02  0.00000000000E+00 0.  1.
</event>
<event>
 7    1  0.1542786E-009  0.4778728E+02  0.7816164E-02  0.1312668E+00
        -11   -1    0    0    0    0  0.00000000000E+00  0.00000000000E+00  0.45593999997E+02  0.45594000000E+02  0.51100000000E-03 0.  1.
         11   -1    0    0    0    0 -0.00000000000E+00 -0.00000000000E+00 -0.45593999997E+02  0.45594000000E+02  0.51100000000E-03 0. -1.
    9900012    2    1    2    0    0  0.34757917011E+02  0.38487742430E+01 -0.25704025902E+02  0.47787276439E+02  0.20000024594E+02 0.  0.
        -12    1    1    2    0    0 -0.34757917011E+02 -0.38487742430E+01  0.25704025902E+02  0.43400723561E+02  0.00000000000E+00 0.  1.
         11    1    3    3    0    0 -0.13510306407E+01  0.44734886506E+00 -0.46993845479E+00  0.14987485484E+01  0.51100000000E-03 0. -1.
        -11    1    3    3    0    0  0.20693999515E+02  0.83664704730E+01 -0.11808086317E+02  0.25252135491E+02  0.51100000000E-03 0.  1.
        -12    1    3    3    0    0  0.15414948136E+02 -0.49650450951E+01 -0.13426001130E+02  0.21036392399E+02  0.00000000000E+00 0.  1.
</event>
<event>
 7    1  0.1542786E-009  0.4778727E+02  0.7816164E-02  0.1312668E+00
        -11   -1    0    0    0    0  0.00000000000E+00  0.00000000000E+00  0.45593999997E+02  0.45594000000E+02  0.51100000000E-03 0. -1.
         11   -1    0    0    0    0 -0.00000000000E+00 -0.00000000000E+00 -0.45593999997E+02  0.45594000000E+02  0.51100000000E-03 0.  1.
    9900012    2    1    2    0    0 -0.14991627443E+02  0.40466913889E+02  0.46155366520E+01  0.47787271991E+02  0.20000004316E+02 0.  0.
        -12    1    1    2    0    0  0.14991627443E+02 -0.40466913889E+02 -0.46155366520E+01  0.43400728009E+02  0.00000000000E+00 0.  1.
         11    1    3    3    0    0 -0.10232943633E+01  0.11614287366E+02  0.10410460616E+01  0.11705664422E+02  0.51100000000E-03 0. -1.
        -11    1    3    3    0    0  0.63986075568E+00  0.15151111303E+02  0.50901205907E+01  0.15996090878E+02  0.51100000000E-03 0.  1.
         12    1    3    3    0    0 -0.14608193836E+02  0.13701515220E+02 -0.15156300003E+01  0.20085516691E+02  0.00000000000E+00 0. -1.
</event>
<event>
 7    1  0.1542786E-009  0.4778727E+02  0.7816164E-02  0.1312668E+00
        -11   -1    0    0    0    0  0.00000000000E+00  0.00000000000E+00  0.45593999997E+02  0.45594000000E+02  0.51100000000E-03 0.  1.
         11   -1    0    0    0    0 -0.00000000000E+00 -0.00000000000E+00 -0.45593999997E+02  0.45594000000E+02  0.51100000000E-03 0. -1.
    9900012    2    1    2    0    0  0.48922830736E+01 -0.40898220342E+02  0.13675684843E+02  0.47787271702E+02  0.20000002999E+02 0.  0.
        -12    1    1    2    0    0 -0.48922830736E+01  0.40898220342E+02 -0.13675684843E+02  0.43400728298E+02  0.00000000000E+00 0.  1.
         11    1    3    3    0    0  0.27273614286E+01 -0.19900151019E+02  0.10372157700E+02  0.22606109054E+02  0.51100000000E-03 0.  1.
        -11    1    3    3    0    0  0.43452217304E+01 -0.17874756814E+02 -0.21591573169E+01  0.18521604780E+02  0.51100000000E-03 0. -1.
         12    1    3    3    0    0 -0.21803000854E+01 -0.31233125096E+01  0.54626844601E+01  0.66595578686E+01  0.00000000000E+00 0. -1.
</event>
<event>
 7    1  0.1542786E-009  0.4778727E+02  0.7816164E-02  0.1312668E+00
        -11   -1    0    0    0    0  0.00000000000E+00  0.00000000000E+00  0.45593999997E+02  0.45594000000E+02  0.51100000000E-03 0.  1.
         11   -1    0    0    0    0 -0.00000000000E+00 -0.00000000000E+00 -0.45593999997E+02  0.45594000000E+02  0.51100000000E-03 0. -1.
    9900012    2    1    2    0    0 -0.94695936480E+01 -0.24103398167E+02 -0.34827808805E+02  0.47787271053E+02  0.20000000037E+02 0.  0.
        -12    1    1    2    0    0  0.94695936480E+01  0.24103398167E+02  0.34827808805E+02  0.43400728947E+02  0.00000000000E+00 0.  1.
         11    1    3    3    0    0 -0.12886730803E+01 -0.95120286562E+01 -0.14137378099E+02  0.17088148737E+02  0.51100000000E-03 0. -1.
        -11    1    3    3    0    0 -0.10631457127E+02 -0.39056940318E+01 -0.76744763142E+01  0.13681371037E+02  0.51100000000E-03 0.  1.
         12    1    3    3    0    0  0.24505365588E+01 -0.10685675479E+02 -0.13015954391E+02  0.17017751278E+02  0.00000000000E+00 0. -1.
</event>
<event>
 7    1  0.1542786E-009  0.4778728E+02  0.7816164E-02  0.1312668E+00
        -11   -1    0    0    0    0  0.00000000000E+00  0.00000000000E+00  0.45593999997E+02  0.45594000000E+02  0.51100000000E-03 0.  1.
         11   -1    0    0    0    0 -0.00000000000E+00 -0.00000000000E+00 -0.45593999997E+02  0.45594000000E+02  0.51100000000E-03 0. -1.
    9900012    2    1    2    0    0 -0.30213644881E+02  0.54348272742E+01 -0.30679325191E+02  0.47787277902E+02  0.20000031265E+02 0.  0.
        -12    1    1    2    0    0  0.30213644881E+02 -0.54348272742E+01  0.30679325191E+02  0.43400722098E+02  0.00000000000E+00 0.  1.
         11    1    3    3    0    0 -0.20506382900E+02 -0.95154178663E-01 -0.25916916980E+02  0.33048560936E+02  0.51100000000E-03 0. -1.
        -11    1    3    3    0    0 -0.92888662751E+01  0.13401025976E+01 -0.17137771964E+01  0.95402276801E+01  0.51100000000E-03 0.  1.
        -12    1    3    3    0    0 -0.41839570575E+00  0.41898788552E+01 -0.30486310149E+01  0.51984892857E+01  0.00000000000E+00 0.  1.
</event>
<event>
 7    1  0.1542786E-009  0.4778727E+02  0.7816164E-02  0.1312668E+00
        -11   -1    0    0    0    0  0.00000000000E+00  0.00000000000E+00  0.45593999997E+02  0.45594000000E+02  0.51100000000E-03 0.  1.
         11   -1    0    0    0    0 -0.00000000000E+00 -0.00000000000E+00 -0.45593999997E+02  0.45594000000E+02  0.51100000000E-03 0. -1.
    9900012    2    1    2    0    0  0.10813472048E+02 -0.10235487748E+02 -0.40766741393E+02  0.47787267391E+02  0.19999983344E+02 0.  0.
        -12    1    1    2    0    0 -0.10813472048E+02  0.10235487748E+02  0.40766741393E+02  0.43400732609E+02  0.00000000000E+00 0.  1.
         11    1    3    3    0    0 -0.22153937311E+00  0.65906854067E+00  0.52696876980E+00  0.87243760843E+00  0.51100000000E-03 0. -1.
        -11    1    3    3    0    0  0.80044186525E+01  0.25983106388E+01 -0.16658583037E+02  0.18663609651E+02  0.51100000000E-03 0.  1.
         12    1    3    3    0    0  0.30305927688E+01 -0.13492866928E+02 -0.24635127126E+02  0.28251220132E+02  0.00000000000E+00 0. -1.
</event>
<event>
 7    1  0.1542786E-009  0.4778727E+02  0.7816164E-02  0.1312668E+00
        -11   -1    0    0    0    0  0.00000000000E+00  0.00000000000E+00  0.45593999997E+02  0.45594000000E+02  0.51100000000E-03 0.  1.
         11   -1    0    0    0    0 -0.00000000000E+00 -0.00000000000E+00 -0.45593999997E+02  0.45594000000E+02  0.51100000000E-03 0. -1.
    9900012    2    1    2    0    0 -0.11382862848E+02 -0.37626057840E+02 -0.18393849688E+02  0.47787268421E+02  0.19999988040E+02 0.  0.
        -12    1    1    2    0    0  0.11382862848E+02  0.37626057840E+02  0.18393849688E+02  0.43400731579E+02  0.00000000000E+00 0.  1.
         11    1    3    3    0    0 -0.11444979666E+01 -0.27425591036E+02 -0.87374209525E+01  0.28806517395E+02  0.51100000000E-03 0. -1.
        -11    1    3    3    0    0 -0.60338206651E+01 -0.10302418336E+02 -0.83759914392E+01  0.14584376855E+02  0.51100000000E-03 0.  1.
        -12    1    3    3    0    0 -0.42045442166E+01  0.10195153187E+00 -0.12804372963E+01  0.43963741713E+01  0.00000000000E+00 0.  1.
</event>
<event>
 7    1  0.1542786E-009  0.4778727E+02  0.7816164E-02  0.1312668E+00
        -11   -1    0    0    0    0  0.00000000000E+00  0.00000000000E+00  0.45593999997E+02  0.45594000000E+02  0.51100000000E-03 0.  1.
         11   -1    0    0    0    0 -0.00000000000E+00 -0.00000000000E+00 -0.45593999997E+02  0.45594000000E+02  0.51100000000E-03 0. -1.
    9900012    2    1    2    0    0 -0.14952846091E+02 -0.58971679107E+01 -0.40314505244E+02  0.47787268109E+02  0.19999986615E+02 0.  0.
        -12    1    1    2    0    0  0.14952846091E+02  0.58971679107E+01  0.40314505244E+02  0.43400731891E+02  0.00000000000E+00 0.  1.
         11    1    3    3    0    0 -0.68581474234E+00 -0.55298489369E+01 -0.57763075551E+01  0.80259143004E+01  0.51100000000E-03 0. -1.
        -11    1    3    3    0    0 -0.14736229914E+02 -0.44945736492E+01 -0.29001630875E+02  0.32839796864E+02  0.51100000000E-03 0.  1.
        -12    1    3    3    0    0  0.46919856565E+00  0.41272546754E+01 -0.55365668140E+01  0.69215569445E+01  0.00000000000E+00 0.  1.
</event>
<event>
 7    1  0.1542786E-009  0.4778726E+02  0.7816164E-02  0.1312668E+00
        -11   -1    0    0    0    0  0.00000000000E+00  0.00000000000E+00  0.45593999997E+02  0.45594000000E+02  0.51100000000E-03 0.  1.
         11   -1    0    0    0    0 -0.00000000000E+00 -0.00000000000E+00 -0.45593999997E+02  0.45594000000E+02  0.51100000000E-03 0. -1.
    9900012    2    1    2    0    0 -0.59367502849E+01 -0.12612252419E+02 -0.41101218122E+02  0.47787262148E+02  0.19999959437E+02 0.  0.
        -12    1    1    2    0    0  0.59367502849E+01  0.12612252419E+02  0.41101218122E+02  0.43400737852E+02  0.00000000000E+00 0.  1.
         11    1    3    3    0    0 -0.48576695135E+01 -0.90525530542E+00 -0.20268906586E+01  0.53408544516E+01  0.51100000000E-03 0.  1.
        -11    1    3    3    0    0  0.31251058903E+01 -0.11542712600E+02 -0.32610000232E+02  0.34733450971E+02  0.51100000000E-03 0. -1.
         12    1    3    3    0    0 -0.42041866617E+01 -0.16428451357E+00 -0.64643272313E+01  0.77129567250E+01  0.00000000000E+00 0. -1.
</event>
<event>
 7    1  0.1542786E-009  0.4778727E+02  0.7816164E-02  0.1312668E+00
        -11   -1    0    0    0    0  0.00000000000E+00  0.00000000000E+00  0.45593999997E+02  0.45594000000E+02  0.51100000000E-03 0. -1.
         11   -1    0    0    0    0 -0.00000000000E+00 -0.00000000000E+00 -0.45593999997E+02  0.45594000000E+02  0.51100000000E-03 0.  1.
    9900012    2    1    2    0    0  0.68493669790E+01  0.42744939010E+02  0.30951120860E+01  0.47787270077E+02  0.19999995591E+02 0.  0.
        -12    1    1    2    0    0 -0.68493669790E+01 -0.42744939010E+02 -0.30951120860E+01  0.43400729923E+02  0.00000000000E+00 0.  1.
         11    1    3    3    0    0  0.89026631425E+01  0.28194531369E+02  0.50130058356E+01  0.29988651819E+02  0.51100000000E-03 0. -1.
        -11    1    3    3    0    0 -0.26972906511E+01  0.15362721314E+02  0.23583164141E-01  0.15597728663E+02  0.51100000000E-03 0.  1.
        -12    1    3    3    0    0  0.64399448755E+00 -0.81231367308E+00 -0.19414769138E+01  0.22008895952E+01  0.00000000000E+00 0.  1.
</event>
<event>
 7    1  0.1542786E-009  0.4778727E+02  0.7816164E-02  0.1312668E+00
        -11   -1    0    0    0    0  0.00000000000E+00  0.00000000000E+00  0.45593999997E+02  0.45594000000E+02  0.51100000000E-03 0. -1.
         11   -1    0    0    0    0 -0.00000000000E+00 -0.00000000000E+00 -0.45593999997E+02  0.45594000000E+02  0.51100000000E-03 0.  1.
    9900012    2    1    2    0    0 -0.25835630588E+02  0.12196000008E+02  0.32671099801E+02  0.47787274358E+02  0.20000015106E+02 0.  0.
        -12    1    1    2    0    0  0.25835630588E+02 -0.12196000008E+02 -0.32671099801E+02  0.43400725642E+02  0.00000000000E+00 0.  1.
         11    1    3    3    0    0 -0.30170715690E+01 -0.46369218609E+00  0.78527933475E+01  0.84252059272E+01  0.51100000000E-03 0. -1.
        -11    1    3    3    0    0 -0.11093241479E+02 -0.24466662741E+01  0.79823722293E+01  0.13883963737E+02  0.51100000000E-03 0.  1.
         12    1    3    3    0    0 -0.11725317539E+02  0.15106358468E+02  0.16835934225E+02  0.25478104694E+02  0.00000000000E+00 0. -1.
</event>
<event>
 7    1  0.1542786E-009  0.4778727E+02  0.7816164E-02  0.1312668E+00
        -11   -1    0    0    0    0  0.00000000000E+00  0.00000000000E+00  0.45593999997E+02  0.45594000000E+02  0.51100000000E-03 0.  1.
         11   -1    0    0    0    0 -0.00000000000E+00 -0.00000000000E+00 -0.45593999997E+02  0.45594000000E+02  0.51100000000E-03 0. -1.
    9900012    2    1    2    0    0  0.38903122821E+02  0.95175305251E+01 -0.16720847008E+02  0.47787273310E+02  0.20000010332E+02 0.  0.
        -12    1    1    2    0    0 -0.38903122821E+02 -0.95175305251E+01  0.16720847008E+02  0.43400726690E+02  0.00000000000E+00 0.  1.
         11    1    3    3    0    0  0.22352946846E+02  0.13453309427E+02 -0.15147865263E+02  0.30167923189E+02  0.51100000000E-03 0. -1.
        -11    1    3    3    0    0  0.39708846406E+01 -0.25228190760E+01  0.70672252680E+00  0.47573099447E+01  0.51100000000E-03 0.  1.
        -12    1    3    3    0    0  0.12579291334E+02 -0.14129598261E+01 -0.22797042722E+01  0.12862040177E+02  0.00000000000E+00 0.  1.
</event>
<event>
 7    1  0.1542786E-009  0.4778727E+02  0.7816164E-02  0.1312668E+00
        -11   -1    0    0    0    0  0.00000000000E+00  0.00000000000E+00  0.45593999997E+02  0.45594000000E+02  0.51100000000E-03 0.  1.
         11   -1    0    0    0    0 -0.00000000000E+00 -0.00000000000E+00 -0.45593999997E+02  0.45594000000E+02  0.51100000000E-03 0. -1.
    9900012    2    1    2    0    0  0.14210448782E+02  0.20719777791E+02 -0.35388944706E+02  0.47787268973E+02  0.19999990553E+02 0.  0.
        -12    1    1    2    0    0 -0.14210448782E+02 -0.20719777791E+02  0.35388944706E+02  0.43400731027E+02  0.00000000000E+00 0.  1.
         11    1    3    3    0    0  0.30066846350E+01 -0.25921997241E+01 -0.83725989450E+01  0.92660706483E+01  0.51100000000E-03 0. -1.
        -11    1    3    3    0    0  0.85234290237E+01  0.82443928017E+01 -0.90301730340E+01  0.14905129328E+02  0.51100000000E-03 0.  1.
        -12    1    3    3    0    0  0.26803351233E+01  0.15067584714E+02 -0.17986172727E+02  0.23616068997E+02  0.00000000000E+00 0.  1.
</event>
<event>
 7    1  0.1542786E-009  0.4778727E+02  0.7816164E-02  0.1312668E+00
        -11   -1    0    0    0    0  0.00000000000E+00  0.00000000000E+00  0.45593999997E+02  0.45594000000E+02  0.51100000000E-03 0.  1.
         11   -1    0    0    0    0 -0.00000000000E+00 -0.00000000000E+00 -0.45593999997E+02  0.45594000000E+02  0.51100000000E-03 0. -1.
    9900012    2    1    2    0    0  0.19635819270E+02 -0.37390061207E+02 -0.10002067873E+02  0.47787269162E+02  0.19999991419E+02 0.  0.
        -12    1    1    2    0    0 -0.19635819270E+02  0.37390061207E+02  0.10002067873E+02  0.43400730838E+02  0.00000000000E+00 0.  1.
         11    1    3    3    0    0 -0.70499376574E+00  0.54569280401E+00 -0.20266938145E+01  0.22141104139E+01  0.51100000000E-03 0. -1.
        -11    1    3    3    0    0  0.15773696864E-01  0.89082384144E+00 -0.73354381655E+00  0.11540808975E+01  0.51100000000E-03 0.  1.
         12    1    3    3    0    0  0.20325039339E+02 -0.38826577853E+02 -0.72418302423E+01  0.44419077851E+02  0.00000000000E+00 0. -1.
</event>
<event>
 7    1  0.1542786E-009  0.4778727E+02  0.7816164E-02  0.1312668E+00
        -11   -1    0    0    0    0  0.00000000000E+00  0.00000000000E+00  0.45593999997E+02  0.45594000000E+02  0.51100000000E-03 0.  1.
         11   -1    0    0    0    0 -0.00000000000E+00 -0.00000000000E+00 -0.45593999997E+02  0.45594000000E+02  0.51100000000E-03 0. -1.
    9900012    2    1    2    0    0 -0.14777460340E+02  0.38967645083E+02 -0.12114970120E+02  0.47787271914E+02  0.20000003965E+02 0.  0.
        -12    1    1    2    0    0  0.14777460340E+02 -0.38967645083E+02  0.12114970120E+02  0.43400728086E+02  0.00000000000E+00 0.  1.
         11    1    3    3    0    0 -0.47294419710E+01  0.23043759917E+02 -0.38532404908E+01  0.23837574436E+02  0.51100000000E-03 0. -1.
        -11    1    3    3    0    0 -0.10437579493E+02  0.11765250851E+02 -0.12362017245E+01  0.15776323660E+02  0.51100000000E-03 0.  1.
        -12    1    3    3    0    0  0.38956112423E+00  0.41586343147E+01 -0.70255279043E+01  0.81733738179E+01  0.00000000000E+00 0.  1.
</event>
<event>
 7    1  0.1542786E-009  0.4778727E+02  0.7816164E-02  0.1312668E+00
        -11   -1    0    0    0    0  0.00000000000E+00  0.00000000000E+00  0.45593999997E+02  0.45594000000E+02  0.51100000000E-03 0.  1.
         11   -1    0    0    0    0 -0.00000000000E+00 -0.00000000000E+00 -0.45593999997E+02  0.45594000000E+02  0.51100000000E-03 0. -1.
    9900012    2    1    2    0    0  0.95943499985E+01  0.17034879844E+02 -0.38747705867E+02  0.47787269671E+02  0.19999993737E+02 0.  0.
        -12    1    1    2    0    0 -0.95943499985E+01 -0.17034879844E+02  0.38747705867E+02  0.43400730329E+02  0.00000000000E+00 0.  1.
         11    1    3    3    0    0  0.74491185731E+01  0.19049982974E+01 -0.11220617161E+02  0.13602229073E+02  0.51100000000E-03 0. -1.
        -11    1    3    3    0    0 -0.41629126208E+01  0.12917887790E+01 -0.10422514220E+02  0.11297228097E+02  0.51100000000E-03 0.  1.
        -12    1    3    3    0    0  0.63081440461E+01  0.13838092767E+02 -0.17104574486E+02  0.22887812501E+02  0.00000000000E+00 0.  1.
</event>
<event>
 7    1  0.1542786E-009  0.4778727E+02  0.7816164E-02  0.1312668E+00
        -11   -1    0    0    0    0  0.00000000000E+00  0.00000000000E+00  0.45593999997E+02  0.45594000000E+02  0.51100000000E-03 0. -1.
         11   -1    0    0    0    0 -0.00000000000E+00 -0.00000000000E+00 -0.45593999997E+02  0.45594000000E+02  0.51100000000E-03 0.  1.
    9900012    2    1    2    0    0 -0.33540065519E+02 -0.20645267407E+02 -0.18233499984E+02  0.47787267483E+02  0.19999983761E+02 0.  0.
        -12    1    1    2    0    0  0.33540065519E+02  0.20645267407E+02  0.18233499984E+02  0.43400732517E+02  0.00000000000E+00 0.  1.
         11    1    3    3    0    0 -0.35794381333E+00  0.31720058235E-02 -0.15447860025E+01  0.15857168378E+01  0.51100000000E-03 0. -1.
        -11    1    3    3    0    0 -0.32062847891E+01  0.12106179982E+01 -0.70985919291E+01  0.78826306347E+01  0.51100000000E-03 0.  1.
         12    1    3    3    0    0 -0.29975836917E+02 -0.21859057411E+02 -0.95901220527E+01  0.38318920010E+02  0.00000000000E+00 0. -1.
</event>
<event>
 7    1  0.1542786E-009  0.4778727E+02  0.7816164E-02  0.1312668E+00
        -11   -1    0    0    0    0  0.00000000000E+00  0.00000000000E+00  0.45593999997E+02  0.45594000000E+02  0.51100000000E-03 0.  1.
         11   -1    0    0    0    0 -0.00000000000E+00 -0.00000000000E+00 -0.45593999997E+02  0.45594000000E+02  0.51100000000E-03 0. -1.
    9900012    2    1    2    0    0  0.11141712298E+02 -0.12809758028E+02 -0.39942406084E+02  0.47787268929E+02  0.19999990356E+02 0.  0.
        -12    1    1    2    0    0 -0.11141712298E+02  0.12809758028E+02  0.39942406084E+02  0.43400731071E+02  0.00000000000E+00 0.  1.
         11    1    3    3    0    0  0.71963249817E+01 -0.97499715080E+01 -0.32142181116E+02  0.34350674590E+02  0.51100000000E-03 0. -1.
        -11    1    3    3    0    0  0.68920138350E+01 -0.83340563901E+00 -0.65309663835E+01  0.95314186680E+01  0.51100000000E-03 0.  1.
        -12    1    3    3    0    0 -0.29466265185E+01 -0.22263808811E+01 -0.12692585850E+01  0.39051756712E+01  0.00000000000E+00 0.  1.
</event>
<event>
 7    1  0.1542786E-009  0.4778727E+02  0.7816164E-02  0.1312668E+00
        -11   -1    0    0    0    0  0.00000000000E+00  0.00000000000E+00  0.45593999997E+02  0.45594000000E+02  0.51100000000E-03 0.  1.
         11   -1    0    0    0    0 -0.00000000000E+00 -0.00000000000E+00 -0.45593999997E+02  0.45594000000E+02  0.51100000000E-03 0. -1.
    9900012    2    1    2    0    0 -0.37975772893E+02  0.18277087869E+02 -0.10363975551E+02  0.47787271238E+02  0.20000000883E+02 0.  0.
        -12    1    1    2    0    0  0.37975772893E+02 -0.18277087869E+02  0.10363975551E+02  0.43400728762E+02  0.00000000000E+00 0.  1.
         11    1    3    3    0    0 -0.21767882360E+02  0.20820353914E+01 -0.73726526029E+01  0.23076645781E+02  0.51100000000E-03 0.  1.
        -11    1    3    3    0    0 -0.65458817892E+01  0.83927027333E+01 -0.55906508104E+01  0.12022537349E+02  0.51100000000E-03 0. -1.
        -12    1    3    3    0    0 -0.96620087439E+01  0.78023497447E+01  0.25993278626E+01  0.12688088108E+02  0.00000000000E+00 0.  1.
</event>
<event>
 7    1  0.1542786E-009  0.4778727E+02  0.7816164E-02  0.1312668E+00
        -11   -1    0    0    0    0  0.00000000000E+00  0.00000000000E+00  0.45593999997E+02  0.45594000000E+02  0.51100000000E-03 0.  1.
         11   -1    0    0    0    0 -0.00000000000E+00 -0.00000000000E+00 -0.45593999997E+02  0.45594000000E+02  0.51100000000E-03 0. -1.
    9900012    2    1    2    0    0 -0.26548149734E+02 -0.18014316205E+02 -0.29228465014E+02  0.47787274088E+02  0.20000013875E+02 0.  0.
        -12    1    1    2    0    0  0.26548149734E+02  0.18014316205E+02  0.29228465014E+02  0.43400725912E+02  0.00000000000E+00 0.  1.
         11    1    3    3    0    0 -0.54555108569E+01  0.81717138907E-01 -0.11496337577E+02  0.12725370499E+02  0.51100000000E-03 0. -1.
        -11    1    3    3    0    0 -0.16152808786E+02 -0.14505077455E+02 -0.18970643151E+02  0.28830466619E+02  0.51100000000E-03 0.  1.
        -12    1    3    3    0    0 -0.49398300918E+01 -0.35909558893E+01  0.12385157137E+01  0.62314369698E+01  0.00000000000E+00 0.  1.
</event>
<event>
 7    1  0.1542786E-009  0.4778727E+02  0.7816164E-02  0.1312668E+00
        -11   -1    0    0    0    0  0.00000000000E+00  0.00000000000E+00  0.45593999997E+02  0.45594000000E+02  0.51100000000E-03 0.  1.
         11   -1    0    0    0    0 -0.00000000000E+00 -0.00000000000E+00 -0.45593999997E+02  0.45594000000E+02  0.51100000000E-03 0. -1.
    9900012    2    1    2    0    0 -0.33007130960E+02  0.28148281584E+02  0.13515676562E+01  0.47787272062E+02  0.20000004642E+02 0.  0.
        -12    1    1    2    0    0  0.33007130960E+02 -0.28148281584E+02 -0.13515676562E+01  0.43400727938E+02  0.00000000000E+00 0.  1.
         11    1    3    3    0    0 -0.15298780107E+02  0.12591874241E+02  0.99370151002E+01  0.22166466543E+02  0.51100000000E-03 0.  1.
        -11    1    3    3    0    0 -0.11007536517E+02  0.85765223768E+01 -0.24609650495E+01  0.14169648743E+02  0.51100000000E-03 0. -1.
        -12    1    3    3    0    0 -0.67008143363E+01  0.69798849669E+01 -0.61244823945E+01  0.11451156777E+02  0.00000000000E+00 0.  1.
</event>
<event>
 7    1  0.1542786E-009  0.4778728E+02  0.7816164E-02  0.1312668E+00
        -11   -1    0    0    0    0  0.00000000000E+00  0.00000000000E+00  0.45593999997E+02  0.45594000000E+02  0.51100000000E-03 0. -1.
         11   -1    0    0    0    0 -0.00000000000E+00 -0.00000000000E+00 -0.45593999997E+02  0.45594000000E+02  0.51100000000E-03 0.  1.
    9900012    2    1    2    0    0 -0.15735698331E+02 -0.22128886226E+02  0.33857389488E+02  0.47787278456E+02  0.20000033793E+02 0.  0.
        -12    1    1    2    0    0  0.15735698331E+02  0.22128886226E+02 -0.33857389488E+02  0.43400721544E+02  0.00000000000E+00 0.  1.
         11    1    3    3    0    0 -0.53971996517E+01 -0.58519496450E+01  0.93322344394E+01  0.12266445232E+02  0.51100000000E-03 0. -1.
        -11    1    3    3    0    0 -0.14360063269E+02 -0.78903443373E+01  0.15183441243E+02  0.22338438600E+02  0.51100000000E-03 0.  1.
         12    1    3    3    0    0  0.40215645894E+01 -0.83865922440E+01  0.93417138048E+01  0.13182394624E+02  0.00000000000E+00 0. -1.
</event>
<event>
 7    1  0.1542786E-009  0.4778728E+02  0.7816164E-02  0.1312668E+00
        -11   -1    0    0    0    0  0.00000000000E+00  0.00000000000E+00  0.45593999997E+02  0.45594000000E+02  0.51100000000E-03 0.  1.
         11   -1    0    0    0    0 -0.00000000000E+00 -0.00000000000E+00 -0.45593999997E+02  0.45594000000E+02  0.51100000000E-03 0. -1.
    9900012    2    1    2    0    0  0.11130844257E+02 -0.37149218460E+02 -0.19484920114E+02  0.47787282979E+02  0.20000054414E+02 0.  0.
        -12    1    1    2    0    0 -0.11130844257E+02  0.37149218460E+02  0.19484920114E+02  0.43400717021E+02  0.00000000000E+00 0.  1.
         11    1    3    3    0    0  0.11275255763E+02 -0.29138973217E+02 -0.20997313488E+02  0.37644366466E+02  0.51100000000E-03 0. -1.
        -11    1    3    3    0    0 -0.29809577692E+01 -0.41429317990E+01 -0.33021542352E-01  0.51040262339E+01  0.51100000000E-03 0.  1.
        -12    1    3    3    0    0  0.28365462632E+01 -0.38673134444E+01  0.15454149162E+01  0.50388902790E+01  0.00000000000E+00 0.  1.
</event>
<event>
 7    1  0.1542786E-009  0.4778727E+02  0.7816164E-02  0.1312668E+00
        -11   -1    0    0    0    0  0.00000000000E+00  0.00000000000E+00  0.45593999997E+02  0.45594000000E+02  0.51100000000E-03 0.  1.
         11   -1    0    0    0    0 -0.00000000000E+00 -0.00000000000E+00 -0.45593999997E+02  0.45594000000E+02  0.51100000000E-03 0. -1.
    9900012    2    1    2    0    0 -0.27116562226E+02  0.11519168961E+02 -0.31868857998E+02  0.47787270621E+02  0.19999998071E+02 0.  0.
        -12    1    1    2    0    0  0.27116562226E+02 -0.11519168961E+02  0.31868857998E+02  0.43400729379E+02  0.00000000000E+00 0.  1.
         11    1    3    3    0    0 -0.99966186635E+00 -0.74448988494E+00 -0.25745851885E+01  0.28604332172E+01  0.51100000000E-03 0. -1.
        -11    1    3    3    0    0 -0.20348867296E+02  0.17065391817E+02 -0.22836363099E+02  0.35025754495E+02  0.51100000000E-03 0.  1.
        -12    1    3    3    0    0 -0.57680330643E+01 -0.48017329709E+01 -0.64579097104E+01  0.99010829096E+01  0.00000000000E+00 0.  1.
</event>
<event>
 7    1  0.1542786E-009  0.4778728E+02  0.7816164E-02  0.1312668E+00
        -11   -1    0    0    0    0  0.00000000000E+00  0.00000000000E+00  0.45593999997E+02  0.45594000000E+02  0.51100000000E-03 0.  1.
         11   -1    0    0    0    0 -0.00000000000E+00 -0.00000000000E+00 -0.45593999997E+02  0.45594000000E+02  0.51100000000E-03 0. -1.
    9900012    2    1    2    0    0 -0.33602923110E+01  0.33843035088E+02 -0.26962566781E+02  0.47787278856E+02  0.20000035617E+02 0.  0.
        -12    1    1    2    0    0  0.33602923110E+01 -0.33843035088E+02  0.26962566781E+02  0.43400721144E+02  0.00000000000E+00 0.  1.
         11    1    3    3    0    0 -0.28322641233E+01  0.12707198006E+02 -0.15304876374E+02  0.20093129231E+02  0.51100000000E-03 0. -1.
        -11    1    3    3    0    0  0.58483375843E+01  0.15427323747E+02 -0.86037339859E+01  0.18607246149E+02  0.51100000000E-03 0.  1.
         12    1    3    3    0    0 -0.63763657721E+01  0.57085133350E+01 -0.30539564217E+01  0.90869034759E+01  0.00000000000E+00 0. -1.
</event>
<event>
 7    1  0.1542786E-009  0.4778726E+02  0.7816164E-02  0.1312668E+00
        -11   -1    0    0    0    0  0.00000000000E+00  0.00000000000E+00  0.45593999997E+02  0.45594000000E+02  0.51100000000E-03 0. -1.
         11   -1    0    0    0    0 -0.00000000000E+00 -0.00000000000E+00 -0.45593999997E+02  0.45594000000E+02  0.51100000000E-03 0.  1.
    9900012    2    1    2    0    0  0.34492201372E+02  0.92931262564E+01  0.24648523315E+02  0.47787264376E+02  0.19999969596E+02 0.  0.
        -12    1    1    2    0    0 -0.34492201372E+02 -0.92931262564E+01 -0.24648523315E+02  0.43400735624E+02  0.00000000000E+00 0.  1.
         11    1    3    3    0    0  0.13310809560E+02 -0.12489623228E+01  0.53629595244E+01  0.14404821871E+02  0.51100000000E-03 0. -1.
        -11    1    3    3    0    0  0.96401056792E+01 -0.10400732870E+01  0.12144349475E+02  0.15540225686E+02  0.51100000000E-03 0.  1.
        -12    1    3    3    0    0  0.11541286133E+02  0.11582161866E+02  0.71412143156E+01  0.17842216818E+02  0.00000000000E+00 0.  1.
</event>
<event>
 7    1  0.1542786E-009  0.4778727E+02  0.7816164E-02  0.1312668E+00
        -11   -1    0    0    0    0  0.00000000000E+00  0.00000000000E+00  0.45593999997E+02  0.45594000000E+02  0.51100000000E-03 0.  1.
         11   -1    0    0    0    0 -0.00000000000E+00 -0.00000000000E+00 -0.45593999997E+02  0.45594000000E+02  0.51100000000E-03 0. -1.
    9900012    2    1    2    0    0  0.45738977723E+01 -0.41601816442E+02 -0.11488767177E+02  0.47787269092E+02  0.19999991097E+02 0.  0.
        -12    1    1    2    0    0 -0.45738977723E+01  0.41601816442E+02  0.11488767177E+02  0.43400730908E+02  0.00000000000E+00 0.  1.
         11    1    3    3    0    0  0.11137564486E+01 -0.18379299689E+02 -0.25622934069E+01  0.18590439969E+02  0.51100000000E-03 0. -1.
        -11    1    3    3    0    0 -0.11045830602E+01 -0.92601278025E+01 -0.10933749750E+02  0.14370697774E+02  0.51100000000E-03 0.  1.
        -12    1    3    3    0    0  0.45647243839E+01 -0.13962388950E+02  0.20072759795E+01  0.14826131348E+02  0.00000000000E+00 0.  1.
</event>
<event>
 7    1  0.1558617E-009  0.4778727E+02  0.7816164E-02  0.1312668E+00
        -11   -1    0    0    0    0  0.00000000000E+00  0.00000000000E+00  0.45593999997E+02  0.45594000000E+02  0.51100000000E-03 0.  1.
         11   -1    0    0    0    0 -0.00000000000E+00 -0.00000000000E+00 -0.45593999997E+02  0.45594000000E+02  0.51100000000E-03 0. -1.
    9900012    2    1    2    0    0 -0.43214326238E+02 -0.13690293953E+01  0.37776793314E+01  0.47787273107E+02  0.20000009405E+02 0.  0.
        -12    1    1    2    0    0  0.43214326238E+02  0.13690293953E+01 -0.37776793314E+01  0.43400726893E+02  0.00000000000E+00 0.  1.
         11    1    3    3    0    0 -0.12497735173E+02  0.41940936724E+01  0.44274900714E+01  0.13906346565E+02  0.51100000000E-03 0. -1.
        -11    1    3    3    0    0 -0.70860848180E+01  0.14403102905E+00 -0.56477087396E+01  0.90625579863E+01  0.51100000000E-03 0.  1.
         12    1    3    3    0    0 -0.23630506247E+02 -0.57071540967E+01  0.49978979996E+01  0.24818368556E+02  0.00000000000E+00 0. -1.
</event>
<event>
 7    1  0.1542786E-009  0.4778727E+02  0.7816164E-02  0.1312668E+00
        -11   -1    0    0    0    0  0.00000000000E+00  0.00000000000E+00  0.45593999997E+02  0.45594000000E+02  0.51100000000E-03 0.  1.
         11   -1    0    0    0    0 -0.00000000000E+00 -0.00000000000E+00 -0.45593999997E+02  0.45594000000E+02  0.51100000000E-03 0. -1.
    9900012    2    1    2    0    0 -0.11064623986E+02 -0.11783607481E+02 -0.40278329615E+02  0.47787272520E+02  0.20000006726E+02 0.  0.
        -12    1    1    2    0    0  0.11064623986E+02  0.11783607481E+02  0.40278329615E+02  0.43400727480E+02  0.00000000000E+00 0.  1.
         11    1    3    3    0    0  0.47445869209E-01  0.14818877127E+01  0.75099239432E+00  0.16619964323E+01  0.51100000000E-03 0. -1.
        -11    1    3    3    0    0 -0.10346306445E+02 -0.10273304471E+02 -0.19356442442E+02  0.24233421262E+02  0.51100000000E-03 0.  1.
         12    1    3    3    0    0 -0.76576341033E+00 -0.29921907230E+01 -0.21672879568E+02  0.21891854825E+02  0.00000000000E+00 0. -1.
</event>
<event>
 7    1  0.1542786E-009  0.4778727E+02  0.7816164E-02  0.1312668E+00
        -11   -1    0    0    0    0  0.00000000000E+00  0.00000000000E+00  0.45593999997E+02  0.45594000000E+02  0.51100000000E-03 0.  1.
         11   -1    0    0    0    0 -0.00000000000E+00 -0.00000000000E+00 -0.45593999997E+02  0.45594000000E+02  0.51100000000E-03 0. -1.
    9900012    2    1    2    0    0 -0.22314154750E+01 -0.37751313958E+02 -0.21295127229E+02  0.47787270003E+02  0.19999995253E+02 0.  0.
        -12    1    1    2    0    0  0.22314154750E+01  0.37751313958E+02  0.21295127229E+02  0.43400729997E+02  0.00000000000E+00 0.  1.
         11    1    3    3    0    0 -0.22895060325E+01 -0.32572733941E+01  0.16182499431E+01  0.42977204395E+01  0.51100000000E-03 0. -1.
        -11    1    3    3    0    0  0.57582793318E+01 -0.20434202277E+02 -0.95786271176E+01  0.23290867336E+02  0.51100000000E-03 0.  1.
        -12    1    3    3    0    0 -0.57001887744E+01 -0.14059838287E+02 -0.13334750054E+02  0.20198682227E+02  0.00000000000E+00 0.  1.
</event>
<event>
 7    1  0.1542786E-009  0.4778726E+02  0.7816164E-02  0.1312668E+00
        -11   -1    0    0    0    0  0.00000000000E+00  0.00000000000E+00  0.45593999997E+02  0.45594000000E+02  0.51100000000E-03 0. -1.
         11   -1    0    0    0    0 -0.00000000000E+00 -0.00000000000E+00 -0.45593999997E+02  0.45594000000E+02  0.51100000000E-03 0.  1.
    9900012    2    1    2    0    0 -0.19937938555E+02  0.11986778492E+02  0.36639052187E+02  0.47787258099E+02  0.19999940976E+02 0.  0.
        -12    1    1    2    0    0  0.19937938555E+02 -0.11986778492E+02 -0.36639052187E+02  0.43400741901E+02  0.00000000000E+00 0.  1.
         11    1    3    3    0    0 -0.91389114007E+01  0.10323102633E+02  0.25168546032E+02  0.28697419033E+02  0.51100000000E-03 0. -1.
        -11    1    3    3    0    0 -0.10043820420E+02  0.51438077431E+01  0.66549856549E+01  0.13100607659E+02  0.51100000000E-03 0.  1.
         12    1    3    3    0    0 -0.75520673416E+00 -0.34801318846E+01  0.48155205005E+01  0.59892314061E+01  0.00000000000E+00 0. -1.
</event>
