<event>
 7    1  0.4358868E-015  0.9000757E+02  0.7816164E-02  0.1186339E+00
        -11   -1    0    0    0    0  0.00000000000E+00  0.00000000000E+00  0.45593999997E+02  0.45594000000E+02  0.51100000000E-03 0. -1.
         11   -1    0    0    0    0 -0.00000000000E+00 -0.00000000000E+00 -0.45593999997E+02  0.45594000000E+02  0.51100000000E-03 0.  1.
    9900012    2    1    2    0    0 -0.47181639973E+00 -0.68593950620E+00 -0.83683723848E+00  0.90007567755E+02  0.89999826849E+02 0.  0.
         12    1    1    2    0    0  0.47181639973E+00  0.68593950620E+00  0.83683723848E+00  0.11804322450E+01  0.00000000000E+00 0. -1.
         11    1    3    3    0    0  0.34549037994E+01 -0.16240033405E+01  0.94520668138E+01  0.10193886130E+02  0.51100000000E-03 0. -1.
        -11    1    3    3    0    0  0.27710121445E+02 -0.88374968975E+01  0.19708543741E+02  0.35133728504E+02  0.51100000000E-03 0.  1.
         12    1    3    3    0    0 -0.31636841644E+02  0.97755607319E+01 -0.29997447794E+02  0.44679953122E+02  0.00000000000E+00 0. -1.
</event>
<event>
 7    1  0.4358868E-015  0.9000770E+02  0.7816164E-02  0.1186339E+00
        -11   -1    0    0    0    0  0.00000000000E+00  0.00000000000E+00  0.45593999997E+02  0.45594000000E+02  0.51100000000E-03 0. -1.
         11   -1    0    0    0    0 -0.00000000000E+00 -0.00000000000E+00 -0.45593999997E+02  0.45594000000E+02  0.51100000000E-03 0.  1.
    9900012    2    1    2    0    0 -0.78298425659E+00 -0.49649591665E+00 -0.73042959469E+00  0.90007703455E+02  0.89999964341E+02 0.  0.
         12    1    1    2    0    0  0.78298425659E+00  0.49649591665E+00  0.73042959469E+00  0.11802965450E+01  0.00000000000E+00 0. -1.
         11    1    3    3    0    0  0.51814589618E-01 -0.60063774796E+01  0.59083659582E+01  0.84254402696E+01  0.51100000000E-03 0. -1.
        -11    1    3    3    0    0  0.34997042028E+02 -0.11380932203E+02 -0.17145654591E+02  0.40599163047E+02  0.51100000000E-03 0.  1.
         12    1    3    3    0    0 -0.35831840874E+02  0.16890813766E+02  0.10506859038E+02  0.40983100138E+02  0.00000000000E+00 0. -1.
</event>
<event>
 7    1  0.4358868E-015  0.9000767E+02  0.7816164E-02  0.1186339E+00
        -11   -1    0    0    0    0  0.00000000000E+00  0.00000000000E+00  0.45593999997E+02  0.45594000000E+02  0.51100000000E-03 0.  1.
         11   -1    0    0    0    0 -0.00000000000E+00 -0.00000000000E+00 -0.45593999997E+02  0.45594000000E+02  0.51100000000E-03 0. -1.
    9900012    2    1    2    0    0  0.10097981325E+00  0.32176433514E+00  0.11311297191E+01  0.90007667991E+02  0.89999928408E+02 0.  0.
         12    1    1    2    0    0 -0.10097981325E+00 -0.32176433514E+00 -0.11311297191E+01  0.11803320090E+01  0.00000000000E+00 0. -1.
         11    1    3    3    0    0 -0.44049678966E+01 -0.83889239231E+01 -0.38491277904E+01  0.10227099871E+02  0.51100000000E-03 0. -1.
        -11    1    3    3    0    0  0.13482150428E+02  0.32604919851E+01  0.40464070535E+02  0.42775462507E+02  0.51100000000E-03 0.  1.
         12    1    3    3    0    0 -0.89762027186E+01  0.54501962731E+01 -0.35483813025E+02  0.37005105614E+02  0.00000000000E+00 0. -1.
</event>
<event>
 7    1  0.4358868E-015  0.9000772E+02  0.7816164E-02  0.1186339E+00
        -11   -1    0    0    0    0  0.00000000000E+00  0.00000000000E+00  0.45593999997E+02  0.45594000000E+02  0.51100000000E-03 0.  1.
         11   -1    0    0    0    0 -0.00000000000E+00 -0.00000000000E+00 -0.45593999997E+02  0.45594000000E+02  0.51100000000E-03 0. -1.
    9900012    2    1    2    0    0  0.11128990889E+01  0.24548343003E+00  0.30699825017E+00  0.90007722735E+02  0.89999983875E+02 0.  0.
         12    1    1    2    0    0 -0.11128990889E+01 -0.24548343003E+00 -0.30699825017E+00  0.11802772649E+01  0.00000000000E+00 0. -1.
         11    1    3    3    0    0 -0.43354167420E+01  0.68821095674E+01 -0.24655571682E+01  0.84993083739E+01  0.51100000000E-03 0. -1.
        -11    1    3    3    0    0 -0.30396428435E+02 -0.87931921998E+01 -0.21418875960E+02  0.38210356428E+02  0.51100000000E-03 0.  1.
         12    1    3    3    0    0  0.35844744266E+02  0.21565660624E+01  0.24191431378E+02  0.43298057934E+02  0.00000000000E+00 0. -1.
</event>
<event>
 7    1  0.4358868E-015  0.9000774E+02  0.7816164E-02  0.1186339E+00
        -11   -1    0    0    0    0  0.00000000000E+00  0.00000000000E+00  0.45593999997E+02  0.45594000000E+02  0.51100000000E-03 0. -1.
         11   -1    0    0    0    0 -0.00000000000E+00 -0.00000000000E+00 -0.45593999997E+02  0.45594000000E+02  0.51100000000E-03 0.  1.
    9900012    2    1    2    0    0  0.35308907286E+00  0.21778951783E+00 -0.11049493250E+01  0.90007738513E+02  0.89999999861E+02 0.  0.
         12    1    1    2    0    0 -0.35308907286E+00 -0.21778951783E+00  0.11049493250E+01  0.11802614872E+01  0.00000000000E+00 0. -1.
         11    1    3    3    0    0  0.26411086223E+02  0.89037129351E+01  0.26086049712E+02  0.38174645635E+02  0.51100000000E-03 0. -1.
        -11    1    3    3    0    0  0.75051729378E+01 -0.67433538424E+01 -0.33992689529E+01  0.10646852659E+02  0.51100000000E-03 0.  1.
        -12    1    3    3    0    0 -0.33563170088E+02 -0.19425695749E+01 -0.23791730084E+02  0.41186240218E+02  0.00000000000E+00 0.  1.
</event>
<event>
 7    1  0.6720474E-015  0.9000757E+02  0.7816164E-02  0.1186339E+00
        -11   -1    0    0    0    0  0.00000000000E+00  0.00000000000E+00  0.45593999997E+02  0.45594000000E+02  0.51100000000E-03 0.  1.
         11   -1    0    0    0    0 -0.00000000000E+00 -0.00000000000E+00 -0.45593999997E+02  0.45594000000E+02  0.51100000000E-03 0. -1.
    9900012    2    1    2    0    0  0.58092698692E+00  0.93276660762E+00  0.43114729708E+00  0.90007568850E+02  0.89999827959E+02 0.  0.
         12    1    1    2    0    0 -0.58092698692E+00 -0.93276660762E+00 -0.43114729708E+00  0.11804311501E+01  0.00000000000E+00 0. -1.
         11    1    3    3    0    0  0.55085468554E+01  0.19618844990E+02 -0.30116147377E+02  0.36362418790E+02  0.51100000000E-03 0. -1.
        -11    1    3    3    0    0 -0.28189881707E+01  0.13645410073E+01 -0.88505594206E+01  0.93883475003E+01  0.51100000000E-03 0.  1.
        -12    1    3    3    0    0 -0.21086316978E+01 -0.20050619390E+02  0.39397854094E+02  0.44256802559E+02  0.00000000000E+00 0.  1.
</event>
<event>
 7    1  0.4358868E-015  0.9000779E+02  0.7816164E-02  0.1186339E+00
        -11   -1    0    0    0    0  0.00000000000E+00  0.00000000000E+00  0.45593999997E+02  0.45594000000E+02  0.51100000000E-03 0. -1.
         11   -1    0    0    0    0 -0.00000000000E+00 -0.00000000000E+00 -0.45593999997E+02  0.45594000000E+02  0.51100000000E-03 0.  1.
    9900012    2    1    2    0    0  0.59179957467E+00 -0.64362348959E+00 -0.79272518677E+00  0.90007791902E+02  0.90000053955E+02 0.  0.
         12    1    1    2    0    0 -0.59179957467E+00  0.64362348959E+00  0.79272518677E+00  0.11802080980E+01  0.00000000000E+00 0. -1.
         11    1    3    3    0    0  0.39913365628E+02  0.73020814555E+01  0.20996735367E+01  0.40630109261E+02  0.51100000000E-03 0. -1.
        -11    1    3    3    0    0  0.11562692282E+01  0.49303922122E-01 -0.77472262235E+01  0.78331924414E+01  0.51100000000E-03 0.  1.
        -12    1    3    3    0    0 -0.40477835282E+02 -0.79950088672E+01  0.48548275001E+01  0.41544490199E+02  0.00000000000E+00 0.  1.
</event>
<event>
 7    1  0.4358868E-015  0.9000779E+02  0.7816164E-02  0.1186339E+00
        -11   -1    0    0    0    0  0.00000000000E+00  0.00000000000E+00  0.45593999997E+02  0.45594000000E+02  0.51100000000E-03 0. -1.
         11   -1    0    0    0    0 -0.00000000000E+00 -0.00000000000E+00 -0.45593999997E+02  0.45594000000E+02  0.51100000000E-03 0.  1.
    9900012    2    1    2    0    0 -0.12276856407E+00  0.10152841317E+01  0.58908216693E+00  0.90007791634E+02  0.90000053683E+02 0.  0.
         12    1    1    2    0    0  0.12276856407E+00 -0.10152841317E+01 -0.58908216693E+00  0.11802083662E+01  0.00000000000E+00 0. -1.
         11    1    3    3    0    0  0.10066679660E+02 -0.12269617454E+01  0.84224722284E+01  0.13182621636E+02  0.51100000000E-03 0. -1.
        -11    1    3    3    0    0 -0.20235123613E+02 -0.33491234698E+02 -0.66277739024E+01  0.39686904848E+02  0.51100000000E-03 0.  1.
         12    1    3    3    0    0  0.10045675389E+02  0.35733480575E+02 -0.12056161591E+01  0.37138265150E+02  0.00000000000E+00 0. -1.
</event>
<event>
 7    1  0.4358868E-015  0.9000771E+02  0.7816164E-02  0.1186339E+00
        -11   -1    0    0    0    0  0.00000000000E+00  0.00000000000E+00  0.45593999997E+02  0.45594000000E+02  0.51100000000E-03 0. -1.
         11   -1    0    0    0    0 -0.00000000000E+00 -0.00000000000E+00 -0.45593999997E+02  0.45594000000E+02  0.51100000000E-03 0.  1.
    9900012    2    1    2    0    0  0.92464614751E+00  0.73159886067E-01  0.72990949408E+00  0.90007707351E+02  0.89999968288E+02 0.  0.
         12    1    1    2    0    0 -0.92464614751E+00 -0.73159886067E-01 -0.72990949408E+00  0.11802926487E+01  0.00000000000E+00 0. -1.
         11    1    3    3    0    0  0.33991544409E+01  0.12275086736E+02  0.34369320969E+02  0.36653543204E+02  0.51100000000E-03 0. -1.
        -11    1    3    3    0    0  0.19855982613E+01  0.71196647740E+01  0.56771486181E+01  0.93199916117E+01  0.51100000000E-03 0.  1.
        -12    1    3    3    0    0 -0.44601065547E+01 -0.19321591624E+02 -0.39316560093E+02  0.44034172536E+02  0.00000000000E+00 0.  1.
</event>
<event>
 7    1  0.4358868E-015  0.9000777E+02  0.7816164E-02  0.1186339E+00
        -11   -1    0    0    0    0  0.00000000000E+00  0.00000000000E+00  0.45593999997E+02  0.45594000000E+02  0.51100000000E-03 0.  1.
         11   -1    0    0    0    0 -0.00000000000E+00 -0.00000000000E+00 -0.45593999997E+02  0.45594000000E+02  0.51100000000E-03 0. -1.
    9900012    2    1    2    0    0 -0.91886369909E+00  0.72440463454E+00  0.15447809296E+00  0.90007772881E+02  0.90000034683E+02 0.  0.
         12    1    1    2    0    0  0.91886369909E+00 -0.72440463454E+00 -0.15447809296E+00  0.11802271194E+01  0.00000000000E+00 0. -1.
         11    1    3    3    0    0  0.18424284969E+02  0.24344484927E+02 -0.26413794213E+02  0.40370741236E+02  0.51100000000E-03 0. -1.
        -11    1    3    3    0    0 -0.92504321583E+01 -0.40900515008E+01 -0.49092540695E+01  0.11242766215E+02  0.51100000000E-03 0.  1.
        -12    1    3    3    0    0 -0.10092716510E+02 -0.19530028792E+02  0.31477526375E+02  0.38394265429E+02  0.00000000000E+00 0.  1.
</event>
<event>
 7    1  0.4358868E-015  0.9000773E+02  0.7816164E-02  0.1186339E+00
        -11   -1    0    0    0    0  0.00000000000E+00  0.00000000000E+00  0.45593999997E+02  0.45594000000E+02  0.51100000000E-03 0.  1.
         11   -1    0    0    0    0 -0.00000000000E+00 -0.00000000000E+00 -0.45593999997E+02  0.45594000000E+02  0.51100000000E-03 0. -1.
    9900012    2    1    2    0    0 -0.90063701538E+00 -0.62158299039E-01 -0.76027333936E+00  0.90007734675E+02  0.89999995972E+02 0.  0.
         12    1    1    2    0    0  0.90063701538E+00  0.62158299039E-01  0.76027333936E+00  0.11802653253E+01  0.00000000000E+00 0. -1.
         11    1    3    3    0    0  0.15258380405E+02  0.13750591997E+02  0.10670292972E+02  0.23146319474E+02  0.51100000000E-03 0. -1.
        -11    1    3    3    0    0 -0.69411561604E+01  0.66623771567E+01  0.23467700406E+02  0.25363357050E+02  0.51100000000E-03 0.  1.
         12    1    3    3    0    0 -0.92178612597E+01 -0.20475127453E+02 -0.34898266717E+02  0.41498058151E+02  0.00000000000E+00 0. -1.
</event>
<event>
 7    1  0.4436777E-015  0.9000784E+02  0.7816164E-02  0.1186339E+00
        -11   -1    0    0    0    0  0.00000000000E+00  0.00000000000E+00  0.45593999997E+02  0.45594000000E+02  0.51100000000E-03 0.  1.
         11   -1    0    0    0    0 -0.00000000000E+00 -0.00000000000E+00 -0.45593999997E+02  0.45594000000E+02  0.51100000000E-03 0. -1.
    9900012    2    1    2    0    0  0.41586627332E+00  0.30871944715E+00  0.10604335727E+01  0.90007842461E+02  0.90000105182E+02 0.  0.
         12    1    1    2    0    0 -0.41586627332E+00 -0.30871944715E+00 -0.10604335727E+01  0.11801575388E+01  0.00000000000E+00 0. -1.
         11    1    3    3    0    0  0.81253709918E-01  0.65103473453E+01 -0.35489336416E+02  0.36081632783E+02  0.51100000000E-03 0. -1.
        -11    1    3    3    0    0 -0.25161151782E+00 -0.41243476036E+01 -0.81694297202E+01  0.91549513229E+01  0.51100000000E-03 0.  1.
        -12    1    3    3    0    0  0.58622408122E+00 -0.20772802946E+01  0.44719199709E+02  0.44771258356E+02  0.00000000000E+00 0.  1.
</event>
<event>
 7    1  0.4358868E-015  0.9000769E+02  0.7816164E-02  0.1186339E+00
        -11   -1    0    0    0    0  0.00000000000E+00  0.00000000000E+00  0.45593999997E+02  0.45594000000E+02  0.51100000000E-03 0. -1.
         11   -1    0    0    0    0 -0.00000000000E+00 -0.00000000000E+00 -0.45593999997E+02  0.45594000000E+02  0.51100000000E-03 0.  1.
    9900012    2    1    2    0    0 -0.11716090434E+01 -0.14028816979E+00  0.27902186602E-01  0.90007691967E+02  0.89999952701E+02 0.  0.
         12    1    1    2    0    0  0.11716090434E+01  0.14028816979E+00 -0.27902186602E-01  0.11803080332E+01  0.00000000000E+00 0. -1.
         11    1    3    3    0    0 -0.26623118240E+02 -0.29208431406E+02  0.78439664043E+00  0.39528953545E+02  0.51100000000E-03 0. -1.
        -11    1    3    3    0    0 -0.56874059990E+00 -0.60015463099E+01  0.28370433310E+01  0.66626450530E+01  0.51100000000E-03 0.  1.
        -12    1    3    3    0    0  0.26020249796E+02  0.35069689546E+02 -0.35935377848E+01  0.43816093369E+02  0.00000000000E+00 0.  1.
</event>
<event>
 7    1  0.5674929E-015  0.9000751E+02  0.7816164E-02  0.1186340E+00
        -11   -1    0    0    0    0  0.00000000000E+00  0.00000000000E+00  0.45593999997E+02  0.45594000000E+02  0.51100000000E-03 0. -1.
         11   -1    0    0    0    0 -0.00000000000E+00 -0.00000000000E+00 -0.45593999997E+02  0.45594000000E+02  0.51100000000E-03 0.  1.
    9900012    2    1    2    0    0  0.96158373510E+00  0.35850960905E+00 -0.58343105368E+00  0.90007506792E+02  0.89999765081E+02 0.  0.
         12    1    1    2    0    0 -0.96158373510E+00 -0.35850960905E+00  0.58343105368E+00  0.11804932079E+01  0.00000000000E+00 0. -1.
         11    1    3    3    0    0 -0.24600115918E+01  0.10044835152E+02  0.35548275651E+02  0.37022024152E+02  0.51100000000E-03 0. -1.
        -11    1    3    3    0    0  0.32607733222E+01  0.92862099853E+01  0.23162191742E+01  0.10110945063E+02  0.51100000000E-03 0.  1.
        -12    1    3    3    0    0  0.16082200479E+00 -0.18972535528E+02 -0.38447925879E+02  0.42874537577E+02  0.00000000000E+00 0.  1.
</event>
<event>
 7    1  0.4358868E-015  0.9000777E+02  0.7816164E-02  0.1186339E+00
        -11   -1    0    0    0    0  0.00000000000E+00  0.00000000000E+00  0.45593999997E+02  0.45594000000E+02  0.51100000000E-03 0.  1.
         11   -1    0    0    0    0 -0.00000000000E+00 -0.00000000000E+00 -0.45593999997E+02  0.45594000000E+02  0.51100000000E-03 0. -1.
    9900012    2    1    2    0    0  0.22825065774E+00 -0.46816623970E+00  0.10590847442E+01  0.90007771850E+02  0.90000033638E+02 0.  0.
         12    1    1    2    0    0 -0.22825065774E+00  0.46816623970E+00 -0.10590847442E+01  0.11802281500E+01  0.00000000000E+00 0. -1.
         11    1    3    3    0    0  0.25006201056E+02  0.32691610434E+02  0.12418453794E+02  0.42991504729E+02  0.51100000000E-03 0. -1.
        -11    1    3    3    0    0  0.22182623031E+01 -0.91913622350E+01 -0.13323727352E+01  0.95486671712E+01  0.51100000000E-03 0.  1.
        -12    1    3    3    0    0 -0.26996212701E+02 -0.23968414439E+02 -0.10026996314E+02  0.37467599950E+02  0.00000000000E+00 0.  1.
</event>
<event>
 7    1  0.4358868E-015  0.9000778E+02  0.7816164E-02  0.1186339E+00
        -11   -1    0    0    0    0  0.00000000000E+00  0.00000000000E+00  0.45593999997E+02  0.45594000000E+02  0.51100000000E-03 0. -1.
         11   -1    0    0    0    0 -0.00000000000E+00 -0.00000000000E+00 -0.45593999997E+02  0.45594000000E+02  0.51100000000E-03 0.  1.
    9900012    2    1    2    0    0 -0.16774715047E+00 -0.10055718761E+01 -0.59465165394E+00  0.90007777778E+02  0.90000039644E+02 0.  0.
         12    1    1    2    0    0  0.16774715047E+00  0.10055718761E+01  0.59465165394E+00  0.11802222223E+01  0.00000000000E+00 0. -1.
         11    1    3    3    0    0  0.36643512914E+00 -0.31332842101E+02  0.17284885707E+02  0.35786150156E+02  0.51100000000E-03 0. -1.
        -11    1    3    3    0    0 -0.78955128462E+01 -0.65524212690E+01  0.36471318646E+01  0.10889211114E+02  0.51100000000E-03 0.  1.
        -12    1    3    3    0    0  0.73613305666E+01  0.36879691494E+02 -0.21526669226E+02  0.43332416507E+02  0.00000000000E+00 0.  1.
</event>
<event>
 7    1  0.4358868E-015  0.9000789E+02  0.7816164E-02  0.1186339E+00
        -11   -1    0    0    0    0  0.00000000000E+00  0.00000000000E+00  0.45593999997E+02  0.45594000000E+02  0.51100000000E-03 0. -1.
         11   -1    0    0    0    0 -0.00000000000E+00 -0.00000000000E+00 -0.45593999997E+02  0.45594000000E+02  0.51100000000E-03 0.  1.
    9900012    2    1    2    0    0 -0.53566630302E+00 -0.14429526378E+00 -0.10415802335E+01  0.90007894541E+02  0.90000157949E+02 0.  0.
         12    1    1    2    0    0  0.53566630302E+00  0.14429526378E+00  0.10415802335E+01  0.11801054590E+01  0.00000000000E+00 0. -1.
         11    1    3    3    0    0  0.17163830108E+02  0.45343928499E+01  0.37907961484E+02  0.41858945598E+02  0.51100000000E-03 0. -1.
        -11    1    3    3    0    0  0.22277412287E+01 -0.56073292323E+01 -0.23681518490E+01  0.64817525055E+01  0.51100000000E-03 0.  1.
        -12    1    3    3    0    0 -0.19927237640E+02  0.92864111865E+00 -0.36581389868E+02  0.41667196437E+02  0.00000000000E+00 0.  1.
</event>
<event>
 7    1  0.4358868E-015  0.9000774E+02  0.7816164E-02  0.1186339E+00
        -11   -1    0    0    0    0  0.00000000000E+00  0.00000000000E+00  0.45593999997E+02  0.45594000000E+02  0.51100000000E-03 0. -1.
         11   -1    0    0    0    0 -0.00000000000E+00 -0.00000000000E+00 -0.45593999997E+02  0.45594000000E+02  0.51100000000E-03 0.  1.
    9900012    2    1    2    0    0  0.15196929153E+00 -0.10620668692E+01 -0.49186538426E+00  0.90007740598E+02  0.90000001974E+02 0.  0.
         12    1    1    2    0    0 -0.15196929153E+00  0.10620668692E+01  0.49186538426E+00  0.11802594021E+01  0.00000000000E+00 0. -1.
         11    1    3    3    0    0  0.48007524144E+00  0.52111862602E+01 -0.14933917255E+01  0.54421644207E+01  0.51100000000E-03 0. -1.
        -11    1    3    3    0    0 -0.98752876161E+00  0.35021652040E+02  0.18606389256E+02  0.39669749761E+02  0.51100000000E-03 0.  1.
         12    1    3    3    0    0  0.65942281170E+00 -0.41294905169E+02 -0.17604862915E+02  0.44895826417E+02  0.00000000000E+00 0. -1.
</event>
<event>
 7    1  0.4358868E-015  0.9000776E+02  0.7816164E-02  0.1186339E+00
        -11   -1    0    0    0    0  0.00000000000E+00  0.00000000000E+00  0.45593999997E+02  0.45594000000E+02  0.51100000000E-03 0.  1.
         11   -1    0    0    0    0 -0.00000000000E+00 -0.00000000000E+00 -0.45593999997E+02  0.45594000000E+02  0.51100000000E-03 0. -1.
    9900012    2    1    2    0    0  0.53143263751E+00  0.10375208318E+01 -0.18467406534E+00  0.90007756536E+02  0.90000018122E+02 0.  0.
         12    1    1    2    0    0 -0.53143263751E+00 -0.10375208318E+01  0.18467406534E+00  0.11802434643E+01  0.00000000000E+00 0. -1.
         11    1    3    3    0    0 -0.39369145910E+01 -0.56098552146E+01  0.58712973318E+01  0.90245168650E+01  0.51100000000E-03 0. -1.
        -11    1    3    3    0    0 -0.10373818459E+02  0.32385010296E+02  0.21687744935E+02  0.40333153632E+02  0.51100000000E-03 0.  1.
         12    1    3    3    0    0  0.14842165687E+02 -0.25737634250E+02 -0.27743716332E+02  0.40650086039E+02  0.00000000000E+00 0. -1.
</event>
<event>
 7    1  0.4358868E-015  0.9000804E+02  0.7816164E-02  0.1186338E+00
        -11   -1    0    0    0    0  0.00000000000E+00  0.00000000000E+00  0.45593999997E+02  0.45594000000E+02  0.51100000000E-03 0.  1.
         11   -1    0    0    0    0 -0.00000000000E+00 -0.00000000000E+00 -0.45593999997E+02  0.45594000000E+02  0.51100000000E-03 0. -1.
    9900012    2    1    2    0    0  0.62275284275E+00  0.87838490049E+00  0.48262268321E+00  0.90008039920E+02  0.90000305246E+02 0.  0.
         12    1    1    2    0    0 -0.62275284275E+00 -0.87838490049E+00 -0.48262268321E+00  0.11799600802E+01  0.00000000000E+00 0. -1.
         11    1    3    3    0    0  0.14988488417E+02 -0.29014257881E+02  0.12690229389E+01  0.32681682406E+02  0.51100000000E-03 0. -1.
        -11    1    3    3    0    0 -0.33391244954E+01 -0.12776374009E+02  0.77205157691E+00  0.13228059159E+02  0.51100000000E-03 0.  1.
        -12    1    3    3    0    0 -0.11026611079E+02  0.42669016790E+02 -0.15584518326E+01  0.44098298355E+02  0.00000000000E+00 0.  1.
</event>
<event>
 7    1  0.4358868E-015  0.9000761E+02  0.7816164E-02  0.1186339E+00
        -11   -1    0    0    0    0  0.00000000000E+00  0.00000000000E+00  0.45593999997E+02  0.45594000000E+02  0.51100000000E-03 0.  1.
         11   -1    0    0    0    0 -0.00000000000E+00 -0.00000000000E+00 -0.45593999997E+02  0.45594000000E+02  0.51100000000E-03 0. -1.
    9900012    2    1    2    0    0 -0.61156054383E+00 -0.35358539472E+00  0.94567238050E+00  0.90007608039E+02  0.89999867665E+02 0.  0.
         12    1    1    2    0    0  0.61156054383E+00  0.35358539472E+00 -0.94567238050E+00  0.11803919609E+01  0.00000000000E+00 0. -1.
         11    1    3    3    0    0 -0.10895408465E+02  0.15256134896E+01 -0.36517278370E+02  0.38138550601E+02  0.51100000000E-03 0. -1.
        -11    1    3    3    0    0 -0.83933514169E+01  0.15129286921E+01 -0.13764121333E+01  0.86389705322E+01  0.51100000000E-03 0.  1.
        -12    1    3    3    0    0  0.18677199338E+02 -0.33921275764E+01  0.38839362884E+02  0.43230086905E+02  0.00000000000E+00 0.  1.
</event>
<event>
 7    1  0.4358868E-015  0.9000770E+02  0.7816164E-02  0.1186339E+00
        -11   -1    0    0    0    0  0.00000000000E+00  0.00000000000E+00  0.45593999997E+02  0.45594000000E+02  0.51100000000E-03 0. -1.
         11   -1    0    0    0    0 -0.00000000000E+00 -0.00000000000E+00 -0.45593999997E+02  0.45594000000E+02  0.51100000000E-03 0.  1.
    9900012    2    1    2    0    0  0.14232674809E+00  0.99319872377E+00 -0.62162053296E+00  0.90007698049E+02  0.89999958863E+02 0.  0.
         12    1    1    2    0    0 -0.14232674809E+00 -0.99319872377E+00  0.62162053296E+00  0.11803019508E+01  0.00000000000E+00 0. -1.
         11    1    3    3    0    0 -0.51862252807E+00  0.99339259274E+01 -0.35319682325E+01  0.10555882413E+02  0.51100000000E-03 0. -1.
        -11    1    3    3    0    0 -0.30211632507E+02  0.19826289204E+02 -0.51186800428E+01  0.36496922720E+02  0.51100000000E-03 0.  1.
         12    1    3    3    0    0  0.30872581784E+02 -0.28767016408E+02  0.80290277423E+01  0.42954892917E+02  0.00000000000E+00 0. -1.
</event>
<event>
 7    1  0.4358868E-015  0.9000741E+02  0.7816164E-02  0.1186340E+00
        -11   -1    0    0    0    0  0.00000000000E+00  0.00000000000E+00  0.45593999997E+02  0.45594000000E+02  0.51100000000E-03 0. -1.
         11   -1    0    0    0    0 -0.00000000000E+00 -0.00000000000E+00 -0.45593999997E+02  0.45594000000E+02  0.51100000000E-03 0.  1.
    9900012    2    1    2    0    0 -0.22842026241E+00 -0.10901382303E+01 -0.39141788022E+00  0.90007413225E+02  0.89999670278E+02 0.  0.
         12    1    1    2    0    0  0.22842026241E+00  0.10901382303E+01  0.39141788022E+00  0.11805867755E+01  0.00000000000E+00 0. -1.
         11    1    3    3    0    0  0.27622405608E+02 -0.18135450359E+02 -0.22148848089E+01  0.33117934209E+02  0.51100000000E-03 0. -1.
        -11    1    3    3    0    0  0.93408953222E+01 -0.74868065810E+01 -0.21357648839E+01  0.12160020152E+02  0.51100000000E-03 0.  1.
        -12    1    3    3    0    0 -0.37191721193E+02  0.24532118710E+02  0.39592318126E+01  0.44729458863E+02  0.00000000000E+00 0.  1.
</event>
<event>
 7    1  0.4358868E-015  0.9000773E+02  0.7816164E-02  0.1186339E+00
        -11   -1    0    0    0    0  0.00000000000E+00  0.00000000000E+00  0.45593999997E+02  0.45594000000E+02  0.51100000000E-03 0.  1.
         11   -1    0    0    0    0 -0.00000000000E+00 -0.00000000000E+00 -0.45593999997E+02  0.45594000000E+02  0.51100000000E-03 0. -1.
    9900012    2    1    2    0    0  0.78442142342E+00  0.86734022158E+00  0.15950088049E+00  0.90007730302E+02  0.89999991542E+02 0.  0.
         12    1    1    2    0    0 -0.78442142342E+00 -0.86734022158E+00 -0.15950088049E+00  0.11802696982E+01  0.00000000000E+00 0. -1.
         11    1    3    3    0    0  0.45229136830E+01  0.62727826293E+01 -0.57442606227E+01  0.96333317425E+01  0.51100000000E-03 0. -1.
        -11    1    3    3    0    0  0.69066414508E+01 -0.18648679359E+02  0.38659211320E+02  0.43474240167E+02  0.51100000000E-03 0.  1.
         12    1    3    3    0    0 -0.10645133710E+02  0.13243236952E+02 -0.32755449817E+02  0.36900158392E+02  0.00000000000E+00 0. -1.
</event>
<event>
 7    1  0.4358868E-015  0.9000775E+02  0.7816164E-02  0.1186339E+00
        -11   -1    0    0    0    0  0.00000000000E+00  0.00000000000E+00  0.45593999997E+02  0.45594000000E+02  0.51100000000E-03 0. -1.
         11   -1    0    0    0    0 -0.00000000000E+00 -0.00000000000E+00 -0.45593999997E+02  0.45594000000E+02  0.51100000000E-03 0.  1.
    9900012    2    1    2    0    0 -0.77452338283E+00 -0.31004074123E+00 -0.83484633856E+00  0.90007754203E+02  0.90000015759E+02 0.  0.
         12    1    1    2    0    0  0.77452338283E+00  0.31004074123E+00  0.83484633856E+00  0.11802457968E+01  0.00000000000E+00 0. -1.
         11    1    3    3    0    0  0.99820803843E+01  0.30241437229E+01  0.58042297646E+01  0.11936350258E+02  0.51100000000E-03 0. -1.
        -11    1    3    3    0    0  0.15065053390E+02 -0.34280518700E+02 -0.19532600292E+01  0.37495666697E+02  0.51100000000E-03 0.  1.
         12    1    3    3    0    0 -0.25821657157E+02  0.30946334236E+02 -0.46858160740E+01  0.40575737249E+02  0.00000000000E+00 0. -1.
</event>
<event>
 7    1  0.4358868E-015  0.9000770E+02  0.7816164E-02  0.1186339E+00
        -11   -1    0    0    0    0  0.00000000000E+00  0.00000000000E+00  0.45593999997E+02  0.45594000000E+02  0.51100000000E-03 0.  1.
         11   -1    0    0    0    0 -0.00000000000E+00 -0.00000000000E+00 -0.45593999997E+02  0.45594000000E+02  0.51100000000E-03 0. -1.
    9900012    2    1    2    0    0 -0.96376847861E-03  0.10921569422E+01  0.44754603665E+00  0.90007701237E+02  0.89999962093E+02 0.  0.
         12    1    1    2    0    0  0.96376847861E-03 -0.10921569422E+01 -0.44754603665E+00  0.11802987631E+01  0.00000000000E+00 0. -1.
         11    1    3    3    0    0  0.17945351012E+02  0.36475114721E+02  0.56702449384E+00  0.40654533989E+02  0.51100000000E-03 0. -1.
        -11    1    3    3    0    0 -0.46624880554E+01  0.26905216706E+01 -0.65941382874E+01  0.85123652260E+01  0.51100000000E-03 0.  1.
        -12    1    3    3    0    0 -0.13283826725E+02 -0.38073479449E+02  0.64746598302E+01  0.40840802022E+02  0.00000000000E+00 0.  1.
</event>
<event>
 7    1  0.4358868E-015  0.9000768E+02  0.7816164E-02  0.1186339E+00
        -11   -1    0    0    0    0  0.00000000000E+00  0.00000000000E+00  0.45593999997E+02  0.45594000000E+02  0.51100000000E-03 0.  1.
         11   -1    0    0    0    0 -0.00000000000E+00 -0.00000000000E+00 -0.45593999997E+02  0.45594000000E+02  0.51100000000E-03 0. -1.
    9900012    2    1    2    0    0 -0.50569525138E+00  0.10648328887E+01 -0.59665868400E-01  0.90007679372E+02  0.89999939940E+02 0.  0.
         12    1    1    2    0    0  0.50569525138E+00 -0.10648328887E+01  0.59665868400E-01  0.11803206276E+01  0.00000000000E+00 0. -1.
         11    1    3    3    0    0 -0.17782530487E+02  0.16549553699E+02 -0.30931553849E+02  0.39330231908E+02  0.51100000000E-03 0. -1.
        -11    1    3    3    0    0  0.36207150913E+01  0.29695493310E+01 -0.57740731354E+01  0.74342263778E+01  0.51100000000E-03 0.  1.
        -12    1    3    3    0    0  0.13656120144E+02 -0.18454270141E+02  0.36645961116E+02  0.43243221087E+02  0.00000000000E+00 0.  1.
</event>
<event>
 7    1  0.5551134E-015  0.9000785E+02  0.7816164E-02  0.1186339E+00
        -11   -1    0    0    0    0  0.00000000000E+00  0.00000000000E+00  0.45593999997E+02  0.45594000000E+02  0.51100000000E-03 0. -1.
         11   -1    0    0    0    0 -0.00000000000E+00 -0.00000000000E+00 -0.45593999997E+02  0.45594000000E+02  0.51100000000E-03 0.  1.
    9900012    2    1    2    0    0  0.89198911488E+00  0.61580352214E+00 -0.46678542885E+00  0.90007852892E+02  0.90000115751E+02 0.  0.
         12    1    1    2    0    0 -0.89198911488E+00 -0.61580352214E+00  0.46678542885E+00  0.11801471076E+01  0.00000000000E+00 0. -1.
         11    1    3    3    0    0 -0.36797316427E+01  0.36289215982E+01  0.39830842442E+02  0.40164729637E+02  0.51100000000E-03 0. -1.
        -11    1    3    3    0    0  0.82487983693E+01  0.39321033872E+01 -0.36581739063E+00  0.91453777510E+01  0.51100000000E-03 0.  1.
        -12    1    3    3    0    0 -0.36770776117E+01 -0.69452214632E+01 -0.39931810480E+02  0.40697745504E+02  0.00000000000E+00 0.  1.
</event>
<event>
 7    1  0.4358868E-015  0.9000774E+02  0.7816164E-02  0.1186339E+00
        -11   -1    0    0    0    0  0.00000000000E+00  0.00000000000E+00  0.45593999997E+02  0.45594000000E+02  0.51100000000E-03 0.  1.
         11   -1    0    0    0    0 -0.00000000000E+00 -0.00000000000E+00 -0.45593999997E+02  0.45594000000E+02  0.51100000000E-03 0. -1.
    9900012    2    1    2    0    0 -0.68082950311E+00  0.77162649938E+00  0.57798819548E+00  0.90007742985E+02  0.90000004393E+02 0.  0.
         12    1    1    2    0    0  0.68082950311E+00 -0.77162649938E+00 -0.57798819548E+00  0.11802570148E+01  0.00000000000E+00 0. -1.
         11    1    3    3    0    0  0.76998831655E+01  0.49611322051E+01 -0.33624495834E+01  0.97574126171E+01  0.51100000000E-03 0. -1.
        -11    1    3    3    0    0  0.19661045671E+02 -0.32776004251E+02  0.10583511857E+02  0.39658969919E+02  0.51100000000E-03 0.  1.
         12    1    3    3    0    0 -0.28041758340E+02  0.28586498546E+02 -0.66430740782E+01  0.40591360449E+02  0.00000000000E+00 0. -1.
</event>
<event>
 7    1  0.4358868E-015  0.9000774E+02  0.7816164E-02  0.1186339E+00
        -11   -1    0    0    0    0  0.00000000000E+00  0.00000000000E+00  0.45593999997E+02  0.45594000000E+02  0.51100000000E-03 0.  1.
         11   -1    0    0    0    0 -0.00000000000E+00 -0.00000000000E+00 -0.45593999997E+02  0.45594000000E+02  0.51100000000E-03 0. -1.
    9900012    2    1    2    0    0 -0.54223537070E-01  0.75289686994E+00  0.90732012805E+00  0.90007735748E+02  0.89999997060E+02 0.  0.
         12    1    1    2    0    0  0.54223537070E-01 -0.75289686994E+00 -0.90732012805E+00  0.11802642516E+01  0.00000000000E+00 0. -1.
         11    1    3    3    0    0  0.99990319499E+01 -0.30648217513E-01  0.60655159776E+00  0.10017458977E+02  0.51100000000E-03 0. -1.
        -11    1    3    3    0    0  0.27335647506E+02 -0.22110187069E+02  0.63711269720E+01  0.35730788628E+02  0.51100000000E-03 0.  1.
         12    1    3    3    0    0 -0.37388902993E+02  0.22893732157E+02 -0.60703584417E+01  0.44259488144E+02  0.00000000000E+00 0. -1.
</event>
<event>
 7    1  0.4358868E-015  0.9000752E+02  0.7816164E-02  0.1186339E+00
        -11   -1    0    0    0    0  0.00000000000E+00  0.00000000000E+00  0.45593999997E+02  0.45594000000E+02  0.51100000000E-03 0.  1.
         11   -1    0    0    0    0 -0.00000000000E+00 -0.00000000000E+00 -0.45593999997E+02  0.45594000000E+02  0.51100000000E-03 0. -1.
    9900012    2    1    2    0    0 -0.17512392301E+00  0.10187827766E+01  0.57004591160E+00  0.90007517439E+02  0.89999775869E+02 0.  0.
         12    1    1    2    0    0  0.17512392301E+00 -0.10187827766E+01 -0.57004591160E+00  0.11804825605E+01  0.00000000000E+00 0. -1.
         11    1    3    3    0    0 -0.41197149118E+01  0.11065796243E+02 -0.38985497654E+02  0.40734419414E+02  0.51100000000E-03 0. -1.
        -11    1    3    3    0    0 -0.47374606267E+01 -0.89040359063E+01  0.14684125050E+01  0.10192233521E+02  0.51100000000E-03 0.  1.
        -12    1    3    3    0    0  0.86820516155E+01 -0.11429775606E+01  0.38087131060E+02  0.39080864504E+02  0.00000000000E+00 0.  1.
</event>
<event>
 7    1  0.4358868E-015  0.9000758E+02  0.7816164E-02  0.1186339E+00
        -11   -1    0    0    0    0  0.00000000000E+00  0.00000000000E+00  0.45593999997E+02  0.45594000000E+02  0.51100000000E-03 0.  1.
         11   -1    0    0    0    0 -0.00000000000E+00 -0.00000000000E+00 -0.45593999997E+02  0.45594000000E+02  0.51100000000E-03 0. -1.
    9900012    2    1    2    0    0  0.53797649473E+00 -0.27708015606E+00  0.10135042436E+01  0.90007583559E+02  0.89999842862E+02 0.  0.
         12    1    1    2    0    0 -0.53797649473E+00  0.27708015606E+00 -0.10135042436E+01  0.11804164407E+01  0.00000000000E+00 0. -1.
         11    1    3    3    0    0 -0.29410642842E+02  0.26700348766E+02  0.22027499659E+01  0.39783748495E+02  0.51100000000E-03 0. -1.
        -11    1    3    3    0    0  0.56520407809E+01  0.59627579178E+01  0.36827844032E+01  0.90034964429E+01  0.51100000000E-03 0.  1.
        -12    1    3    3    0    0  0.24296578556E+02 -0.32940186840E+02 -0.48720301255E+01  0.41220338622E+02  0.00000000000E+00 0.  1.
</event>
<event>
 7    1  0.4358868E-015  0.9000771E+02  0.7816164E-02  0.1186339E+00
        -11   -1    0    0    0    0  0.00000000000E+00  0.00000000000E+00  0.45593999997E+02  0.45594000000E+02  0.51100000000E-03 0.  1.
         11   -1    0    0    0    0 -0.00000000000E+00 -0.00000000000E+00 -0.45593999997E+02  0.45594000000E+02  0.51100000000E-03 0. -1.
    9900012    2    1    2    0    0 -0.82505606007E+00  0.47513356651E+00  0.69757836495E+00  0.90007709788E+02  0.89999970758E+02 0.  0.
         12    1    1    2    0    0  0.82505606007E+00 -0.47513356651E+00 -0.69757836495E+00  0.11802902116E+01  0.00000000000E+00 0. -1.
         11    1    3    3    0    0  0.24172855805E+01  0.44155520773E+01  0.35559695272E+01  0.61632206892E+01  0.51100000000E-03 0. -1.
        -11    1    3    3    0    0  0.35724544042E+02  0.34529079033E+01  0.16741799826E+02  0.39603705403E+02  0.51100000000E-03 0.  1.
         12    1    3    3    0    0 -0.38966885682E+02 -0.73933264140E+01 -0.19600190988E+02  0.44240783696E+02  0.00000000000E+00 0. -1.
</event>
<event>
 7    1  0.4358868E-015  0.9000798E+02  0.7816164E-02  0.1186339E+00
        -11   -1    0    0    0    0  0.00000000000E+00  0.00000000000E+00  0.45593999997E+02  0.45594000000E+02  0.51100000000E-03 0. -1.
         11   -1    0    0    0    0 -0.00000000000E+00 -0.00000000000E+00 -0.45593999997E+02  0.45594000000E+02  0.51100000000E-03 0.  1.
    9900012    2    1    2    0    0  0.16330126226E+00 -0.85392706177E+00 -0.79785879610E+00  0.90007984158E+02  0.90000248748E+02 0.  0.
         12    1    1    2    0    0 -0.16330126226E+00  0.85392706177E+00  0.79785879610E+00  0.11800158421E+01  0.00000000000E+00 0. -1.
         11    1    3    3    0    0  0.35172261190E+02 -0.10709616898E+02 -0.14056126260E+02  0.39361891939E+02  0.51100000000E-03 0. -1.
        -11    1    3    3    0    0  0.25874279360E+01  0.10297584205E+02 -0.44710779687E+00  0.10627084709E+02  0.51100000000E-03 0.  1.
        -12    1    3    3    0    0 -0.37596387864E+02 -0.44189436797E+00  0.13705375260E+02  0.40019007510E+02  0.00000000000E+00 0.  1.
</event>
<event>
 7    1  0.4358868E-015  0.9000769E+02  0.7816164E-02  0.1186339E+00
        -11   -1    0    0    0    0  0.00000000000E+00  0.00000000000E+00  0.45593999997E+02  0.45594000000E+02  0.51100000000E-03 0. -1.
         11   -1    0    0    0    0 -0.00000000000E+00 -0.00000000000E+00 -0.45593999997E+02  0.45594000000E+02  0.51100000000E-03 0.  1.
    9900012    2    1    2    0    0 -0.79016130311E+00  0.48725732212E+00 -0.72894434846E+00  0.90007688835E+02  0.89999949528E+02 0.  0.
         12    1    1    2    0    0  0.79016130311E+00 -0.48725732212E+00  0.72894434846E+00  0.11803111649E+01  0.00000000000E+00 0. -1.
         11    1    3    3    0    0 -0.94313072171E+01  0.21436349895E+01 -0.12958202861E+01  0.97582722480E+01  0.51100000000E-03 0. -1.
        -11    1    3    3    0    0 -0.64853074732E+01  0.35670622698E+02 -0.11784576600E+02  0.38122549529E+02  0.51100000000E-03 0.  1.
         12    1    3    3    0    0  0.15126453387E+02 -0.37327000365E+02  0.12351452538E+02  0.42126867058E+02  0.00000000000E+00 0. -1.
</event>
<event>
 7    1  0.4358868E-015  0.9000775E+02  0.7816164E-02  0.1186339E+00
        -11   -1    0    0    0    0  0.00000000000E+00  0.00000000000E+00  0.45593999997E+02  0.45594000000E+02  0.51100000000E-03 0. -1.
         11   -1    0    0    0    0 -0.00000000000E+00 -0.00000000000E+00 -0.45593999997E+02  0.45594000000E+02  0.51100000000E-03 0.  1.
    9900012    2    1    2    0    0  0.30253503739E+00  0.92551024639E+00 -0.66701161100E+00  0.90007745301E+02  0.90000006739E+02 0.  0.
         12    1    1    2    0    0 -0.30253503739E+00 -0.92551024639E+00  0.66701161100E+00  0.11802546989E+01  0.00000000000E+00 0. -1.
         11    1    3    3    0    0 -0.24888639057E+01  0.72187662649E+00 -0.79554621892E+01  0.83668947830E+01  0.51100000000E-03 0. -1.
        -11    1    3    3    0    0  0.28494214688E+01 -0.83475727235E+01 -0.36230984607E+02  0.37289213171E+02  0.51100000000E-03 0.  1.
         12    1    3    3    0    0 -0.58022525740E-01  0.85512063434E+01  0.43519435185E+02  0.44351637347E+02  0.00000000000E+00 0. -1.
</event>
<event>
 7    1  0.4358868E-015  0.9000778E+02  0.7816164E-02  0.1186339E+00
        -11   -1    0    0    0    0  0.00000000000E+00  0.00000000000E+00  0.45593999997E+02  0.45594000000E+02  0.51100000000E-03 0.  1.
         11   -1    0    0    0    0 -0.00000000000E+00 -0.00000000000E+00 -0.45593999997E+02  0.45594000000E+02  0.51100000000E-03 0. -1.
    9900012    2    1    2    0    0 -0.55311651340E-01  0.85998977247E+00  0.80639902314E+00  0.90007779185E+02  0.90000041070E+02 0.  0.
         12    1    1    2    0    0  0.55311651340E-01 -0.85998977247E+00 -0.80639902314E+00  0.11802208149E+01  0.00000000000E+00 0. -1.
         11    1    3    3    0    0  0.11577610234E+02  0.13246223471E+02 -0.33833295045E+02  0.38133913369E+02  0.51100000000E-03 0. -1.
        -11    1    3    3    0    0  0.77341811428E+01 -0.94761645256E+00 -0.27305897557E+01  0.82566128386E+01  0.51100000000E-03 0.  1.
        -12    1    3    3    0    0 -0.19367103029E+02 -0.11438617246E+02  0.37370283824E+02  0.43617252977E+02  0.00000000000E+00 0.  1.
</event>
<event>
 7    1  0.4358868E-015  0.9000775E+02  0.7816164E-02  0.1186339E+00
        -11   -1    0    0    0    0  0.00000000000E+00  0.00000000000E+00  0.45593999997E+02  0.45594000000E+02  0.51100000000E-03 0. -1.
         11   -1    0    0    0    0 -0.00000000000E+00 -0.00000000000E+00 -0.45593999997E+02  0.45594000000E+02  0.51100000000E-03 0.  1.
    9900012    2    1    2    0    0  0.45938526015E+00  0.43240332585E+00 -0.99749338209E+00  0.90007745578E+02  0.90000007020E+02 0.  0.
         12    1    1    2    0    0 -0.45938526015E+00 -0.43240332585E+00  0.99749338209E+00  0.11802544221E+01  0.00000000000E+00 0. -1.
         11    1    3    3    0    0 -0.51895520349E+01  0.54088297622E+01  0.61833968224E+01  0.97170616055E+01  0.51100000000E-03 0. -1.
        -11    1    3    3    0    0 -0.32763404276E+02 -0.11993783433E+02 -0.18691900248E+02  0.39581291489E+02  0.51100000000E-03 0.  1.
         12    1    3    3    0    0  0.38412341571E+02  0.70173569964E+01  0.11511010044E+02  0.40709392484E+02  0.00000000000E+00 0. -1.
</event>
<event>
 7    1  0.4358868E-015  0.9000769E+02  0.7816164E-02  0.1186339E+00
        -11   -1    0    0    0    0  0.00000000000E+00  0.00000000000E+00  0.45593999997E+02  0.45594000000E+02  0.51100000000E-03 0. -1.
         11   -1    0    0    0    0 -0.00000000000E+00 -0.00000000000E+00 -0.45593999997E+02  0.45594000000E+02  0.51100000000E-03 0.  1.
    9900012    2    1    2    0    0 -0.32982360791E+00  0.84013891702E+00 -0.76060308811E+00  0.90007688994E+02  0.89999949689E+02 0.  0.
         12    1    1    2    0    0  0.32982360791E+00 -0.84013891702E+00  0.76060308811E+00  0.11803110056E+01  0.00000000000E+00 0. -1.
         11    1    3    3    0    0  0.34238192010E+01 -0.33507674208E+02  0.22799810418E+02  0.40673309726E+02  0.51100000000E-03 0. -1.
        -11    1    3    3    0    0 -0.67691178334E+01 -0.16529608175E+01 -0.58591263691E+01  0.91039880150E+01  0.51100000000E-03 0.  1.
        -12    1    3    3    0    0  0.30154750245E+01  0.36000773942E+02 -0.17701287137E+02  0.40230391253E+02  0.00000000000E+00 0.  1.
</event>
<event>
 7    1  0.4358868E-015  0.9000775E+02  0.7816164E-02  0.1186339E+00
        -11   -1    0    0    0    0  0.00000000000E+00  0.00000000000E+00  0.45593999997E+02  0.45594000000E+02  0.51100000000E-03 0. -1.
         11   -1    0    0    0    0 -0.00000000000E+00 -0.00000000000E+00 -0.45593999997E+02  0.45594000000E+02  0.51100000000E-03 0.  1.
    9900012    2    1    2    0    0 -0.18811826364E-01 -0.90616185631E+00  0.75598242043E+00  0.90007748919E+02  0.90000010405E+02 0.  0.
         12    1    1    2    0    0  0.18811826364E-01  0.90616185631E+00 -0.75598242043E+00  0.11802510812E+01  0.00000000000E+00 0. -1.
         11    1    3    3    0    0  0.55092129491E+01 -0.60168740796E+01 -0.77999709117E+01  0.11286883870E+02  0.51100000000E-03 0. -1.
        -11    1    3    3    0    0  0.80493779901E+01 -0.11437099897E+02 -0.30852507897E+02  0.33874429647E+02  0.51100000000E-03 0.  1.
         12    1    3    3    0    0 -0.13577402766E+02  0.16547812120E+02  0.39408461229E+02  0.44846435402E+02  0.00000000000E+00 0. -1.
</event>
<event>
 7    1  0.4358868E-015  0.9000774E+02  0.7816164E-02  0.1186339E+00
        -11   -1    0    0    0    0  0.00000000000E+00  0.00000000000E+00  0.45593999997E+02  0.45594000000E+02  0.51100000000E-03 0.  1.
         11   -1    0    0    0    0 -0.00000000000E+00 -0.00000000000E+00 -0.45593999997E+02  0.45594000000E+02  0.51100000000E-03 0. -1.
    9900012    2    1    2    0    0  0.10960241321E+01  0.36114073733E+00 -0.24762514151E+00  0.90007741663E+02  0.90000003053E+02 0.  0.
         12    1    1    2    0    0 -0.10960241321E+01 -0.36114073733E+00  0.24762514151E+00  0.11802583366E+01  0.00000000000E+00 0. -1.
         11    1    3    3    0    0  0.30731528900E+01 -0.30153187462E+02 -0.17918016898E+02  0.35209577002E+02  0.51100000000E-03 0. -1.
        -11    1    3    3    0    0  0.82956123389E+00 -0.45402898795E+01 -0.93648465970E+01  0.10440438500E+02  0.51100000000E-03 0.  1.
        -12    1    3    3    0    0 -0.28066899918E+01  0.35054618079E+02  0.27035238354E+02  0.44357726161E+02  0.00000000000E+00 0.  1.
</event>
<event>
 7    1  0.4358868E-015  0.9000796E+02  0.7816164E-02  0.1186339E+00
        -11   -1    0    0    0    0  0.00000000000E+00  0.00000000000E+00  0.45593999997E+02  0.45594000000E+02  0.51100000000E-03 0. -1.
         11   -1    0    0    0    0 -0.00000000000E+00 -0.00000000000E+00 -0.45593999997E+02  0.45594000000E+02  0.51100000000E-03 0.  1.
    9900012    2    1    2    0    0 -0.62712909433E+00  0.92849524403E+00 -0.37026804288E+00  0.90007960703E+02  0.90000224984E+02 0.  0.
         12    1    1    2    0    0  0.62712909433E+00 -0.92849524403E+00  0.37026804288E+00  0.11800392971E+01  0.00000000000E+00 0. -1.
         11    1    3    3    0    0 -0.32066592800E+02 -0.20519844158E+02  0.16866658733E+02  0.41639098875E+02  0.51100000000E-03 0. -1.
        -11    1    3    3    0    0  0.76858003539E+01  0.29829161743E+00  0.53415118149E+01  0.93644142208E+01  0.51100000000E-03 0.  1.
        -12    1    3    3    0    0  0.23753663351E+02  0.21150047785E+02 -0.22578438591E+02  0.39004447607E+02  0.00000000000E+00 0.  1.
</event>
<event>
 7    1  0.4358868E-015  0.9000765E+02  0.7816164E-02  0.1186339E+00
        -11   -1    0    0    0    0  0.00000000000E+00  0.00000000000E+00  0.45593999997E+02  0.45594000000E+02  0.51100000000E-03 0.  1.
         11   -1    0    0    0    0 -0.00000000000E+00 -0.00000000000E+00 -0.45593999997E+02  0.45594000000E+02  0.51100000000E-03 0. -1.
    9900012    2    1    2    0    0  0.48579219731E+00  0.82800138467E+00  0.68676110159E+00  0.90007652101E+02  0.89999912309E+02 0.  0.
         12    1    1    2    0    0 -0.48579219731E+00 -0.82800138467E+00 -0.68676110159E+00  0.11803478990E+01  0.00000000000E+00 0. -1.
         11    1    3    3    0    0 -0.97600448225E+00  0.17994283875E+02 -0.32170585966E+02  0.36874021188E+02  0.51100000000E-03 0. -1.
        -11    1    3    3    0    0 -0.11107398888E+01 -0.11261559631E+01 -0.85283350793E+01  0.86737805967E+01  0.51100000000E-03 0.  1.
        -12    1    3    3    0    0  0.25725365684E+01 -0.16040126528E+02  0.41385682147E+02  0.44459850316E+02  0.00000000000E+00 0.  1.
</event>
<event>
 7    1  0.4358868E-015  0.9000770E+02  0.7816164E-02  0.1186339E+00
        -11   -1    0    0    0    0  0.00000000000E+00  0.00000000000E+00  0.45593999997E+02  0.45594000000E+02  0.51100000000E-03 0.  1.
         11   -1    0    0    0    0 -0.00000000000E+00 -0.00000000000E+00 -0.45593999997E+02  0.45594000000E+02  0.51100000000E-03 0. -1.
    9900012    2    1    2    0    0 -0.20669313584E+00 -0.84846611650E+00  0.79403804235E+00  0.90007697829E+02  0.89999958640E+02 0.  0.
         12    1    1    2    0    0  0.20669313584E+00  0.84846611650E+00 -0.79403804235E+00  0.11803021715E+01  0.00000000000E+00 0. -1.
         11    1    3    3    0    0  0.24489170066E+00  0.24671271400E+02 -0.87703325580E+01  0.26184925776E+02  0.51100000000E-03 0. -1.
        -11    1    3    3    0    0 -0.87472717103E+01  0.57078363339E+01 -0.18356271026E+02  0.21119821122E+02  0.51100000000E-03 0.  1.
        -12    1    3    3    0    0  0.82956868738E+01 -0.31227573851E+02  0.27920641627E+02  0.42702950930E+02  0.00000000000E+00 0.  1.
</event>
<event>
 7    1  0.4358868E-015  0.9000769E+02  0.7816164E-02  0.1186339E+00
        -11   -1    0    0    0    0  0.00000000000E+00  0.00000000000E+00  0.45593999997E+02  0.45594000000E+02  0.51100000000E-03 0. -1.
         11   -1    0    0    0    0 -0.00000000000E+00 -0.00000000000E+00 -0.45593999997E+02  0.45594000000E+02  0.51100000000E-03 0.  1.
    9900012    2    1    2    0    0 -0.58145469811E+00  0.34493175416E+00  0.96750596331E+00  0.90007688486E+02  0.89999949174E+02 0.  0.
         12    1    1    2    0    0  0.58145469811E+00 -0.34493175416E+00 -0.96750596331E+00  0.11803115140E+01  0.00000000000E+00 0. -1.
         11    1    3    3    0    0  0.30486938197E+01  0.87503603159E+01 -0.83243284173E+00  0.93035629928E+01  0.51100000000E-03 0. -1.
        -11    1    3    3    0    0 -0.24426549939E+02 -0.40023957818E+00  0.33803157772E+02  0.41706953968E+02  0.51100000000E-03 0.  1.
         12    1    3    3    0    0  0.20796401421E+02 -0.80051889835E+01 -0.32003218967E+02  0.38997171525E+02  0.00000000000E+00 0. -1.
</event>
<event>
 7    1  0.4358868E-015  0.9000763E+02  0.7816164E-02  0.1186339E+00
        -11   -1    0    0    0    0  0.00000000000E+00  0.00000000000E+00  0.45593999997E+02  0.45594000000E+02  0.51100000000E-03 0.  1.
         11   -1    0    0    0    0 -0.00000000000E+00 -0.00000000000E+00 -0.45593999997E+02  0.45594000000E+02  0.51100000000E-03 0. -1.
    9900012    2    1    2    0    0 -0.79893765174E-01 -0.10932374934E+01 -0.43785467214E+00  0.90007632284E+02  0.89999892230E+02 0.  0.
         12    1    1    2    0    0  0.79893765174E-01  0.10932374934E+01  0.43785467214E+00  0.11803677159E+01  0.00000000000E+00 0. -1.
         11    1    3    3    0    0  0.65094570556E+01  0.47234107676E+01  0.28314825354E+01  0.85264842724E+01  0.51100000000E-03 0. -1.
        -11    1    3    3    0    0 -0.11742252230E+02 -0.53320762769E+01  0.37876146691E+02  0.40011423535E+02  0.51100000000E-03 0.  1.
         12    1    3    3    0    0  0.51529014094E+01 -0.48457198414E+00 -0.41145483899E+02  0.41469724477E+02  0.00000000000E+00 0. -1.
</event>
<event>
 7    1  0.4358868E-015  0.9000772E+02  0.7816164E-02  0.1186339E+00
        -11   -1    0    0    0    0  0.00000000000E+00  0.00000000000E+00  0.45593999997E+02  0.45594000000E+02  0.51100000000E-03 0. -1.
         11   -1    0    0    0    0 -0.00000000000E+00 -0.00000000000E+00 -0.45593999997E+02  0.45594000000E+02  0.51100000000E-03 0.  1.
    9900012    2    1    2    0    0  0.49315733404E+00 -0.14142498015E+00 -0.10629478506E+01  0.90007718968E+02  0.89999980059E+02 0.  0.
         12    1    1    2    0    0 -0.49315733404E+00  0.14142498015E+00  0.10629478506E+01  0.11802810318E+01  0.00000000000E+00 0. -1.
         11    1    3    3    0    0 -0.79370745338E+00 -0.35652393649E+02  0.13986181587E+02  0.38305827495E+02  0.51100000000E-03 0. -1.
        -11    1    3    3    0    0  0.48455958692E+01 -0.25382097989E+01  0.59621790755E+01  0.80913464825E+01  0.51100000000E-03 0.  1.
        -12    1    3    3    0    0 -0.35587310818E+01  0.38049178467E+02 -0.21011308514E+02  0.43610544991E+02  0.00000000000E+00 0.  1.
</event>
<event>
 7    1  0.4358868E-015  0.9000774E+02  0.7816164E-02  0.1186339E+00
        -11   -1    0    0    0    0  0.00000000000E+00  0.00000000000E+00  0.45593999997E+02  0.45594000000E+02  0.51100000000E-03 0.  1.
         11   -1    0    0    0    0 -0.00000000000E+00 -0.00000000000E+00 -0.45593999997E+02  0.45594000000E+02  0.51100000000E-03 0. -1.
    9900012    2    1    2    0    0  0.10100126761E+00 -0.95733795951E+00 -0.68287800633E+00  0.90007737488E+02  0.89999998823E+02 0.  0.
         12    1    1    2    0    0 -0.10100126761E+00  0.95733795951E+00  0.68287800633E+00  0.11802625116E+01  0.00000000000E+00 0. -1.
         11    1    3    3    0    0 -0.15505655653E+02  0.97066836697E+00 -0.93865145366E+00  0.15564338121E+02  0.51100000000E-03 0. -1.
        -11    1    3    3    0    0 -0.26698516521E+02  0.23805124035E+01  0.13355496018E+02  0.29947402188E+02  0.51100000000E-03 0.  1.
         12    1    3    3    0    0  0.42305173442E+02 -0.43085187300E+01 -0.13099722570E+02  0.44495997179E+02  0.00000000000E+00 0. -1.
</event>
<event>
 7    1  0.4358868E-015  0.9000776E+02  0.7816164E-02  0.1186339E+00
        -11   -1    0    0    0    0  0.00000000000E+00  0.00000000000E+00  0.45593999997E+02  0.45594000000E+02  0.51100000000E-03 0.  1.
         11   -1    0    0    0    0 -0.00000000000E+00 -0.00000000000E+00 -0.45593999997E+02  0.45594000000E+02  0.51100000000E-03 0. -1.
    9900012    2    1    2    0    0  0.98316640281E+00 -0.27911175373E+00  0.59028956334E+00  0.90007762179E+02  0.90000023839E+02 0.  0.
         12    1    1    2    0    0 -0.98316640281E+00  0.27911175373E+00 -0.59028956334E+00  0.11802378215E+01  0.00000000000E+00 0. -1.
         11    1    3    3    0    0 -0.16445887026E+01 -0.58445112763E+01  0.10311435404E+02  0.11966147434E+02  0.51100000000E-03 0. -1.
        -11    1    3    3    0    0  0.22515609926E+02 -0.19177930004E+02  0.19065010150E+02  0.35188354634E+02  0.51100000000E-03 0.  1.
         12    1    3    3    0    0 -0.19887854820E+02  0.24743329527E+02 -0.28786155990E+02  0.42853260111E+02  0.00000000000E+00 0. -1.
</event>
<event>
 7    1  0.4358868E-015  0.9000772E+02  0.7816164E-02  0.1186339E+00
        -11   -1    0    0    0    0  0.00000000000E+00  0.00000000000E+00  0.45593999997E+02  0.45594000000E+02  0.51100000000E-03 0. -1.
         11   -1    0    0    0    0 -0.00000000000E+00 -0.00000000000E+00 -0.45593999997E+02  0.45594000000E+02  0.51100000000E-03 0.  1.
    9900012    2    1    2    0    0  0.10222736168E+01 -0.11854756821E-01 -0.58981620687E+00  0.90007717389E+02  0.89999978459E+02 0.  0.
         12    1    1    2    0    0 -0.10222736168E+01  0.11854756821E-01  0.58981620687E+00  0.11802826105E+01  0.00000000000E+00 0. -1.
         11    1    3    3    0    0  0.60265265724E+01 -0.28666383847E+01  0.12153498014E+02  0.13865213752E+02  0.51100000000E-03 0. -1.
        -11    1    3    3    0    0 -0.20613171819E+02 -0.20488344416E+02  0.18251393666E+02  0.34318923065E+02  0.51100000000E-03 0.  1.
         12    1    3    3    0    0  0.15608918863E+02  0.23343128044E+02 -0.30994707886E+02  0.41823580573E+02  0.00000000000E+00 0. -1.
</event>
<event>
 7    1  0.4358868E-015  0.9000773E+02  0.7816164E-02  0.1186339E+00
        -11   -1    0    0    0    0  0.00000000000E+00  0.00000000000E+00  0.45593999997E+02  0.45594000000E+02  0.51100000000E-03 0.  1.
         11   -1    0    0    0    0 -0.00000000000E+00 -0.00000000000E+00 -0.45593999997E+02  0.45594000000E+02  0.51100000000E-03 0. -1.
    9900012    2    1    2    0    0  0.11446581692E+01 -0.15798070442E+00  0.24051240830E+00  0.90007726114E+02  0.89999987299E+02 0.  0.
         12    1    1    2    0    0 -0.11446581692E+01  0.15798070442E+00 -0.24051240830E+00  0.11802738859E+01  0.00000000000E+00 0. -1.
         11    1    3    3    0    0 -0.40166266598E+01  0.44717045989E+01 -0.66508029934E+01  0.89645196448E+01  0.51100000000E-03 0. -1.
        -11    1    3    3    0    0 -0.76749591201E+01  0.35784352332E+02  0.11567163965E+02  0.38382602201E+02  0.51100000000E-03 0.  1.
         12    1    3    3    0    0  0.12836243949E+02 -0.40414037635E+02 -0.46758485633E+01  0.42660604268E+02  0.00000000000E+00 0. -1.
</event>
<event>
 7    1  0.4358868E-015  0.9000771E+02  0.7816164E-02  0.1186339E+00
        -11   -1    0    0    0    0  0.00000000000E+00  0.00000000000E+00  0.45593999997E+02  0.45594000000E+02  0.51100000000E-03 0. -1.
         11   -1    0    0    0    0 -0.00000000000E+00 -0.00000000000E+00 -0.45593999997E+02  0.45594000000E+02  0.51100000000E-03 0.  1.
    9900012    2    1    2    0    0 -0.43745660530E+00  0.80518440003E+00 -0.74391127278E+00  0.90007705892E+02  0.89999966810E+02 0.  0.
         12    1    1    2    0    0  0.43745660530E+00 -0.80518440003E+00  0.74391127278E+00  0.11802941080E+01  0.00000000000E+00 0. -1.
         11    1    3    3    0    0 -0.67358738841E+01 -0.71625608923E+01 -0.21552225160E+01  0.10065746861E+02  0.51100000000E-03 0. -1.
        -11    1    3    3    0    0 -0.12890713964E+02  0.15817142825E+01 -0.35528787118E+02  0.37828124999E+02  0.51100000000E-03 0.  1.
         12    1    3    3    0    0  0.19189131243E+02  0.63860310098E+01  0.36940098362E+02  0.42113834032E+02  0.00000000000E+00 0. -1.
</event>
<event>
 7    1  0.4358868E-015  0.9000772E+02  0.7816164E-02  0.1186339E+00
        -11   -1    0    0    0    0  0.00000000000E+00  0.00000000000E+00  0.45593999997E+02  0.45594000000E+02  0.51100000000E-03 0. -1.
         11   -1    0    0    0    0 -0.00000000000E+00 -0.00000000000E+00 -0.45593999997E+02  0.45594000000E+02  0.51100000000E-03 0.  1.
    9900012    2    1    2    0    0 -0.27083770400E+00 -0.11428263718E+01 -0.11690112223E+00  0.90007715691E+02  0.89999976738E+02 0.  0.
         12    1    1    2    0    0  0.27083770400E+00  0.11428263718E+01  0.11690112223E+00  0.11802843091E+01  0.00000000000E+00 0. -1.
         11    1    3    3    0    0 -0.26754335892E+02  0.15055570470E+02  0.26148904887E+02  0.40326541114E+02  0.51100000000E-03 0. -1.
        -11    1    3    3    0    0  0.17314880256E+01  0.71310619851E+01 -0.12149120626E+01  0.74381521495E+01  0.51100000000E-03 0.  1.
        -12    1    3    3    0    0  0.24752010162E+02 -0.23329458827E+02 -0.25050893947E+02  0.42243022427E+02  0.00000000000E+00 0.  1.
</event>
<event>
 7    1  0.4358868E-015  0.9000773E+02  0.7816164E-02  0.1186339E+00
        -11   -1    0    0    0    0  0.00000000000E+00  0.00000000000E+00  0.45593999997E+02  0.45594000000E+02  0.51100000000E-03 0.  1.
         11   -1    0    0    0    0 -0.00000000000E+00 -0.00000000000E+00 -0.45593999997E+02  0.45594000000E+02  0.51100000000E-03 0. -1.
    9900012    2    1    2    0    0  0.10996900521E+01  0.42307123396E+00  0.68696022273E-01  0.90007734512E+02  0.89999995807E+02 0.  0.
         12    1    1    2    0    0 -0.10996900521E+01 -0.42307123396E+00 -0.68696022273E-01  0.11802654885E+01  0.00000000000E+00 0. -1.
         11    1    3    3    0    0  0.13670709014E+02 -0.24779856369E+02 -0.25027210901E+02  0.37779503072E+02  0.51100000000E-03 0. -1.
        -11    1    3    3    0    0  0.19861822262E+01 -0.86904130708E+01  0.50777861541E+01  0.10259245180E+02  0.51100000000E-03 0.  1.
        -12    1    3    3    0    0 -0.14557201189E+02  0.33893340674E+02  0.20018120770E+02  0.41968986259E+02  0.00000000000E+00 0.  1.
</event>
<event>
 7    1  0.4358868E-015  0.9000775E+02  0.7816164E-02  0.1186339E+00
        -11   -1    0    0    0    0  0.00000000000E+00  0.00000000000E+00  0.45593999997E+02  0.45594000000E+02  0.51100000000E-03 0.  1.
         11   -1    0    0    0    0 -0.00000000000E+00 -0.00000000000E+00 -0.45593999997E+02  0.45594000000E+02  0.51100000000E-03 0. -1.
    9900012    2    1    2    0    0  0.10153362639E+01  0.40402941592E+00  0.44592452547E+00  0.90007747408E+02  0.90000008874E+02 0.  0.
         12    1    1    2    0    0 -0.10153362639E+01 -0.40402941592E+00 -0.44592452547E+00  0.11802525917E+01  0.00000000000E+00 0. -1.
         11    1    3    3    0    0 -0.23069298417E+01  0.95767268574E+01 -0.29056905895E+01  0.10270280457E+02  0.51100000000E-03 0. -1.
        -11    1    3    3    0    0 -0.17056838488E+02 -0.16108446847E+01  0.36371780964E+02  0.40204937639E+02  0.51100000000E-03 0.  1.
         12    1    3    3    0    0  0.20379104594E+02 -0.75618527567E+01 -0.33020165849E+02  0.39532529313E+02  0.00000000000E+00 0. -1.
</event>
<event>
 7    1  0.4358868E-015  0.9000705E+02  0.7816164E-02  0.1186340E+00
        -11   -1    0    0    0    0  0.00000000000E+00  0.00000000000E+00  0.45593999997E+02  0.45594000000E+02  0.51100000000E-03 0.  1.
         11   -1    0    0    0    0 -0.00000000000E+00 -0.00000000000E+00 -0.45593999997E+02  0.45594000000E+02  0.51100000000E-03 0. -1.
    9900012    2    1    2    0    0 -0.51756327761E+00 -0.70055007671E+00  0.79748958999E+00  0.90007054700E+02  0.89999307019E+02 0.  0.
         12    1    1    2    0    0  0.51756327761E+00  0.70055007671E+00 -0.79748958999E+00  0.11809453004E+01  0.00000000000E+00 0. -1.
         11    1    3    3    0    0 -0.24534563504E+01 -0.25020566117E+01  0.94958427771E+01  0.10121796563E+02  0.51100000000E-03 0. -1.
        -11    1    3    3    0    0  0.20588576157E+02 -0.99921311191E+01  0.28550136091E+02  0.36590195730E+02  0.51100000000E-03 0.  1.
         12    1    3    3    0    0 -0.18652683085E+02  0.11793637654E+02 -0.37248489278E+02  0.43295062407E+02  0.00000000000E+00 0. -1.
</event>
<event>
 7    1  0.4358868E-015  0.9000772E+02  0.7816164E-02  0.1186339E+00
        -11   -1    0    0    0    0  0.00000000000E+00  0.00000000000E+00  0.45593999997E+02  0.45594000000E+02  0.51100000000E-03 0. -1.
         11   -1    0    0    0    0 -0.00000000000E+00 -0.00000000000E+00 -0.45593999997E+02  0.45594000000E+02  0.51100000000E-03 0.  1.
    9900012    2    1    2    0    0 -0.10962080818E+01 -0.15652283846E+00 -0.40851260236E+00  0.90007722870E+02  0.89999984012E+02 0.  0.
         12    1    1    2    0    0  0.10962080818E+01  0.15652283846E+00  0.40851260236E+00  0.11802771301E+01  0.00000000000E+00 0. -1.
         11    1    3    3    0    0 -0.20001402747E+02 -0.36154866930E+02 -0.11015520626E+02  0.42761807837E+02  0.51100000000E-03 0. -1.
        -11    1    3    3    0    0  0.35948486892E+01  0.99916733207E-01  0.72276599487E+01  0.80729170098E+01  0.51100000000E-03 0.  1.
        -12    1    3    3    0    0  0.15310345976E+02  0.35898427358E+02  0.33793480751E+01  0.39172998023E+02  0.00000000000E+00 0.  1.
</event>
<event>
 7    1  0.4358868E-015  0.9000771E+02  0.7816164E-02  0.1186339E+00
        -11   -1    0    0    0    0  0.00000000000E+00  0.00000000000E+00  0.45593999997E+02  0.45594000000E+02  0.51100000000E-03 0. -1.
         11   -1    0    0    0    0 -0.00000000000E+00 -0.00000000000E+00 -0.45593999997E+02  0.45594000000E+02  0.51100000000E-03 0.  1.
    9900012    2    1    2    0    0 -0.86926681643E+00  0.74350674987E+00  0.29095642111E+00  0.90007710746E+02  0.89999971727E+02 0.  0.
         12    1    1    2    0    0  0.86926681643E+00 -0.74350674987E+00 -0.29095642111E+00  0.11802892545E+01  0.00000000000E+00 0. -1.
         11    1    3    3    0    0 -0.25613067278E+01  0.15065186945E+00  0.93540425239E+01  0.96995412232E+01  0.51100000000E-03 0. -1.
        -11    1    3    3    0    0  0.40189444903E+02  0.66539525574E+01 -0.27580124475E+01  0.40829807729E+02  0.51100000000E-03 0.  1.
         12    1    3    3    0    0 -0.38497404991E+02 -0.60610976770E+01 -0.63050736554E+01  0.39478361794E+02  0.00000000000E+00 0. -1.
</event>
<event>
 7    1  0.4358868E-015  0.9000770E+02  0.7816164E-02  0.1186339E+00
        -11   -1    0    0    0    0  0.00000000000E+00  0.00000000000E+00  0.45593999997E+02  0.45594000000E+02  0.51100000000E-03 0. -1.
         11   -1    0    0    0    0 -0.00000000000E+00 -0.00000000000E+00 -0.45593999997E+02  0.45594000000E+02  0.51100000000E-03 0.  1.
    9900012    2    1    2    0    0 -0.35175900983E-01 -0.81965959680E+00 -0.84854986430E+00  0.90007696619E+02  0.89999957415E+02 0.  0.
         12    1    1    2    0    0  0.35175900983E-01  0.81965959680E+00  0.84854986430E+00  0.11803033808E+01  0.00000000000E+00 0. -1.
         11    1    3    3    0    0  0.70881610419E+00 -0.15324175023E+02  0.14213936018E+02  0.20913362661E+02  0.51100000000E-03 0. -1.
        -11    1    3    3    0    0 -0.17231373403E+02 -0.16162856973E+02 -0.23441880540E+02  0.33281825948E+02  0.51100000000E-03 0.  1.
         12    1    3    3    0    0  0.16487381398E+02  0.30667372399E+02  0.83793946583E+01  0.35812508011E+02  0.00000000000E+00 0. -1.
</event>
<event>
 7    1  0.4358868E-015  0.9000774E+02  0.7816164E-02  0.1186339E+00
        -11   -1    0    0    0    0  0.00000000000E+00  0.00000000000E+00  0.45593999997E+02  0.45594000000E+02  0.51100000000E-03 0. -1.
         11   -1    0    0    0    0 -0.00000000000E+00 -0.00000000000E+00 -0.45593999997E+02  0.45594000000E+02  0.51100000000E-03 0.  1.
    9900012    2    1    2    0    0 -0.54698367153E+00 -0.68139616620E+00 -0.79343109795E+00  0.90007735293E+02  0.89999996599E+02 0.  0.
         12    1    1    2    0    0  0.54698367153E+00  0.68139616620E+00  0.79343109795E+00  0.11802647074E+01  0.00000000000E+00 0. -1.
         11    1    3    3    0    0 -0.24569433383E+02  0.92544764430E+01  0.28642085357E+02  0.38854490665E+02  0.51100000000E-03 0. -1.
        -11    1    3    3    0    0 -0.24932399792E+01  0.25320885497E+01  0.48758555126E+01  0.60333809144E+01  0.51100000000E-03 0.  1.
        -12    1    3    3    0    0  0.26515689691E+02 -0.12467961159E+02 -0.34311371967E+02  0.45119863713E+02  0.00000000000E+00 0.  1.
</event>
<event>
 7    1  0.4358868E-015  0.9000768E+02  0.7816164E-02  0.1186339E+00
        -11   -1    0    0    0    0  0.00000000000E+00  0.00000000000E+00  0.45593999997E+02  0.45594000000E+02  0.51100000000E-03 0.  1.
         11   -1    0    0    0    0 -0.00000000000E+00 -0.00000000000E+00 -0.45593999997E+02  0.45594000000E+02  0.51100000000E-03 0. -1.
    9900012    2    1    2    0    0 -0.83689746041E+00  0.78977269869E+00  0.26270241247E+00  0.90007681894E+02  0.89999942495E+02 0.  0.
         12    1    1    2    0    0  0.83689746041E+00 -0.78977269869E+00 -0.26270241247E+00  0.11803181064E+01  0.00000000000E+00 0. -1.
         11    1    3    3    0    0 -0.24402273134E+02 -0.18395491558E+02  0.24972869239E+02  0.39465291613E+02  0.51100000000E-03 0. -1.
        -11    1    3    3    0    0  0.70290880837E+01 -0.32712775689E+01  0.54406330140E+01  0.94715270193E+01  0.51100000000E-03 0.  1.
        -12    1    3    3    0    0  0.16536287590E+02  0.22456541826E+02 -0.30150799840E+02  0.41070863262E+02  0.00000000000E+00 0.  1.
</event>
<event>
 7    1  0.4358868E-015  0.9000777E+02  0.7816164E-02  0.1186339E+00
        -11   -1    0    0    0    0  0.00000000000E+00  0.00000000000E+00  0.45593999997E+02  0.45594000000E+02  0.51100000000E-03 0.  1.
         11   -1    0    0    0    0 -0.00000000000E+00 -0.00000000000E+00 -0.45593999997E+02  0.45594000000E+02  0.51100000000E-03 0. -1.
    9900012    2    1    2    0    0 -0.68750005747E+00  0.11157530823E+00  0.95280088883E+00  0.90007773364E+02  0.90000035172E+02 0.  0.
         12    1    1    2    0    0  0.68750005747E+00 -0.11157530823E+00 -0.95280088883E+00  0.11802266359E+01  0.00000000000E+00 0. -1.
         11    1    3    3    0    0  0.37436275978E+02 -0.15693233498E+02  0.14513335568E+02  0.43109039033E+02  0.51100000000E-03 0. -1.
        -11    1    3    3    0    0 -0.85132648122E+01 -0.27653469716E+01  0.10569653034E+01  0.90133233354E+01  0.51100000000E-03 0.  1.
        -12    1    3    3    0    0 -0.29610511224E+02  0.18570155778E+02 -0.14617499983E+02  0.37885410996E+02  0.00000000000E+00 0.  1.
</event>
<event>
 7    1  0.4358868E-015  0.9000748E+02  0.7816164E-02  0.1186340E+00
        -11   -1    0    0    0    0  0.00000000000E+00  0.00000000000E+00  0.45593999997E+02  0.45594000000E+02  0.51100000000E-03 0.  1.
         11   -1    0    0    0    0 -0.00000000000E+00 -0.00000000000E+00 -0.45593999997E+02  0.45594000000E+02  0.51100000000E-03 0. -1.
    9900012    2    1    2    0    0 -0.10668148432E+01  0.50406515229E+00 -0.38156682004E-01  0.90007478285E+02  0.89999736198E+02 0.  0.
         12    1    1    2    0    0  0.10668148432E+01 -0.50406515229E+00  0.38156682004E-01  0.11805217151E+01  0.00000000000E+00 0. -1.
         11    1    3    3    0    0  0.13694463973E+02  0.39652426698E+02  0.51273762183E+01  0.42262788285E+02  0.51100000000E-03 0. -1.
        -11    1    3    3    0    0  0.41373010716E+01 -0.33828858264E+01  0.34828761485E+01  0.63789970370E+01  0.51100000000E-03 0.  1.
        -12    1    3    3    0    0 -0.18898579888E+02 -0.35765475719E+02 -0.86484090488E+01  0.41365692962E+02  0.00000000000E+00 0.  1.
</event>
<event>
 7    1  0.4358868E-015  0.9000754E+02  0.7816164E-02  0.1186339E+00
        -11   -1    0    0    0    0  0.00000000000E+00  0.00000000000E+00  0.45593999997E+02  0.45594000000E+02  0.51100000000E-03 0. -1.
         11   -1    0    0    0    0 -0.00000000000E+00 -0.00000000000E+00 -0.45593999997E+02  0.45594000000E+02  0.51100000000E-03 0.  1.
    9900012    2    1    2    0    0  0.95393604422E+00 -0.61828641639E+00  0.31813734836E+00  0.90007541004E+02  0.89999799745E+02 0.  0.
         12    1    1    2    0    0 -0.95393604422E+00  0.61828641639E+00 -0.31813734836E+00  0.11804589961E+01  0.00000000000E+00 0. -1.
         11    1    3    3    0    0 -0.18768841505E+01  0.33259436444E+02 -0.16169718585E+02  0.37029347902E+02  0.51100000000E-03 0. -1.
        -11    1    3    3    0    0 -0.69733250034E+01  0.26695509672E+01 -0.54454233179E+01  0.92415582745E+01  0.51100000000E-03 0.  1.
        -12    1    3    3    0    0  0.98041451981E+01 -0.36547273827E+02  0.21933279251E+02  0.43736634827E+02  0.00000000000E+00 0.  1.
</event>
<event>
 7    1  0.4358868E-015  0.9000773E+02  0.7816164E-02  0.1186339E+00
        -11   -1    0    0    0    0  0.00000000000E+00  0.00000000000E+00  0.45593999997E+02  0.45594000000E+02  0.51100000000E-03 0. -1.
         11   -1    0    0    0    0 -0.00000000000E+00 -0.00000000000E+00 -0.45593999997E+02  0.45594000000E+02  0.51100000000E-03 0.  1.
    9900012    2    1    2    0    0  0.10653244463E+01 -0.42878223521E+00 -0.27251115977E+00  0.90007731932E+02  0.89999993193E+02 0.  0.
         12    1    1    2    0    0 -0.10653244463E+01  0.42878223521E+00  0.27251115977E+00  0.11802680684E+01  0.00000000000E+00 0. -1.
         11    1    3    3    0    0 -0.81239195226E+01 -0.16172648243E+00 -0.57150304722E+01  0.99340725498E+01  0.51100000000E-03 0. -1.
        -11    1    3    3    0    0 -0.23467470291E+02  0.23577574143E+02  0.17882559325E+02  0.37767844691E+02  0.51100000000E-03 0.  1.
         12    1    3    3    0    0  0.32656714260E+02 -0.23844629896E+02 -0.12440040013E+02  0.42305814691E+02  0.00000000000E+00 0. -1.
</event>
<event>
 7    1  0.4358868E-015  0.9000783E+02  0.7816164E-02  0.1186339E+00
        -11   -1    0    0    0    0  0.00000000000E+00  0.00000000000E+00  0.45593999997E+02  0.45594000000E+02  0.51100000000E-03 0.  1.
         11   -1    0    0    0    0 -0.00000000000E+00 -0.00000000000E+00 -0.45593999997E+02  0.45594000000E+02  0.51100000000E-03 0. -1.
    9900012    2    1    2    0    0 -0.69687811798E+00  0.93160961645E+00 -0.19818076421E+00  0.90007825774E+02  0.90000088274E+02 0.  0.
         12    1    1    2    0    0  0.69687811798E+00 -0.93160961645E+00  0.19818076421E+00  0.11801742262E+01  0.00000000000E+00 0. -1.
         11    1    3    3    0    0  0.15061579347E+02 -0.11674082190E+02 -0.31682501120E+02  0.36971830424E+02  0.51100000000E-03 0. -1.
        -11    1    3    3    0    0  0.10393967276E+02 -0.20055566059E+01  0.15719711457E+01  0.10701771189E+02  0.51100000000E-03 0.  1.
        -12    1    3    3    0    0 -0.26152424741E+02  0.14611248413E+02  0.29912349210E+02  0.42334224161E+02  0.00000000000E+00 0.  1.
</event>
<event>
 7    1  0.4358868E-015  0.9000776E+02  0.7816164E-02  0.1186339E+00
        -11   -1    0    0    0    0  0.00000000000E+00  0.00000000000E+00  0.45593999997E+02  0.45594000000E+02  0.51100000000E-03 0.  1.
         11   -1    0    0    0    0 -0.00000000000E+00 -0.00000000000E+00 -0.45593999997E+02  0.45594000000E+02  0.51100000000E-03 0. -1.
    9900012    2    1    2    0    0  0.73399184378E+00 -0.85573295315E+00  0.34921725357E+00  0.90007756125E+02  0.90000017706E+02 0.  0.
         12    1    1    2    0    0 -0.73399184378E+00  0.85573295315E+00 -0.34921725357E+00  0.11802438748E+01  0.00000000000E+00 0. -1.
         11    1    3    3    0    0 -0.21113954908E+02  0.36321364904E+01 -0.28626275276E+02  0.35755491100E+02  0.51100000000E-03 0. -1.
        -11    1    3    3    0    0  0.26215546875E+01 -0.13784643688E+01 -0.10135953826E+02  0.10559842481E+02  0.51100000000E-03 0.  1.
        -12    1    3    3    0    0  0.19226392064E+02 -0.31094050747E+01  0.39111446356E+02  0.43692422544E+02  0.00000000000E+00 0.  1.
</event>
<event>
 7    1  0.4358868E-015  0.9000773E+02  0.7816164E-02  0.1186339E+00
        -11   -1    0    0    0    0  0.00000000000E+00  0.00000000000E+00  0.45593999997E+02  0.45594000000E+02  0.51100000000E-03 0.  1.
         11   -1    0    0    0    0 -0.00000000000E+00 -0.00000000000E+00 -0.45593999997E+02  0.45594000000E+02  0.51100000000E-03 0. -1.
    9900012    2    1    2    0    0  0.44706352529E+00 -0.10916740031E+01  0.37625208339E-01  0.90007731564E+02  0.89999992821E+02 0.  0.
         12    1    1    2    0    0 -0.44706352529E+00  0.10916740031E+01 -0.37625208339E-01  0.11802684360E+01  0.00000000000E+00 0. -1.
         11    1    3    3    0    0 -0.40391769557E+01 -0.32223051395E+02  0.13780753467E+02  0.35278168293E+02  0.51100000000E-03 0. -1.
        -11    1    3    3    0    0  0.49473638050E+01 -0.88123405142E+01  0.41927440995E+01  0.10941337089E+02  0.51100000000E-03 0.  1.
        -12    1    3    3    0    0 -0.46112332407E+00  0.39943717906E+02 -0.17935872359E+02  0.43788226182E+02  0.00000000000E+00 0.  1.
</event>
<event>
 7    1  0.4358868E-015  0.9000778E+02  0.7816164E-02  0.1186339E+00
        -11   -1    0    0    0    0  0.00000000000E+00  0.00000000000E+00  0.45593999997E+02  0.45594000000E+02  0.51100000000E-03 0.  1.
         11   -1    0    0    0    0 -0.00000000000E+00 -0.00000000000E+00 -0.45593999997E+02  0.45594000000E+02  0.51100000000E-03 0. -1.
    9900012    2    1    2    0    0  0.38928111339E+00 -0.81925891855E+00  0.75510819504E+00  0.90007782500E+02  0.90000044429E+02 0.  0.
         12    1    1    2    0    0 -0.38928111339E+00  0.81925891855E+00 -0.75510819504E+00  0.11802174999E+01  0.00000000000E+00 0. -1.
         11    1    3    3    0    0 -0.91645743503E+01  0.27807227104E+01 -0.14552206193E+01  0.96870794942E+01  0.51100000000E-03 0. -1.
        -11    1    3    3    0    0 -0.13114624055E+02  0.27217288682E+02  0.21880765425E+02  0.37303378710E+02  0.51100000000E-03 0.  1.
         12    1    3    3    0    0  0.22668479519E+02 -0.30817270311E+02 -0.19670436611E+02  0.43017324296E+02  0.00000000000E+00 0. -1.
</event>
<event>
 7    1  0.4358868E-015  0.9000785E+02  0.7816164E-02  0.1186339E+00
        -11   -1    0    0    0    0  0.00000000000E+00  0.00000000000E+00  0.45593999997E+02  0.45594000000E+02  0.51100000000E-03 0. -1.
         11   -1    0    0    0    0 -0.00000000000E+00 -0.00000000000E+00 -0.45593999997E+02  0.45594000000E+02  0.51100000000E-03 0.  1.
    9900012    2    1    2    0    0 -0.40946059049E+00  0.60776563144E-01 -0.11051662909E+01  0.90007854121E+02  0.90000116995E+02 0.  0.
         12    1    1    2    0    0  0.40946059049E+00 -0.60776563144E-01  0.11051662909E+01  0.11801458792E+01  0.00000000000E+00 0. -1.
         11    1    3    3    0    0  0.79725198016E+01  0.42209413744E+01  0.21387999555E+01  0.92710238692E+01  0.51100000000E-03 0. -1.
        -11    1    3    3    0    0 -0.23528416685E+02  0.61814183732E+01 -0.35851262569E+02  0.43325620052E+02  0.51100000000E-03 0.  1.
         12    1    3    3    0    0  0.15146436293E+02 -0.10341583184E+02  0.32607296323E+02  0.37411210200E+02  0.00000000000E+00 0. -1.
</event>
<event>
 7    1  0.4358868E-015  0.9000827E+02  0.7816164E-02  0.1186338E+00
        -11   -1    0    0    0    0  0.00000000000E+00  0.00000000000E+00  0.45593999997E+02  0.45594000000E+02  0.51100000000E-03 0.  1.
         11   -1    0    0    0    0 -0.00000000000E+00 -0.00000000000E+00 -0.45593999997E+02  0.45594000000E+02  0.51100000000E-03 0. -1.
    9900012    2    1    2    0    0 -0.82862978237E+00 -0.77440652436E+00  0.32470935524E+00  0.90008267426E+02  0.90000535754E+02 0.  0.
         12    1    1    2    0    0  0.82862978237E+00  0.77440652436E+00 -0.32470935524E+00  0.11797325742E+01  0.00000000000E+00 0. -1.
         11    1    3    3    0    0 -0.74643369798E+00  0.30926603322E+02 -0.18795744867E+02  0.36197955490E+02  0.51100000000E-03 0. -1.
        -11    1    3    3    0    0 -0.10863276957E+02  0.42261765979E+01 -0.11266981356E+00  0.11656931398E+02  0.51100000000E-03 0.  1.
        -12    1    3    3    0    0  0.10781080872E+02 -0.35927186444E+02  0.19233124036E+02  0.42153380538E+02  0.00000000000E+00 0.  1.
</event>
<event>
 7    1  0.4358868E-015  0.9000777E+02  0.7816164E-02  0.1186339E+00
        -11   -1    0    0    0    0  0.00000000000E+00  0.00000000000E+00  0.45593999997E+02  0.45594000000E+02  0.51100000000E-03 0.  1.
         11   -1    0    0    0    0 -0.00000000000E+00 -0.00000000000E+00 -0.45593999997E+02  0.45594000000E+02  0.51100000000E-03 0. -1.
    9900012    2    1    2    0    0  0.69524454048E+00  0.28753812194E+00  0.90934390223E+00  0.90007767195E+02  0.90000028921E+02 0.  0.
         12    1    1    2    0    0 -0.69524454048E+00 -0.28753812194E+00 -0.90934390223E+00  0.11802328055E+01  0.00000000000E+00 0. -1.
         11    1    3    3    0    0 -0.19452566057E+02 -0.81162431756E+01 -0.29569195534E+02  0.36312712020E+02  0.51100000000E-03 0. -1.
        -11    1    3    3    0    0 -0.29095870920E+01  0.12450033107E+02 -0.27212506272E+01  0.13071886882E+02  0.51100000000E-03 0.  1.
        -12    1    3    3    0    0  0.23057397689E+02 -0.40462518099E+01  0.33199790063E+02  0.40623168293E+02  0.00000000000E+00 0.  1.
</event>
<event>
 7    1  0.4358868E-015  0.9000776E+02  0.7816164E-02  0.1186339E+00
        -11   -1    0    0    0    0  0.00000000000E+00  0.00000000000E+00  0.45593999997E+02  0.45594000000E+02  0.51100000000E-03 0.  1.
         11   -1    0    0    0    0 -0.00000000000E+00 -0.00000000000E+00 -0.45593999997E+02  0.45594000000E+02  0.51100000000E-03 0. -1.
    9900012    2    1    2    0    0 -0.30573971341E+00 -0.96268376568E+00  0.61051166925E+00  0.90007762184E+02  0.90000023844E+02 0.  0.
         12    1    1    2    0    0  0.30573971341E+00  0.96268376568E+00 -0.61051166925E+00  0.11802378164E+01  0.00000000000E+00 0. -1.
         11    1    3    3    0    0 -0.44731774132E+01  0.11502261496E+02 -0.20065454150E+01  0.12503501928E+02  0.51100000000E-03 0. -1.
        -11    1    3    3    0    0 -0.15320856341E+02  0.28353229939E+02  0.12114915160E+01  0.32250612381E+02  0.51100000000E-03 0.  1.
         12    1    3    3    0    0  0.19488294040E+02 -0.40818175201E+02  0.14055655682E+01  0.45253647874E+02  0.00000000000E+00 0. -1.
</event>
<event>
 7    1  0.4358868E-015  0.9000775E+02  0.7816164E-02  0.1186339E+00
        -11   -1    0    0    0    0  0.00000000000E+00  0.00000000000E+00  0.45593999997E+02  0.45594000000E+02  0.51100000000E-03 0.  1.
         11   -1    0    0    0    0 -0.00000000000E+00 -0.00000000000E+00 -0.45593999997E+02  0.45594000000E+02  0.51100000000E-03 0. -1.
    9900012    2    1    2    0    0  0.56771622737E-01 -0.10844345700E+01  0.46234230437E+00  0.90007753517E+02  0.90000015064E+02 0.  0.
         12    1    1    2    0    0 -0.56771622737E-01  0.10844345700E+01 -0.46234230437E+00  0.11802464828E+01  0.00000000000E+00 0. -1.
         11    1    3    3    0    0 -0.58909525175E+01  0.24730119393E+02  0.15560080394E+02  0.29806009945E+02  0.51100000000E-03 0. -1.
        -11    1    3    3    0    0  0.43067896881E+01  0.11053986833E+02  0.10045949597E+02  0.15545422667E+02  0.51100000000E-03 0.  1.
        -12    1    3    3    0    0  0.16409344521E+01 -0.36868540796E+02 -0.25143687686E+02  0.44656320905E+02  0.00000000000E+00 0.  1.
</event>
<event>
 7    1  0.4358868E-015  0.9000771E+02  0.7816164E-02  0.1186339E+00
        -11   -1    0    0    0    0  0.00000000000E+00  0.00000000000E+00  0.45593999997E+02  0.45594000000E+02  0.51100000000E-03 0.  1.
         11   -1    0    0    0    0 -0.00000000000E+00 -0.00000000000E+00 -0.45593999997E+02  0.45594000000E+02  0.51100000000E-03 0. -1.
    9900012    2    1    2    0    0  0.10521275621E+00 -0.88284011480E+00  0.77628233097E+00  0.90007707388E+02  0.89999968326E+02 0.  0.
         12    1    1    2    0    0 -0.10521275621E+00  0.88284011480E+00 -0.77628233097E+00  0.11802926119E+01  0.00000000000E+00 0. -1.
         11    1    3    3    0    0  0.11748367864E+01 -0.31978722555E+01 -0.89679661041E+01  0.95932812292E+01  0.51100000000E-03 0. -1.
        -11    1    3    3    0    0  0.65127193697E+01 -0.37294468428E+02  0.12815075066E+02  0.39968975946E+02  0.51100000000E-03 0.  1.
         12    1    3    3    0    0 -0.75823433999E+01  0.39609500569E+02 -0.30708266311E+01  0.40445450213E+02  0.00000000000E+00 0. -1.
</event>
<event>
 7    1  0.4358868E-015  0.9000777E+02  0.7816164E-02  0.1186339E+00
        -11   -1    0    0    0    0  0.00000000000E+00  0.00000000000E+00  0.45593999997E+02  0.45594000000E+02  0.51100000000E-03 0.  1.
         11   -1    0    0    0    0 -0.00000000000E+00 -0.00000000000E+00 -0.45593999997E+02  0.45594000000E+02  0.51100000000E-03 0. -1.
    9900012    2    1    2    0    0 -0.48491525266E+00  0.83790912531E+00  0.67505665416E+00  0.90007772907E+02  0.90000034709E+02 0.  0.
         12    1    1    2    0    0  0.48491525266E+00 -0.83790912531E+00 -0.67505665416E+00  0.11802270929E+01  0.00000000000E+00 0. -1.
         11    1    3    3    0    0 -0.26945763615E+02  0.45920416776E+00 -0.18799699005E+02  0.32858997675E+02  0.51100000000E-03 0. -1.
        -11    1    3    3    0    0 -0.61521557714E+00 -0.18048194740E+02 -0.17154103044E+01  0.18139968477E+02  0.51100000000E-03 0.  1.
        -12    1    3    3    0    0  0.27076063939E+02  0.18426899697E+02  0.21190165964E+02  0.39008806755E+02  0.00000000000E+00 0.  1.
</event>
<event>
 7    1  0.4358868E-015  0.9000779E+02  0.7816164E-02  0.1186339E+00
        -11   -1    0    0    0    0  0.00000000000E+00  0.00000000000E+00  0.45593999997E+02  0.45594000000E+02  0.51100000000E-03 0.  1.
         11   -1    0    0    0    0 -0.00000000000E+00 -0.00000000000E+00 -0.45593999997E+02  0.45594000000E+02  0.51100000000E-03 0. -1.
    9900012    2    1    2    0    0 -0.58661515107E+00  0.66928285295E+00  0.77513282796E+00  0.90007793334E+02  0.90000055406E+02 0.  0.
         12    1    1    2    0    0  0.58661515107E+00 -0.66928285295E+00 -0.77513282796E+00  0.11802066657E+01  0.00000000000E+00 0. -1.
         11    1    3    3    0    0 -0.32063799064E+02 -0.19833072001E+02 -0.31569052719E+01  0.37833900230E+02  0.51100000000E-03 0. -1.
        -11    1    3    3    0    0 -0.80654519136E+01  0.48280322213E+01  0.18952784807E+01  0.95892382639E+01  0.51100000000E-03 0.  1.
        -12    1    3    3    0    0  0.39542635827E+02  0.15674322633E+02  0.20367596192E+01  0.42584654841E+02  0.00000000000E+00 0.  1.
</event>
<event>
 7    1  0.4358868E-015  0.9000770E+02  0.7816164E-02  0.1186339E+00
        -11   -1    0    0    0    0  0.00000000000E+00  0.00000000000E+00  0.45593999997E+02  0.45594000000E+02  0.51100000000E-03 0.  1.
         11   -1    0    0    0    0 -0.00000000000E+00 -0.00000000000E+00 -0.45593999997E+02  0.45594000000E+02  0.51100000000E-03 0. -1.
    9900012    2    1    2    0    0 -0.86440834969E+00 -0.66350396191E+00  0.45350271062E+00  0.90007701728E+02  0.89999962591E+02 0.  0.
         12    1    1    2    0    0  0.86440834969E+00  0.66350396191E+00 -0.45350271062E+00  0.11802982721E+01  0.00000000000E+00 0. -1.
         11    1    3    3    0    0 -0.15125837241E+02 -0.34135710276E+02  0.37568701030E+01  0.37525347987E+02  0.51100000000E-03 0. -1.
        -11    1    3    3    0    0  0.75156923686E+00 -0.46820326751E+01  0.90046388720E+01  0.10176925261E+02  0.51100000000E-03 0.  1.
        -12    1    3    3    0    0  0.13509859654E+02  0.38154238989E+02 -0.12308006264E+02  0.42305428481E+02  0.00000000000E+00 0.  1.
</event>
<event>
 7    1  0.4358868E-015  0.9000768E+02  0.7816164E-02  0.1186339E+00
        -11   -1    0    0    0    0  0.00000000000E+00  0.00000000000E+00  0.45593999997E+02  0.45594000000E+02  0.51100000000E-03 0.  1.
         11   -1    0    0    0    0 -0.00000000000E+00 -0.00000000000E+00 -0.45593999997E+02  0.45594000000E+02  0.51100000000E-03 0. -1.
    9900012    2    1    2    0    0 -0.60826918265E+00  0.93646697017E+00  0.38234398619E+00  0.90007682793E+02  0.89999943406E+02 0.  0.
         12    1    1    2    0    0  0.60826918265E+00 -0.93646697017E+00 -0.38234398619E+00  0.11803172068E+01  0.00000000000E+00 0. -1.
         11    1    3    3    0    0  0.68874657980E+01 -0.14022703884E+01  0.78670146199E+01  0.10549571870E+02  0.51100000000E-03 0. -1.
        -11    1    3    3    0    0  0.24023243764E+02 -0.21857126953E+02  0.12720680547E+02  0.34880739003E+02  0.51100000000E-03 0.  1.
         12    1    3    3    0    0 -0.31518978745E+02  0.24195864311E+02 -0.20205351180E+02  0.44577371919E+02  0.00000000000E+00 0. -1.
</event>
<event>
 7    1  0.4358868E-015  0.9000775E+02  0.7816164E-02  0.1186339E+00
        -11   -1    0    0    0    0  0.00000000000E+00  0.00000000000E+00  0.45593999997E+02  0.45594000000E+02  0.51100000000E-03 0.  1.
         11   -1    0    0    0    0 -0.00000000000E+00 -0.00000000000E+00 -0.45593999997E+02  0.45594000000E+02  0.51100000000E-03 0. -1.
    9900012    2    1    2    0    0 -0.89284124055E+00  0.41668027337E+00  0.64977751956E+00  0.90007746317E+02  0.90000007768E+02 0.  0.
         12    1    1    2    0    0  0.89284124055E+00 -0.41668027337E+00 -0.64977751956E+00  0.11802536829E+01  0.00000000000E+00 0. -1.
         11    1    3    3    0    0  0.10129407149E+02 -0.17231877868E+02 -0.95361490411E+01  0.22146797575E+02  0.51100000000E-03 0. -1.
        -11    1    3    3    0    0  0.18602497894E+01 -0.13090547542E+02 -0.19277132111E+02  0.23375859062E+02  0.51100000000E-03 0.  1.
        -12    1    3    3    0    0 -0.12882498179E+02  0.30739105683E+02  0.29463058672E+02  0.44485089680E+02  0.00000000000E+00 0.  1.
</event>
<event>
 7    1  0.4358868E-015  0.9000773E+02  0.7816164E-02  0.1186339E+00
        -11   -1    0    0    0    0  0.00000000000E+00  0.00000000000E+00  0.45593999997E+02  0.45594000000E+02  0.51100000000E-03 0.  1.
         11   -1    0    0    0    0 -0.00000000000E+00 -0.00000000000E+00 -0.45593999997E+02  0.45594000000E+02  0.51100000000E-03 0. -1.
    9900012    2    1    2    0    0  0.20652934319E+00 -0.70875527379E+00  0.92089033074E+00  0.90007734179E+02  0.89999995470E+02 0.  0.
         12    1    1    2    0    0 -0.20652934319E+00  0.70875527379E+00 -0.92089033074E+00  0.11802658213E+01  0.00000000000E+00 0. -1.
         11    1    3    3    0    0  0.39589471121E+00 -0.25190909604E+02 -0.31434422795E+02  0.40284756372E+02  0.51100000000E-03 0. -1.
        -11    1    3    3    0    0 -0.51134699014E+01 -0.25827113049E+01 -0.16710461989E+01  0.59674423145E+01  0.51100000000E-03 0.  1.
        -12    1    3    3    0    0  0.49241045334E+01  0.27064865635E+02  0.34026359324E+02  0.43755535492E+02  0.00000000000E+00 0.  1.
</event>
<event>
 7    1  0.4358868E-015  0.9000771E+02  0.7816164E-02  0.1186339E+00
        -11   -1    0    0    0    0  0.00000000000E+00  0.00000000000E+00  0.45593999997E+02  0.45594000000E+02  0.51100000000E-03 0. -1.
         11   -1    0    0    0    0 -0.00000000000E+00 -0.00000000000E+00 -0.45593999997E+02  0.45594000000E+02  0.51100000000E-03 0.  1.
    9900012    2    1    2    0    0  0.73537421728E+00 -0.59553259796E+00  0.70544376325E+00  0.90007709689E+02  0.89999970657E+02 0.  0.
         12    1    1    2    0    0 -0.73537421728E+00  0.59553259796E+00 -0.70544376325E+00  0.11802903108E+01  0.00000000000E+00 0. -1.
         11    1    3    3    0    0 -0.21780770346E+02  0.32803879513E+02  0.22211708053E+01  0.39438941010E+02  0.51100000000E-03 0. -1.
        -11    1    3    3    0    0 -0.10006487324E+01  0.53397384655E+00 -0.86044335038E+01  0.86788652563E+01  0.51100000000E-03 0.  1.
        -12    1    3    3    0    0  0.23516793296E+02 -0.33933385958E+02  0.70887064617E+01  0.41889903423E+02  0.00000000000E+00 0.  1.
</event>
<event>
 7    1  0.4358868E-015  0.9000790E+02  0.7816164E-02  0.1186339E+00
        -11   -1    0    0    0    0  0.00000000000E+00  0.00000000000E+00  0.45593999997E+02  0.45594000000E+02  0.51100000000E-03 0. -1.
         11   -1    0    0    0    0 -0.00000000000E+00 -0.00000000000E+00 -0.45593999997E+02  0.45594000000E+02  0.51100000000E-03 0.  1.
    9900012    2    1    2    0    0 -0.94873810489E+00  0.58072130711E+00 -0.39407599658E+00  0.90007899530E+02  0.90000163004E+02 0.  0.
         12    1    1    2    0    0  0.94873810489E+00 -0.58072130711E+00  0.39407599658E+00  0.11801004700E+01  0.00000000000E+00 0. -1.
         11    1    3    3    0    0 -0.93262901400E+01  0.24728394971E+01 -0.19194963375E+01  0.98376363728E+01  0.51100000000E-03 0. -1.
        -11    1    3    3    0    0 -0.24250906079E+02  0.25506432394E+02 -0.89086500140E+01  0.36304938843E+02  0.51100000000E-03 0.  1.
         12    1    3    3    0    0  0.32628458114E+02 -0.27398550584E+02  0.10434070355E+02  0.43865324314E+02  0.00000000000E+00 0. -1.
</event>
<event>
 7    1  0.4358868E-015  0.9000775E+02  0.7816164E-02  0.1186339E+00
        -11   -1    0    0    0    0  0.00000000000E+00  0.00000000000E+00  0.45593999997E+02  0.45594000000E+02  0.51100000000E-03 0.  1.
         11   -1    0    0    0    0 -0.00000000000E+00 -0.00000000000E+00 -0.45593999997E+02  0.45594000000E+02  0.51100000000E-03 0. -1.
    9900012    2    1    2    0    0  0.46241162360E+00 -0.30092159406E-01  0.10854780160E+01  0.90007748937E+02  0.90000010423E+02 0.  0.
         12    1    1    2    0    0 -0.46241162360E+00  0.30092159406E-01 -0.10854780160E+01  0.11802510626E+01  0.00000000000E+00 0. -1.
         11    1    3    3    0    0 -0.30573746329E+01 -0.42298374008E+01 -0.28703214401E+01  0.59563251686E+01  0.51100000000E-03 0. -1.
        -11    1    3    3    0    0  0.34050688288E+02 -0.97340009557E+01  0.25969105959E+02  0.43915767238E+02  0.51100000000E-03 0.  1.
         12    1    3    3    0    0 -0.30530902032E+02  0.13933746197E+02 -0.22013306503E+02  0.40135656531E+02  0.00000000000E+00 0. -1.
</event>
<event>
 7    1  0.4358868E-015  0.9000774E+02  0.7816164E-02  0.1186339E+00
        -11   -1    0    0    0    0  0.00000000000E+00  0.00000000000E+00  0.45593999997E+02  0.45594000000E+02  0.51100000000E-03 0. -1.
         11   -1    0    0    0    0 -0.00000000000E+00 -0.00000000000E+00 -0.45593999997E+02  0.45594000000E+02  0.51100000000E-03 0.  1.
    9900012    2    1    2    0    0 -0.32696127875E+00  0.11262645203E+01 -0.13282968605E+00  0.90007737668E+02  0.89999999005E+02 0.  0.
         12    1    1    2    0    0  0.32696127875E+00 -0.11262645203E+01  0.13282968605E+00  0.11802623322E+01  0.00000000000E+00 0. -1.
         11    1    3    3    0    0  0.17872363929E+02 -0.51876273285E+01  0.29105269497E+02  0.34546339640E+02  0.51100000000E-03 0. -1.
        -11    1    3    3    0    0  0.99474490673E+01  0.25151206830E+01  0.46331791094E+01  0.11258060398E+02  0.51100000000E-03 0.  1.
        -12    1    3    3    0    0 -0.28146774276E+02  0.37987711658E+01 -0.33871278293E+02  0.44203337630E+02  0.00000000000E+00 0.  1.
</event>
<event>
 7    1  0.4358868E-015  0.9000770E+02  0.7816164E-02  0.1186339E+00
        -11   -1    0    0    0    0  0.00000000000E+00  0.00000000000E+00  0.45593999997E+02  0.45594000000E+02  0.51100000000E-03 0.  1.
         11   -1    0    0    0    0 -0.00000000000E+00 -0.00000000000E+00 -0.45593999997E+02  0.45594000000E+02  0.51100000000E-03 0. -1.
    9900012    2    1    2    0    0 -0.65636653323E+00 -0.96686854221E+00  0.16567631810E+00  0.90007703238E+02  0.89999964121E+02 0.  0.
         12    1    1    2    0    0  0.65636653323E+00  0.96686854221E+00 -0.16567631810E+00  0.11802967619E+01  0.00000000000E+00 0. -1.
         11    1    3    3    0    0  0.15639553646E+02  0.26916573092E+02 -0.76313221570E+01  0.32052061141E+02  0.51100000000E-03 0. -1.
        -11    1    3    3    0    0 -0.57240471003E+01  0.13524937980E+02  0.16349287617E+01  0.14777065165E+02  0.51100000000E-03 0.  1.
        -12    1    3    3    0    0 -0.10571873079E+02 -0.41408379615E+02  0.61620697134E+01  0.43178576932E+02  0.00000000000E+00 0.  1.
</event>
<event>
 7    1  0.4358868E-015  0.9000770E+02  0.7816164E-02  0.1186339E+00
        -11   -1    0    0    0    0  0.00000000000E+00  0.00000000000E+00  0.45593999997E+02  0.45594000000E+02  0.51100000000E-03 0.  1.
         11   -1    0    0    0    0 -0.00000000000E+00 -0.00000000000E+00 -0.45593999997E+02  0.45594000000E+02  0.51100000000E-03 0. -1.
    9900012    2    1    2    0    0 -0.30995290250E+00  0.75145789837E+00  0.85577140910E+00  0.90007701530E+02  0.89999962390E+02 0.  0.
         12    1    1    2    0    0  0.30995290250E+00 -0.75145789837E+00 -0.85577140910E+00  0.11802984705E+01  0.00000000000E+00 0. -1.
         11    1    3    3    0    0 -0.53124648172E+01  0.76110322808E+01  0.12529197540E+01  0.93658903999E+01  0.51100000000E-03 0. -1.
        -11    1    3    3    0    0  0.35542312470E+02  0.19140869249E+02  0.23673642118E+01  0.40438017569E+02  0.51100000000E-03 0.  1.
         12    1    3    3    0    0 -0.30539800555E+02 -0.26000443632E+02 -0.27645125567E+01  0.40203793561E+02  0.00000000000E+00 0. -1.
</event>
<event>
 7    1  0.4358868E-015  0.9000777E+02  0.7816164E-02  0.1186339E+00
        -11   -1    0    0    0    0  0.00000000000E+00  0.00000000000E+00  0.45593999997E+02  0.45594000000E+02  0.51100000000E-03 0.  1.
         11   -1    0    0    0    0 -0.00000000000E+00 -0.00000000000E+00 -0.45593999997E+02  0.45594000000E+02  0.51100000000E-03 0. -1.
    9900012    2    1    2    0    0 -0.82183944739E-04 -0.43549317933E+00  0.10969410718E+01  0.90007773737E+02  0.90000035551E+02 0.  0.
         12    1    1    2    0    0  0.82183944738E-04  0.43549317933E+00 -0.10969410718E+01  0.11802262627E+01  0.00000000000E+00 0. -1.
         11    1    3    3    0    0 -0.22515269039E+01  0.23802329012E+02 -0.27836936619E+02  0.36694894473E+02  0.51100000000E-03 0. -1.
        -11    1    3    3    0    0  0.85860348426E+01  0.53305035277E+01 -0.17227942685E+01  0.10251940428E+02  0.51100000000E-03 0.  1.
        -12    1    3    3    0    0 -0.63345901227E+01 -0.29568325719E+02  0.30656671960E+02  0.43060938837E+02  0.00000000000E+00 0.  1.
</event>
<event>
 7    1  0.4358868E-015  0.9000763E+02  0.7816164E-02  0.1186339E+00
        -11   -1    0    0    0    0  0.00000000000E+00  0.00000000000E+00  0.45593999997E+02  0.45594000000E+02  0.51100000000E-03 0.  1.
         11   -1    0    0    0    0 -0.00000000000E+00 -0.00000000000E+00 -0.45593999997E+02  0.45594000000E+02  0.51100000000E-03 0. -1.
    9900012    2    1    2    0    0  0.19907494415E-01  0.58208645632E+00  0.10266715709E+01  0.90007629098E+02  0.89999889002E+02 0.  0.
         12    1    1    2    0    0 -0.19907494415E-01 -0.58208645632E+00 -0.10266715709E+01  0.11803709016E+01  0.00000000000E+00 0. -1.
         11    1    3    3    0    0 -0.12917636959E+01 -0.55095601122E+01  0.86166209235E+01  0.10308737191E+02  0.51100000000E-03 0. -1.
        -11    1    3    3    0    0 -0.38390888915E+02 -0.47211525329E-01  0.18315367011E+01  0.38434582183E+02  0.51100000000E-03 0.  1.
         12    1    3    3    0    0  0.39702560105E+02  0.61388580939E+01 -0.94214860537E+01  0.41264309725E+02  0.00000000000E+00 0. -1.
</event>
<event>
 7    1  0.4358868E-015  0.9000741E+02  0.7816164E-02  0.1186340E+00
        -11   -1    0    0    0    0  0.00000000000E+00  0.00000000000E+00  0.45593999997E+02  0.45594000000E+02  0.51100000000E-03 0.  1.
         11   -1    0    0    0    0 -0.00000000000E+00 -0.00000000000E+00 -0.45593999997E+02  0.45594000000E+02  0.51100000000E-03 0. -1.
    9900012    2    1    2    0    0 -0.87427523766E+00 -0.75596540050E+00  0.24075593657E+00  0.90007405108E+02  0.89999662055E+02 0.  0.
         12    1    1    2    0    0  0.87427523766E+00  0.75596540050E+00 -0.24075593657E+00  0.11805948920E+01  0.00000000000E+00 0. -1.
         11    1    3    3    0    0  0.67449252187E+01  0.25964071026E+02 -0.28668349813E+02  0.39261957182E+02  0.51100000000E-03 0. -1.
        -11    1    3    3    0    0 -0.72004811235E+01 -0.71443110712E+01 -0.52130458092E+01  0.11404558561E+02  0.51100000000E-03 0.  1.
        -12    1    3    3    0    0 -0.41871933287E+00 -0.19575725355E+02  0.34122151559E+02  0.39340889366E+02  0.00000000000E+00 0.  1.
</event>
<event>
 7    1  0.4358868E-015  0.9000770E+02  0.7816164E-02  0.1186339E+00
        -11   -1    0    0    0    0  0.00000000000E+00  0.00000000000E+00  0.45593999997E+02  0.45594000000E+02  0.51100000000E-03 0.  1.
         11   -1    0    0    0    0 -0.00000000000E+00 -0.00000000000E+00 -0.45593999997E+02  0.45594000000E+02  0.51100000000E-03 0. -1.
    9900012    2    1    2    0    0 -0.10089124054E+01 -0.20999586106E+00  0.57542255961E+00  0.90007697655E+02  0.89999958464E+02 0.  0.
         12    1    1    2    0    0  0.10089124054E+01  0.20999586106E+00 -0.57542255961E+00  0.11803023450E+01  0.00000000000E+00 0. -1.
         11    1    3    3    0    0 -0.19404005070E+02 -0.54703448871E+00 -0.33663159720E+02  0.38859014168E+02  0.51100000000E-03 0. -1.
        -11    1    3    3    0    0  0.45257242341E+01  0.59322280351E+01 -0.51168617752E+01  0.90474186369E+01  0.51100000000E-03 0.  1.
        -12    1    3    3    0    0  0.13869368431E+02 -0.55951894075E+01  0.39355444055E+02  0.42101264850E+02  0.00000000000E+00 0.  1.
</event>
<event>
 7    1  0.4358868E-015  0.9000779E+02  0.7816164E-02  0.1186339E+00
        -11   -1    0    0    0    0  0.00000000000E+00  0.00000000000E+00  0.45593999997E+02  0.45594000000E+02  0.51100000000E-03 0. -1.
         11   -1    0    0    0    0 -0.00000000000E+00 -0.00000000000E+00 -0.45593999997E+02  0.45594000000E+02  0.51100000000E-03 0.  1.
    9900012    2    1    2    0    0  0.10948502206E+01 -0.24773437580E+00 -0.36444955010E+00  0.90007791204E+02  0.90000053248E+02 0.  0.
         12    1    1    2    0    0 -0.10948502206E+01  0.24773437580E+00  0.36444955010E+00  0.11802087955E+01  0.00000000000E+00 0. -1.
         11    1    3    3    0    0 -0.37019570800E+02 -0.15113883634E+01 -0.41266988909E+01  0.37279519323E+02  0.51100000000E-03 0. -1.
        -11    1    3    3    0    0 -0.37528094704E+01  0.91338625534E+01 -0.67187634892E+00  0.98975977972E+01  0.51100000000E-03 0.  1.
        -12    1    3    3    0    0  0.41867230491E+02 -0.78702085658E+01  0.44341256897E+01  0.42830674084E+02  0.00000000000E+00 0.  1.
</event>
<event>
 7    1  0.4358868E-015  0.9000768E+02  0.7816164E-02  0.1186339E+00
        -11   -1    0    0    0    0  0.00000000000E+00  0.00000000000E+00  0.45593999997E+02  0.45594000000E+02  0.51100000000E-03 0.  1.
         11   -1    0    0    0    0 -0.00000000000E+00 -0.00000000000E+00 -0.45593999997E+02  0.45594000000E+02  0.51100000000E-03 0. -1.
    9900012    2    1    2    0    0 -0.11446557722E+01  0.28747988901E+00  0.16667235547E-01  0.90007678298E+02  0.89999938852E+02 0.  0.
         12    1    1    2    0    0  0.11446557722E+01 -0.28747988901E+00 -0.16667235547E-01  0.11803217020E+01  0.00000000000E+00 0. -1.
         11    1    3    3    0    0 -0.86333744821E+01 -0.36598177391E+02  0.94435685927E+01  0.38770384720E+02  0.51100000000E-03 0. -1.
        -11    1    3    3    0    0 -0.54660094733E+01 -0.24055121519E+01 -0.78131693378E+01  0.98340919071E+01  0.51100000000E-03 0.  1.
        -12    1    3    3    0    0  0.12954728183E+02  0.39291169432E+02 -0.16137320194E+01  0.41403201671E+02  0.00000000000E+00 0.  1.
</event>
<event>
 7    1  0.4358868E-015  0.9000775E+02  0.7816164E-02  0.1186339E+00
        -11   -1    0    0    0    0  0.00000000000E+00  0.00000000000E+00  0.45593999997E+02  0.45594000000E+02  0.51100000000E-03 0. -1.
         11   -1    0    0    0    0 -0.00000000000E+00 -0.00000000000E+00 -0.45593999997E+02  0.45594000000E+02  0.51100000000E-03 0.  1.
    9900012    2    1    2    0    0 -0.90163272901E+00 -0.74255104303E+00 -0.16931326401E+00  0.90007749768E+02  0.90000011265E+02 0.  0.
         12    1    1    2    0    0  0.90163272901E+00  0.74255104303E+00  0.16931326401E+00  0.11802502323E+01  0.00000000000E+00 0. -1.
         11    1    3    3    0    0 -0.50448406987E+01 -0.52148557183E+01 -0.40719250898E+01  0.83201990382E+01  0.51100000000E-03 0. -1.
        -11    1    3    3    0    0 -0.52368170406E+01  0.12516397387E+02 -0.36762580476E+02  0.39186372373E+02  0.51100000000E-03 0.  1.
         12    1    3    3    0    0  0.93800250103E+01 -0.80440927114E+01  0.40665192302E+02  0.42501178356E+02  0.00000000000E+00 0. -1.
</event>
<event>
 7    1  0.4358868E-015  0.9000772E+02  0.7816164E-02  0.1186339E+00
        -11   -1    0    0    0    0  0.00000000000E+00  0.00000000000E+00  0.45593999997E+02  0.45594000000E+02  0.51100000000E-03 0. -1.
         11   -1    0    0    0    0 -0.00000000000E+00 -0.00000000000E+00 -0.45593999997E+02  0.45594000000E+02  0.51100000000E-03 0.  1.
    9900012    2    1    2    0    0 -0.44038471853E+00 -0.80885289809E+00 -0.73815745764E+00  0.90007721159E+02  0.89999982278E+02 0.  0.
         12    1    1    2    0    0  0.44038471853E+00  0.80885289809E+00  0.73815745764E+00  0.11802788413E+01  0.00000000000E+00 0. -1.
         11    1    3    3    0    0  0.12658988160E+01 -0.11181826648E+02 -0.17551412976E+02  0.20849168921E+02  0.51100000000E-03 0.  1.
        -11    1    3    3    0    0 -0.88397579270E+01 -0.16896414086E+02  0.31917261855E+02  0.37179856559E+02  0.51100000000E-03 0. -1.
         12    1    3    3    0    0  0.71334743925E+01  0.27269387836E+02 -0.15104006337E+02  0.31978695678E+02  0.00000000000E+00 0. -1.
</event>
<event>
 7    1  0.4358868E-015  0.9000773E+02  0.7816164E-02  0.1186339E+00
        -11   -1    0    0    0    0  0.00000000000E+00  0.00000000000E+00  0.45593999997E+02  0.45594000000E+02  0.51100000000E-03 0.  1.
         11   -1    0    0    0    0 -0.00000000000E+00 -0.00000000000E+00 -0.45593999997E+02  0.45594000000E+02  0.51100000000E-03 0. -1.
    9900012    2    1    2    0    0 -0.19468756886E+00  0.49386301533E+00  0.10541451153E+01  0.90007734838E+02  0.89999996138E+02 0.  0.
         12    1    1    2    0    0  0.19468756886E+00 -0.49386301533E+00 -0.10541451153E+01  0.11802651616E+01  0.00000000000E+00 0. -1.
         11    1    3    3    0    0  0.42957960491E+01  0.32646123695E+02  0.20629645083E+02  0.38856215879E+02  0.51100000000E-03 0. -1.
        -11    1    3    3    0    0  0.23819916136E+01 -0.36885697433E+01  0.91396531232E+01  0.10139659278E+02  0.51100000000E-03 0.  1.
        -12    1    3    3    0    0 -0.68724752316E+01 -0.28463690936E+02 -0.28715153090E+02  0.41011859681E+02  0.00000000000E+00 0.  1.
</event>
<event>
 7    1  0.4358868E-015  0.9000764E+02  0.7816164E-02  0.1186339E+00
        -11   -1    0    0    0    0  0.00000000000E+00  0.00000000000E+00  0.45593999997E+02  0.45594000000E+02  0.51100000000E-03 0.  1.
         11   -1    0    0    0    0 -0.00000000000E+00 -0.00000000000E+00 -0.45593999997E+02  0.45594000000E+02  0.51100000000E-03 0. -1.
    9900012    2    1    2    0    0 -0.47388719076E+00 -0.81180604657E+00  0.71389874339E+00  0.90007640079E+02  0.89999900128E+02 0.  0.
         12    1    1    2    0    0  0.47388719076E+00  0.81180604657E+00 -0.71389874339E+00  0.11803599208E+01  0.00000000000E+00 0. -1.
         11    1    3    3    0    0 -0.50653573792E+01  0.32605740506E+00  0.31481362941E+01  0.59728486669E+01  0.51100000000E-03 0. -1.
        -11    1    3    3    0    0 -0.30804995479E+02 -0.92399000856E+01 -0.25476529185E+02  0.41028978048E+02  0.51100000000E-03 0.  1.
         12    1    3    3    0    0  0.35396465667E+02  0.81020366340E+01  0.23042291635E+02  0.43005813364E+02  0.00000000000E+00 0. -1.
</event>
<event>
 7    1  0.4358868E-015  0.9000774E+02  0.7816164E-02  0.1186339E+00
        -11   -1    0    0    0    0  0.00000000000E+00  0.00000000000E+00  0.45593999997E+02  0.45594000000E+02  0.51100000000E-03 0.  1.
         11   -1    0    0    0    0 -0.00000000000E+00 -0.00000000000E+00 -0.45593999997E+02  0.45594000000E+02  0.51100000000E-03 0. -1.
    9900012    2    1    2    0    0  0.68273735400E+00  0.95421121143E+00 -0.12794993068E+00  0.90007737099E+02  0.89999998429E+02 0.  0.
         12    1    1    2    0    0 -0.68273735400E+00 -0.95421121143E+00  0.12794993068E+00  0.11802629009E+01  0.00000000000E+00 0. -1.
         11    1    3    3    0    0  0.15714054877E+01 -0.36491345172E+01  0.11394357726E+02  0.12067182197E+02  0.51100000000E-03 0. -1.
        -11    1    3    3    0    0  0.37322305652E+02  0.82748868106E+01 -0.10039684810E+02  0.39524973400E+02  0.51100000000E-03 0.  1.
         12    1    3    3    0    0 -0.38210973786E+02 -0.36715410820E+01 -0.14826228464E+01  0.38415581501E+02  0.00000000000E+00 0. -1.
</event>
<event>
 7    1  0.4358868E-015  0.9000755E+02  0.7816164E-02  0.1186339E+00
        -11   -1    0    0    0    0  0.00000000000E+00  0.00000000000E+00  0.45593999997E+02  0.45594000000E+02  0.51100000000E-03 0. -1.
         11   -1    0    0    0    0 -0.00000000000E+00 -0.00000000000E+00 -0.45593999997E+02  0.45594000000E+02  0.51100000000E-03 0.  1.
    9900012    2    1    2    0    0  0.19287313882E-01  0.67730681735E+00 -0.96661456473E+00  0.90007550830E+02  0.89999809701E+02 0.  0.
         12    1    1    2    0    0 -0.19287313882E-01 -0.67730681735E+00  0.96661456473E+00  0.11804491696E+01  0.00000000000E+00 0. -1.
         11    1    3    3    0    0 -0.63598188191E+01  0.42372691664E+01  0.11293241236E+02  0.13635946732E+02  0.51100000000E-03 0. -1.
        -11    1    3    3    0    0  0.31950715762E+02 -0.17418042373E+02 -0.25479073169E+02  0.44423187725E+02  0.51100000000E-03 0.  1.
         12    1    3    3    0    0 -0.25571609629E+02  0.13858080024E+02  0.13219217369E+02  0.31948416374E+02  0.00000000000E+00 0. -1.
</event>
<event>
 7    1  0.4358868E-015  0.9000697E+02  0.7816164E-02  0.1186341E+00
        -11   -1    0    0    0    0  0.00000000000E+00  0.00000000000E+00  0.45593999997E+02  0.45594000000E+02  0.51100000000E-03 0.  1.
         11   -1    0    0    0    0 -0.00000000000E+00 -0.00000000000E+00 -0.45593999997E+02  0.45594000000E+02  0.51100000000E-03 0. -1.
    9900012    2    1    2    0    0 -0.12687338116E+00 -0.10851152601E+01  0.44860964902E+00  0.90006973921E+02  0.89999225173E+02 0.  0.
         12    1    1    2    0    0  0.12687338116E+00  0.10851152601E+01 -0.44860964902E+00  0.11810260792E+01  0.00000000000E+00 0. -1.
         11    1    3    3    0    0 -0.49619988089E+01  0.80121193338E+01  0.44529374431E+01  0.10423249999E+02  0.51100000000E-03 0. -1.
        -11    1    3    3    0    0 -0.28657934120E+02 -0.11086672361E+02  0.21445667982E+02  0.37471431352E+02  0.51100000000E-03 0.  1.
         12    1    3    3    0    0  0.33493059548E+02  0.19894377674E+01 -0.25449995776E+02  0.42112292570E+02  0.00000000000E+00 0. -1.
</event>
<event>
 7    1  0.4358868E-015  0.9000774E+02  0.7816164E-02  0.1186339E+00
        -11   -1    0    0    0    0  0.00000000000E+00  0.00000000000E+00  0.45593999997E+02  0.45594000000E+02  0.51100000000E-03 0.  1.
         11   -1    0    0    0    0 -0.00000000000E+00 -0.00000000000E+00 -0.45593999997E+02  0.45594000000E+02  0.51100000000E-03 0. -1.
    9900012    2    1    2    0    0  0.11402104696E+01  0.30483145230E+00  0.21409581936E-02  0.90007742946E+02  0.90000004353E+02 0.  0.
         12    1    1    2    0    0 -0.11402104696E+01 -0.30483145230E+00 -0.21409581936E-02  0.11802570538E+01  0.00000000000E+00 0. -1.
         11    1    3    3    0    0  0.13454911751E+02  0.37247120388E+02 -0.18342347546E+01  0.39645265099E+02  0.51100000000E-03 0. -1.
        -11    1    3    3    0    0 -0.63398162229E+01  0.45469120295E+01 -0.25703043438E+01  0.82142646308E+01  0.51100000000E-03 0.  1.
        -12    1    3    3    0    0 -0.59748850588E+01 -0.41489200965E+02  0.44066800566E+01  0.42148213216E+02  0.00000000000E+00 0.  1.
</event>
<event>
 7    1  0.4358868E-015  0.9000771E+02  0.7816164E-02  0.1186339E+00
        -11   -1    0    0    0    0  0.00000000000E+00  0.00000000000E+00  0.45593999997E+02  0.45594000000E+02  0.51100000000E-03 0. -1.
         11   -1    0    0    0    0 -0.00000000000E+00 -0.00000000000E+00 -0.45593999997E+02  0.45594000000E+02  0.51100000000E-03 0.  1.
    9900012    2    1    2    0    0 -0.24813338216E+00  0.11512373314E+01 -0.78494348464E-01  0.90007712352E+02  0.89999973355E+02 0.  0.
         12    1    1    2    0    0  0.24813338216E+00 -0.11512373314E+01  0.78494348464E-01  0.11802876477E+01  0.00000000000E+00 0. -1.
         11    1    3    3    0    0 -0.60244864632E+01  0.37254392749E+01 -0.58015346978E+01  0.91559346900E+01  0.51100000000E-03 0. -1.
        -11    1    3    3    0    0 -0.33557931032E+01  0.19920744708E+01 -0.36857857200E+02  0.37063881957E+02  0.51100000000E-03 0.  1.
         12    1    3    3    0    0  0.91321461843E+01 -0.45662764143E+01  0.42580897549E+02  0.43787895706E+02  0.00000000000E+00 0. -1.
</event>
<event>
 7    1  0.4358868E-015  0.9000758E+02  0.7816164E-02  0.1186339E+00
        -11   -1    0    0    0    0  0.00000000000E+00  0.00000000000E+00  0.45593999997E+02  0.45594000000E+02  0.51100000000E-03 0. -1.
         11   -1    0    0    0    0 -0.00000000000E+00 -0.00000000000E+00 -0.45593999997E+02  0.45594000000E+02  0.51100000000E-03 0.  1.
    9900012    2    1    2    0    0  0.11616339704E+01  0.15175587685E+00  0.14482500233E+00  0.90007577360E+02  0.89999836581E+02 0.  0.
         12    1    1    2    0    0 -0.11616339704E+01 -0.15175587685E+00 -0.14482500233E+00  0.11804226398E+01  0.00000000000E+00 0. -1.
         11    1    3    3    0    0  0.17233944935E+02 -0.14352299556E+02 -0.29538047155E+02  0.37087647412E+02  0.51100000000E-03 0. -1.
        -11    1    3    3    0    0  0.57587401647E+01 -0.61890046401E+01 -0.25518235842E+01  0.88305532435E+01  0.51100000000E-03 0.  1.
        -12    1    3    3    0    0 -0.21831051129E+02  0.20693060073E+02  0.32234695742E+02  0.44089376704E+02  0.00000000000E+00 0.  1.
</event>
<event>
 7    1  0.4358868E-015  0.9000758E+02  0.7816164E-02  0.1186339E+00
        -11   -1    0    0    0    0  0.00000000000E+00  0.00000000000E+00  0.45593999997E+02  0.45594000000E+02  0.51100000000E-03 0.  1.
         11   -1    0    0    0    0 -0.00000000000E+00 -0.00000000000E+00 -0.45593999997E+02  0.45594000000E+02  0.51100000000E-03 0. -1.
    9900012    2    1    2    0    0  0.10573660688E+01  0.41977424445E+00  0.31487669842E+00  0.90007584499E+02  0.89999843814E+02 0.  0.
         12    1    1    2    0    0 -0.10573660688E+01 -0.41977424445E+00 -0.31487669842E+00  0.11804155010E+01  0.00000000000E+00 0. -1.
         11    1    3    3    0    0 -0.75050639556E+00 -0.48270546421E+01 -0.10364488421E+02  0.11458024998E+02  0.51100000000E-03 0. -1.
        -11    1    3    3    0    0  0.18635330605E+01 -0.36133887305E+02  0.81696329068E+01  0.37092768424E+02  0.51100000000E-03 0.  1.
         12    1    3    3    0    0 -0.55660596121E-01  0.41380716192E+02  0.25097322128E+01  0.41456791077E+02  0.00000000000E+00 0. -1.
</event>
<event>
 7    1  0.4358868E-015  0.9000769E+02  0.7816164E-02  0.1186339E+00
        -11   -1    0    0    0    0  0.00000000000E+00  0.00000000000E+00  0.45593999997E+02  0.45594000000E+02  0.51100000000E-03 0. -1.
         11   -1    0    0    0    0 -0.00000000000E+00 -0.00000000000E+00 -0.45593999997E+02  0.45594000000E+02  0.51100000000E-03 0.  1.
    9900012    2    1    2    0    0 -0.46173873810E+00  0.10416366713E+01 -0.30811321529E+00  0.90007685054E+02  0.89999945697E+02 0.  0.
         12    1    1    2    0    0  0.46173873810E+00 -0.10416366713E+01  0.30811321529E+00  0.11803149456E+01  0.00000000000E+00 0. -1.
         11    1    3    3    0    0 -0.59314376566E+01  0.67183054314E+01  0.42890782317E+01  0.99354805058E+01  0.51100000000E-03 0. -1.
        -11    1    3    3    0    0 -0.19473611057E+02  0.28936102134E+02 -0.11766829502E+02  0.36810023243E+02  0.51100000000E-03 0.  1.
         12    1    3    3    0    0  0.24943309976E+02 -0.34612770894E+02  0.71696380553E+01  0.43262181306E+02  0.00000000000E+00 0. -1.
</event>
<event>
 7    1  0.4358868E-015  0.9000779E+02  0.7816164E-02  0.1186339E+00
        -11   -1    0    0    0    0  0.00000000000E+00  0.00000000000E+00  0.45593999997E+02  0.45594000000E+02  0.51100000000E-03 0. -1.
         11   -1    0    0    0    0 -0.00000000000E+00 -0.00000000000E+00 -0.45593999997E+02  0.45594000000E+02  0.51100000000E-03 0.  1.
    9900012    2    1    2    0    0 -0.82979038358E+00 -0.55222822718E+00 -0.63198010753E+00  0.90007785209E+02  0.90000047174E+02 0.  0.
         12    1    1    2    0    0  0.82979038358E+00  0.55222822718E+00  0.63198010753E+00  0.11802147906E+01  0.00000000000E+00 0. -1.
         11    1    3    3    0    0 -0.62818278363E+01  0.23090861879E+02  0.83468456436E+01  0.25344014989E+02  0.51100000000E-03 0. -1.
        -11    1    3    3    0    0  0.30319088435E+02 -0.30710796130E+01  0.20876938676E+01  0.30545656311E+02  0.51100000000E-03 0.  1.
         12    1    3    3    0    0 -0.24867050982E+02 -0.20572010493E+02 -0.11066519619E+02  0.34118113910E+02  0.00000000000E+00 0. -1.
</event>
<event>
 7    1  0.4358868E-015  0.9000774E+02  0.7816164E-02  0.1186339E+00
        -11   -1    0    0    0    0  0.00000000000E+00  0.00000000000E+00  0.45593999997E+02  0.45594000000E+02  0.51100000000E-03 0.  1.
         11   -1    0    0    0    0 -0.00000000000E+00 -0.00000000000E+00 -0.45593999997E+02  0.45594000000E+02  0.51100000000E-03 0. -1.
    9900012    2    1    2    0    0  0.61083965687E+00 -0.51109918041E-01  0.10086004725E+01  0.90007740612E+02  0.90000001988E+02 0.  0.
         12    1    1    2    0    0 -0.61083965687E+00  0.51109918041E-01 -0.10086004725E+01  0.11802593882E+01  0.00000000000E+00 0. -1.
         11    1    3    3    0    0  0.50209404208E+01  0.20799152101E+01  0.82752758849E+01  0.99003071276E+01  0.51100000000E-03 0. -1.
        -11    1    3    3    0    0  0.22702376743E+02  0.27903229877E+02  0.80185237744E+01  0.36854916512E+02  0.51100000000E-03 0.  1.
         12    1    3    3    0    0 -0.27112477507E+02 -0.30034255005E+02 -0.15285199187E+02  0.43252516972E+02  0.00000000000E+00 0. -1.
</event>
<event>
 7    1  0.4358868E-015  0.9000777E+02  0.7816164E-02  0.1186339E+00
        -11   -1    0    0    0    0  0.00000000000E+00  0.00000000000E+00  0.45593999997E+02  0.45594000000E+02  0.51100000000E-03 0.  1.
         11   -1    0    0    0    0 -0.00000000000E+00 -0.00000000000E+00 -0.45593999997E+02  0.45594000000E+02  0.51100000000E-03 0. -1.
    9900012    2    1    2    0    0  0.11799543141E+01 -0.82840248385E-05  0.25285990271E-01  0.90007774782E+02  0.90000036609E+02 0.  0.
         12    1    1    2    0    0 -0.11799543141E+01  0.82840248384E-05 -0.25285990271E-01  0.11802252178E+01  0.00000000000E+00 0. -1.
         11    1    3    3    0    0 -0.97494238030E+00 -0.76328418454E+01 -0.69607388854E+01  0.10376062518E+02  0.51100000000E-03 0. -1.
        -11    1    3    3    0    0  0.38375255288E+02 -0.47421103876E+01 -0.61731597156E+01  0.39156809503E+02  0.51100000000E-03 0.  1.
         12    1    3    3    0    0 -0.36220358594E+02  0.12374943949E+02  0.13159184591E+02  0.40474902761E+02  0.00000000000E+00 0. -1.
</event>
<event>
 7    1  0.4358868E-015  0.9000753E+02  0.7816164E-02  0.1186339E+00
        -11   -1    0    0    0    0  0.00000000000E+00  0.00000000000E+00  0.45593999997E+02  0.45594000000E+02  0.51100000000E-03 0. -1.
         11   -1    0    0    0    0 -0.00000000000E+00 -0.00000000000E+00 -0.45593999997E+02  0.45594000000E+02  0.51100000000E-03 0.  1.
    9900012    2    1    2    0    0 -0.13392858663E+00  0.11090369175E+00 -0.11675887258E+01  0.90007534021E+02  0.89999792670E+02 0.  0.
         12    1    1    2    0    0  0.13392858663E+00 -0.11090369175E+00  0.11675887258E+01  0.11804659791E+01  0.00000000000E+00 0. -1.
         11    1    3    3    0    0  0.63774051522E+00 -0.28872349229E+01 -0.92211638398E+01  0.96836305839E+01  0.51100000000E-03 0. -1.
        -11    1    3    3    0    0 -0.29516386761E+00  0.39890132586E+02  0.15298631486E+02  0.42724207717E+02  0.51100000000E-03 0.  1.
         12    1    3    3    0    0 -0.47650523423E+00 -0.36891993971E+02 -0.72450563721E+01  0.37599695720E+02  0.00000000000E+00 0. -1.
</event>
<event>
 7    1  0.4358868E-015  0.9000792E+02  0.7816164E-02  0.1186339E+00
        -11   -1    0    0    0    0  0.00000000000E+00  0.00000000000E+00  0.45593999997E+02  0.45594000000E+02  0.51100000000E-03 0.  1.
         11   -1    0    0    0    0 -0.00000000000E+00 -0.00000000000E+00 -0.45593999997E+02  0.45594000000E+02  0.51100000000E-03 0. -1.
    9900012    2    1    2    0    0  0.27433876198E+00 -0.56216295644E+00  0.10006454866E+01  0.90007923589E+02  0.90000187380E+02 0.  0.
         12    1    1    2    0    0 -0.27433876198E+00  0.56216295644E+00 -0.10006454866E+01  0.11800764110E+01  0.00000000000E+00 0. -1.
         11    1    3    3    0    0  0.23276731277E+02 -0.27012351142E+02  0.14453443872E+02  0.38475646495E+02  0.51100000000E-03 0. -1.
        -11    1    3    3    0    0  0.86471426064E+01  0.28459930896E+00 -0.30081384400E+01  0.91598563939E+01  0.51100000000E-03 0.  1.
        -12    1    3    3    0    0 -0.31649535122E+02  0.26165588876E+02 -0.10444659945E+02  0.42372420701E+02  0.00000000000E+00 0.  1.
</event>
<event>
 7    1  0.4358868E-015  0.9000771E+02  0.7816164E-02  0.1186339E+00
        -11   -1    0    0    0    0  0.00000000000E+00  0.00000000000E+00  0.45593999997E+02  0.45594000000E+02  0.51100000000E-03 0.  1.
         11   -1    0    0    0    0 -0.00000000000E+00 -0.00000000000E+00 -0.45593999997E+02  0.45594000000E+02  0.51100000000E-03 0. -1.
    9900012    2    1    2    0    0 -0.11711674391E+01 -0.13309147590E+00  0.61099608604E-01  0.90007712038E+02  0.89999973037E+02 0.  0.
         12    1    1    2    0    0  0.11711674391E+01  0.13309147590E+00 -0.61099608604E-01  0.11802879621E+01  0.00000000000E+00 0. -1.
         11    1    3    3    0    0 -0.25851750510E+01 -0.41211814251E+02  0.72943627496E+01  0.41932141516E+02  0.51100000000E-03 0. -1.
        -11    1    3    3    0    0 -0.82033608101E+01  0.42344470059E+01 -0.32581641805E+01  0.97898572060E+01  0.51100000000E-03 0.  1.
        -12    1    3    3    0    0  0.96173684220E+01  0.36844275770E+02 -0.39750989605E+01  0.38285713316E+02  0.00000000000E+00 0.  1.
</event>
<event>
 7    1  0.4358868E-015  0.9000772E+02  0.7816164E-02  0.1186339E+00
        -11   -1    0    0    0    0  0.00000000000E+00  0.00000000000E+00  0.45593999997E+02  0.45594000000E+02  0.51100000000E-03 0. -1.
         11   -1    0    0    0    0 -0.00000000000E+00 -0.00000000000E+00 -0.45593999997E+02  0.45594000000E+02  0.51100000000E-03 0.  1.
    9900012    2    1    2    0    0 -0.99461705236E+00 -0.60732068915E+00  0.18695591427E+00  0.90007722908E+02  0.89999984050E+02 0.  0.
         12    1    1    2    0    0  0.99461705236E+00  0.60732068915E+00 -0.18695591427E+00  0.11802770921E+01  0.00000000000E+00 0. -1.
         11    1    3    3    0    0  0.40742798984E+01  0.30874153067E+02  0.16685259790E+02  0.35330029420E+02  0.51100000000E-03 0. -1.
        -11    1    3    3    0    0 -0.34616993420E+01  0.43021303233E+01  0.91048606398E+01  0.10648482295E+02  0.51100000000E-03 0.  1.
        -12    1    3    3    0    0 -0.16071976087E+01 -0.35783604080E+02 -0.25603164515E+02  0.44029211193E+02  0.00000000000E+00 0.  1.
</event>
<event>
 7    1  0.4358868E-015  0.9000771E+02  0.7816164E-02  0.1186339E+00
        -11   -1    0    0    0    0  0.00000000000E+00  0.00000000000E+00  0.45593999997E+02  0.45594000000E+02  0.51100000000E-03 0. -1.
         11   -1    0    0    0    0 -0.00000000000E+00 -0.00000000000E+00 -0.45593999997E+02  0.45594000000E+02  0.51100000000E-03 0.  1.
    9900012    2    1    2    0    0  0.79573928614E+00 -0.51648818784E+00 -0.70222744547E+00  0.90007710017E+02  0.89999970989E+02 0.  0.
         12    1    1    2    0    0 -0.79573928614E+00  0.51648818784E+00  0.70222744547E+00  0.11802899834E+01  0.00000000000E+00 0. -1.
         11    1    3    3    0    0 -0.37240602043E+02  0.10190071192E+02 -0.98394002442E+01  0.39843616664E+02  0.51100000000E-03 0. -1.
        -11    1    3    3    0    0 -0.17897935588E+01 -0.92671034343E+01  0.24912336668E+01  0.97615988695E+01  0.51100000000E-03 0.  1.
        -12    1    3    3    0    0  0.39826134888E+02 -0.14394559460E+01  0.66459391320E+01  0.40402494483E+02  0.00000000000E+00 0.  1.
</event>
<event>
 7    1  0.4358868E-015  0.9000773E+02  0.7816164E-02  0.1186339E+00
        -11   -1    0    0    0    0  0.00000000000E+00  0.00000000000E+00  0.45593999997E+02  0.45594000000E+02  0.51100000000E-03 0. -1.
         11   -1    0    0    0    0 -0.00000000000E+00 -0.00000000000E+00 -0.45593999997E+02  0.45594000000E+02  0.51100000000E-03 0.  1.
    9900012    2    1    2    0    0  0.43665190417E+00 -0.10880090401E+01  0.13639311293E+00  0.90007732387E+02  0.89999993655E+02 0.  0.
         12    1    1    2    0    0 -0.43665190417E+00  0.10880090401E+01 -0.13639311293E+00  0.11802676129E+01  0.00000000000E+00 0. -1.
         11    1    3    3    0    0  0.67182835270E+01  0.49757536879E+01 -0.38425682067E+01  0.92010210844E+01  0.51100000000E-03 0. -1.
        -11    1    3    3    0    0 -0.35741713146E+02 -0.37356266101E+01 -0.21423322283E+02  0.41837587200E+02  0.51100000000E-03 0.  1.
         12    1    3    3    0    0  0.29460081523E+02 -0.23281361179E+01  0.25402283603E+02  0.38969124103E+02  0.00000000000E+00 0. -1.
</event>
<event>
 7    1  0.4358868E-015  0.9000817E+02  0.7816164E-02  0.1186338E+00
        -11   -1    0    0    0    0  0.00000000000E+00  0.00000000000E+00  0.45593999997E+02  0.45594000000E+02  0.51100000000E-03 0. -1.
         11   -1    0    0    0    0 -0.00000000000E+00 -0.00000000000E+00 -0.45593999997E+02  0.45594000000E+02  0.51100000000E-03 0.  1.
    9900012    2    1    2    0    0 -0.24330628013E+00  0.58840651334E+00 -0.99327133858E+00  0.90008166061E+02  0.90000433052E+02 0.  0.
         12    1    1    2    0    0  0.24330628013E+00 -0.58840651334E+00  0.99327133858E+00  0.11798339387E+01  0.00000000000E+00 0. -1.
         11    1    3    3    0    0 -0.12689110392E+01 -0.60607628835E+01 -0.71551661660E+01  0.94625253014E+01  0.51100000000E-03 0. -1.
        -11    1    3    3    0    0  0.93930731231E+01  0.19991885566E+02 -0.32216377970E+02  0.39061494095E+02  0.51100000000E-03 0.  1.
         12    1    3    3    0    0 -0.83674683641E+01 -0.13342716169E+02  0.38378272797E+02  0.41484146665E+02  0.00000000000E+00 0. -1.
</event>
<event>
 7    1  0.4358868E-015  0.9000772E+02  0.7816164E-02  0.1186339E+00
        -11   -1    0    0    0    0  0.00000000000E+00  0.00000000000E+00  0.45593999997E+02  0.45594000000E+02  0.51100000000E-03 0.  1.
         11   -1    0    0    0    0 -0.00000000000E+00 -0.00000000000E+00 -0.45593999997E+02  0.45594000000E+02  0.51100000000E-03 0. -1.
    9900012    2    1    2    0    0 -0.11125134484E+00  0.40245818845E+00  0.11039490192E+01  0.90007723383E+02  0.89999984532E+02 0.  0.
         12    1    1    2    0    0  0.11125134484E+00 -0.40245818845E+00 -0.11039490192E+01  0.11802766168E+01  0.00000000000E+00 0. -1.
         11    1    3    3    0    0  0.50377011815E+01 -0.21720490958E+01 -0.11736530424E+02  0.12955399535E+02  0.51100000000E-03 0. -1.
        -11    1    3    3    0    0  0.28030627632E+02  0.16580184033E+02 -0.10403279075E+02  0.34188401597E+02  0.51100000000E-03 0.  1.
         12    1    3    3    0    0 -0.33179580158E+02 -0.14005676749E+02  0.23243758518E+02  0.42863922251E+02  0.00000000000E+00 0. -1.
</event>
<event>
 7    1  0.4358868E-015  0.9000757E+02  0.7816164E-02  0.1186339E+00
        -11   -1    0    0    0    0  0.00000000000E+00  0.00000000000E+00  0.45593999997E+02  0.45594000000E+02  0.51100000000E-03 0.  1.
         11   -1    0    0    0    0 -0.00000000000E+00 -0.00000000000E+00 -0.45593999997E+02  0.45594000000E+02  0.51100000000E-03 0. -1.
    9900012    2    1    2    0    0  0.27780667498E+00  0.99629345980E+00 -0.56889949263E+00  0.90007566249E+02  0.89999825324E+02 0.  0.
         12    1    1    2    0    0 -0.27780667498E+00 -0.99629345980E+00  0.56889949263E+00  0.11804337505E+01  0.00000000000E+00 0. -1.
         11    1    3    3    0    0  0.26054664777E+02  0.72824978957E+01 -0.29814183599E+02  0.40258736644E+02  0.51100000000E-03 0. -1.
        -11    1    3    3    0    0 -0.73564090193E+01  0.28787176803E+01 -0.53197460013E+01  0.95238367752E+01  0.51100000000E-03 0.  1.
        -12    1    3    3    0    0 -0.18420449083E+02 -0.91649221162E+01  0.34565030108E+02  0.40224992830E+02  0.00000000000E+00 0.  1.
</event>
<event>
 7    1  0.4358868E-015  0.9000770E+02  0.7816164E-02  0.1186339E+00
        -11   -1    0    0    0    0  0.00000000000E+00  0.00000000000E+00  0.45593999997E+02  0.45594000000E+02  0.51100000000E-03 0.  1.
         11   -1    0    0    0    0 -0.00000000000E+00 -0.00000000000E+00 -0.45593999997E+02  0.45594000000E+02  0.51100000000E-03 0. -1.
    9900012    2    1    2    0    0  0.85660787078E+00  0.60567281486E+00  0.54081924936E+00  0.90007702553E+02  0.89999963427E+02 0.  0.
         12    1    1    2    0    0 -0.85660787078E+00 -0.60567281486E+00 -0.54081924936E+00  0.11802974470E+01  0.00000000000E+00 0. -1.
         11    1    3    3    0    0  0.10183211178E+02  0.15079865244E+02 -0.31003169263E+02  0.35948527512E+02  0.51100000000E-03 0. -1.
        -11    1    3    3    0    0 -0.24994801082E+01  0.98185044626E+01 -0.36366703322E+01  0.10764562326E+02  0.51100000000E-03 0.  1.
        -12    1    3    3    0    0 -0.68271231993E+01 -0.24292696892E+02  0.35180658844E+02  0.43294612715E+02  0.00000000000E+00 0.  1.
</event>
<event>
 7    1  0.4358868E-015  0.9000771E+02  0.7816164E-02  0.1186339E+00
        -11   -1    0    0    0    0  0.00000000000E+00  0.00000000000E+00  0.45593999997E+02  0.45594000000E+02  0.51100000000E-03 0. -1.
         11   -1    0    0    0    0 -0.00000000000E+00 -0.00000000000E+00 -0.45593999997E+02  0.45594000000E+02  0.51100000000E-03 0.  1.
    9900012    2    1    2    0    0  0.17339967255E-01 -0.68220826555E+00  0.96299904009E+00  0.90007713618E+02  0.89999974638E+02 0.  0.
         12    1    1    2    0    0 -0.17339967255E-01  0.68220826555E+00 -0.96299904009E+00  0.11802863819E+01  0.00000000000E+00 0. -1.
         11    1    3    3    0    0  0.12760849997E+02  0.93285931974E+01  0.20882919894E+02  0.26190805395E+02  0.51100000000E-03 0. -1.
        -11    1    3    3    0    0 -0.25854974057E+02 -0.27752567974E+02 -0.80853719336E+01  0.38782186016E+02  0.51100000000E-03 0.  1.
         12    1    3    3    0    0  0.13111464027E+02  0.17741766511E+02 -0.11834548920E+02  0.25034722207E+02  0.00000000000E+00 0. -1.
</event>
<event>
 7    1  0.4358868E-015  0.9000768E+02  0.7816164E-02  0.1186339E+00
        -11   -1    0    0    0    0  0.00000000000E+00  0.00000000000E+00  0.45593999997E+02  0.45594000000E+02  0.51100000000E-03 0.  1.
         11   -1    0    0    0    0 -0.00000000000E+00 -0.00000000000E+00 -0.45593999997E+02  0.45594000000E+02  0.51100000000E-03 0. -1.
    9900012    2    1    2    0    0  0.11001845528E+01  0.39332216270E+00 -0.16743720609E+00  0.90007684961E+02  0.89999945602E+02 0.  0.
         12    1    1    2    0    0 -0.11001845528E+01 -0.39332216270E+00  0.16743720609E+00  0.11803150393E+01  0.00000000000E+00 0. -1.
         11    1    3    3    0    0  0.31104158100E+01 -0.88737754673E+01 -0.91306699774E+01  0.13106781148E+02  0.51100000000E-03 0. -1.
        -11    1    3    3    0    0  0.26149838098E+02  0.30376397169E+02  0.11257487714E+02  0.41632566188E+02  0.51100000000E-03 0.  1.
         12    1    3    3    0    0 -0.28160069355E+02 -0.21109299539E+02 -0.22942549426E+01  0.35268337625E+02  0.00000000000E+00 0. -1.
</event>
<event>
 7    1  0.4358868E-015  0.9000775E+02  0.7816164E-02  0.1186339E+00
        -11   -1    0    0    0    0  0.00000000000E+00  0.00000000000E+00  0.45593999997E+02  0.45594000000E+02  0.51100000000E-03 0. -1.
         11   -1    0    0    0    0 -0.00000000000E+00 -0.00000000000E+00 -0.45593999997E+02  0.45594000000E+02  0.51100000000E-03 0.  1.
    9900012    2    1    2    0    0 -0.10405736708E+01 -0.20170928210E+00 -0.51914116435E+00  0.90007750981E+02  0.90000012494E+02 0.  0.
         12    1    1    2    0    0  0.10405736708E+01  0.20170928210E+00  0.51914116435E+00  0.11802490192E+01  0.00000000000E+00 0. -1.
         11    1    3    3    0    0  0.35779595829E+02  0.46226772780E+01  0.15357827670E+02  0.39209839248E+02  0.51100000000E-03 0. -1.
        -11    1    3    3    0    0  0.24416904311E+01 -0.66095552274E+01  0.24133621077E+01  0.74479788795E+01  0.51100000000E-03 0.  1.
        -12    1    3    3    0    0 -0.39261859930E+02  0.17851686673E+01 -0.18290330942E+02  0.43349932853E+02  0.00000000000E+00 0.  1.
</event>
<event>
 7    1  0.4358868E-015  0.9000746E+02  0.7816164E-02  0.1186340E+00
        -11   -1    0    0    0    0  0.00000000000E+00  0.00000000000E+00  0.45593999997E+02  0.45594000000E+02  0.51100000000E-03 0.  1.
         11   -1    0    0    0    0 -0.00000000000E+00 -0.00000000000E+00 -0.45593999997E+02  0.45594000000E+02  0.51100000000E-03 0. -1.
    9900012    2    1    2    0    0  0.70671950141E+00 -0.93910797119E+00 -0.11086201628E+00  0.90007463418E+02  0.89999721134E+02 0.  0.
         12    1    1    2    0    0 -0.70671950141E+00  0.93910797119E+00  0.11086201628E+00  0.11805365822E+01  0.00000000000E+00 0. -1.
         11    1    3    3    0    0  0.12031311547E+02  0.75331612642E+01 -0.34680711582E+02  0.37473360301E+02  0.51100000000E-03 0. -1.
        -11    1    3    3    0    0 -0.64694665037E-01  0.62758852810E+01 -0.55200825619E+01  0.83583630701E+01  0.51100000000E-03 0.  1.
        -12    1    3    3    0    0 -0.11259897380E+02 -0.14748154516E+02  0.40089932128E+02  0.44175740047E+02  0.00000000000E+00 0.  1.
</event>
<event>
 7    1  0.4358868E-015  0.9000786E+02  0.7816164E-02  0.1186339E+00
        -11   -1    0    0    0    0  0.00000000000E+00  0.00000000000E+00  0.45593999997E+02  0.45594000000E+02  0.51100000000E-03 0. -1.
         11   -1    0    0    0    0 -0.00000000000E+00 -0.00000000000E+00 -0.45593999997E+02  0.45594000000E+02  0.51100000000E-03 0.  1.
    9900012    2    1    2    0    0  0.22249663740E+00  0.13914752360E+00 -0.11505924034E+01  0.90007860319E+02  0.90000123276E+02 0.  0.
         12    1    1    2    0    0 -0.22249663740E+00 -0.13914752360E+00  0.11505924034E+01  0.11801396806E+01  0.00000000000E+00 0. -1.
         11    1    3    3    0    0 -0.65322853712E+01 -0.86665506892E+01 -0.13576646535E+01  0.10937234870E+02  0.51100000000E-03 0. -1.
        -11    1    3    3    0    0 -0.66094318525E+01  0.33272241992E+02 -0.24479760526E+02  0.41832826252E+02  0.51100000000E-03 0.  1.
         12    1    3    3    0    0  0.13364213861E+02 -0.24466543779E+02  0.24686832776E+02  0.37237799198E+02  0.00000000000E+00 0. -1.
</event>
<event>
 7    1  0.4358868E-015  0.9000750E+02  0.7816164E-02  0.1186340E+00
        -11   -1    0    0    0    0  0.00000000000E+00  0.00000000000E+00  0.45593999997E+02  0.45594000000E+02  0.51100000000E-03 0. -1.
         11   -1    0    0    0    0 -0.00000000000E+00 -0.00000000000E+00 -0.45593999997E+02  0.45594000000E+02  0.51100000000E-03 0.  1.
    9900012    2    1    2    0    0  0.77752933815E+00  0.77286403077E+00 -0.43785571117E+00  0.90007496588E+02  0.89999754743E+02 0.  0.
         12    1    1    2    0    0 -0.77752933815E+00 -0.77286403077E+00  0.43785571117E+00  0.11805034119E+01  0.00000000000E+00 0. -1.
         11    1    3    3    0    0 -0.24778478807E+02  0.12892905737E+02  0.25419341377E+02  0.37766955750E+02  0.51100000000E-03 0. -1.
        -11    1    3    3    0    0  0.26264763858E+01  0.74285083675E+01  0.48232485302E+01  0.92382271793E+01  0.51100000000E-03 0.  1.
        -12    1    3    3    0    0  0.22929531759E+02 -0.19548550073E+02 -0.30680445619E+02  0.43002313659E+02  0.00000000000E+00 0.  1.
</event>
<event>
 7    1  0.4358868E-015  0.9000779E+02  0.7816164E-02  0.1186339E+00
        -11   -1    0    0    0    0  0.00000000000E+00  0.00000000000E+00  0.45593999997E+02  0.45594000000E+02  0.51100000000E-03 0. -1.
         11   -1    0    0    0    0 -0.00000000000E+00 -0.00000000000E+00 -0.45593999997E+02  0.45594000000E+02  0.51100000000E-03 0.  1.
    9900012    2    1    2    0    0  0.32930472716E+00 -0.84748954958E+00 -0.75247060069E+00  0.90007791482E+02  0.90000053530E+02 0.  0.
         12    1    1    2    0    0 -0.32930472716E+00  0.84748954958E+00  0.75247060069E+00  0.11802085175E+01  0.00000000000E+00 0. -1.
         11    1    3    3    0    0  0.50698288909E+01  0.55718629756E+01 -0.49076675700E+01  0.89907743404E+01  0.51100000000E-03 0. -1.
        -11    1    3    3    0    0  0.34973729942E+02 -0.21686016939E+01 -0.13231366440E+02  0.37455756267E+02  0.51100000000E-03 0.  1.
         12    1    3    3    0    0 -0.39714254106E+02 -0.42507508313E+01  0.17386563409E+02  0.43561260875E+02  0.00000000000E+00 0. -1.
</event>
<event>
 7    1  0.4358868E-015  0.9000779E+02  0.7816164E-02  0.1186339E+00
        -11   -1    0    0    0    0  0.00000000000E+00  0.00000000000E+00  0.45593999997E+02  0.45594000000E+02  0.51100000000E-03 0. -1.
         11   -1    0    0    0    0 -0.00000000000E+00 -0.00000000000E+00 -0.45593999997E+02  0.45594000000E+02  0.51100000000E-03 0.  1.
    9900012    2    1    2    0    0 -0.43204970502E+00 -0.58116545472E+00 -0.93192316710E+00  0.90007787721E+02  0.90000049719E+02 0.  0.
         12    1    1    2    0    0  0.43204970502E+00  0.58116545472E+00  0.93192316710E+00  0.11802122787E+01  0.00000000000E+00 0. -1.
         11    1    3    3    0    0  0.11703573302E+01 -0.13011103176E+00 -0.12911144763E+02  0.12964733878E+02  0.51100000000E-03 0. -1.
        -11    1    3    3    0    0 -0.31417463946E+02  0.11087863807E+02 -0.13713351102E+02  0.36028513198E+02  0.51100000000E-03 0.  1.
         12    1    3    3    0    0  0.29815056911E+02 -0.11538918230E+02  0.25692572698E+02  0.41014540645E+02  0.00000000000E+00 0. -1.
</event>
<event>
 7    1  0.4358868E-015  0.9000777E+02  0.7816164E-02  0.1186339E+00
        -11   -1    0    0    0    0  0.00000000000E+00  0.00000000000E+00  0.45593999997E+02  0.45594000000E+02  0.51100000000E-03 0.  1.
         11   -1    0    0    0    0 -0.00000000000E+00 -0.00000000000E+00 -0.45593999997E+02  0.45594000000E+02  0.51100000000E-03 0. -1.
    9900012    2    1    2    0    0 -0.84053588199E+00 -0.39066478584E+00  0.73063645971E+00  0.90007767320E+02  0.90000029048E+02 0.  0.
         12    1    1    2    0    0  0.84053588199E+00  0.39066478584E+00 -0.73063645971E+00  0.11802326805E+01  0.00000000000E+00 0. -1.
         11    1    3    3    0    0 -0.54324563242E+01  0.22979677545E+02 -0.14795980256E+02  0.27865717177E+02  0.51100000000E-03 0. -1.
        -11    1    3    3    0    0 -0.94430599798E+01  0.14660039032E+02 -0.27874793080E+01  0.17659506430E+02  0.51100000000E-03 0.  1.
         12    1    3    3    0    0  0.14034980422E+02 -0.38030381362E+02  0.18314096024E+02  0.44482543713E+02  0.00000000000E+00 0. -1.
</event>
<event>
 7    1  0.4358868E-015  0.9000774E+02  0.7816164E-02  0.1186339E+00
        -11   -1    0    0    0    0  0.00000000000E+00  0.00000000000E+00  0.45593999997E+02  0.45594000000E+02  0.51100000000E-03 0.  1.
         11   -1    0    0    0    0 -0.00000000000E+00 -0.00000000000E+00 -0.45593999997E+02  0.45594000000E+02  0.51100000000E-03 0. -1.
    9900012    2    1    2    0    0 -0.32889437669E+00 -0.10371189251E+01  0.45740884678E+00  0.90007741541E+02  0.90000002930E+02 0.  0.
         12    1    1    2    0    0  0.32889437669E+00  0.10371189251E+01 -0.45740884678E+00  0.11802584585E+01  0.00000000000E+00 0. -1.
         11    1    3    3    0    0  0.68308574685E+01 -0.45178456267E+01  0.70316392624E+01  0.10794234287E+02  0.51100000000E-03 0. -1.
        -11    1    3    3    0    0 -0.25856939907E+02  0.28072765891E+02  0.15553392265E+02  0.41213705697E+02  0.51100000000E-03 0.  1.
         12    1    3    3    0    0  0.18697188061E+02 -0.24592039189E+02 -0.22127622681E+02  0.37999801557E+02  0.00000000000E+00 0. -1.
</event>
<event>
 7    1  0.4358868E-015  0.9000776E+02  0.7816164E-02  0.1186339E+00
        -11   -1    0    0    0    0  0.00000000000E+00  0.00000000000E+00  0.45593999997E+02  0.45594000000E+02  0.51100000000E-03 0.  1.
         11   -1    0    0    0    0 -0.00000000000E+00 -0.00000000000E+00 -0.45593999997E+02  0.45594000000E+02  0.51100000000E-03 0. -1.
    9900012    2    1    2    0    0  0.26611978280E+00  0.93933380105E+00  0.66317116763E+00  0.90007761157E+02  0.90000022804E+02 0.  0.
         12    1    1    2    0    0 -0.26611978280E+00 -0.93933380105E+00 -0.66317116763E+00  0.11802388429E+01  0.00000000000E+00 0. -1.
         11    1    3    3    0    0 -0.19811094749E+02  0.32861772238E+02  0.34481742590E+01  0.38526165858E+02  0.51100000000E-03 0. -1.
        -11    1    3    3    0    0 -0.24854237757E+00  0.53993863021E+01  0.60103541064E+01  0.80832853777E+01  0.51100000000E-03 0.  1.
        -12    1    3    3    0    0  0.20325756910E+02 -0.37321824739E+02 -0.87953571978E+01  0.43398309921E+02  0.00000000000E+00 0.  1.
</event>
<event>
 7    1  0.4358868E-015  0.9000769E+02  0.7816164E-02  0.1186339E+00
        -11   -1    0    0    0    0  0.00000000000E+00  0.00000000000E+00  0.45593999997E+02  0.45594000000E+02  0.51100000000E-03 0.  1.
         11   -1    0    0    0    0 -0.00000000000E+00 -0.00000000000E+00 -0.45593999997E+02  0.45594000000E+02  0.51100000000E-03 0. -1.
    9900012    2    1    2    0    0 -0.57187446446E+00  0.70850982746E+00  0.75107071811E+00  0.90007689108E+02  0.89999949804E+02 0.  0.
         12    1    1    2    0    0  0.57187446446E+00 -0.70850982746E+00 -0.75107071811E+00  0.11803108922E+01  0.00000000000E+00 0. -1.
         11    1    3    3    0    0 -0.36293658915E+02 -0.60592139111E+00 -0.22053995229E+02  0.42473233029E+02  0.51100000000E-03 0. -1.
        -11    1    3    3    0    0  0.29828809699E+01  0.46312335393E+00  0.13003405511E+02  0.13349180397E+02  0.51100000000E-03 0.  1.
        -12    1    3    3    0    0  0.32738903480E+02  0.85130786464E+00  0.98016604359E+01  0.34185275682E+02  0.00000000000E+00 0.  1.
</event>
<event>
 7    1  0.4358868E-015  0.9000763E+02  0.7816164E-02  0.1186339E+00
        -11   -1    0    0    0    0  0.00000000000E+00  0.00000000000E+00  0.45593999997E+02  0.45594000000E+02  0.51100000000E-03 0.  1.
         11   -1    0    0    0    0 -0.00000000000E+00 -0.00000000000E+00 -0.45593999997E+02  0.45594000000E+02  0.51100000000E-03 0. -1.
    9900012    2    1    2    0    0 -0.34014722232E+00  0.96913441798E-01  0.11261364879E+01  0.90007628983E+02  0.89999888886E+02 0.  0.
         12    1    1    2    0    0  0.34014722232E+00 -0.96913441798E-01 -0.11261364879E+01  0.11803710169E+01  0.00000000000E+00 0. -1.
         11    1    3    3    0    0 -0.79043738790E+01 -0.15678525697E+02 -0.29560518227E+02  0.34381965222E+02  0.51100000000E-03 0. -1.
        -11    1    3    3    0    0 -0.22392166648E+01 -0.11555121103E+02 -0.19631497548E+01  0.11932680847E+02  0.51100000000E-03 0.  1.
        -12    1    3    3    0    0  0.98034433215E+01  0.27330560241E+02  0.32649804469E+02  0.43692982914E+02  0.00000000000E+00 0.  1.
</event>
<event>
 7    1  0.4358868E-015  0.9000773E+02  0.7816164E-02  0.1186339E+00
        -11   -1    0    0    0    0  0.00000000000E+00  0.00000000000E+00  0.45593999997E+02  0.45594000000E+02  0.51100000000E-03 0. -1.
         11   -1    0    0    0    0 -0.00000000000E+00 -0.00000000000E+00 -0.45593999997E+02  0.45594000000E+02  0.51100000000E-03 0.  1.
    9900012    2    1    2    0    0 -0.95773819738E+00  0.63337973311E+00 -0.27312032596E+00  0.90007734329E+02  0.89999995622E+02 0.  0.
         12    1    1    2    0    0  0.95773819738E+00 -0.63337973311E+00  0.27312032596E+00  0.11802656707E+01  0.00000000000E+00 0. -1.
         11    1    3    3    0    0 -0.30772756692E+02 -0.10141466844E+02 -0.23147866436E+02  0.39820040494E+02  0.51100000000E-03 0. -1.
        -11    1    3    3    0    0 -0.51949893864E+00  0.62054275638E+01  0.18100433779E+02  0.19141653890E+02  0.51100000000E-03 0.  1.
        -12    1    3    3    0    0  0.30334517433E+02  0.45694190134E+01  0.47743123309E+01  0.31046039945E+02  0.00000000000E+00 0.  1.
</event>
<event>
 7    1  0.4358868E-015  0.9000766E+02  0.7816164E-02  0.1186339E+00
        -11   -1    0    0    0    0  0.00000000000E+00  0.00000000000E+00  0.45593999997E+02  0.45594000000E+02  0.51100000000E-03 0.  1.
         11   -1    0    0    0    0 -0.00000000000E+00 -0.00000000000E+00 -0.45593999997E+02  0.45594000000E+02  0.51100000000E-03 0. -1.
    9900012    2    1    2    0    0  0.41496690911E+00  0.28050407668E+00  0.10687922989E+01  0.90007662315E+02  0.89999922657E+02 0.  0.
         12    1    1    2    0    0 -0.41496690911E+00 -0.28050407668E+00 -0.10687922989E+01  0.11803376851E+01  0.00000000000E+00 0. -1.
         11    1    3    3    0    0  0.15370457967E+02  0.64051199130E+01  0.50631311708E+01  0.17404362577E+02  0.51100000000E-03 0. -1.
        -11    1    3    3    0    0 -0.26662491075E+02  0.23217860068E+02 -0.16000803709E+02  0.38806999060E+02  0.51100000000E-03 0.  1.
         12    1    3    3    0    0  0.11707000017E+02 -0.29342475905E+02  0.12006464837E+02  0.33796300678E+02  0.00000000000E+00 0. -1.
</event>
<event>
 7    1  0.4358868E-015  0.9000781E+02  0.7816164E-02  0.1186339E+00
        -11   -1    0    0    0    0  0.00000000000E+00  0.00000000000E+00  0.45593999997E+02  0.45594000000E+02  0.51100000000E-03 0. -1.
         11   -1    0    0    0    0 -0.00000000000E+00 -0.00000000000E+00 -0.45593999997E+02  0.45594000000E+02  0.51100000000E-03 0.  1.
    9900012    2    1    2    0    0 -0.18690721535E+00 -0.41274346118E-01 -0.11645640159E+01  0.90007810513E+02  0.90000072811E+02 0.  0.
         12    1    1    2    0    0  0.18690721535E+00  0.41274346118E-01  0.11645640159E+01  0.11801894873E+01  0.00000000000E+00 0. -1.
         11    1    3    3    0    0 -0.13691881991E+01 -0.85186348404E+01  0.38621799873E+01  0.94529492955E+01  0.51100000000E-03 0. -1.
        -11    1    3    3    0    0  0.17293356058E+02 -0.32150861204E+02 -0.50096228509E+01  0.36848804068E+02  0.51100000000E-03 0.  1.
         12    1    3    3    0    0 -0.16111075074E+02  0.40628221698E+02 -0.17121152302E-01  0.43706057149E+02  0.00000000000E+00 0. -1.
</event>
<event>
 7    1  0.4358868E-015  0.9000782E+02  0.7816164E-02  0.1186339E+00
        -11   -1    0    0    0    0  0.00000000000E+00  0.00000000000E+00  0.45593999997E+02  0.45594000000E+02  0.51100000000E-03 0.  1.
         11   -1    0    0    0    0 -0.00000000000E+00 -0.00000000000E+00 -0.45593999997E+02  0.45594000000E+02  0.51100000000E-03 0. -1.
    9900012    2    1    2    0    0 -0.66083076121E+00  0.87929991718E+00  0.42773310244E+00  0.90007821519E+02  0.90000083963E+02 0.  0.
         12    1    1    2    0    0  0.66083076121E+00 -0.87929991718E+00 -0.42773310244E+00  0.11801784807E+01  0.00000000000E+00 0. -1.
         11    1    3    3    0    0 -0.84671688362E+01  0.16880787196E+02  0.24236599604E+01  0.19040169441E+02  0.51100000000E-03 0. -1.
        -11    1    3    3    0    0 -0.27791369816E+02 -0.80431229111E+01  0.12758557943E+02  0.31620133831E+02  0.51100000000E-03 0.  1.
         12    1    3    3    0    0  0.35597707891E+02 -0.79583643682E+01 -0.14754484801E+02  0.39347518248E+02  0.00000000000E+00 0. -1.
</event>
<event>
 7    1  0.4358868E-015  0.9000780E+02  0.7816164E-02  0.1186339E+00
        -11   -1    0    0    0    0  0.00000000000E+00  0.00000000000E+00  0.45593999997E+02  0.45594000000E+02  0.51100000000E-03 0. -1.
         11   -1    0    0    0    0 -0.00000000000E+00 -0.00000000000E+00 -0.45593999997E+02  0.45594000000E+02  0.51100000000E-03 0.  1.
    9900012    2    1    2    0    0  0.31821341949E+00 -0.44516214320E+00  0.10456743523E+01  0.90007803421E+02  0.90000065626E+02 0.  0.
         12    1    1    2    0    0 -0.31821341949E+00  0.44516214320E+00 -0.10456743523E+01  0.11801965790E+01  0.00000000000E+00 0. -1.
         11    1    3    3    0    0 -0.16208171378E+01 -0.85220078548E+01 -0.51185486030E+01  0.10072298950E+02  0.51100000000E-03 0. -1.
        -11    1    3    3    0    0 -0.95182505779E+01 -0.89804001857E+01 -0.33114709017E+02  0.35606581345E+02  0.51100000000E-03 0.  1.
         12    1    3    3    0    0  0.11457281135E+02  0.17057245897E+02  0.39278931972E+02  0.44328923126E+02  0.00000000000E+00 0. -1.
</event>
<event>
 7    1  0.4358868E-015  0.9000778E+02  0.7816164E-02  0.1186339E+00
        -11   -1    0    0    0    0  0.00000000000E+00  0.00000000000E+00  0.45593999997E+02  0.45594000000E+02  0.51100000000E-03 0.  1.
         11   -1    0    0    0    0 -0.00000000000E+00 -0.00000000000E+00 -0.45593999997E+02  0.45594000000E+02  0.51100000000E-03 0. -1.
    9900012    2    1    2    0    0  0.28841457702E+00  0.99174952433E+00 -0.57111318173E+00  0.90007779532E+02  0.90000041422E+02 0.  0.
         12    1    1    2    0    0 -0.28841457702E+00 -0.99174952433E+00  0.57111318173E+00  0.11802204682E+01  0.00000000000E+00 0. -1.
         11    1    3    3    0    0  0.18972736896E+02  0.40928657105E+01  0.80357632015E+01  0.21006898523E+02  0.51100000000E-03 0. -1.
        -11    1    3    3    0    0 -0.48830316964E+01  0.19886580222E+02  0.20811794082E+02  0.29196760859E+02  0.51100000000E-03 0.  1.
         12    1    3    3    0    0 -0.13801290623E+02 -0.22987696408E+02 -0.29418670465E+02  0.39804120150E+02  0.00000000000E+00 0. -1.
</event>
<event>
 7    1  0.4358868E-015  0.9000710E+02  0.7816164E-02  0.1186340E+00
        -11   -1    0    0    0    0  0.00000000000E+00  0.00000000000E+00  0.45593999997E+02  0.45594000000E+02  0.51100000000E-03 0.  1.
         11   -1    0    0    0    0 -0.00000000000E+00 -0.00000000000E+00 -0.45593999997E+02  0.45594000000E+02  0.51100000000E-03 0. -1.
    9900012    2    1    2    0    0 -0.83916807687E+00 -0.79436260681E+00  0.24354508909E+00  0.90007098132E+02  0.89999351025E+02 0.  0.
         12    1    1    2    0    0  0.83916807687E+00  0.79436260681E+00 -0.24354508909E+00  0.11809018684E+01  0.00000000000E+00 0. -1.
         11    1    3    3    0    0 -0.92153753762E+01  0.36223046182E+02 -0.60105112114E+01  0.37857079434E+02  0.51100000000E-03 0. -1.
        -11    1    3    3    0    0  0.19064651774E+02 -0.77605824576E+01  0.35158828713E+01  0.20881786800E+02  0.51100000000E-03 0.  1.
        -12    1    3    3    0    0 -0.10688444475E+02 -0.29256826331E+02  0.27381734292E+01  0.31268231897E+02  0.00000000000E+00 0.  1.
</event>
<event>
 7    1  0.4358868E-015  0.9000823E+02  0.7816164E-02  0.1186338E+00
        -11   -1    0    0    0    0  0.00000000000E+00  0.00000000000E+00  0.45593999997E+02  0.45594000000E+02  0.51100000000E-03 0. -1.
         11   -1    0    0    0    0 -0.00000000000E+00 -0.00000000000E+00 -0.45593999997E+02  0.45594000000E+02  0.51100000000E-03 0.  1.
    9900012    2    1    2    0    0 -0.95592488592E+00 -0.63149414791E+00 -0.28158491574E+00  0.90008225737E+02  0.90000493516E+02 0.  0.
         12    1    1    2    0    0  0.95592488592E+00  0.63149414791E+00  0.28158491574E+00  0.11797742628E+01  0.00000000000E+00 0. -1.
         11    1    3    3    0    0 -0.18551086588E+01 -0.81568517272E+01  0.35931140693E+01  0.91041818529E+01  0.51100000000E-03 0. -1.
        -11    1    3    3    0    0 -0.19061629972E+02 -0.31270908686E+02  0.29593090236E+01  0.36741978409E+02  0.51100000000E-03 0.  1.
         12    1    3    3    0    0  0.19960813745E+02  0.38796266266E+02 -0.68340080087E+01  0.44162065475E+02  0.00000000000E+00 0. -1.
</event>
<event>
 7    1  0.4358868E-015  0.9000779E+02  0.7816164E-02  0.1186339E+00
        -11   -1    0    0    0    0  0.00000000000E+00  0.00000000000E+00  0.45593999997E+02  0.45594000000E+02  0.51100000000E-03 0. -1.
         11   -1    0    0    0    0 -0.00000000000E+00 -0.00000000000E+00 -0.45593999997E+02  0.45594000000E+02  0.51100000000E-03 0.  1.
    9900012    2    1    2    0    0 -0.46765260828E+00 -0.10615897270E+01 -0.21732734584E+00  0.90007786932E+02  0.90000048920E+02 0.  0.
         12    1    1    2    0    0  0.46765260828E+00  0.10615897270E+01  0.21732734584E+00  0.11802130680E+01  0.00000000000E+00 0. -1.
         11    1    3    3    0    0  0.28209545546E+00 -0.18701151660E+01 -0.74864202838E+01  0.77216188398E+01  0.51100000000E-03 0. -1.
        -11    1    3    3    0    0  0.23307844738E+02 -0.30583438967E+02  0.16223466961E+02  0.41734916388E+02  0.51100000000E-03 0.  1.
         12    1    3    3    0    0 -0.24057592802E+02  0.31391964406E+02 -0.89543740232E+01  0.40551251705E+02  0.00000000000E+00 0. -1.
</event>
<event>
 7    1  0.4358868E-015  0.9000776E+02  0.7816164E-02  0.1186339E+00
        -11   -1    0    0    0    0  0.00000000000E+00  0.00000000000E+00  0.45593999997E+02  0.45594000000E+02  0.51100000000E-03 0.  1.
         11   -1    0    0    0    0 -0.00000000000E+00 -0.00000000000E+00 -0.45593999997E+02  0.45594000000E+02  0.51100000000E-03 0. -1.
    9900012    2    1    2    0    0  0.10613608903E+01 -0.16811174635E+00 -0.48808252120E+00  0.90007757209E+02  0.90000018804E+02 0.  0.
         12    1    1    2    0    0 -0.10613608903E+01  0.16811174635E+00  0.48808252120E+00  0.11802427912E+01  0.00000000000E+00 0. -1.
         11    1    3    3    0    0 -0.34652943847E+02  0.30788062832E+00 -0.13543407633E+02  0.37206789680E+02  0.51100000000E-03 0. -1.
        -11    1    3    3    0    0 -0.70027574973E+01  0.10265376372E+01  0.64006261548E+01  0.95425577033E+01  0.51100000000E-03 0.  1.
        -12    1    3    3    0    0  0.42717062234E+02 -0.15025300118E+01  0.66546989574E+01  0.43258409825E+02  0.00000000000E+00 0.  1.
</event>
<event>
 7    1  0.4358868E-015  0.9000772E+02  0.7816164E-02  0.1186339E+00
        -11   -1    0    0    0    0  0.00000000000E+00  0.00000000000E+00  0.45593999997E+02  0.45594000000E+02  0.51100000000E-03 0. -1.
         11   -1    0    0    0    0 -0.00000000000E+00 -0.00000000000E+00 -0.45593999997E+02  0.45594000000E+02  0.51100000000E-03 0.  1.
    9900012    2    1    2    0    0  0.10942358580E+01 -0.34171329604E+00 -0.28096173632E+00  0.90007720547E+02  0.89999981658E+02 0.  0.
         12    1    1    2    0    0 -0.10942358580E+01  0.34171329604E+00  0.28096173632E+00  0.11802794529E+01  0.00000000000E+00 0. -1.
         11    1    3    3    0    0 -0.15576609222E+01 -0.75915067880E+01  0.36888407139E+01  0.85828217350E+01  0.51100000000E-03 0. -1.
        -11    1    3    3    0    0  0.57374866865E+01 -0.32836330067E+02 -0.19157996404E+02  0.38447004464E+02  0.51100000000E-03 0.  1.
         12    1    3    3    0    0 -0.30855899063E+01  0.40086123559E+02  0.15188193954E+02  0.42977894349E+02  0.00000000000E+00 0. -1.
</event>
<event>
 7    1  0.4466460E-015  0.9000786E+02  0.7816164E-02  0.1186339E+00
        -11   -1    0    0    0    0  0.00000000000E+00  0.00000000000E+00  0.45593999997E+02  0.45594000000E+02  0.51100000000E-03 0.  1.
         11   -1    0    0    0    0 -0.00000000000E+00 -0.00000000000E+00 -0.45593999997E+02  0.45594000000E+02  0.51100000000E-03 0. -1.
    9900012    2    1    2    0    0 -0.95864052258E+00  0.65584374581E+00  0.20882426272E+00  0.90007860075E+02  0.90000123028E+02 0.  0.
         12    1    1    2    0    0  0.95864052258E+00 -0.65584374581E+00 -0.20882426272E+00  0.11801399252E+01  0.00000000000E+00 0. -1.
         11    1    3    3    0    0 -0.13973025469E+02  0.82567712992E+01 -0.33182258595E+02  0.36938895473E+02  0.51100000000E-03 0. -1.
        -11    1    3    3    0    0  0.23666442862E+01 -0.29696728393E+01 -0.86537549374E+01  0.94502611990E+01  0.51100000000E-03 0.  1.
        -12    1    3    3    0    0  0.10647740660E+02 -0.46312547141E+01  0.42044837795E+02  0.43618703403E+02  0.00000000000E+00 0.  1.
</event>
<event>
 7    1  0.4358868E-015  0.9000780E+02  0.7816164E-02  0.1186339E+00
        -11   -1    0    0    0    0  0.00000000000E+00  0.00000000000E+00  0.45593999997E+02  0.45594000000E+02  0.51100000000E-03 0. -1.
         11   -1    0    0    0    0 -0.00000000000E+00 -0.00000000000E+00 -0.45593999997E+02  0.45594000000E+02  0.51100000000E-03 0.  1.
    9900012    2    1    2    0    0 -0.35919317076E+00  0.31547750542E+00 -0.10790349568E+01  0.90007804157E+02  0.90000066372E+02 0.  0.
         12    1    1    2    0    0  0.35919317076E+00 -0.31547750542E+00  0.10790349568E+01  0.11801958432E+01  0.00000000000E+00 0. -1.
         11    1    3    3    0    0 -0.85355789502E+01 -0.59905042158E+01  0.16333797409E+01  0.10555102009E+02  0.51100000000E-03 0. -1.
        -11    1    3    3    0    0  0.11574622706E+02  0.39088918254E+02  0.13204703647E+02  0.42851833329E+02  0.51100000000E-03 0.  1.
         12    1    3    3    0    0 -0.33982369268E+01 -0.32782936532E+02 -0.15917118344E+02  0.36600868819E+02  0.00000000000E+00 0. -1.
</event>
<event>
 7    1  0.4358868E-015  0.9000778E+02  0.7816164E-02  0.1186339E+00
        -11   -1    0    0    0    0  0.00000000000E+00  0.00000000000E+00  0.45593999997E+02  0.45594000000E+02  0.51100000000E-03 0.  1.
         11   -1    0    0    0    0 -0.00000000000E+00 -0.00000000000E+00 -0.45593999997E+02  0.45594000000E+02  0.51100000000E-03 0. -1.
    9900012    2    1    2    0    0  0.42265601365E-05 -0.44088370657E+00  0.10947761792E+01  0.90007782509E+02  0.90000044438E+02 0.  0.
         12    1    1    2    0    0 -0.42265601365E-05  0.44088370657E+00 -0.10947761792E+01  0.11802174907E+01  0.00000000000E+00 0. -1.
         11    1    3    3    0    0 -0.10167315110E+02 -0.26740077750E+02 -0.23520221718E+02  0.37035211415E+02  0.51100000000E-03 0. -1.
        -11    1    3    3    0    0 -0.11920858974E+00 -0.49668042943E+01 -0.61585793978E+01  0.79127401098E+01  0.51100000000E-03 0.  1.
        -12    1    3    3    0    0  0.10286527926E+02  0.31265998338E+02  0.30773577295E+02  0.45059830985E+02  0.00000000000E+00 0.  1.
</event>
<event>
 7    1  0.4358868E-015  0.9000772E+02  0.7816164E-02  0.1186339E+00
        -11   -1    0    0    0    0  0.00000000000E+00  0.00000000000E+00  0.45593999997E+02  0.45594000000E+02  0.51100000000E-03 0.  1.
         11   -1    0    0    0    0 -0.00000000000E+00 -0.00000000000E+00 -0.45593999997E+02  0.45594000000E+02  0.51100000000E-03 0. -1.
    9900012    2    1    2    0    0 -0.10691220674E+01  0.17519570472E-01  0.49973033276E+00  0.90007720653E+02  0.89999981766E+02 0.  0.
         12    1    1    2    0    0  0.10691220674E+01 -0.17519570472E-01 -0.49973033276E+00  0.11802793466E+01  0.00000000000E+00 0. -1.
         11    1    3    3    0    0  0.24817458135E+02  0.26333670783E+02 -0.20310895457E+02  0.41495794000E+02  0.51100000000E-03 0. -1.
        -11    1    3    3    0    0 -0.70163575899E+00 -0.79795884019E+01 -0.37470268729E+01  0.88434345392E+01  0.51100000000E-03 0.  1.
        -12    1    3    3    0    0 -0.25184944443E+02 -0.18336562811E+02  0.24557652662E+02  0.39668492114E+02  0.00000000000E+00 0.  1.
</event>
<event>
 7    1  0.4358868E-015  0.9000753E+02  0.7816164E-02  0.1186339E+00
        -11   -1    0    0    0    0  0.00000000000E+00  0.00000000000E+00  0.45593999997E+02  0.45594000000E+02  0.51100000000E-03 0.  1.
         11   -1    0    0    0    0 -0.00000000000E+00 -0.00000000000E+00 -0.45593999997E+02  0.45594000000E+02  0.51100000000E-03 0. -1.
    9900012    2    1    2    0    0 -0.66967555689E-01 -0.11729994977E+01  0.11449157389E+00  0.90007525182E+02  0.89999783714E+02 0.  0.
         12    1    1    2    0    0  0.66967555689E-01  0.11729994977E+01 -0.11449157389E+00  0.11804748178E+01  0.00000000000E+00 0. -1.
         11    1    3    3    0    0  0.34584773361E+02 -0.42144762889E+01 -0.49813831430E+01  0.35194922036E+02  0.51100000000E-03 0. -1.
        -11    1    3    3    0    0  0.35179478564E+01  0.10664046835E+02  0.10672306066E+02  0.15491803285E+02  0.51100000000E-03 0.  1.
        -12    1    3    3    0    0 -0.38169688773E+02 -0.76225700436E+01 -0.55764313487E+01  0.39320799861E+02  0.00000000000E+00 0.  1.
</event>
<event>
 7    1  0.4358868E-015  0.9000774E+02  0.7816164E-02  0.1186339E+00
        -11   -1    0    0    0    0  0.00000000000E+00  0.00000000000E+00  0.45593999997E+02  0.45594000000E+02  0.51100000000E-03 0.  1.
         11   -1    0    0    0    0 -0.00000000000E+00 -0.00000000000E+00 -0.45593999997E+02  0.45594000000E+02  0.51100000000E-03 0. -1.
    9900012    2    1    2    0    0  0.49487531719E+00 -0.90395908680E+00 -0.57529829566E+00  0.90007740817E+02  0.90000002196E+02 0.  0.
         12    1    1    2    0    0 -0.49487531719E+00  0.90395908680E+00  0.57529829566E+00  0.11802591830E+01  0.00000000000E+00 0. -1.
         11    1    3    3    0    0 -0.36496290720E+02  0.77728347346E+01 -0.88130917473E+01  0.38341449927E+02  0.51100000000E-03 0. -1.
        -11    1    3    3    0    0 -0.97868886344E+00  0.57934774274E+01 -0.62019006772E+01  0.85431718269E+01  0.51100000000E-03 0.  1.
        -12    1    3    3    0    0  0.37969854900E+02 -0.14470271249E+02  0.14439694129E+02  0.43123119063E+02  0.00000000000E+00 0.  1.
</event>
<event>
 7    1  0.4358868E-015  0.9000770E+02  0.7816164E-02  0.1186339E+00
        -11   -1    0    0    0    0  0.00000000000E+00  0.00000000000E+00  0.45593999997E+02  0.45594000000E+02  0.51100000000E-03 0.  1.
         11   -1    0    0    0    0 -0.00000000000E+00 -0.00000000000E+00 -0.45593999997E+02  0.45594000000E+02  0.51100000000E-03 0. -1.
    9900012    2    1    2    0    0 -0.27757200184E+00 -0.11461365179E+01 -0.49401216223E-01  0.90007696813E+02  0.89999957611E+02 0.  0.
         12    1    1    2    0    0  0.27757200184E+00  0.11461365179E+01  0.49401216223E-01  0.11803031873E+01  0.00000000000E+00 0. -1.
         11    1    3    3    0    0  0.11322921601E+02  0.33625649603E+02  0.29558498712E+01  0.35603790719E+02  0.51100000000E-03 0. -1.
        -11    1    3    3    0    0  0.62579008809E+01  0.56055337247E+01  0.46384580413E+01  0.95968028549E+01  0.51100000000E-03 0.  1.
        -12    1    3    3    0    0 -0.17858394484E+02 -0.40377319846E+02 -0.76437091287E+01  0.44807103239E+02  0.00000000000E+00 0.  1.
</event>
<event>
 7    1  0.4358868E-015  0.9000775E+02  0.7816164E-02  0.1186339E+00
        -11   -1    0    0    0    0  0.00000000000E+00  0.00000000000E+00  0.45593999997E+02  0.45594000000E+02  0.51100000000E-03 0. -1.
         11   -1    0    0    0    0 -0.00000000000E+00 -0.00000000000E+00 -0.45593999997E+02  0.45594000000E+02  0.51100000000E-03 0.  1.
    9900012    2    1    2    0    0 -0.98364838958E+00  0.30920844920E+00  0.57428862030E+00  0.90007753653E+02  0.90000015202E+02 0.  0.
         12    1    1    2    0    0  0.98364838958E+00 -0.30920844920E+00 -0.57428862030E+00  0.11802463467E+01  0.00000000000E+00 0. -1.
         11    1    3    3    0    0  0.17769472410E+02  0.16288440562E+02  0.34977928608E+02  0.42479676737E+02  0.51100000000E-03 0. -1.
        -11    1    3    3    0    0 -0.15953094648E+01 -0.92650000705E+01 -0.10972697391E+01  0.94651592557E+01  0.51100000000E-03 0.  1.
        -12    1    3    3    0    0 -0.17157811334E+02 -0.67142320425E+01 -0.33306370249E+02  0.38062917661E+02  0.00000000000E+00 0.  1.
</event>
<event>
 7    1  0.4358868E-015  0.9000767E+02  0.7816164E-02  0.1186339E+00
        -11   -1    0    0    0    0  0.00000000000E+00  0.00000000000E+00  0.45593999997E+02  0.45594000000E+02  0.51100000000E-03 0. -1.
         11   -1    0    0    0    0 -0.00000000000E+00 -0.00000000000E+00 -0.45593999997E+02  0.45594000000E+02  0.51100000000E-03 0.  1.
    9900012    2    1    2    0    0 -0.27879661914E+00  0.74869185327E+00 -0.86885603643E+00  0.90007670445E+02  0.89999930895E+02 0.  0.
         12    1    1    2    0    0  0.27879661914E+00 -0.74869185327E+00  0.86885603643E+00  0.11803295548E+01  0.00000000000E+00 0. -1.
         11    1    3    3    0    0 -0.11373440722E+02  0.27712634570E+00  0.14182784012E+01  0.11464879710E+02  0.51100000000E-03 0. -1.
        -11    1    3    3    0    0  0.27394786546E+02 -0.73463879534E+01 -0.32623165033E+02  0.43228632212E+02  0.51100000000E-03 0.  1.
         12    1    3    3    0    0 -0.16300142443E+02  0.78179534610E+01  0.30336030595E+02  0.35314158524E+02  0.00000000000E+00 0. -1.
</event>
<event>
 7    1  0.4358868E-015  0.9000774E+02  0.7816164E-02  0.1186339E+00
        -11   -1    0    0    0    0  0.00000000000E+00  0.00000000000E+00  0.45593999997E+02  0.45594000000E+02  0.51100000000E-03 0.  1.
         11   -1    0    0    0    0 -0.00000000000E+00 -0.00000000000E+00 -0.45593999997E+02  0.45594000000E+02  0.51100000000E-03 0. -1.
    9900012    2    1    2    0    0  0.68987731417E+00 -0.40422162306E-01  0.95678724172E+00  0.90007743042E+02  0.90000004451E+02 0.  0.
         12    1    1    2    0    0 -0.68987731417E+00  0.40422162306E-01 -0.95678724172E+00  0.11802569575E+01  0.00000000000E+00 0. -1.
         11    1    3    3    0    0  0.34434321743E+01 -0.56558641420E+01  0.46707549436E+01  0.81032077806E+01  0.51100000000E-03 0. -1.
        -11    1    3    3    0    0  0.36925307497E+02  0.10896559507E+02 -0.13321166456E+02  0.40739008565E+02  0.51100000000E-03 0.  1.
         12    1    3    3    0    0 -0.39678862358E+02 -0.52811175272E+01  0.96071987538E+01  0.41165526697E+02  0.00000000000E+00 0. -1.
</event>
<event>
 7    1  0.4358868E-015  0.9000786E+02  0.7816164E-02  0.1186339E+00
        -11   -1    0    0    0    0  0.00000000000E+00  0.00000000000E+00  0.45593999997E+02  0.45594000000E+02  0.51100000000E-03 0. -1.
         11   -1    0    0    0    0 -0.00000000000E+00 -0.00000000000E+00 -0.45593999997E+02  0.45594000000E+02  0.51100000000E-03 0.  1.
    9900012    2    1    2    0    0  0.10614219015E+01 -0.47050089473E+00 -0.21153201002E+00  0.90007858764E+02  0.90000121700E+02 0.  0.
         12    1    1    2    0    0 -0.10614219015E+01  0.47050089473E+00  0.21153201002E+00  0.11801412357E+01  0.00000000000E+00 0. -1.
         11    1    3    3    0    0  0.39108564647E+01 -0.94393451095E+01 -0.17063619870E+01  0.10358943280E+02  0.51100000000E-03 0. -1.
        -11    1    3    3    0    0  0.29394419281E+02 -0.12256510455E+02 -0.17808967146E+02  0.36488535795E+02  0.51100000000E-03 0.  1.
         12    1    3    3    0    0 -0.32243853844E+02  0.21225354670E+02  0.19303797123E+02  0.43160379689E+02  0.00000000000E+00 0. -1.
</event>
<event>
 7    1  0.4358868E-015  0.9000774E+02  0.7816164E-02  0.1186339E+00
        -11   -1    0    0    0    0  0.00000000000E+00  0.00000000000E+00  0.45593999997E+02  0.45594000000E+02  0.51100000000E-03 0. -1.
         11   -1    0    0    0    0 -0.00000000000E+00 -0.00000000000E+00 -0.45593999997E+02  0.45594000000E+02  0.51100000000E-03 0.  1.
    9900012    2    1    2    0    0 -0.42073759491E-01 -0.88137610842E+00 -0.78384833883E+00  0.90007740595E+02  0.90000001970E+02 0.  0.
         12    1    1    2    0    0  0.42073759491E-01  0.88137610842E+00  0.78384833883E+00  0.11802594054E+01  0.00000000000E+00 0. -1.
         11    1    3    3    0    0  0.24873921436E+02 -0.26003125051E+02 -0.11166379761E+02  0.37677082122E+02  0.51100000000E-03 0. -1.
        -11    1    3    3    0    0 -0.28391912959E+01 -0.95417060788E+01  0.40565213242E+01  0.10749908261E+02  0.51100000000E-03 0.  1.
        -12    1    3    3    0    0 -0.22076803899E+02  0.34663455021E+02  0.63260100982E+01  0.41580750212E+02  0.00000000000E+00 0.  1.
</event>
<event>
 7    1  0.4358868E-015  0.9000762E+02  0.7816164E-02  0.1186339E+00
        -11   -1    0    0    0    0  0.00000000000E+00  0.00000000000E+00  0.45593999997E+02  0.45594000000E+02  0.51100000000E-03 0.  1.
         11   -1    0    0    0    0 -0.00000000000E+00 -0.00000000000E+00 -0.45593999997E+02  0.45594000000E+02  0.51100000000E-03 0. -1.
    9900012    2    1    2    0    0  0.11397909114E+01 -0.30660046895E+00  0.13468144204E-01  0.90007615080E+02  0.89999874799E+02 0.  0.
         12    1    1    2    0    0 -0.11397909114E+01  0.30660046895E+00 -0.13468144204E-01  0.11803849204E+01  0.00000000000E+00 0. -1.
         11    1    3    3    0    0  0.63015775631E+01  0.48432376790E+01 -0.41148660744E+01  0.89498019012E+01  0.51100000000E-03 0. -1.
        -11    1    3    3    0    0  0.13667357168E+02 -0.30691983692E+02  0.26029873702E+02  0.42501162809E+02  0.51100000000E-03 0.  1.
         12    1    3    3    0    0 -0.18829143820E+02  0.25542145544E+02 -0.21901539483E+02  0.38556650370E+02  0.00000000000E+00 0. -1.
</event>
<event>
 7    1  0.4358868E-015  0.9000770E+02  0.7816164E-02  0.1186339E+00
        -11   -1    0    0    0    0  0.00000000000E+00  0.00000000000E+00  0.45593999997E+02  0.45594000000E+02  0.51100000000E-03 0.  1.
         11   -1    0    0    0    0 -0.00000000000E+00 -0.00000000000E+00 -0.45593999997E+02  0.45594000000E+02  0.51100000000E-03 0. -1.
    9900012    2    1    2    0    0 -0.10377751162E+01 -0.16276331615E+00  0.53817473257E+00  0.90007702948E+02  0.89999963827E+02 0.  0.
         12    1    1    2    0    0  0.10377751162E+01  0.16276331615E+00 -0.53817473257E+00  0.11802970523E+01  0.00000000000E+00 0. -1.
         11    1    3    3    0    0 -0.32601740810E+01  0.36442450546E+02  0.22818386612E+02  0.43120293420E+02  0.51100000000E-03 0. -1.
        -11    1    3    3    0    0  0.22028975171E+01 -0.16683349158E+01 -0.91607007431E+01  0.95684135168E+01  0.51100000000E-03 0.  1.
        -12    1    3    3    0    0  0.19501447714E-01 -0.34936878946E+02 -0.13119511136E+02  0.37318996011E+02  0.00000000000E+00 0.  1.
</event>
<event>
 7    1  0.4358868E-015  0.9000772E+02  0.7816164E-02  0.1186339E+00
        -11   -1    0    0    0    0  0.00000000000E+00  0.00000000000E+00  0.45593999997E+02  0.45594000000E+02  0.51100000000E-03 0. -1.
         11   -1    0    0    0    0 -0.00000000000E+00 -0.00000000000E+00 -0.45593999997E+02  0.45594000000E+02  0.51100000000E-03 0.  1.
    9900012    2    1    2    0    0 -0.31999412147E-01 -0.11798228629E+01  0.79039054819E-02  0.90007716804E+02  0.89999977866E+02 0.  0.
         12    1    1    2    0    0  0.31999412147E-01  0.11798228629E+01 -0.79039054819E-02  0.11802831956E+01  0.00000000000E+00 0. -1.
         11    1    3    3    0    0  0.22270875959E+01 -0.20843747490E+01 -0.91882896028E+01  0.96813843711E+01  0.51100000000E-03 0. -1.
        -11    1    3    3    0    0  0.26042630874E+02 -0.67427298592E+01 -0.23990738867E+02  0.36044952219E+02  0.51100000000E-03 0.  1.
         12    1    3    3    0    0 -0.28301717882E+02  0.76472817453E+01  0.33186932376E+02  0.44281380214E+02  0.00000000000E+00 0. -1.
</event>
<event>
 7    1  0.4358868E-015  0.9000760E+02  0.7816164E-02  0.1186339E+00
        -11   -1    0    0    0    0  0.00000000000E+00  0.00000000000E+00  0.45593999997E+02  0.45594000000E+02  0.51100000000E-03 0.  1.
         11   -1    0    0    0    0 -0.00000000000E+00 -0.00000000000E+00 -0.45593999997E+02  0.45594000000E+02  0.51100000000E-03 0. -1.
    9900012    2    1    2    0    0  0.11401849166E+01 -0.27462564215E+00  0.13376073018E+00  0.90007604803E+02  0.89999864387E+02 0.  0.
         12    1    1    2    0    0 -0.11401849166E+01  0.27462564215E+00 -0.13376073018E+00  0.11803951966E+01  0.00000000000E+00 0. -1.
         11    1    3    3    0    0 -0.12789378868E+02  0.12107838714E+00  0.67472692036E+01  0.14460584835E+02  0.51100000000E-03 0. -1.
        -11    1    3    3    0    0 -0.20308258319E+02  0.22875454110E+02  0.80467345095E+01  0.31630075770E+02  0.51100000000E-03 0.  1.
         12    1    3    3    0    0  0.34237822103E+02 -0.23271158139E+02 -0.14660242983E+02  0.43916944199E+02  0.00000000000E+00 0. -1.
</event>
<event>
 7    1  0.4358868E-015  0.9000782E+02  0.7816164E-02  0.1186339E+00
        -11   -1    0    0    0    0  0.00000000000E+00  0.00000000000E+00  0.45593999997E+02  0.45594000000E+02  0.51100000000E-03 0. -1.
         11   -1    0    0    0    0 -0.00000000000E+00 -0.00000000000E+00 -0.45593999997E+02  0.45594000000E+02  0.51100000000E-03 0.  1.
    9900012    2    1    2    0    0 -0.10082664076E+01 -0.13813900324E-01 -0.61321031466E+00  0.90007822529E+02  0.90000084987E+02 0.  0.
         12    1    1    2    0    0  0.10082664076E+01  0.13813900324E-01  0.61321031466E+00  0.11801774708E+01  0.00000000000E+00 0. -1.
         11    1    3    3    0    0 -0.94358131405E+00 -0.12115900355E+02 -0.48005954924E-01  0.12152682500E+02  0.51100000000E-03 0. -1.
        -11    1    3    3    0    0 -0.21579069322E+01 -0.21583975853E+02 -0.27250030242E+02  0.34829423257E+02  0.51100000000E-03 0.  1.
         12    1    3    3    0    0  0.20932218386E+01  0.33686062308E+02  0.26684825882E+02  0.43025716773E+02  0.00000000000E+00 0. -1.
</event>
<event>
 7    1  0.4358868E-015  0.9000766E+02  0.7816164E-02  0.1186339E+00
        -11   -1    0    0    0    0  0.00000000000E+00  0.00000000000E+00  0.45593999997E+02  0.45594000000E+02  0.51100000000E-03 0.  1.
         11   -1    0    0    0    0 -0.00000000000E+00 -0.00000000000E+00 -0.45593999997E+02  0.45594000000E+02  0.51100000000E-03 0. -1.
    9900012    2    1    2    0    0 -0.91372473868E+00 -0.56663283538E+00 -0.48706426170E+00  0.90007662225E+02  0.89999922566E+02 0.  0.
         12    1    1    2    0    0  0.91372473868E+00  0.56663283538E+00  0.48706426170E+00  0.11803377751E+01  0.00000000000E+00 0. -1.
         11    1    3    3    0    0  0.40406461394E+00  0.79801061479E+00  0.93235634070E+01  0.93663719774E+01  0.51100000000E-03 0. -1.
        -11    1    3    3    0    0 -0.28321779501E+02 -0.60820040109E+01  0.23642605172E+02  0.37390998201E+02  0.51100000000E-03 0.  1.
         12    1    3    3    0    0  0.27003990148E+02  0.47173605607E+01 -0.33453232841E+02  0.43250292046E+02  0.00000000000E+00 0. -1.
</event>
<event>
 7    1  0.4358868E-015  0.9000778E+02  0.7816164E-02  0.1186339E+00
        -11   -1    0    0    0    0  0.00000000000E+00  0.00000000000E+00  0.45593999997E+02  0.45594000000E+02  0.51100000000E-03 0.  1.
         11   -1    0    0    0    0 -0.00000000000E+00 -0.00000000000E+00 -0.45593999997E+02  0.45594000000E+02  0.51100000000E-03 0. -1.
    9900012    2    1    2    0    0 -0.59424361067E+00  0.41445440814E+00 -0.93167552770E+00  0.90007780862E+02  0.90000042769E+02 0.  0.
         12    1    1    2    0    0  0.59424361067E+00 -0.41445440814E+00  0.93167552770E+00  0.11802191382E+01  0.00000000000E+00 0. -1.
         11    1    3    3    0    0  0.91346068660E+01 -0.36463853075E+02  0.52591408252E+00  0.37594284267E+02  0.51100000000E-03 0. -1.
        -11    1    3    3    0    0  0.86788451742E+01 -0.23584500537E+01  0.69140433382E+00  0.90201264086E+01  0.51100000000E-03 0.  1.
        -12    1    3    3    0    0 -0.18407695651E+02  0.39236757537E+02 -0.21489939440E+01  0.43393370186E+02  0.00000000000E+00 0.  1.
</event>
<event>
 7    1  0.4358868E-015  0.9000849E+02  0.7816164E-02  0.1186338E+00
        -11   -1    0    0    0    0  0.00000000000E+00  0.00000000000E+00  0.45593999997E+02  0.45594000000E+02  0.51100000000E-03 0. -1.
         11   -1    0    0    0    0 -0.00000000000E+00 -0.00000000000E+00 -0.45593999997E+02  0.45594000000E+02  0.51100000000E-03 0.  1.
    9900012    2    1    2    0    0  0.49060298573E+00 -0.12573798912E-01 -0.10725604908E+01  0.90008493579E+02  0.90000764891E+02 0.  0.
         12    1    1    2    0    0 -0.49060298573E+00  0.12573798912E-01  0.10725604908E+01  0.11795064207E+01  0.00000000000E+00 0. -1.
         11    1    3    3    0    0  0.40900664192E+02  0.15700718403E+02  0.24687750916E+01  0.43880197588E+02  0.51100000000E-03 0. -1.
        -11    1    3    3    0    0 -0.70231909422E+01  0.18824743123E+00  0.44204077801E+01  0.83006417408E+01  0.51100000000E-03 0.  1.
        -12    1    3    3    0    0 -0.33386870264E+02 -0.15901539633E+02 -0.79617433624E+01  0.37827654250E+02  0.00000000000E+00 0.  1.
</event>
<event>
 7    1  0.4358868E-015  0.9000785E+02  0.7816164E-02  0.1186339E+00
        -11   -1    0    0    0    0  0.00000000000E+00  0.00000000000E+00  0.45593999997E+02  0.45594000000E+02  0.51100000000E-03 0. -1.
         11   -1    0    0    0    0 -0.00000000000E+00 -0.00000000000E+00 -0.45593999997E+02  0.45594000000E+02  0.51100000000E-03 0.  1.
    9900012    2    1    2    0    0 -0.31308271753E+00 -0.91084602743E+00 -0.68197820561E+00  0.90007849354E+02  0.90000112166E+02 0.  0.
         12    1    1    2    0    0  0.31308271753E+00  0.91084602743E+00  0.68197820561E+00  0.11801506457E+01  0.00000000000E+00 0. -1.
         11    1    3    3    0    0 -0.37906279797E+01 -0.25475012303E+01  0.75515541049E+01  0.88252247937E+01  0.51100000000E-03 0. -1.
        -11    1    3    3    0    0 -0.23465927919E+02 -0.28625667918E+02 -0.15300620539E+02  0.40052311119E+02  0.51100000000E-03 0.  1.
         12    1    3    3    0    0  0.26943473181E+02  0.30262323121E+02  0.70670882288E+01  0.41130313441E+02  0.00000000000E+00 0. -1.
</event>
<event>
 7    1  0.4358868E-015  0.9000777E+02  0.7816164E-02  0.1186339E+00
        -11   -1    0    0    0    0  0.00000000000E+00  0.00000000000E+00  0.45593999997E+02  0.45594000000E+02  0.51100000000E-03 0. -1.
         11   -1    0    0    0    0 -0.00000000000E+00 -0.00000000000E+00 -0.45593999997E+02  0.45594000000E+02  0.51100000000E-03 0.  1.
    9900012    2    1    2    0    0  0.63826314053E+00 -0.86823783454E+00  0.48138976827E+00  0.90007765751E+02  0.90000027459E+02 0.  0.
         12    1    1    2    0    0 -0.63826314053E+00  0.86823783454E+00 -0.48138976827E+00  0.11802342492E+01  0.00000000000E+00 0. -1.
         11    1    3    3    0    0  0.64047883804E+01  0.65558913564E+01 -0.21758380579E+01  0.94199414643E+01  0.51100000000E-03 0. -1.
        -11    1    3    3    0    0 -0.28580382395E+02  0.44872864921E+01 -0.28204117244E+02  0.40403542267E+02  0.51100000000E-03 0.  1.
         12    1    3    3    0    0  0.22813857155E+02 -0.11911415683E+02  0.30861345070E+02  0.40184282020E+02  0.00000000000E+00 0. -1.
</event>
<event>
 7    1  0.4358868E-015  0.9000778E+02  0.7816164E-02  0.1186339E+00
        -11   -1    0    0    0    0  0.00000000000E+00  0.00000000000E+00  0.45593999997E+02  0.45594000000E+02  0.51100000000E-03 0.  1.
         11   -1    0    0    0    0 -0.00000000000E+00 -0.00000000000E+00 -0.45593999997E+02  0.45594000000E+02  0.51100000000E-03 0. -1.
    9900012    2    1    2    0    0  0.88475742154E+00  0.48465731732E+00  0.61255743777E+00  0.90007781789E+02  0.90000043709E+02 0.  0.
         12    1    1    2    0    0 -0.88475742154E+00 -0.48465731732E+00 -0.61255743777E+00  0.11802182107E+01  0.00000000000E+00 0. -1.
         11    1    3    3    0    0  0.43896151948E+01  0.70337016220E+01 -0.47061085802E+01  0.95335795111E+01  0.51100000000E-03 0. -1.
        -11    1    3    3    0    0  0.10662373970E+02 -0.38105439618E+02 -0.12588378985E+02  0.41523222815E+02  0.51100000000E-03 0.  1.
         12    1    3    3    0    0 -0.14167231743E+02  0.31556395314E+02  0.17907045003E+02  0.38950979464E+02  0.00000000000E+00 0. -1.
</event>
<event>
 7    1  0.4358868E-015  0.9000784E+02  0.7816164E-02  0.1186339E+00
        -11   -1    0    0    0    0  0.00000000000E+00  0.00000000000E+00  0.45593999997E+02  0.45594000000E+02  0.51100000000E-03 0.  1.
         11   -1    0    0    0    0 -0.00000000000E+00 -0.00000000000E+00 -0.45593999997E+02  0.45594000000E+02  0.51100000000E-03 0. -1.
    9900012    2    1    2    0    0  0.99120869277E+00  0.72344136070E-01  0.63642665378E+00  0.90007844403E+02  0.90000107149E+02 0.  0.
         12    1    1    2    0    0 -0.99120869277E+00 -0.72344136070E-01 -0.63642665378E+00  0.11801555966E+01  0.00000000000E+00 0. -1.
         11    1    3    3    0    0  0.80304760024E+01  0.13087534180E+01  0.42260629056E+01  0.91684779695E+01  0.51100000000E-03 0. -1.
        -11    1    3    3    0    0  0.13617308874E+02 -0.28795569103E+02  0.21324003098E+02  0.38331827628E+02  0.51100000000E-03 0.  1.
         12    1    3    3    0    0 -0.20656576183E+02  0.27559159821E+02 -0.24913639350E+02  0.42507538806E+02  0.00000000000E+00 0. -1.
</event>
<event>
 7    1  0.4358868E-015  0.9000778E+02  0.7816164E-02  0.1186339E+00
        -11   -1    0    0    0    0  0.00000000000E+00  0.00000000000E+00  0.45593999997E+02  0.45594000000E+02  0.51100000000E-03 0.  1.
         11   -1    0    0    0    0 -0.00000000000E+00 -0.00000000000E+00 -0.45593999997E+02  0.45594000000E+02  0.51100000000E-03 0. -1.
    9900012    2    1    2    0    0  0.52664812656E+00 -0.64361009152E+00 -0.83745198792E+00  0.90007780516E+02  0.90000042418E+02 0.  0.
         12    1    1    2    0    0 -0.52664812656E+00  0.64361009152E+00  0.83745198792E+00  0.11802194843E+01  0.00000000000E+00 0. -1.
         11    1    3    3    0    0 -0.60960868087E+01  0.77028709880E+01 -0.11633098459E+01  0.98919050691E+01  0.51100000000E-03 0. -1.
        -11    1    3    3    0    0 -0.31543442597E+02  0.13882752952E+02  0.77616402206E+01  0.35326514965E+02  0.51100000000E-03 0.  1.
         12    1    3    3    0    0  0.38166177532E+02 -0.22229234032E+02 -0.74357823627E+01  0.44789360482E+02  0.00000000000E+00 0. -1.
</event>
<event>
 7    1  0.4358868E-015  0.9000787E+02  0.7816164E-02  0.1186339E+00
        -11   -1    0    0    0    0  0.00000000000E+00  0.00000000000E+00  0.45593999997E+02  0.45594000000E+02  0.51100000000E-03 0.  1.
         11   -1    0    0    0    0 -0.00000000000E+00 -0.00000000000E+00 -0.45593999997E+02  0.45594000000E+02  0.51100000000E-03 0. -1.
    9900012    2    1    2    0    0  0.61879029919E+00 -0.10025094867E+01 -0.69142837976E-01  0.90007869737E+02  0.90000132818E+02 0.  0.
         12    1    1    2    0    0 -0.61879029919E+00  0.10025094867E+01  0.69142837976E-01  0.11801302629E+01  0.00000000000E+00 0. -1.
         11    1    3    3    0    0  0.42028118882E+01 -0.73609230144E+01  0.44177139999E+01  0.95584001087E+01  0.51100000000E-03 0. -1.
        -11    1    3    3    0    0 -0.32822216252E+02 -0.16071298167E+02  0.14106697573E+02  0.39173759344E+02  0.51100000000E-03 0.  1.
         12    1    3    3    0    0  0.29238194663E+02  0.22429711695E+02 -0.18593554410E+02  0.41275710284E+02  0.00000000000E+00 0. -1.
</event>
<event>
 7    1  0.4358868E-015  0.9000771E+02  0.7816164E-02  0.1186339E+00
        -11   -1    0    0    0    0  0.00000000000E+00  0.00000000000E+00  0.45593999997E+02  0.45594000000E+02  0.51100000000E-03 0. -1.
         11   -1    0    0    0    0 -0.00000000000E+00 -0.00000000000E+00 -0.45593999997E+02  0.45594000000E+02  0.51100000000E-03 0.  1.
    9900012    2    1    2    0    0  0.75407211466E+00 -0.77373902559E+00 -0.47517466355E+00  0.90007708598E+02  0.89999969551E+02 0.  0.
         12    1    1    2    0    0 -0.75407211466E+00  0.77373902559E+00  0.47517466355E+00  0.11802914025E+01  0.00000000000E+00 0. -1.
         11    1    3    3    0    0  0.14455706468E+00 -0.11876853133E+02  0.12879144033E+01  0.11947353718E+02  0.51100000000E-03 0. -1.
        -11    1    3    3    0    0  0.35152433870E+02  0.68816851126E+01 -0.17501870051E+02  0.39866861583E+02  0.51100000000E-03 0.  1.
         12    1    3    3    0    0 -0.34542918820E+02  0.42214289947E+01  0.15738780984E+02  0.38193493297E+02  0.00000000000E+00 0. -1.
</event>
<event>
 7    1  0.4358868E-015  0.9000773E+02  0.7816164E-02  0.1186339E+00
        -11   -1    0    0    0    0  0.00000000000E+00  0.00000000000E+00  0.45593999997E+02  0.45594000000E+02  0.51100000000E-03 0.  1.
         11   -1    0    0    0    0 -0.00000000000E+00 -0.00000000000E+00 -0.45593999997E+02  0.45594000000E+02  0.51100000000E-03 0. -1.
    9900012    2    1    2    0    0  0.86545937488E+00 -0.23633994964E+00  0.76691378055E+00  0.90007731705E+02  0.89999992964E+02 0.  0.
         12    1    1    2    0    0 -0.86545937488E+00  0.23633994964E+00 -0.76691378055E+00  0.11802682950E+01  0.00000000000E+00 0. -1.
         11    1    3    3    0    0 -0.77866277405E+00 -0.63562389903E+01 -0.11738082478E+02  0.13371262855E+02  0.51100000000E-03 0. -1.
        -11    1    3    3    0    0  0.34639071339E+02 -0.13120723559E+02  0.23542340347E+01  0.37115509805E+02  0.51100000000E-03 0.  1.
         12    1    3    3    0    0 -0.32994949190E+02  0.19240622599E+02  0.10150762224E+02  0.39520959045E+02  0.00000000000E+00 0. -1.
</event>
<event>
 7    1  0.4358868E-015  0.9000774E+02  0.7816164E-02  0.1186339E+00
        -11   -1    0    0    0    0  0.00000000000E+00  0.00000000000E+00  0.45593999997E+02  0.45594000000E+02  0.51100000000E-03 0. -1.
         11   -1    0    0    0    0 -0.00000000000E+00 -0.00000000000E+00 -0.45593999997E+02  0.45594000000E+02  0.51100000000E-03 0.  1.
    9900012    2    1    2    0    0  0.86728014978E+00  0.19350221164E+00 -0.77678432936E+00  0.90007740766E+02  0.90000002145E+02 0.  0.
         12    1    1    2    0    0 -0.86728014978E+00 -0.19350221164E+00  0.77678432936E+00  0.11802592336E+01  0.00000000000E+00 0. -1.
         11    1    3    3    0    0 -0.63938707287E+01  0.33357697550E+01  0.72544484392E+01  0.10229172262E+02  0.51100000000E-03 0. -1.
        -11    1    3    3    0    0 -0.25988170536E+02 -0.24741125995E+02  0.84129370064E+01  0.36854929557E+02  0.51100000000E-03 0.  1.
         12    1    3    3    0    0  0.33249321414E+02  0.21598858452E+02 -0.16444169775E+02  0.42923638948E+02  0.00000000000E+00 0. -1.
</event>
<event>
 7    1  0.4358868E-015  0.9000771E+02  0.7816164E-02  0.1186339E+00
        -11   -1    0    0    0    0  0.00000000000E+00  0.00000000000E+00  0.45593999997E+02  0.45594000000E+02  0.51100000000E-03 0.  1.
         11   -1    0    0    0    0 -0.00000000000E+00 -0.00000000000E+00 -0.45593999997E+02  0.45594000000E+02  0.51100000000E-03 0. -1.
    9900012    2    1    2    0    0 -0.93456569461E+00 -0.42856624716E+00  0.57966686628E+00  0.90007705231E+02  0.89999966140E+02 0.  0.
         12    1    1    2    0    0  0.93456569461E+00  0.42856624716E+00 -0.57966686628E+00  0.11802947689E+01  0.00000000000E+00 0. -1.
         11    1    3    3    0    0  0.92438963362E+01 -0.30342121462E+02 -0.16017587520E+02  0.35533886145E+02  0.51100000000E-03 0. -1.
        -11    1    3    3    0    0 -0.36091438867E+01 -0.83142587915E+01 -0.47143450799E+01  0.10216548764E+02  0.51100000000E-03 0.  1.
        -12    1    3    3    0    0 -0.65693181441E+01  0.38227814007E+02  0.21311599466E+02  0.44257270323E+02  0.00000000000E+00 0.  1.
</event>
<event>
 7    1  0.4358868E-015  0.9000776E+02  0.7816164E-02  0.1186339E+00
        -11   -1    0    0    0    0  0.00000000000E+00  0.00000000000E+00  0.45593999997E+02  0.45594000000E+02  0.51100000000E-03 0. -1.
         11   -1    0    0    0    0 -0.00000000000E+00 -0.00000000000E+00 -0.45593999997E+02  0.45594000000E+02  0.51100000000E-03 0.  1.
    9900012    2    1    2    0    0 -0.88637825677E+00 -0.60234205217E+00  0.49445144803E+00  0.90007760789E+02  0.90000022431E+02 0.  0.
         12    1    1    2    0    0  0.88637825677E+00  0.60234205217E+00 -0.49445144803E+00  0.11802392115E+01  0.00000000000E+00 0. -1.
         11    1    3    3    0    0 -0.19595754856E+01  0.40927991259E+02  0.17394927886E+02  0.44514311418E+02  0.51100000000E-03 0. -1.
        -11    1    3    3    0    0  0.88995172103E+00 -0.72016034247E+01 -0.61738595920E+01  0.95274156242E+01  0.51100000000E-03 0.  1.
        -12    1    3    3    0    0  0.18324550784E+00 -0.34328729886E+02 -0.10726616846E+02  0.35966033747E+02  0.00000000000E+00 0.  1.
</event>
<event>
 7    1  0.4358868E-015  0.9000774E+02  0.7816164E-02  0.1186339E+00
        -11   -1    0    0    0    0  0.00000000000E+00  0.00000000000E+00  0.45593999997E+02  0.45594000000E+02  0.51100000000E-03 0.  1.
         11   -1    0    0    0    0 -0.00000000000E+00 -0.00000000000E+00 -0.45593999997E+02  0.45594000000E+02  0.51100000000E-03 0. -1.
    9900012    2    1    2    0    0 -0.93280834339E+00  0.63788002957E+00  0.34058317159E+00  0.90007737642E+02  0.89999998979E+02 0.  0.
         12    1    1    2    0    0  0.93280834339E+00 -0.63788002957E+00 -0.34058317159E+00  0.11802623583E+01  0.00000000000E+00 0. -1.
         11    1    3    3    0    0 -0.59415448144E+00  0.26187309931E+01 -0.10393256256E+02  0.10734549242E+02  0.51100000000E-03 0. -1.
        -11    1    3    3    0    0 -0.31713422852E+02  0.20545663354E+02  0.14483035115E+02  0.40467564519E+02  0.51100000000E-03 0.  1.
         12    1    3    3    0    0  0.31374768990E+02 -0.22526514318E+02 -0.37491956875E+01  0.38805623881E+02  0.00000000000E+00 0. -1.
</event>
<event>
 7    1  0.4358868E-015  0.9000776E+02  0.7816164E-02  0.1186339E+00
        -11   -1    0    0    0    0  0.00000000000E+00  0.00000000000E+00  0.45593999997E+02  0.45594000000E+02  0.51100000000E-03 0.  1.
         11   -1    0    0    0    0 -0.00000000000E+00 -0.00000000000E+00 -0.45593999997E+02  0.45594000000E+02  0.51100000000E-03 0. -1.
    9900012    2    1    2    0    0  0.86395841768E+00  0.18318344752E+00  0.78293276428E+00  0.90007761026E+02  0.90000022671E+02 0.  0.
         12    1    1    2    0    0 -0.86395841768E+00 -0.18318344752E+00 -0.78293276428E+00  0.11802389742E+01  0.00000000000E+00 0. -1.
         11    1    3    3    0    0  0.44077852879E+01  0.54596076544E+01  0.76705881934E+01  0.10395855442E+02  0.51100000000E-03 0. -1.
        -11    1    3    3    0    0  0.26260409025E+02  0.25340767735E+02 -0.50820951348E+01  0.36845505598E+02  0.51100000000E-03 0.  1.
         12    1    3    3    0    0 -0.29804235896E+02 -0.30617191942E+02 -0.18055602943E+01  0.42766399985E+02  0.00000000000E+00 0. -1.
</event>
<event>
 7    1  0.4358868E-015  0.9000780E+02  0.7816164E-02  0.1186339E+00
        -11   -1    0    0    0    0  0.00000000000E+00  0.00000000000E+00  0.45593999997E+02  0.45594000000E+02  0.51100000000E-03 0.  1.
         11   -1    0    0    0    0 -0.00000000000E+00 -0.00000000000E+00 -0.45593999997E+02  0.45594000000E+02  0.51100000000E-03 0. -1.
    9900012    2    1    2    0    0  0.34771504507E+00  0.11094210897E+01  0.20284462494E+00  0.90007802199E+02  0.90000064388E+02 0.  0.
         12    1    1    2    0    0 -0.34771504507E+00 -0.11094210897E+01 -0.20284462494E+00  0.11801978006E+01  0.00000000000E+00 0. -1.
         11    1    3    3    0    0  0.19558774213E+02 -0.14317636666E+02 -0.33370076921E+02  0.41244422682E+02  0.51100000000E-03 0. -1.
        -11    1    3    3    0    0 -0.73024595082E+01 -0.43649039544E+01  0.63192214789E+00  0.85309804397E+01  0.51100000000E-03 0.  1.
        -12    1    3    3    0    0 -0.11908599660E+02  0.19791961710E+02  0.32940999398E+02  0.40232399077E+02  0.00000000000E+00 0.  1.
</event>
<event>
 7    1  0.4358868E-015  0.9000777E+02  0.7816164E-02  0.1186339E+00
        -11   -1    0    0    0    0  0.00000000000E+00  0.00000000000E+00  0.45593999997E+02  0.45594000000E+02  0.51100000000E-03 0.  1.
         11   -1    0    0    0    0 -0.00000000000E+00 -0.00000000000E+00 -0.45593999997E+02  0.45594000000E+02  0.51100000000E-03 0. -1.
    9900012    2    1    2    0    0 -0.47715244871E+00  0.10076550513E+01  0.38717693629E+00  0.90007767336E+02  0.90000029065E+02 0.  0.
         12    1    1    2    0    0  0.47715244871E+00 -0.10076550513E+01 -0.38717693629E+00  0.11802326642E+01  0.00000000000E+00 0. -1.
         11    1    3    3    0    0  0.68083582631E+01 -0.19994373065E+02 -0.31912632324E+02  0.38269371547E+02  0.51100000000E-03 0. -1.
        -11    1    3    3    0    0  0.53832031191E+01  0.20170292510E+01 -0.52571890252E+01  0.77900782749E+01  0.51100000000E-03 0.  1.
        -12    1    3    3    0    0 -0.12668713831E+02  0.18984998865E+02  0.37556998286E+02  0.43948317514E+02  0.00000000000E+00 0.  1.
</event>
<event>
 7    1  0.4358868E-015  0.9000784E+02  0.7816164E-02  0.1186339E+00
        -11   -1    0    0    0    0  0.00000000000E+00  0.00000000000E+00  0.45593999997E+02  0.45594000000E+02  0.51100000000E-03 0.  1.
         11   -1    0    0    0    0 -0.00000000000E+00 -0.00000000000E+00 -0.45593999997E+02  0.45594000000E+02  0.51100000000E-03 0. -1.
    9900012    2    1    2    0    0  0.30724892025E-01 -0.74904330973E+00  0.91146519790E+00  0.90007839542E+02  0.90000102224E+02 0.  0.
         12    1    1    2    0    0 -0.30724892025E-01  0.74904330973E+00 -0.91146519790E+00  0.11801604577E+01  0.00000000000E+00 0. -1.
         11    1    3    3    0    0  0.10986332137E+02 -0.37005995468E+02  0.88789557278E+01  0.39610340184E+02  0.51100000000E-03 0. -1.
        -11    1    3    3    0    0 -0.39635961407E+00 -0.48205241219E+01 -0.63122261606E+01  0.79522797434E+01  0.51100000000E-03 0.  1.
        -12    1    3    3    0    0 -0.10559247631E+02  0.41077476280E+02 -0.16552643693E+01  0.42445219615E+02  0.00000000000E+00 0.  1.
</event>
<event>
 7    1  0.4358868E-015  0.9000773E+02  0.7816164E-02  0.1186339E+00
        -11   -1    0    0    0    0  0.00000000000E+00  0.00000000000E+00  0.45593999997E+02  0.45594000000E+02  0.51100000000E-03 0.  1.
         11   -1    0    0    0    0 -0.00000000000E+00 -0.00000000000E+00 -0.45593999997E+02  0.45594000000E+02  0.51100000000E-03 0. -1.
    9900012    2    1    2    0    0 -0.10187654851E+01  0.46990745642E-01 -0.59408926992E+00  0.90007731681E+02  0.89999992939E+02 0.  0.
         12    1    1    2    0    0  0.10187654851E+01 -0.46990745642E-01  0.59408926992E+00  0.11802683188E+01  0.00000000000E+00 0. -1.
         11    1    3    3    0    0 -0.89832641667E+01 -0.10739668715E+02  0.30643732205E+01  0.14332826054E+02  0.51100000000E-03 0. -1.
        -11    1    3    3    0    0  0.38308829933E+02 -0.46368177036E+01 -0.12399013766E+02  0.40531494814E+02  0.51100000000E-03 0.  1.
         12    1    3    3    0    0 -0.30344331251E+02  0.15423477165E+02  0.87405512755E+01  0.35143410813E+02  0.00000000000E+00 0. -1.
</event>
<event>
 7    1  0.4358868E-015  0.9000765E+02  0.7816164E-02  0.1186339E+00
        -11   -1    0    0    0    0  0.00000000000E+00  0.00000000000E+00  0.45593999997E+02  0.45594000000E+02  0.51100000000E-03 0. -1.
         11   -1    0    0    0    0 -0.00000000000E+00 -0.00000000000E+00 -0.45593999997E+02  0.45594000000E+02  0.51100000000E-03 0.  1.
    9900012    2    1    2    0    0  0.21263153601E+00  0.11316717478E+01 -0.25947856211E+00  0.90007651645E+02  0.89999911847E+02 0.  0.
         12    1    1    2    0    0 -0.21263153601E+00 -0.11316717478E+01  0.25947856211E+00  0.11803483549E+01  0.00000000000E+00 0. -1.
         11    1    3    3    0    0  0.66361564187E+01 -0.79531960554E+01  0.80193048286E+01  0.13099662198E+02  0.51100000000E-03 0. -1.
        -11    1    3    3    0    0  0.54864499588E+01  0.95170849668E+01 -0.40809884249E+02  0.42262544790E+02  0.51100000000E-03 0.  1.
         12    1    3    3    0    0 -0.11909974841E+02 -0.43221716363E+00  0.32531100859E+02  0.34645444657E+02  0.00000000000E+00 0. -1.
</event>
<event>
 7    1  0.4358868E-015  0.9000769E+02  0.7816164E-02  0.1186339E+00
        -11   -1    0    0    0    0  0.00000000000E+00  0.00000000000E+00  0.45593999997E+02  0.45594000000E+02  0.51100000000E-03 0.  1.
         11   -1    0    0    0    0 -0.00000000000E+00 -0.00000000000E+00 -0.45593999997E+02  0.45594000000E+02  0.51100000000E-03 0. -1.
    9900012    2    1    2    0    0 -0.16777610616E-01  0.11628302302E+01 -0.20167535611E+00  0.90007691319E+02  0.89999952045E+02 0.  0.
         12    1    1    2    0    0  0.16777610616E-01 -0.11628302302E+01  0.20167535611E+00  0.11803086807E+01  0.00000000000E+00 0. -1.
         11    1    3    3    0    0  0.13171456536E+01 -0.34445504307E+02  0.26969062871E+01  0.34576016882E+02  0.51100000000E-03 0. -1.
        -11    1    3    3    0    0  0.90326410257E+01 -0.59708886871E+01 -0.61570976501E+01  0.12455920975E+02  0.51100000000E-03 0.  1.
        -12    1    3    3    0    0 -0.10366564290E+02  0.41579223224E+02  0.32585160069E+01  0.42975753462E+02  0.00000000000E+00 0.  1.
</event>
<event>
 7    1  0.4358868E-015  0.9000756E+02  0.7816164E-02  0.1186339E+00
        -11   -1    0    0    0    0  0.00000000000E+00  0.00000000000E+00  0.45593999997E+02  0.45594000000E+02  0.51100000000E-03 0. -1.
         11   -1    0    0    0    0 -0.00000000000E+00 -0.00000000000E+00 -0.45593999997E+02  0.45594000000E+02  0.51100000000E-03 0.  1.
    9900012    2    1    2    0    0  0.38764117452E+00  0.10582633384E+01 -0.35107819121E+00  0.90007558189E+02  0.89999817157E+02 0.  0.
         12    1    1    2    0    0 -0.38764117452E+00 -0.10582633384E+01  0.35107819121E+00  0.11804418113E+01  0.00000000000E+00 0. -1.
         11    1    3    3    0    0 -0.22225959241E+02  0.22784362158E+02  0.17599327595E+02  0.36371097800E+02  0.51100000000E-03 0. -1.
        -11    1    3    3    0    0 -0.55424431736E+01  0.78775460859E+01 -0.24398160305E+01  0.99361517295E+01  0.51100000000E-03 0.  1.
        -12    1    3    3    0    0  0.28156043589E+02 -0.29603644906E+02 -0.15510589756E+02  0.43700308659E+02  0.00000000000E+00 0.  1.
</event>
<event>
 7    1  0.4358868E-015  0.9000770E+02  0.7816164E-02  0.1186339E+00
        -11   -1    0    0    0    0  0.00000000000E+00  0.00000000000E+00  0.45593999997E+02  0.45594000000E+02  0.51100000000E-03 0.  1.
         11   -1    0    0    0    0 -0.00000000000E+00 -0.00000000000E+00 -0.45593999997E+02  0.45594000000E+02  0.51100000000E-03 0. -1.
    9900012    2    1    2    0    0  0.21994445068E+00  0.48508826927E+00  0.10532957898E+01  0.90007695712E+02  0.89999956496E+02 0.  0.
         12    1    1    2    0    0 -0.21994445068E+00 -0.48508826927E+00 -0.10532957898E+01  0.11803042875E+01  0.00000000000E+00 0. -1.
         11    1    3    3    0    0  0.37830338534E+01  0.38463108248E+02 -0.77904311469E+01  0.39426042902E+02  0.51100000000E-03 0. -1.
        -11    1    3    3    0    0  0.88742540660E+01  0.72014237491E+00  0.35731976549E+01  0.95936818797E+01  0.51100000000E-03 0.  1.
        -12    1    3    3    0    0 -0.12437343469E+02 -0.38698162353E+02  0.52705292818E+01  0.40987970930E+02  0.00000000000E+00 0.  1.
</event>
<event>
 7    1  0.4358868E-015  0.9000776E+02  0.7816164E-02  0.1186339E+00
        -11   -1    0    0    0    0  0.00000000000E+00  0.00000000000E+00  0.45593999997E+02  0.45594000000E+02  0.51100000000E-03 0. -1.
         11   -1    0    0    0    0 -0.00000000000E+00 -0.00000000000E+00 -0.45593999997E+02  0.45594000000E+02  0.51100000000E-03 0.  1.
    9900012    2    1    2    0    0  0.13515227605E-01 -0.69081860032E+00 -0.95685120517E+00  0.90007755437E+02  0.90000017009E+02 0.  0.
         12    1    1    2    0    0 -0.13515227605E-01  0.69081860032E+00  0.95685120517E+00  0.11802445631E+01  0.00000000000E+00 0. -1.
         11    1    3    3    0    0 -0.12831150387E+02 -0.33883523762E+02 -0.18214241532E+02  0.40552314332E+02  0.51100000000E-03 0. -1.
        -11    1    3    3    0    0  0.73355145718E+01 -0.22795527447E+01 -0.29883054506E+01  0.82423361055E+01  0.51100000000E-03 0.  1.
        -12    1    3    3    0    0  0.55091510429E+01  0.35472257906E+02  0.20245695778E+02  0.41213105000E+02  0.00000000000E+00 0.  1.
</event>
<event>
 7    1  0.4358868E-015  0.9000776E+02  0.7816164E-02  0.1186339E+00
        -11   -1    0    0    0    0  0.00000000000E+00  0.00000000000E+00  0.45593999997E+02  0.45594000000E+02  0.51100000000E-03 0.  1.
         11   -1    0    0    0    0 -0.00000000000E+00 -0.00000000000E+00 -0.45593999997E+02  0.45594000000E+02  0.51100000000E-03 0. -1.
    9900012    2    1    2    0    0  0.38532075264E+00  0.10057552624E+01  0.48264692146E+00  0.90007761134E+02  0.90000022781E+02 0.  0.
         12    1    1    2    0    0 -0.38532075264E+00 -0.10057552624E+01 -0.48264692146E+00  0.11802388661E+01  0.00000000000E+00 0. -1.
         11    1    3    3    0    0  0.50445734498E+01  0.38868660427E+02  0.32898441684E+01  0.39332474619E+02  0.51100000000E-03 0. -1.
        -11    1    3    3    0    0 -0.70016798192E+01  0.33680685651E+01  0.41301774715E+01  0.87991915741E+01  0.51100000000E-03 0.  1.
        -12    1    3    3    0    0  0.23424271221E+01 -0.41230973730E+02 -0.69373747184E+01  0.41876094941E+02  0.00000000000E+00 0.  1.
</event>
<event>
 7    1  0.4358868E-015  0.9000772E+02  0.7816164E-02  0.1186339E+00
        -11   -1    0    0    0    0  0.00000000000E+00  0.00000000000E+00  0.45593999997E+02  0.45594000000E+02  0.51100000000E-03 0.  1.
         11   -1    0    0    0    0 -0.00000000000E+00 -0.00000000000E+00 -0.45593999997E+02  0.45594000000E+02  0.51100000000E-03 0. -1.
    9900012    2    1    2    0    0  0.45472129915E+00  0.26548955599E+00  0.10563206638E+01  0.90007716344E+02  0.89999977400E+02 0.  0.
         12    1    1    2    0    0 -0.45472129915E+00 -0.26548955599E+00 -0.10563206638E+01  0.11802836562E+01  0.00000000000E+00 0. -1.
         11    1    3    3    0    0 -0.60201051998E+01 -0.92390717893E+01  0.12354086652E+01  0.11096321416E+02  0.51100000000E-03 0. -1.
        -11    1    3    3    0    0 -0.33612446541E+02  0.12291794655E+02  0.10564131092E+02  0.37316023962E+02  0.51100000000E-03 0.  1.
         12    1    3    3    0    0  0.40087273040E+02 -0.27872333101E+01 -0.10743219094E+02  0.41595370966E+02  0.00000000000E+00 0. -1.
</event>
<event>
 7    1  0.4358868E-015  0.9000777E+02  0.7816164E-02  0.1186339E+00
        -11   -1    0    0    0    0  0.00000000000E+00  0.00000000000E+00  0.45593999997E+02  0.45594000000E+02  0.51100000000E-03 0.  1.
         11   -1    0    0    0    0 -0.00000000000E+00 -0.00000000000E+00 -0.45593999997E+02  0.45594000000E+02  0.51100000000E-03 0. -1.
    9900012    2    1    2    0    0  0.27626095027E+00 -0.64946307568E+00  0.94594621912E+00  0.90007772628E+02  0.90000034427E+02 0.  0.
         12    1    1    2    0    0 -0.27626095027E+00  0.64946307568E+00 -0.94594621912E+00  0.11802273716E+01  0.00000000000E+00 0. -1.
         11    1    3    3    0    0  0.10777065630E+02 -0.10910228308E+02  0.45736416999E+01  0.16003012966E+02  0.51100000000E-03 0. -1.
        -11    1    3    3    0    0 -0.15337036684E+01  0.32061604063E+02  0.22207213083E+02  0.39031513105E+02  0.51100000000E-03 0.  1.
         12    1    3    3    0    0 -0.89671010109E+01 -0.21800838831E+02 -0.25834908564E+02  0.34973246558E+02  0.00000000000E+00 0. -1.
</event>
<event>
 7    1  0.4358868E-015  0.9000774E+02  0.7816164E-02  0.1186339E+00
        -11   -1    0    0    0    0  0.00000000000E+00  0.00000000000E+00  0.45593999997E+02  0.45594000000E+02  0.51100000000E-03 0. -1.
         11   -1    0    0    0    0 -0.00000000000E+00 -0.00000000000E+00 -0.45593999997E+02  0.45594000000E+02  0.51100000000E-03 0.  1.
    9900012    2    1    2    0    0 -0.51383569662E+00 -0.49472858272E+00 -0.94033482429E+00  0.90007740251E+02  0.90000001622E+02 0.  0.
         12    1    1    2    0    0  0.51383569662E+00  0.49472858272E+00  0.94033482429E+00  0.11802597491E+01  0.00000000000E+00 0. -1.
         11    1    3    3    0    0 -0.27215847512E+01 -0.44892671752E+01 -0.90116413607E+01  0.10429296410E+02  0.51100000000E-03 0. -1.
        -11    1    3    3    0    0 -0.26066929031E+02  0.29190405320E+02 -0.51333416685E+01  0.39470441457E+02  0.51100000000E-03 0.  1.
         12    1    3    3    0    0  0.28274678086E+02 -0.25195866728E+02  0.13204648205E+02  0.40108002384E+02  0.00000000000E+00 0. -1.
</event>
<event>
 7    1  0.4358868E-015  0.9000780E+02  0.7816164E-02  0.1186339E+00
        -11   -1    0    0    0    0  0.00000000000E+00  0.00000000000E+00  0.45593999997E+02  0.45594000000E+02  0.51100000000E-03 0.  1.
         11   -1    0    0    0    0 -0.00000000000E+00 -0.00000000000E+00 -0.45593999997E+02  0.45594000000E+02  0.51100000000E-03 0. -1.
    9900012    2    1    2    0    0  0.53867361153E+00 -0.50236452645E+00  0.92213427943E+00  0.90007800438E+02  0.90000062604E+02 0.  0.
         12    1    1    2    0    0 -0.53867361153E+00  0.50236452645E+00 -0.92213427943E+00  0.11801995622E+01  0.00000000000E+00 0. -1.
         11    1    3    3    0    0 -0.16562640274E+02 -0.24662639328E+02 -0.25844692460E+02  0.39376578827E+02  0.51100000000E-03 0. -1.
        -11    1    3    3    0    0  0.99341857150E+01 -0.41644636740E+01 -0.33842204559E+00  0.10777074429E+02  0.51100000000E-03 0.  1.
        -12    1    3    3    0    0  0.71671281709E+01  0.28324738475E+02  0.27105248785E+02  0.39854147182E+02  0.00000000000E+00 0.  1.
</event>
<event>
 7    1  0.4358868E-015  0.9000781E+02  0.7816164E-02  0.1186339E+00
        -11   -1    0    0    0    0  0.00000000000E+00  0.00000000000E+00  0.45593999997E+02  0.45594000000E+02  0.51100000000E-03 0.  1.
         11   -1    0    0    0    0 -0.00000000000E+00 -0.00000000000E+00 -0.45593999997E+02  0.45594000000E+02  0.51100000000E-03 0. -1.
    9900012    2    1    2    0    0 -0.24919778564E+00 -0.26083134838E+00  0.11237097683E+01  0.90007806723E+02  0.90000068971E+02 0.  0.
         12    1    1    2    0    0  0.24919778564E+00  0.26083134838E+00 -0.11237097683E+01  0.11801932774E+01  0.00000000000E+00 0. -1.
         11    1    3    3    0    0 -0.66035718841E+01 -0.96620978500E+01 -0.63433782398E+01  0.13311714549E+02  0.51100000000E-03 0. -1.
        -11    1    3    3    0    0 -0.32312934654E+02  0.17538439520E+02  0.50097356369E+01  0.37105525979E+02  0.51100000000E-03 0.  1.
         12    1    3    3    0    0  0.38667308753E+02 -0.81371730187E+01  0.24573523712E+01  0.39590566194E+02  0.00000000000E+00 0. -1.
</event>
<event>
 7    1  0.4358868E-015  0.9000783E+02  0.7816164E-02  0.1186339E+00
        -11   -1    0    0    0    0  0.00000000000E+00  0.00000000000E+00  0.45593999997E+02  0.45594000000E+02  0.51100000000E-03 0. -1.
         11   -1    0    0    0    0 -0.00000000000E+00 -0.00000000000E+00 -0.45593999997E+02  0.45594000000E+02  0.51100000000E-03 0.  1.
    9900012    2    1    2    0    0  0.43421854632E+00 -0.16013322842E+00 -0.10856360222E+01  0.90007833076E+02  0.90000095672E+02 0.  0.
         12    1    1    2    0    0 -0.43421854632E+00  0.16013322842E+00  0.10856360222E+01  0.11801669245E+01  0.00000000000E+00 0. -1.
         11    1    3    3    0    0  0.82429465815E+00 -0.61015073230E+01 -0.77608428486E+01  0.99064895537E+01  0.51100000000E-03 0. -1.
        -11    1    3    3    0    0  0.28222951686E+02 -0.13518111087E+02 -0.19359806277E+02  0.36797777495E+02  0.51100000000E-03 0.  1.
         12    1    3    3    0    0 -0.28613027798E+02  0.19459485182E+02  0.26035013103E+02  0.43303566026E+02  0.00000000000E+00 0. -1.
</event>
<event>
 7    1  0.4358868E-015  0.9000756E+02  0.7816164E-02  0.1186339E+00
        -11   -1    0    0    0    0  0.00000000000E+00  0.00000000000E+00  0.45593999997E+02  0.45594000000E+02  0.51100000000E-03 0.  1.
         11   -1    0    0    0    0 -0.00000000000E+00 -0.00000000000E+00 -0.45593999997E+02  0.45594000000E+02  0.51100000000E-03 0. -1.
    9900012    2    1    2    0    0  0.61702393322E+00 -0.99093575521E+00 -0.17542520955E+00  0.90007556774E+02  0.89999815723E+02 0.  0.
         12    1    1    2    0    0 -0.61702393322E+00  0.99093575521E+00  0.17542520955E+00  0.11804432258E+01  0.00000000000E+00 0. -1.
         11    1    3    3    0    0  0.39178964201E+01 -0.57558426010E+01  0.71027864217E+01  0.99463164850E+01  0.51100000000E-03 0. -1.
        -11    1    3    3    0    0  0.25185358065E+02 -0.25418740974E+02  0.64233286181E+01  0.36354831926E+02  0.51100000000E-03 0.  1.
         12    1    3    3    0    0 -0.28486230552E+02  0.30183647820E+02 -0.13701540249E+02  0.43706408363E+02  0.00000000000E+00 0. -1.
</event>
<event>
 7    1  0.4358868E-015  0.9000772E+02  0.7816164E-02  0.1186339E+00
        -11   -1    0    0    0    0  0.00000000000E+00  0.00000000000E+00  0.45593999997E+02  0.45594000000E+02  0.51100000000E-03 0. -1.
         11   -1    0    0    0    0 -0.00000000000E+00 -0.00000000000E+00 -0.45593999997E+02  0.45594000000E+02  0.51100000000E-03 0.  1.
    9900012    2    1    2    0    0 -0.79459517915E+00 -0.63048708460E+00 -0.60346254836E+00  0.90007719309E+02  0.89999980404E+02 0.  0.
         12    1    1    2    0    0  0.79459517915E+00  0.63048708460E+00  0.60346254836E+00  0.11802806911E+01  0.00000000000E+00 0. -1.
         11    1    3    3    0    0  0.16149205213E+01 -0.29887097917E+01  0.91101575820E+01  0.97229278481E+01  0.51100000000E-03 0. -1.
        -11    1    3    3    0    0 -0.27477459634E+00  0.38596189321E+02  0.87228069042E+01  0.39570553341E+02  0.51100000000E-03 0.  1.
         12    1    3    3    0    0 -0.21347411041E+01 -0.36237966614E+02 -0.18436427035E+02  0.40714238120E+02  0.00000000000E+00 0. -1.
</event>
<event>
 7    1  0.4358868E-015  0.9000770E+02  0.7816164E-02  0.1186339E+00
        -11   -1    0    0    0    0  0.00000000000E+00  0.00000000000E+00  0.45593999997E+02  0.45594000000E+02  0.51100000000E-03 0.  1.
         11   -1    0    0    0    0 -0.00000000000E+00 -0.00000000000E+00 -0.45593999997E+02  0.45594000000E+02  0.51100000000E-03 0. -1.
    9900012    2    1    2    0    0  0.96574478671E+00 -0.53666390813E+00  0.41526803256E+00  0.90007695513E+02  0.89999956294E+02 0.  0.
         12    1    1    2    0    0 -0.96574478671E+00  0.53666390813E+00 -0.41526803256E+00  0.11803044871E+01  0.00000000000E+00 0. -1.
         11    1    3    3    0    0  0.92088236031E+01 -0.23321862738E+01 -0.40040437959E+01  0.10308922929E+02  0.51100000000E-03 0. -1.
        -11    1    3    3    0    0  0.13580315036E+02  0.32523591747E+02  0.18078052272E+02  0.39610919591E+02  0.51100000000E-03 0.  1.
         12    1    3    3    0    0 -0.21823393852E+02 -0.30728069381E+02 -0.13658740443E+02  0.40087852994E+02  0.00000000000E+00 0. -1.
</event>
<event>
 7    1  0.4358868E-015  0.9000774E+02  0.7816164E-02  0.1186339E+00
        -11   -1    0    0    0    0  0.00000000000E+00  0.00000000000E+00  0.45593999997E+02  0.45594000000E+02  0.51100000000E-03 0. -1.
         11   -1    0    0    0    0 -0.00000000000E+00 -0.00000000000E+00 -0.45593999997E+02  0.45594000000E+02  0.51100000000E-03 0.  1.
    9900012    2    1    2    0    0  0.38980561275E-01 -0.32953678704E+00 -0.11326535900E+01  0.90007738108E+02  0.89999999451E+02 0.  0.
         12    1    1    2    0    0 -0.38980561275E-01  0.32953678704E+00  0.11326535900E+01  0.11802618917E+01  0.00000000000E+00 0. -1.
         11    1    3    3    0    0  0.39650875492E+01  0.16105557049E+01 -0.23117309135E+02  0.23510121030E+02  0.51100000000E-03 0. -1.
        -11    1    3    3    0    0 -0.77079503484E+01 -0.31584139181E+02  0.78822505507E+01  0.33452955331E+02  0.51100000000E-03 0.  1.
         12    1    3    3    0    0  0.37818433605E+01  0.29644046689E+02  0.14102404994E+02  0.33044661747E+02  0.00000000000E+00 0. -1.
</event>
<event>
 7    1  0.4358868E-015  0.9000779E+02  0.7816164E-02  0.1186339E+00
        -11   -1    0    0    0    0  0.00000000000E+00  0.00000000000E+00  0.45593999997E+02  0.45594000000E+02  0.51100000000E-03 0. -1.
         11   -1    0    0    0    0 -0.00000000000E+00 -0.00000000000E+00 -0.45593999997E+02  0.45594000000E+02  0.51100000000E-03 0.  1.
    9900012    2    1    2    0    0 -0.93681732122E+00  0.10537777107E+00 -0.71005288070E+00  0.90007785502E+02  0.90000047471E+02 0.  0.
         12    1    1    2    0    0  0.93681732122E+00 -0.10537777107E+00  0.71005288070E+00  0.11802144980E+01  0.00000000000E+00 0. -1.
         11    1    3    3    0    0 -0.13073784618E+02 -0.30902144954E+02 -0.11556641305E+02  0.35488341262E+02  0.51100000000E-03 0. -1.
        -11    1    3    3    0    0 -0.62572166912E+01  0.14815115864E+02 -0.12732144415E+02  0.20512140806E+02  0.51100000000E-03 0.  1.
         12    1    3    3    0    0  0.18394183988E+02  0.16192406861E+02  0.23578732840E+02  0.34007303434E+02  0.00000000000E+00 0. -1.
</event>
<event>
 7    1  0.4358868E-015  0.9000745E+02  0.7816164E-02  0.1186340E+00
        -11   -1    0    0    0    0  0.00000000000E+00  0.00000000000E+00  0.45593999997E+02  0.45594000000E+02  0.51100000000E-03 0.  1.
         11   -1    0    0    0    0 -0.00000000000E+00 -0.00000000000E+00 -0.45593999997E+02  0.45594000000E+02  0.51100000000E-03 0. -1.
    9900012    2    1    2    0    0 -0.99961970213E+00  0.21955251903E+00  0.58844141538E+00  0.90007446673E+02  0.89999704169E+02 0.  0.
         12    1    1    2    0    0  0.99961970213E+00 -0.21955251903E+00 -0.58844141538E+00  0.11805533266E+01  0.00000000000E+00 0. -1.
         11    1    3    3    0    0  0.16960492901E+02  0.26797617009E+02  0.18345309839E+02  0.36637699029E+02  0.51100000000E-03 0. -1.
        -11    1    3    3    0    0  0.40741182226E+00  0.94093783988E+01 -0.48957497547E+00  0.94309103571E+01  0.51100000000E-03 0.  1.
        -12    1    3    3    0    0 -0.18367524425E+02 -0.35987442888E+02 -0.17267293448E+02  0.43938837288E+02  0.00000000000E+00 0.  1.
</event>
<event>
 7    1  0.4358868E-015  0.9000768E+02  0.7816164E-02  0.1186339E+00
        -11   -1    0    0    0    0  0.00000000000E+00  0.00000000000E+00  0.45593999997E+02  0.45594000000E+02  0.51100000000E-03 0.  1.
         11   -1    0    0    0    0 -0.00000000000E+00 -0.00000000000E+00 -0.45593999997E+02  0.45594000000E+02  0.51100000000E-03 0. -1.
    9900012    2    1    2    0    0  0.10367065654E+00 -0.99929605203E+00  0.61953654760E+00  0.90007675579E+02  0.89999936097E+02 0.  0.
         12    1    1    2    0    0 -0.10367065654E+00  0.99929605203E+00 -0.61953654760E+00  0.11803244208E+01  0.00000000000E+00 0. -1.
         11    1    3    3    0    0  0.49081202745E+01 -0.16038060859E+02 -0.11188224813E+02  0.20161483464E+02  0.51100000000E-03 0. -1.
        -11    1    3    3    0    0  0.25156180911E+02 -0.78389487162E+01 -0.76321035817E+01  0.27432308695E+02  0.51100000000E-03 0.  1.
         12    1    3    3    0    0 -0.29960630529E+02  0.22877713523E+02  0.19439864943E+02  0.42413883420E+02  0.00000000000E+00 0. -1.
</event>
<event>
 7    1  0.4358868E-015  0.9000760E+02  0.7816164E-02  0.1186339E+00
        -11   -1    0    0    0    0  0.00000000000E+00  0.00000000000E+00  0.45593999997E+02  0.45594000000E+02  0.51100000000E-03 0. -1.
         11   -1    0    0    0    0 -0.00000000000E+00 -0.00000000000E+00 -0.45593999997E+02  0.45594000000E+02  0.51100000000E-03 0.  1.
    9900012    2    1    2    0    0 -0.81193181612E+00  0.61942832574E+00 -0.59195698989E+00  0.90007602693E+02  0.89999862248E+02 0.  0.
         12    1    1    2    0    0  0.81193181612E+00 -0.61942832574E+00  0.59195698989E+00  0.11803973071E+01  0.00000000000E+00 0. -1.
         11    1    3    3    0    0 -0.34416754195E+01 -0.56996292665E+01  0.28236677813E+01  0.72321506807E+01  0.51100000000E-03 0. -1.
        -11    1    3    3    0    0 -0.37312611355E+02  0.12322215358E+02 -0.12766001593E+02  0.41316325520E+02  0.51100000000E-03 0.  1.
         12    1    3    3    0    0  0.39942354959E+02 -0.60031577658E+01  0.93503768222E+01  0.41459126493E+02  0.00000000000E+00 0. -1.
</event>
<event>
 7    1  0.4358868E-015  0.9000774E+02  0.7816164E-02  0.1186339E+00
        -11   -1    0    0    0    0  0.00000000000E+00  0.00000000000E+00  0.45593999997E+02  0.45594000000E+02  0.51100000000E-03 0. -1.
         11   -1    0    0    0    0 -0.00000000000E+00 -0.00000000000E+00 -0.45593999997E+02  0.45594000000E+02  0.51100000000E-03 0.  1.
    9900012    2    1    2    0    0 -0.93989013802E+00 -0.67851154752E+00 -0.22192296221E+00  0.90007736812E+02  0.89999998138E+02 0.  0.
         12    1    1    2    0    0  0.93989013802E+00  0.67851154752E+00  0.22192296221E+00  0.11802631880E+01  0.00000000000E+00 0. -1.
         11    1    3    3    0    0  0.40235695351E+01  0.54344431176E+01 -0.71290426090E+01  0.98257586264E+01  0.51100000000E-03 0. -1.
        -11    1    3    3    0    0  0.21105840031E+02  0.27597070884E+02 -0.68312343129E+01  0.35407916732E+02  0.51100000000E-03 0.  1.
         12    1    3    3    0    0 -0.26069299704E+02 -0.33710025549E+02  0.13738353960E+02  0.44774061454E+02  0.00000000000E+00 0. -1.
</event>
<event>
 7    1  0.4358868E-015  0.9000776E+02  0.7816164E-02  0.1186339E+00
        -11   -1    0    0    0    0  0.00000000000E+00  0.00000000000E+00  0.45593999997E+02  0.45594000000E+02  0.51100000000E-03 0. -1.
         11   -1    0    0    0    0 -0.00000000000E+00 -0.00000000000E+00 -0.45593999997E+02  0.45594000000E+02  0.51100000000E-03 0.  1.
    9900012    2    1    2    0    0 -0.24416907160E+00 -0.94490133337E-01 -0.11508348235E+01  0.90007759469E+02  0.90000021094E+02 0.  0.
         12    1    1    2    0    0  0.24416907160E+00  0.94490133337E-01  0.11508348235E+01  0.11802405313E+01  0.00000000000E+00 0. -1.
         11    1    3    3    0    0  0.48928093137E+01  0.69210154367E+01 -0.30142473648E+01  0.89958726699E+01  0.51100000000E-03 0. -1.
        -11    1    3    3    0    0  0.29995368446E+02  0.58959220400E+01  0.22789782602E+02  0.38129492734E+02  0.51100000000E-03 0.  1.
         12    1    3    3    0    0 -0.35132346831E+02 -0.12911427610E+02 -0.20926370060E+02  0.42882394064E+02  0.00000000000E+00 0. -1.
</event>
<event>
 7    1  0.4358868E-015  0.9000792E+02  0.7816164E-02  0.1186339E+00
        -11   -1    0    0    0    0  0.00000000000E+00  0.00000000000E+00  0.45593999997E+02  0.45594000000E+02  0.51100000000E-03 0. -1.
         11   -1    0    0    0    0 -0.00000000000E+00 -0.00000000000E+00 -0.45593999997E+02  0.45594000000E+02  0.51100000000E-03 0.  1.
    9900012    2    1    2    0    0 -0.25828145166E+00  0.10621965078E+01  0.44454427588E+00  0.90007919349E+02  0.90000183084E+02 0.  0.
         12    1    1    2    0    0  0.25828145166E+00 -0.10621965078E+01 -0.44454427588E+00  0.11800806510E+01  0.00000000000E+00 0. -1.
         11    1    3    3    0    0 -0.42380621841E+01  0.40092327599E+02  0.12457882511E+02  0.42196620011E+02  0.51100000000E-03 0. -1.
        -11    1    3    3    0    0 -0.62937582813E+01 -0.14626086826E+01 -0.51533052416E+01  0.82648153419E+01  0.51100000000E-03 0.  1.
        -12    1    3    3    0    0  0.10273539014E+02 -0.37567522409E+02 -0.68600329932E+01  0.39546483996E+02  0.00000000000E+00 0.  1.
</event>
<event>
 7    1  0.4358868E-015  0.9000771E+02  0.7816164E-02  0.1186339E+00
        -11   -1    0    0    0    0  0.00000000000E+00  0.00000000000E+00  0.45593999997E+02  0.45594000000E+02  0.51100000000E-03 0. -1.
         11   -1    0    0    0    0 -0.00000000000E+00 -0.00000000000E+00 -0.45593999997E+02  0.45594000000E+02  0.51100000000E-03 0.  1.
    9900012    2    1    2    0    0  0.16311545096E+00 -0.55761350066E+00 -0.10274022762E+01  0.90007705586E+02  0.89999966500E+02 0.  0.
         12    1    1    2    0    0 -0.16311545096E+00  0.55761350066E+00  0.10274022762E+01  0.11802944139E+01  0.00000000000E+00 0. -1.
         11    1    3    3    0    0 -0.16118206528E+02  0.37695001497E+02 -0.76081574750E+00  0.41003518879E+02  0.51100000000E-03 0. -1.
        -11    1    3    3    0    0  0.86472391474E+01 -0.55250258911E+00  0.52712801967E+01  0.10142307388E+02  0.51100000000E-03 0.  1.
        -12    1    3    3    0    0  0.76340828320E+01 -0.37700112409E+02 -0.55378667254E+01  0.38861879319E+02  0.00000000000E+00 0.  1.
</event>
<event>
 7    1  0.4358868E-015  0.9000772E+02  0.7816164E-02  0.1186339E+00
        -11   -1    0    0    0    0  0.00000000000E+00  0.00000000000E+00  0.45593999997E+02  0.45594000000E+02  0.51100000000E-03 0.  1.
         11   -1    0    0    0    0 -0.00000000000E+00 -0.00000000000E+00 -0.45593999997E+02  0.45594000000E+02  0.51100000000E-03 0. -1.
    9900012    2    1    2    0    0  0.11335611989E+01  0.98379744796E-02  0.32864915072E+00  0.90007716965E+02  0.89999978029E+02 0.  0.
         12    1    1    2    0    0 -0.11335611989E+01 -0.98379744796E-02 -0.32864915072E+00  0.11802830346E+01  0.00000000000E+00 0. -1.
         11    1    3    3    0    0  0.25991444951E+02 -0.34089229294E+02 -0.27208640719E+01  0.42953857406E+02  0.51100000000E-03 0. -1.
        -11    1    3    3    0    0 -0.58399798681E+01  0.26202698113E+01  0.76667573685E+01  0.99875095771E+01  0.51100000000E-03 0.  1.
        -12    1    3    3    0    0 -0.19017903884E+02  0.31478797458E+02 -0.46172441458E+01  0.37066349982E+02  0.00000000000E+00 0.  1.
</event>
<event>
 7    1  0.4358868E-015  0.9000682E+02  0.7816164E-02  0.1186341E+00
        -11   -1    0    0    0    0  0.00000000000E+00  0.00000000000E+00  0.45593999997E+02  0.45594000000E+02  0.51100000000E-03 0.  1.
         11   -1    0    0    0    0 -0.00000000000E+00 -0.00000000000E+00 -0.45593999997E+02  0.45594000000E+02  0.51100000000E-03 0. -1.
    9900012    2    1    2    0    0  0.90592875869E+00 -0.26607821193E+00  0.70970597794E+00  0.90006819613E+02  0.89999068827E+02 0.  0.
         12    1    1    2    0    0 -0.90592875869E+00  0.26607821193E+00 -0.70970597794E+00  0.11811803867E+01  0.00000000000E+00 0. -1.
         11    1    3    3    0    0 -0.12167678436E+02  0.23643914660E+02 -0.33184129184E+02  0.42523799559E+02  0.51100000000E-03 0. -1.
        -11    1    3    3    0    0  0.25318698334E+01 -0.93259542592E+01  0.65508603662E+00  0.96857072883E+01  0.51100000000E-03 0.  1.
        -12    1    3    3    0    0  0.10541737361E+02 -0.14584038613E+02  0.33238749126E+02  0.37797312766E+02  0.00000000000E+00 0.  1.
</event>
<event>
 7    1  0.4358868E-015  0.9000770E+02  0.7816164E-02  0.1186339E+00
        -11   -1    0    0    0    0  0.00000000000E+00  0.00000000000E+00  0.45593999997E+02  0.45594000000E+02  0.51100000000E-03 0. -1.
         11   -1    0    0    0    0 -0.00000000000E+00 -0.00000000000E+00 -0.45593999997E+02  0.45594000000E+02  0.51100000000E-03 0.  1.
    9900012    2    1    2    0    0 -0.71537408642E+00  0.42491381838E+00 -0.83713277661E+00  0.90007702104E+02  0.89999962972E+02 0.  0.
         12    1    1    2    0    0  0.71537408642E+00 -0.42491381838E+00  0.83713277661E+00  0.11802978956E+01  0.00000000000E+00 0. -1.
         11    1    3    3    0    0 -0.15446889827E+02  0.19029793964E+02 -0.36125470601E+02  0.43655344347E+02  0.51100000000E-03 0.  1.
        -11    1    3    3    0    0 -0.32573335160E+01 -0.54519407962E+01  0.27644978279E+01  0.69264946821E+01  0.51100000000E-03 0. -1.
        -12    1    3    3    0    0  0.17988849256E+02 -0.13152939349E+02  0.32523839997E+02  0.39425863075E+02  0.00000000000E+00 0.  1.
</event>
<event>
 7    1  0.4358868E-015  0.9000771E+02  0.7816164E-02  0.1186339E+00
        -11   -1    0    0    0    0  0.00000000000E+00  0.00000000000E+00  0.45593999997E+02  0.45594000000E+02  0.51100000000E-03 0.  1.
         11   -1    0    0    0    0 -0.00000000000E+00 -0.00000000000E+00 -0.45593999997E+02  0.45594000000E+02  0.51100000000E-03 0. -1.
    9900012    2    1    2    0    0  0.15407495541E+00  0.10672257570E+01 -0.47996407759E+00  0.90007713838E+02  0.89999974861E+02 0.  0.
         12    1    1    2    0    0 -0.15407495541E+00 -0.10672257570E+01  0.47996407759E+00  0.11802861619E+01  0.00000000000E+00 0. -1.
         11    1    3    3    0    0 -0.33338423482E+02  0.10429403193E+02 -0.49708717654E+00  0.34935226165E+02  0.51100000000E-03 0. -1.
        -11    1    3    3    0    0 -0.10295261850E+02 -0.33636312422E-01 -0.33318967025E+00  0.10300706946E+02  0.51100000000E-03 0.  1.
        -12    1    3    3    0    0  0.43787760288E+02 -0.93285411238E+01  0.35031276919E+00  0.44771780728E+02  0.00000000000E+00 0.  1.
</event>
<event>
 7    1  0.4358868E-015  0.9000776E+02  0.7816164E-02  0.1186339E+00
        -11   -1    0    0    0    0  0.00000000000E+00  0.00000000000E+00  0.45593999997E+02  0.45594000000E+02  0.51100000000E-03 0.  1.
         11   -1    0    0    0    0 -0.00000000000E+00 -0.00000000000E+00 -0.45593999997E+02  0.45594000000E+02  0.51100000000E-03 0. -1.
    9900012    2    1    2    0    0 -0.40028057029E-01  0.83089807573E+00  0.83724184574E+00  0.90007759446E+02  0.90000021070E+02 0.  0.
         12    1    1    2    0    0  0.40028057029E-01 -0.83089807573E+00 -0.83724184574E+00  0.11802405542E+01  0.00000000000E+00 0. -1.
         11    1    3    3    0    0  0.90488128527E+01 -0.70956519764E+01 -0.12867811450E+02  0.17257168447E+02  0.51100000000E-03 0. -1.
        -11    1    3    3    0    0  0.30611141933E+02  0.41881778906E+01  0.10952182297E+02  0.32780072328E+02  0.51100000000E-03 0.  1.
         12    1    3    3    0    0 -0.39699982843E+02  0.37383721616E+01  0.27528709990E+01  0.39970518671E+02  0.00000000000E+00 0. -1.
</event>
<event>
 7    1  0.4358868E-015  0.9000791E+02  0.7816164E-02  0.1186339E+00
        -11   -1    0    0    0    0  0.00000000000E+00  0.00000000000E+00  0.45593999997E+02  0.45594000000E+02  0.51100000000E-03 0.  1.
         11   -1    0    0    0    0 -0.00000000000E+00 -0.00000000000E+00 -0.45593999997E+02  0.45594000000E+02  0.51100000000E-03 0. -1.
    9900012    2    1    2    0    0  0.55488175516E-01 -0.75633313920E+00  0.90414883810E+00  0.90007913615E+02  0.90000177274E+02 0.  0.
         12    1    1    2    0    0 -0.55488175516E-01  0.75633313920E+00 -0.90414883810E+00  0.11800863852E+01  0.00000000000E+00 0. -1.
         11    1    3    3    0    0 -0.44501591033E+01  0.38991935820E+01  0.65915428130E+01  0.88575427491E+01  0.51100000000E-03 0. -1.
        -11    1    3    3    0    0 -0.33332280117E+02  0.13369734370E+02  0.84933931707E+01  0.36904314419E+02  0.51100000000E-03 0.  1.
         12    1    3    3    0    0  0.37837927396E+02 -0.18025261091E+02 -0.14180787146E+02  0.44246056447E+02  0.00000000000E+00 0. -1.
</event>
<event>
 7    1  0.4358868E-015  0.9000768E+02  0.7816164E-02  0.1186339E+00
        -11   -1    0    0    0    0  0.00000000000E+00  0.00000000000E+00  0.45593999997E+02  0.45594000000E+02  0.51100000000E-03 0.  1.
         11   -1    0    0    0    0 -0.00000000000E+00 -0.00000000000E+00 -0.45593999997E+02  0.45594000000E+02  0.51100000000E-03 0. -1.
    9900012    2    1    2    0    0 -0.10502106532E+01  0.20196108954E+00 -0.49941852515E+00  0.90007682432E+02  0.89999943040E+02 0.  0.
         12    1    1    2    0    0  0.10502106532E+01 -0.20196108954E+00  0.49941852515E+00  0.11803175679E+01  0.00000000000E+00 0. -1.
         11    1    3    3    0    0  0.84488026985E+01  0.14063384013E+01  0.57368734059E+01  0.10308820082E+02  0.51100000000E-03 0. -1.
        -11    1    3    3    0    0  0.25595927578E+02  0.22771849500E+02  0.74238480610E+01  0.35054559740E+02  0.51100000000E-03 0.  1.
         12    1    3    3    0    0 -0.35094940930E+02 -0.23976226812E+02 -0.13660139992E+02  0.44644302611E+02  0.00000000000E+00 0. -1.
</event>
<event>
 7    1  0.4358868E-015  0.9000769E+02  0.7816164E-02  0.1186339E+00
        -11   -1    0    0    0    0  0.00000000000E+00  0.00000000000E+00  0.45593999997E+02  0.45594000000E+02  0.51100000000E-03 0.  1.
         11   -1    0    0    0    0 -0.00000000000E+00 -0.00000000000E+00 -0.45593999997E+02  0.45594000000E+02  0.51100000000E-03 0. -1.
    9900012    2    1    2    0    0  0.13014491106E+00  0.11295256538E+01 -0.31679771715E+00  0.90007692119E+02  0.89999952855E+02 0.  0.
         12    1    1    2    0    0 -0.13014491106E+00 -0.11295256538E+01  0.31679771715E+00  0.11803078811E+01  0.00000000000E+00 0. -1.
         11    1    3    3    0    0  0.54780665837E+01 -0.42064016652E+01  0.65684923168E+01  0.95314280169E+01  0.51100000000E-03 0. -1.
        -11    1    3    3    0    0 -0.59743500248E+01  0.34367335096E+02  0.20584737293E+02  0.40503555270E+02  0.51100000000E-03 0.  1.
         12    1    3    3    0    0  0.62642835219E+00 -0.29031407777E+02 -0.27470027327E+02  0.39972708832E+02  0.00000000000E+00 0. -1.
</event>
<event>
 7    1  0.4358868E-015  0.9000770E+02  0.7816164E-02  0.1186339E+00
        -11   -1    0    0    0    0  0.00000000000E+00  0.00000000000E+00  0.45593999997E+02  0.45594000000E+02  0.51100000000E-03 0. -1.
         11   -1    0    0    0    0 -0.00000000000E+00 -0.00000000000E+00 -0.45593999997E+02  0.45594000000E+02  0.51100000000E-03 0.  1.
    9900012    2    1    2    0    0  0.76202412338E+00  0.89699132441E+00 -0.88520272432E-01  0.90007699174E+02  0.89999960003E+02 0.  0.
         12    1    1    2    0    0 -0.76202412338E+00 -0.89699132441E+00  0.88520272432E-01  0.11803008258E+01  0.00000000000E+00 0. -1.
         11    1    3    3    0    0  0.52177826089E+01 -0.14950604761E+01  0.71615814965E+01  0.89860286541E+01  0.51100000000E-03 0. -1.
        -11    1    3    3    0    0  0.11077969182E+02 -0.15110402850E+02 -0.38007023743E+02  0.42374279103E+02  0.51100000000E-03 0.  1.
         12    1    3    3    0    0 -0.15533727667E+02  0.17502454650E+02  0.30756921974E+02  0.38647391417E+02  0.00000000000E+00 0. -1.
</event>
<event>
 7    1  0.4358868E-015  0.9000780E+02  0.7816164E-02  0.1186339E+00
        -11   -1    0    0    0    0  0.00000000000E+00  0.00000000000E+00  0.45593999997E+02  0.45594000000E+02  0.51100000000E-03 0.  1.
         11   -1    0    0    0    0 -0.00000000000E+00 -0.00000000000E+00 -0.45593999997E+02  0.45594000000E+02  0.51100000000E-03 0. -1.
    9900012    2    1    2    0    0 -0.71328349216E+00 -0.54114649584E+00  0.76893981210E+00  0.90007796075E+02  0.90000058183E+02 0.  0.
         12    1    1    2    0    0  0.71328349216E+00  0.54114649584E+00 -0.76893981210E+00  0.11802039251E+01  0.00000000000E+00 0. -1.
         11    1    3    3    0    0 -0.98219249546E+01 -0.19408953671E+01 -0.99162484772E+01  0.14091460846E+02  0.51100000000E-03 0. -1.
        -11    1    3    3    0    0 -0.26060908018E+02 -0.64523386378E+01  0.25431322532E+02  0.36980478182E+02  0.51100000000E-03 0.  1.
         12    1    3    3    0    0  0.35169549480E+02  0.78520875091E+01 -0.14746134242E+02  0.38935857047E+02  0.00000000000E+00 0. -1.
</event>
<event>
 7    1  0.4358868E-015  0.9000775E+02  0.7816164E-02  0.1186339E+00
        -11   -1    0    0    0    0  0.00000000000E+00  0.00000000000E+00  0.45593999997E+02  0.45594000000E+02  0.51100000000E-03 0. -1.
         11   -1    0    0    0    0 -0.00000000000E+00 -0.00000000000E+00 -0.45593999997E+02  0.45594000000E+02  0.51100000000E-03 0.  1.
    9900012    2    1    2    0    0 -0.11032754107E+01  0.34313888747E+00 -0.24091466874E+00  0.90007745449E+02  0.90000006889E+02 0.  0.
         12    1    1    2    0    0  0.11032754107E+01 -0.34313888747E+00  0.24091466874E+00  0.11802545512E+01  0.00000000000E+00 0. -1.
         11    1    3    3    0    0 -0.10858273505E+02 -0.24857686161E+01  0.19324994190E+01  0.11305560728E+02  0.51100000000E-03 0. -1.
        -11    1    3    3    0    0 -0.16640838167E+02 -0.31247242942E+02 -0.35265984366E+01  0.35577304327E+02  0.51100000000E-03 0.  1.
         12    1    3    3    0    0  0.26395836261E+02  0.34076150445E+02  0.13531843489E+01  0.43124880394E+02  0.00000000000E+00 0. -1.
</event>
<event>
 7    1  0.4358868E-015  0.9000772E+02  0.7816164E-02  0.1186339E+00
        -11   -1    0    0    0    0  0.00000000000E+00  0.00000000000E+00  0.45593999997E+02  0.45594000000E+02  0.51100000000E-03 0.  1.
         11   -1    0    0    0    0 -0.00000000000E+00 -0.00000000000E+00 -0.45593999997E+02  0.45594000000E+02  0.51100000000E-03 0. -1.
    9900012    2    1    2    0    0 -0.80191310103E+00  0.57357683487E+00  0.64885277840E+00  0.90007718281E+02  0.89999979363E+02 0.  0.
         12    1    1    2    0    0  0.80191310103E+00 -0.57357683487E+00 -0.64885277840E+00  0.11802817185E+01  0.00000000000E+00 0. -1.
         11    1    3    3    0    0  0.61574635930E+01 -0.68337279521E+01  0.11012924257E+02  0.14349170588E+02  0.51100000000E-03 0. -1.
        -11    1    3    3    0    0  0.22320569751E+02  0.72563854778E+01  0.21891555343E+02  0.32095220202E+02  0.51100000000E-03 0.  1.
         12    1    3    3    0    0 -0.29279946445E+02  0.15091930912E+00 -0.32255626822E+02  0.43563327491E+02  0.00000000000E+00 0. -1.
</event>
<event>
 7    1  0.4358868E-015  0.9000774E+02  0.7816164E-02  0.1186339E+00
        -11   -1    0    0    0    0  0.00000000000E+00  0.00000000000E+00  0.45593999997E+02  0.45594000000E+02  0.51100000000E-03 0. -1.
         11   -1    0    0    0    0 -0.00000000000E+00 -0.00000000000E+00 -0.45593999997E+02  0.45594000000E+02  0.51100000000E-03 0.  1.
    9900012    2    1    2    0    0  0.15242162065E+00 -0.67848679459E+00 -0.95364674482E+00  0.90007737828E+02  0.89999999167E+02 0.  0.
         12    1    1    2    0    0 -0.15242162065E+00  0.67848679459E+00  0.95364674482E+00  0.11802621720E+01  0.00000000000E+00 0. -1.
         11    1    3    3    0    0  0.82005700416E+01 -0.67044188278E+01 -0.10898512620E+01  0.10648303004E+02  0.51100000000E-03 0. -1.
        -11    1    3    3    0    0 -0.10894217612E+02 -0.14766354405E+02  0.34510142625E+02  0.39085536252E+02  0.51100000000E-03 0.  1.
         12    1    3    3    0    0  0.28460691916E+01  0.20792286438E+02 -0.34373938108E+02  0.40273898573E+02  0.00000000000E+00 0. -1.
</event>
<event>
 7    1  0.4358868E-015  0.9000779E+02  0.7816164E-02  0.1186339E+00
        -11   -1    0    0    0    0  0.00000000000E+00  0.00000000000E+00  0.45593999997E+02  0.45594000000E+02  0.51100000000E-03 0.  1.
         11   -1    0    0    0    0 -0.00000000000E+00 -0.00000000000E+00 -0.45593999997E+02  0.45594000000E+02  0.51100000000E-03 0. -1.
    9900012    2    1    2    0    0  0.12979824888E-01  0.10318195830E+01  0.57277275368E+00  0.90007792919E+02  0.90000054985E+02 0.  0.
         12    1    1    2    0    0 -0.12979824888E-01 -0.10318195830E+01 -0.57277275368E+00  0.11802070814E+01  0.00000000000E+00 0. -1.
         11    1    3    3    0    0  0.59619679291E+01 -0.78130727934E+01 -0.15122791900E+01  0.99436490622E+01  0.51100000000E-03 0. -1.
        -11    1    3    3    0    0  0.36724829513E+02  0.16584364100E+01  0.99256040758E+00  0.36775653502E+02  0.51100000000E-03 0.  1.
         12    1    3    3    0    0 -0.42673817617E+02  0.71864559664E+01  0.10924915361E+01  0.43288490354E+02  0.00000000000E+00 0. -1.
</event>
<event>
 7    1  0.4358868E-015  0.9000767E+02  0.7816164E-02  0.1186339E+00
        -11   -1    0    0    0    0  0.00000000000E+00  0.00000000000E+00  0.45593999997E+02  0.45594000000E+02  0.51100000000E-03 0.  1.
         11   -1    0    0    0    0 -0.00000000000E+00 -0.00000000000E+00 -0.45593999997E+02  0.45594000000E+02  0.51100000000E-03 0. -1.
    9900012    2    1    2    0    0  0.22725660757E+00  0.16827224268E+00  0.11459619122E+01  0.90007665379E+02  0.89999925762E+02 0.  0.
         12    1    1    2    0    0 -0.22725660757E+00 -0.16827224268E+00 -0.11459619122E+01  0.11803346211E+01  0.00000000000E+00 0. -1.
         11    1    3    3    0    0  0.26097304837E+02  0.29497773988E+02 -0.64915346217E+01  0.39916513024E+02  0.51100000000E-03 0. -1.
        -11    1    3    3    0    0  0.13120767509E+01  0.50298677929E+01  0.30830739539E+01  0.60437124915E+01  0.51100000000E-03 0.  1.
        -12    1    3    3    0    0 -0.27182124980E+02 -0.34359369538E+02  0.45544225801E+01  0.44047439863E+02  0.00000000000E+00 0.  1.
</event>
<event>
 7    1  0.4358868E-015  0.9000778E+02  0.7816164E-02  0.1186339E+00
        -11   -1    0    0    0    0  0.00000000000E+00  0.00000000000E+00  0.45593999997E+02  0.45594000000E+02  0.51100000000E-03 0.  1.
         11   -1    0    0    0    0 -0.00000000000E+00 -0.00000000000E+00 -0.45593999997E+02  0.45594000000E+02  0.51100000000E-03 0. -1.
    9900012    2    1    2    0    0  0.43600285187E+00  0.10470052805E+01  0.32650550131E+00  0.90007777823E+02  0.90000039690E+02 0.  0.
         12    1    1    2    0    0 -0.43600285187E+00 -0.10470052805E+01 -0.32650550131E+00  0.11802221768E+01  0.00000000000E+00 0. -1.
         11    1    3    3    0    0 -0.15976536162E+02  0.11112669900E+01  0.39217602867E+01  0.16488323932E+02  0.51100000000E-03 0. -1.
        -11    1    3    3    0    0 -0.14442644346E+02  0.24144963617E+01  0.26544420712E+02  0.30315442263E+02  0.51100000000E-03 0.  1.
         12    1    3    3    0    0  0.30855183360E+02 -0.24787580712E+01 -0.30139675497E+02  0.43204011629E+02  0.00000000000E+00 0. -1.
</event>
<event>
 7    1  0.4358868E-015  0.9000754E+02  0.7816164E-02  0.1186339E+00
        -11   -1    0    0    0    0  0.00000000000E+00  0.00000000000E+00  0.45593999997E+02  0.45594000000E+02  0.51100000000E-03 0.  1.
         11   -1    0    0    0    0 -0.00000000000E+00 -0.00000000000E+00 -0.45593999997E+02  0.45594000000E+02  0.51100000000E-03 0. -1.
    9900012    2    1    2    0    0 -0.15462271491E+00  0.11194046071E+01 -0.34134073417E+00  0.90007538923E+02  0.89999797636E+02 0.  0.
         12    1    1    2    0    0  0.15462271491E+00 -0.11194046071E+01  0.34134073417E+00  0.11804610774E+01  0.00000000000E+00 0. -1.
         11    1    3    3    0    0 -0.26978093439E+02 -0.25079008752E+02 -0.65626179001E+00  0.36840261744E+02  0.51100000000E-03 0. -1.
        -11    1    3    3    0    0  0.17676234225E+01 -0.92639560940E+01 -0.21622049456E+01  0.96757689908E+01  0.51100000000E-03 0.  1.
        -12    1    3    3    0    0  0.25055847302E+02  0.35462369453E+02  0.24771260015E+01  0.43491508188E+02  0.00000000000E+00 0.  1.
</event>
<event>
 7    1  0.4358868E-015  0.9000781E+02  0.7816164E-02  0.1186339E+00
        -11   -1    0    0    0    0  0.00000000000E+00  0.00000000000E+00  0.45593999997E+02  0.45594000000E+02  0.51100000000E-03 0.  1.
         11   -1    0    0    0    0 -0.00000000000E+00 -0.00000000000E+00 -0.45593999997E+02  0.45594000000E+02  0.51100000000E-03 0. -1.
    9900012    2    1    2    0    0 -0.11659718928E+01  0.31045267379E-01 -0.17996666718E+00  0.90007812615E+02  0.90000074941E+02 0.  0.
         12    1    1    2    0    0  0.11659718928E+01 -0.31045267379E-01  0.17996666718E+00  0.11801873854E+01  0.00000000000E+00 0. -1.
         11    1    3    3    0    0 -0.25224831521E+01  0.56563061179E+01 -0.66009173598E+01  0.90514546015E+01  0.51100000000E-03 0. -1.
        -11    1    3    3    0    0  0.62261350769E+00  0.34601803774E+02 -0.12103516379E+02  0.36662891062E+02  0.51100000000E-03 0.  1.
         12    1    3    3    0    0  0.73389775168E+00 -0.40227064625E+02  0.18524467072E+02  0.44293466951E+02  0.00000000000E+00 0. -1.
</event>
<event>
 7    1  0.4358868E-015  0.9000774E+02  0.7816164E-02  0.1186339E+00
        -11   -1    0    0    0    0  0.00000000000E+00  0.00000000000E+00  0.45593999997E+02  0.45594000000E+02  0.51100000000E-03 0.  1.
         11   -1    0    0    0    0 -0.00000000000E+00 -0.00000000000E+00 -0.45593999997E+02  0.45594000000E+02  0.51100000000E-03 0. -1.
    9900012    2    1    2    0    0  0.67966614748E+00  0.81647613773E+00  0.51423317314E+00  0.90007739388E+02  0.90000000748E+02 0.  0.
         12    1    1    2    0    0 -0.67966614748E+00 -0.81647613773E+00 -0.51423317314E+00  0.11802606118E+01  0.00000000000E+00 0. -1.
         11    1    3    3    0    0  0.82613776292E+01  0.19013074119E+01 -0.49325828497E+01  0.98079408663E+01  0.51100000000E-03 0. -1.
        -11    1    3    3    0    0 -0.14200829373E+02  0.35037411675E+02 -0.11832155288E+02  0.39614185222E+02  0.51100000000E-03 0.  1.
         12    1    3    3    0    0  0.66191178910E+01 -0.36122242950E+02  0.17278971311E+02  0.40585613300E+02  0.00000000000E+00 0. -1.
</event>
<event>
 7    1  0.4358868E-015  0.9000782E+02  0.7816164E-02  0.1186339E+00
        -11   -1    0    0    0    0  0.00000000000E+00  0.00000000000E+00  0.45593999997E+02  0.45594000000E+02  0.51100000000E-03 0. -1.
         11   -1    0    0    0    0 -0.00000000000E+00 -0.00000000000E+00 -0.45593999997E+02  0.45594000000E+02  0.51100000000E-03 0.  1.
    9900012    2    1    2    0    0 -0.19888153522E+00 -0.69095086262E+00  0.93586923469E+00  0.90007822817E+02  0.90000085278E+02 0.  0.
         12    1    1    2    0    0  0.19888153522E+00  0.69095086262E+00 -0.93586923469E+00  0.11801771833E+01  0.00000000000E+00 0. -1.
         11    1    3    3    0    0 -0.49196510211E+01  0.45111657424E+01 -0.72847688383E+01  0.98803562594E+01  0.51100000000E-03 0. -1.
        -11    1    3    3    0    0  0.23425819655E+02  0.30422716251E+02  0.10560667789E+02  0.39822586493E+02  0.51100000000E-03 0.  1.
         12    1    3    3    0    0 -0.18705050169E+02 -0.35624832857E+02 -0.23400297160E+01  0.40304880064E+02  0.00000000000E+00 0. -1.
</event>
<event>
 7    1  0.6199249E-015  0.9000775E+02  0.7816164E-02  0.1186339E+00
        -11   -1    0    0    0    0  0.00000000000E+00  0.00000000000E+00  0.45593999997E+02  0.45594000000E+02  0.51100000000E-03 0. -1.
         11   -1    0    0    0    0 -0.00000000000E+00 -0.00000000000E+00 -0.45593999997E+02  0.45594000000E+02  0.51100000000E-03 0.  1.
    9900012    2    1    2    0    0  0.72155857416E+00 -0.46653200244E+00 -0.80913539358E+00  0.90007746226E+02  0.90000007676E+02 0.  0.
         12    1    1    2    0    0 -0.72155857416E+00  0.46653200244E+00  0.80913539358E+00  0.11802537737E+01  0.00000000000E+00 0. -1.
         11    1    3    3    0    0  0.20866629215E+02  0.19441989665E+02  0.21457758048E+02  0.35690931027E+02  0.51100000000E-03 0. -1.
        -11    1    3    3    0    0  0.79087659516E+01  0.60552304422E+01  0.22979074422E+00  0.99632925598E+01  0.51100000000E-03 0.  1.
        -12    1    3    3    0    0 -0.28053836593E+02 -0.25963752109E+02 -0.22496684185E+02  0.44353522639E+02  0.00000000000E+00 0.  1.
</event>
<event>
 7    1  0.4358868E-015  0.9000776E+02  0.7816164E-02  0.1186339E+00
        -11   -1    0    0    0    0  0.00000000000E+00  0.00000000000E+00  0.45593999997E+02  0.45594000000E+02  0.51100000000E-03 0.  1.
         11   -1    0    0    0    0 -0.00000000000E+00 -0.00000000000E+00 -0.45593999997E+02  0.45594000000E+02  0.51100000000E-03 0. -1.
    9900012    2    1    2    0    0 -0.23938292702E+00  0.73343638189E+00  0.89316434204E+00  0.90007756104E+02  0.90000017685E+02 0.  0.
         12    1    1    2    0    0  0.23938292702E+00 -0.73343638189E+00 -0.89316434204E+00  0.11802438960E+01  0.00000000000E+00 0. -1.
         11    1    3    3    0    0 -0.28094285523E+02 -0.24217596024E+02 -0.18893019743E+02  0.41626037903E+02  0.51100000000E-03 0. -1.
        -11    1    3    3    0    0 -0.35004259755E+01  0.66767539691E+01  0.12900599854E+01  0.76482861218E+01  0.51100000000E-03 0.  1.
        -12    1    3    3    0    0  0.31355328571E+02  0.18274278437E+02  0.18496124100E+02  0.40733432079E+02  0.00000000000E+00 0.  1.
</event>
<event>
 7    1  0.4358868E-015  0.9000771E+02  0.7816164E-02  0.1186339E+00
        -11   -1    0    0    0    0  0.00000000000E+00  0.00000000000E+00  0.45593999997E+02  0.45594000000E+02  0.51100000000E-03 0. -1.
         11   -1    0    0    0    0 -0.00000000000E+00 -0.00000000000E+00 -0.45593999997E+02  0.45594000000E+02  0.51100000000E-03 0.  1.
    9900012    2    1    2    0    0 -0.40557769646E-02 -0.16979151300E+00 -0.11680046445E+01  0.90007711706E+02  0.89999972701E+02 0.  0.
         12    1    1    2    0    0  0.40557769646E-02  0.16979151300E+00  0.11680046445E+01  0.11802882940E+01  0.00000000000E+00 0. -1.
         11    1    3    3    0    0  0.21076669673E+01  0.56755930588E+01  0.78054790724E+01  0.98782650514E+01  0.51100000000E-03 0. -1.
        -11    1    3    3    0    0 -0.12688442856E+02  0.34575528163E+02 -0.10570717635E+02  0.38317147616E+02  0.51100000000E-03 0.  1.
         12    1    3    3    0    0  0.10576720112E+02 -0.40420912735E+02  0.15972339179E+01  0.41812299038E+02  0.00000000000E+00 0. -1.
</event>
<event>
 7    1  0.4358868E-015  0.9000778E+02  0.7816164E-02  0.1186339E+00
        -11   -1    0    0    0    0  0.00000000000E+00  0.00000000000E+00  0.45593999997E+02  0.45594000000E+02  0.51100000000E-03 0.  1.
         11   -1    0    0    0    0 -0.00000000000E+00 -0.00000000000E+00 -0.45593999997E+02  0.45594000000E+02  0.51100000000E-03 0. -1.
    9900012    2    1    2    0    0  0.87295724457E+00  0.78317640167E+00 -0.13229693098E+00  0.90007778790E+02  0.90000040670E+02 0.  0.
         12    1    1    2    0    0 -0.87295724457E+00 -0.78317640167E+00  0.13229693098E+00  0.11802212102E+01  0.00000000000E+00 0. -1.
         11    1    3    3    0    0 -0.62265654775E+01  0.32384358242E+02  0.32233742720E+01  0.33134678486E+02  0.51100000000E-03 0. -1.
        -11    1    3    3    0    0  0.85731641511E+01  0.49652290171E+01  0.13366249044E+02  0.16637585658E+02  0.51100000000E-03 0.  1.
        -12    1    3    3    0    0 -0.14736414291E+01 -0.36566410858E+02 -0.16721920247E+02  0.40235514646E+02  0.00000000000E+00 0.  1.
</event>
<event>
 7    1  0.4358868E-015  0.9000779E+02  0.7816164E-02  0.1186339E+00
        -11   -1    0    0    0    0  0.00000000000E+00  0.00000000000E+00  0.45593999997E+02  0.45594000000E+02  0.51100000000E-03 0. -1.
         11   -1    0    0    0    0 -0.00000000000E+00 -0.00000000000E+00 -0.45593999997E+02  0.45594000000E+02  0.51100000000E-03 0.  1.
    9900012    2    1    2    0    0  0.85435924202E+00  0.16194984099E+00  0.79796612191E+00  0.90007785021E+02  0.90000046983E+02 0.  0.
         12    1    1    2    0    0 -0.85435924202E+00 -0.16194984099E+00 -0.79796612191E+00  0.11802149792E+01  0.00000000000E+00 0. -1.
         11    1    3    3    0    0  0.33005560660E+02 -0.15713705129E+02  0.17020290804E+02  0.40323415811E+02  0.51100000000E-03 0. -1.
        -11    1    3    3    0    0 -0.11688489333E+02 -0.60870734937E+01 -0.14533609531E+02  0.19618844330E+02  0.51100000000E-03 0.  1.
        -12    1    3    3    0    0 -0.20462712085E+02  0.21962728463E+02 -0.16887151512E+01  0.30065524880E+02  0.00000000000E+00 0.  1.
</event>
<event>
 7    1  0.4358868E-015  0.9000762E+02  0.7816164E-02  0.1186339E+00
        -11   -1    0    0    0    0  0.00000000000E+00  0.00000000000E+00  0.45593999997E+02  0.45594000000E+02  0.51100000000E-03 0.  1.
         11   -1    0    0    0    0 -0.00000000000E+00 -0.00000000000E+00 -0.45593999997E+02  0.45594000000E+02  0.51100000000E-03 0. -1.
    9900012    2    1    2    0    0  0.44963709767E-01 -0.10976031490E+01  0.43191015790E+00  0.90007618370E+02  0.89999878132E+02 0.  0.
         12    1    1    2    0    0 -0.44963709767E-01  0.10976031490E+01 -0.43191015790E+00  0.11803816300E+01  0.00000000000E+00 0. -1.
         11    1    3    3    0    0 -0.52556218968E+01  0.44238673774E+01  0.68245950408E+01  0.96833497214E+01  0.51100000000E-03 0. -1.
        -11    1    3    3    0    0 -0.71662736612E+01 -0.21821793390E+02  0.30456434176E+02  0.38146304250E+02  0.51100000000E-03 0.  1.
         12    1    3    3    0    0  0.12466859268E+02  0.16300322864E+02 -0.36849119058E+02  0.42177964399E+02  0.00000000000E+00 0. -1.
</event>
<event>
 7    1  0.4358868E-015  0.9000766E+02  0.7816164E-02  0.1186339E+00
        -11   -1    0    0    0    0  0.00000000000E+00  0.00000000000E+00  0.45593999997E+02  0.45594000000E+02  0.51100000000E-03 0.  1.
         11   -1    0    0    0    0 -0.00000000000E+00 -0.00000000000E+00 -0.45593999997E+02  0.45594000000E+02  0.51100000000E-03 0. -1.
    9900012    2    1    2    0    0  0.63379877404E+00  0.10185029544E-02  0.99573581138E+00  0.90007664569E+02  0.89999924941E+02 0.  0.
         12    1    1    2    0    0 -0.63379877404E+00 -0.10185029544E-02 -0.99573581138E+00  0.11803354309E+01  0.00000000000E+00 0. -1.
         11    1    3    3    0    0  0.37283734831E+02 -0.47269214767E+01 -0.21515386539E+02  0.43305109719E+02  0.51100000000E-03 0. -1.
        -11    1    3    3    0    0 -0.34281695055E+01 -0.42995729367E+01  0.71094282075E+01  0.89879165158E+01  0.51100000000E-03 0.  1.
        -12    1    3    3    0    0 -0.33221766551E+02  0.90275129164E+01  0.15401694143E+02  0.37714638335E+02  0.00000000000E+00 0.  1.
</event>
<event>
 7    1  0.4358868E-015  0.9000788E+02  0.7816164E-02  0.1186339E+00
        -11   -1    0    0    0    0  0.00000000000E+00  0.00000000000E+00  0.45593999997E+02  0.45594000000E+02  0.51100000000E-03 0.  1.
         11   -1    0    0    0    0 -0.00000000000E+00 -0.00000000000E+00 -0.45593999997E+02  0.45594000000E+02  0.51100000000E-03 0. -1.
    9900012    2    1    2    0    0  0.10909964097E+01  0.38004530851E+00 -0.24078276477E+00  0.90007879692E+02  0.90000142903E+02 0.  0.
         12    1    1    2    0    0 -0.10909964097E+01 -0.38004530851E+00  0.24078276477E+00  0.11801203084E+01  0.00000000000E+00 0. -1.
         11    1    3    3    0    0 -0.69945150083E+01 -0.33132644894E+02 -0.20537947310E+02  0.39604326504E+02  0.51100000000E-03 0. -1.
        -11    1    3    3    0    0 -0.38539695573E+01 -0.41748669585E+01  0.62546956735E+01  0.84500777333E+01  0.51100000000E-03 0.  1.
        -12    1    3    3    0    0  0.11939480975E+02  0.37687557161E+02  0.14042468872E+02  0.41953475455E+02  0.00000000000E+00 0.  1.
</event>
<event>
 7    1  0.4358868E-015  0.9000779E+02  0.7816164E-02  0.1186339E+00
        -11   -1    0    0    0    0  0.00000000000E+00  0.00000000000E+00  0.45593999997E+02  0.45594000000E+02  0.51100000000E-03 0.  1.
         11   -1    0    0    0    0 -0.00000000000E+00 -0.00000000000E+00 -0.45593999997E+02  0.45594000000E+02  0.51100000000E-03 0. -1.
    9900012    2    1    2    0    0 -0.55906575954E+00 -0.27798446482E-01  0.10390279368E+01  0.90007785473E+02  0.90000047441E+02 0.  0.
         12    1    1    2    0    0  0.55906575954E+00  0.27798446482E-01 -0.10390279368E+01  0.11802145273E+01  0.00000000000E+00 0. -1.
         11    1    3    3    0    0 -0.33817172297E+01 -0.28378395678E+01  0.79672312798E+01  0.91085739477E+01  0.51100000000E-03 0. -1.
        -11    1    3    3    0    0  0.47464401937E+01 -0.16330502837E+00  0.36761098121E+02  0.37066611639E+02  0.51100000000E-03 0.  1.
         12    1    3    3    0    0 -0.19237887235E+01  0.29733461497E+01 -0.43689301464E+02  0.43832599886E+02  0.00000000000E+00 0. -1.
</event>
<event>
 7    1  0.4358868E-015  0.9000776E+02  0.7816164E-02  0.1186339E+00
        -11   -1    0    0    0    0  0.00000000000E+00  0.00000000000E+00  0.45593999997E+02  0.45594000000E+02  0.51100000000E-03 0. -1.
         11   -1    0    0    0    0 -0.00000000000E+00 -0.00000000000E+00 -0.45593999997E+02  0.45594000000E+02  0.51100000000E-03 0.  1.
    9900012    2    1    2    0    0 -0.15473599626E+00  0.11297549350E+01 -0.30443564519E+00  0.90007758286E+02  0.90000019895E+02 0.  0.
         12    1    1    2    0    0  0.15473599626E+00 -0.11297549350E+01  0.30443564519E+00  0.11802417141E+01  0.00000000000E+00 0. -1.
         11    1    3    3    0    0  0.68379750402E+01  0.26132953600E+02  0.23652341289E+02  0.35904350923E+02  0.51100000000E-03 0. -1.
        -11    1    3    3    0    0 -0.70210752901E+01  0.59175131244E+01  0.60661775292E+01  0.11005042930E+02  0.51100000000E-03 0.  1.
        -12    1    3    3    0    0  0.28364253712E-01 -0.30920711790E+02 -0.30022954463E+02  0.43098364433E+02  0.00000000000E+00 0.  1.
</event>
<event>
 7    1  0.4358868E-015  0.9000776E+02  0.7816164E-02  0.1186339E+00
        -11   -1    0    0    0    0  0.00000000000E+00  0.00000000000E+00  0.45593999997E+02  0.45594000000E+02  0.51100000000E-03 0. -1.
         11   -1    0    0    0    0 -0.00000000000E+00 -0.00000000000E+00 -0.45593999997E+02  0.45594000000E+02  0.51100000000E-03 0.  1.
    9900012    2    1    2    0    0  0.17257361239E+00 -0.52781641201E+00 -0.10414340199E+01  0.90007764162E+02  0.90000025849E+02 0.  0.
         12    1    1    2    0    0 -0.17257361239E+00  0.52781641201E+00  0.10414340199E+01  0.11802358384E+01  0.00000000000E+00 0. -1.
         11    1    3    3    0    0  0.63827414349E+00 -0.54762159324E+01 -0.10572453663E+02  0.11923636674E+02  0.51100000000E-03 0. -1.
        -11    1    3    3    0    0 -0.37854502238E+02  0.19851314741E+00 -0.39405016431E+01  0.38059562538E+02  0.51100000000E-03 0.  1.
         12    1    3    3    0    0  0.37388801707E+02  0.47498863730E+01  0.13471521286E+02  0.40024564949E+02  0.00000000000E+00 0. -1.
</event>
<event>
 7    1  0.4358868E-015  0.9000774E+02  0.7816164E-02  0.1186339E+00
        -11   -1    0    0    0    0  0.00000000000E+00  0.00000000000E+00  0.45593999997E+02  0.45594000000E+02  0.51100000000E-03 0. -1.
         11   -1    0    0    0    0 -0.00000000000E+00 -0.00000000000E+00 -0.45593999997E+02  0.45594000000E+02  0.51100000000E-03 0.  1.
    9900012    2    1    2    0    0  0.82118101517E+00  0.64702030940E+00 -0.54776421331E+00  0.90007737667E+02  0.89999999005E+02 0.  0.
         12    1    1    2    0    0 -0.82118101517E+00 -0.64702030940E+00  0.54776421331E+00  0.11802623326E+01  0.00000000000E+00 0. -1.
         11    1    3    3    0    0 -0.10545836490E+01  0.34272228129E+02  0.12026942567E+02  0.36336553432E+02  0.51100000000E-03 0. -1.
        -11    1    3    3    0    0  0.50557456375E+01  0.83134347582E+01  0.14409799015E+00  0.97311112378E+01  0.51100000000E-03 0.  1.
        -12    1    3    3    0    0 -0.31799809734E+01 -0.41938642577E+02 -0.12718804770E+02  0.43940072997E+02  0.00000000000E+00 0.  1.
</event>
<event>
 7    1  0.4358868E-015  0.9000777E+02  0.7816164E-02  0.1186339E+00
        -11   -1    0    0    0    0  0.00000000000E+00  0.00000000000E+00  0.45593999997E+02  0.45594000000E+02  0.51100000000E-03 0.  1.
         11   -1    0    0    0    0 -0.00000000000E+00 -0.00000000000E+00 -0.45593999997E+02  0.45594000000E+02  0.51100000000E-03 0. -1.
    9900012    2    1    2    0    0  0.50369949287E+00 -0.26996175870E+00  0.10326409734E+01  0.90007771247E+02  0.90000033027E+02 0.  0.
         12    1    1    2    0    0 -0.50369949287E+00  0.26996175870E+00 -0.10326409734E+01  0.11802287534E+01  0.00000000000E+00 0. -1.
         11    1    3    3    0    0  0.18984780596E+02  0.23738899600E+02 -0.28251485834E+02  0.41498237318E+02  0.51100000000E-03 0. -1.
        -11    1    3    3    0    0  0.81515705321E+00 -0.10544158281E+02 -0.45788316453E+00  0.10585528429E+02  0.51100000000E-03 0.  1.
        -12    1    3    3    0    0 -0.19296238156E+02 -0.13464703077E+02  0.29742009972E+02  0.37924005499E+02  0.00000000000E+00 0.  1.
</event>
<event>
 7    1  0.4358868E-015  0.9000775E+02  0.7816164E-02  0.1186339E+00
        -11   -1    0    0    0    0  0.00000000000E+00  0.00000000000E+00  0.45593999997E+02  0.45594000000E+02  0.51100000000E-03 0.  1.
         11   -1    0    0    0    0 -0.00000000000E+00 -0.00000000000E+00 -0.45593999997E+02  0.45594000000E+02  0.51100000000E-03 0. -1.
    9900012    2    1    2    0    0 -0.10994382739E+01  0.42815292369E+00 -0.30264085717E-01  0.90007747756E+02  0.90000009227E+02 0.  0.
         12    1    1    2    0    0  0.10994382739E+01 -0.42815292369E+00  0.30264085717E-01  0.11802522439E+01  0.00000000000E+00 0. -1.
         11    1    3    3    0    0 -0.20203952899E+02 -0.37294383789E+02  0.78892987250E+01  0.43142923053E+02  0.51100000000E-03 0. -1.
        -11    1    3    3    0    0 -0.29305756295E+01  0.92928781692E+01  0.10316189248E+01  0.97984741697E+01  0.51100000000E-03 0.  1.
        -12    1    3    3    0    0  0.22035090255E+02  0.28429658543E+02 -0.89511817355E+01  0.37066350533E+02  0.00000000000E+00 0.  1.
</event>
<event>
 7    1  0.4358868E-015  0.9000773E+02  0.7816164E-02  0.1186339E+00
        -11   -1    0    0    0    0  0.00000000000E+00  0.00000000000E+00  0.45593999997E+02  0.45594000000E+02  0.51100000000E-03 0.  1.
         11   -1    0    0    0    0 -0.00000000000E+00 -0.00000000000E+00 -0.45593999997E+02  0.45594000000E+02  0.51100000000E-03 0. -1.
    9900012    2    1    2    0    0  0.25737194441E+00 -0.30069391800E+00  0.11119285292E+01  0.90007727911E+02  0.89999989119E+02 0.  0.
         12    1    1    2    0    0 -0.25737194441E+00  0.30069391800E+00 -0.11119285292E+01  0.11802720891E+01  0.00000000000E+00 0. -1.
         11    1    3    3    0    0 -0.19003734632E+02 -0.14465195326E+02 -0.20215751258E+02  0.31289940955E+02  0.51100000000E-03 0. -1.
        -11    1    3    3    0    0 -0.15073484058E+02  0.26824219959E+00 -0.15924647364E+01  0.15159743393E+02  0.51100000000E-03 0.  1.
        -12    1    3    3    0    0  0.34334590635E+02  0.13896259208E+02  0.22920144524E+02  0.43558043563E+02  0.00000000000E+00 0.  1.
</event>
<event>
 7    1  0.4358868E-015  0.9000773E+02  0.7816164E-02  0.1186339E+00
        -11   -1    0    0    0    0  0.00000000000E+00  0.00000000000E+00  0.45593999997E+02  0.45594000000E+02  0.51100000000E-03 0. -1.
         11   -1    0    0    0    0 -0.00000000000E+00 -0.00000000000E+00 -0.45593999997E+02  0.45594000000E+02  0.51100000000E-03 0.  1.
    9900012    2    1    2    0    0 -0.10370406849E+01  0.35187924627E-01  0.56244307715E+00  0.90007731477E+02  0.89999992732E+02 0.  0.
         12    1    1    2    0    0  0.10370406849E+01 -0.35187924627E-01 -0.56244307715E+00  0.11802685234E+01  0.00000000000E+00 0. -1.
         11    1    3    3    0    0 -0.55066822072E+01 -0.69642658684E+01 -0.21150331917E+00  0.88808379071E+01  0.51100000000E-03 0. -1.
        -11    1    3    3    0    0 -0.32214889007E+02 -0.24867730223E+01 -0.19915313271E+02  0.37955273899E+02  0.51100000000E-03 0.  1.
         12    1    3    3    0    0  0.36684530530E+02  0.94862268153E+01  0.20689259667E+02  0.43171619670E+02  0.00000000000E+00 0. -1.
</event>
<event>
 7    1  0.4358868E-015  0.9000769E+02  0.7816164E-02  0.1186339E+00
        -11   -1    0    0    0    0  0.00000000000E+00  0.00000000000E+00  0.45593999997E+02  0.45594000000E+02  0.51100000000E-03 0.  1.
         11   -1    0    0    0    0 -0.00000000000E+00 -0.00000000000E+00 -0.45593999997E+02  0.45594000000E+02  0.51100000000E-03 0. -1.
    9900012    2    1    2    0    0 -0.27825595258E+00  0.10130857295E+01  0.53791396830E+00  0.90007694740E+02  0.89999955510E+02 0.  0.
         12    1    1    2    0    0  0.27825595258E+00 -0.10130857295E+01 -0.53791396830E+00  0.11803052604E+01  0.00000000000E+00 0. -1.
         11    1    3    3    0    0  0.80853816468E+01 -0.97344852228E+01 -0.14178494663E+01  0.12733573587E+02  0.51100000000E-03 0. -1.
        -11    1    3    3    0    0  0.31348972357E+02  0.83540057208E+01  0.14532155453E+02  0.35548994667E+02  0.51100000000E-03 0.  1.
         12    1    3    3    0    0 -0.39712609956E+02  0.23935652315E+01 -0.12576392019E+02  0.41725126486E+02  0.00000000000E+00 0. -1.
</event>
<event>
 7    1  0.4358868E-015  0.9000771E+02  0.7816164E-02  0.1186339E+00
        -11   -1    0    0    0    0  0.00000000000E+00  0.00000000000E+00  0.45593999997E+02  0.45594000000E+02  0.51100000000E-03 0.  1.
         11   -1    0    0    0    0 -0.00000000000E+00 -0.00000000000E+00 -0.45593999997E+02  0.45594000000E+02  0.51100000000E-03 0. -1.
    9900012    2    1    2    0    0  0.90561734460E+00  0.74947275870E+00  0.10593829000E+00  0.90007713970E+02  0.89999974995E+02 0.  0.
         12    1    1    2    0    0 -0.90561734460E+00 -0.74947275870E+00 -0.10593829000E+00  0.11802860298E+01  0.00000000000E+00 0. -1.
         11    1    3    3    0    0 -0.61308692225E+01 -0.56370019548E+01  0.57320870980E+01  0.10110399162E+02  0.51100000000E-03 0. -1.
        -11    1    3    3    0    0 -0.18512478253E+02  0.53763513903E+01  0.30232936123E+02  0.35855926040E+02  0.51100000000E-03 0.  1.
         12    1    3    3    0    0  0.25548964820E+02  0.10101233232E+01 -0.35859084931E+02  0.44041388768E+02  0.00000000000E+00 0. -1.
</event>
<event>
 7    1  0.4358868E-015  0.9000777E+02  0.7816164E-02  0.1186339E+00
        -11   -1    0    0    0    0  0.00000000000E+00  0.00000000000E+00  0.45593999997E+02  0.45594000000E+02  0.51100000000E-03 0. -1.
         11   -1    0    0    0    0 -0.00000000000E+00 -0.00000000000E+00 -0.45593999997E+02  0.45594000000E+02  0.51100000000E-03 0.  1.
    9900012    2    1    2    0    0 -0.35146927048E+00 -0.11245078282E+01 -0.69978198837E-01  0.90007768899E+02  0.90000030648E+02 0.  0.
         12    1    1    2    0    0  0.35146927048E+00  0.11245078282E+01  0.69978198837E-01  0.11802311011E+01  0.00000000000E+00 0. -1.
         11    1    3    3    0    0  0.49144325758E+01  0.16930154398E+02  0.19177312603E+01  0.17733005073E+02  0.51100000000E-03 0. -1.
        -11    1    3    3    0    0  0.16104017035E+02 -0.45082812901E+01 -0.30112040898E+02  0.34444142785E+02  0.51100000000E-03 0.  1.
         12    1    3    3    0    0 -0.21369918881E+02 -0.13546380936E+02  0.28124331439E+02  0.37830621041E+02  0.00000000000E+00 0. -1.
</event>
<event>
 7    1  0.4358868E-015  0.9000766E+02  0.7816164E-02  0.1186339E+00
        -11   -1    0    0    0    0  0.00000000000E+00  0.00000000000E+00  0.45593999997E+02  0.45594000000E+02  0.51100000000E-03 0.  1.
         11   -1    0    0    0    0 -0.00000000000E+00 -0.00000000000E+00 -0.45593999997E+02  0.45594000000E+02  0.51100000000E-03 0. -1.
    9900012    2    1    2    0    0 -0.11256516342E+01 -0.23185909527E+00  0.26896687355E+00  0.90007663853E+02  0.89999924215E+02 0.  0.
         12    1    1    2    0    0  0.11256516342E+01  0.23185909527E+00 -0.26896687355E+00  0.11803361473E+01  0.00000000000E+00 0. -1.
         11    1    3    3    0    0  0.81776924627E+00  0.38898805713E+01 -0.87028192473E+01  0.95676005618E+01  0.51100000000E-03 0. -1.
        -11    1    3    3    0    0 -0.21325758987E+02  0.16923759995E+02 -0.24346364953E+02  0.36523241031E+02  0.51100000000E-03 0.  1.
         12    1    3    3    0    0  0.19382338106E+02 -0.21045499662E+02  0.33318151073E+02  0.43916822260E+02  0.00000000000E+00 0. -1.
</event>
<event>
 7    1  0.4358868E-015  0.9000775E+02  0.7816164E-02  0.1186339E+00
        -11   -1    0    0    0    0  0.00000000000E+00  0.00000000000E+00  0.45593999997E+02  0.45594000000E+02  0.51100000000E-03 0.  1.
         11   -1    0    0    0    0 -0.00000000000E+00 -0.00000000000E+00 -0.45593999997E+02  0.45594000000E+02  0.51100000000E-03 0. -1.
    9900012    2    1    2    0    0  0.28336009876E+00 -0.33261628585E+00  0.10963869256E+01  0.90007749675E+02  0.90000011171E+02 0.  0.
         12    1    1    2    0    0 -0.28336009876E+00  0.33261628585E+00 -0.10963869256E+01  0.11802503250E+01  0.00000000000E+00 0. -1.
         11    1    3    3    0    0  0.16963257796E+02  0.20337440346E+02 -0.28757234812E+02  0.39094016796E+02  0.51100000000E-03 0. -1.
        -11    1    3    3    0    0  0.90605623517E+01 -0.25422862083E+01  0.42133415939E+01  0.10310638047E+02  0.51100000000E-03 0.  1.
        -12    1    3    3    0    0 -0.25740460049E+02 -0.18127770424E+02  0.25640280144E+02  0.40603094832E+02  0.00000000000E+00 0.  1.
</event>
<event>
 7    1  0.4358868E-015  0.9000774E+02  0.7816164E-02  0.1186339E+00
        -11   -1    0    0    0    0  0.00000000000E+00  0.00000000000E+00  0.45593999997E+02  0.45594000000E+02  0.51100000000E-03 0. -1.
         11   -1    0    0    0    0 -0.00000000000E+00 -0.00000000000E+00 -0.45593999997E+02  0.45594000000E+02  0.51100000000E-03 0.  1.
    9900012    2    1    2    0    0  0.10152992109E+01  0.55878149090E+00 -0.22348020203E+00  0.90007740434E+02  0.90000001808E+02 0.  0.
         12    1    1    2    0    0 -0.10152992109E+01 -0.55878149090E+00  0.22348020203E+00  0.11802595659E+01  0.00000000000E+00 0. -1.
         11    1    3    3    0    0 -0.12033086739E+02  0.31010478164E+02 -0.18641180647E+02  0.38130546135E+02  0.51100000000E-03 0. -1.
        -11    1    3    3    0    0 -0.62670092925E+01 -0.23622009888E+00 -0.58498390997E+01  0.85762359553E+01  0.51100000000E-03 0.  1.
         12    1    3    3    0    0  0.19315395242E+02 -0.30215476574E+02  0.24267539544E+02  0.43300958344E+02  0.00000000000E+00 0. -1.
</event>
<event>
 7    1  0.4358868E-015  0.9000762E+02  0.7816164E-02  0.1186339E+00
        -11   -1    0    0    0    0  0.00000000000E+00  0.00000000000E+00  0.45593999997E+02  0.45594000000E+02  0.51100000000E-03 0.  1.
         11   -1    0    0    0    0 -0.00000000000E+00 -0.00000000000E+00 -0.45593999997E+02  0.45594000000E+02  0.51100000000E-03 0. -1.
    9900012    2    1    2    0    0 -0.17570472347E+00 -0.10827292134E+01  0.43603689864E+00  0.90007617487E+02  0.89999877238E+02 0.  0.
         12    1    1    2    0    0  0.17570472347E+00  0.10827292134E+01 -0.43603689864E+00  0.11803825127E+01  0.00000000000E+00 0. -1.
         11    1    3    3    0    0  0.55589785678E+01  0.83535007233E+01 -0.38439069945E+02  0.39727135758E+02  0.51100000000E-03 0. -1.
        -11    1    3    3    0    0  0.43388441405E+01  0.67109948721E+01  0.12132082102E+01  0.80830003755E+01  0.51100000000E-03 0.  1.
        -12    1    3    3    0    0 -0.10073527432E+02 -0.16147224809E+02  0.37661898633E+02  0.42197481354E+02  0.00000000000E+00 0.  1.
</event>
<event>
 7    1  0.4358868E-015  0.9000774E+02  0.7816164E-02  0.1186339E+00
        -11   -1    0    0    0    0  0.00000000000E+00  0.00000000000E+00  0.45593999997E+02  0.45594000000E+02  0.51100000000E-03 0.  1.
         11   -1    0    0    0    0 -0.00000000000E+00 -0.00000000000E+00 -0.45593999997E+02  0.45594000000E+02  0.51100000000E-03 0. -1.
    9900012    2    1    2    0    0  0.62195181776E+00  0.87673761783E+00 -0.48735849063E+00  0.90007741040E+02  0.90000002422E+02 0.  0.
         12    1    1    2    0    0 -0.62195181776E+00 -0.87673761783E+00  0.48735849063E+00  0.11802589599E+01  0.00000000000E+00 0. -1.
         11    1    3    3    0    0  0.25516852541E+02 -0.26152830449E+02  0.24696199162E+01  0.36622115271E+02  0.51100000000E-03 0. -1.
        -11    1    3    3    0    0  0.55002927229E+01 -0.10308218073E+00 -0.10589493187E+02  0.11933197903E+02  0.51100000000E-03 0.  1.
        -12    1    3    3    0    0 -0.30395193447E+02  0.27132650248E+02  0.76325147804E+01  0.41452427866E+02  0.00000000000E+00 0.  1.
</event>
<event>
 7    1  0.4358868E-015  0.9000767E+02  0.7816164E-02  0.1186339E+00
        -11   -1    0    0    0    0  0.00000000000E+00  0.00000000000E+00  0.45593999997E+02  0.45594000000E+02  0.51100000000E-03 0.  1.
         11   -1    0    0    0    0 -0.00000000000E+00 -0.00000000000E+00 -0.45593999997E+02  0.45594000000E+02  0.51100000000E-03 0. -1.
    9900012    2    1    2    0    0 -0.71489169577E+00  0.22109400215E+00  0.91281333919E+00  0.90007669162E+02  0.89999929595E+02 0.  0.
         12    1    1    2    0    0  0.71489169577E+00 -0.22109400215E+00 -0.91281333919E+00  0.11803308378E+01  0.00000000000E+00 0. -1.
         11    1    3    3    0    0  0.55434135848E+01  0.35281785797E+02 -0.18328127899E+02  0.40142921116E+02  0.51100000000E-03 0. -1.
        -11    1    3    3    0    0 -0.27962732289E+01  0.42235535372E+01  0.68659422351E+01  0.85322160949E+01  0.51100000000E-03 0.  1.
        -12    1    3    3    0    0 -0.34620320517E+01 -0.39284245332E+02  0.12374999003E+02  0.41332531952E+02  0.00000000000E+00 0.  1.
</event>
<event>
 7    1  0.4978535E-015  0.9000742E+02  0.7816164E-02  0.1186340E+00
        -11   -1    0    0    0    0  0.00000000000E+00  0.00000000000E+00  0.45593999997E+02  0.45594000000E+02  0.51100000000E-03 0. -1.
         11   -1    0    0    0    0 -0.00000000000E+00 -0.00000000000E+00 -0.45593999997E+02  0.45594000000E+02  0.51100000000E-03 0.  1.
    9900012    2    1    2    0    0 -0.75019698212E+00  0.76643197429E+00 -0.49350997680E+00  0.90007421506E+02  0.89999678669E+02 0.  0.
         12    1    1    2    0    0  0.75019698212E+00 -0.76643197429E+00  0.49350997680E+00  0.11805784940E+01  0.00000000000E+00 0. -1.
         11    1    3    3    0    0 -0.15770425557E+02  0.15465338061E+02  0.33566435373E+02  0.40181943550E+02  0.51100000000E-03 0. -1.
        -11    1    3    3    0    0  0.77272058178E+01  0.51899455272E+01  0.46460784149E+00  0.93199305272E+01  0.51100000000E-03 0.  1.
        -12    1    3    3    0    0  0.72930227567E+01 -0.19888851613E+02 -0.34524553191E+02  0.40505547429E+02  0.00000000000E+00 0.  1.
</event>
<event>
 7    1  0.4358868E-015  0.9000787E+02  0.7816164E-02  0.1186339E+00
        -11   -1    0    0    0    0  0.00000000000E+00  0.00000000000E+00  0.45593999997E+02  0.45594000000E+02  0.51100000000E-03 0.  1.
         11   -1    0    0    0    0 -0.00000000000E+00 -0.00000000000E+00 -0.45593999997E+02  0.45594000000E+02  0.51100000000E-03 0. -1.
    9900012    2    1    2    0    0  0.70409372112E+00  0.84351893505E+00  0.43061026094E+00  0.90007874007E+02  0.90000137144E+02 0.  0.
         12    1    1    2    0    0 -0.70409372112E+00 -0.84351893505E+00 -0.43061026094E+00  0.11801259927E+01  0.00000000000E+00 0. -1.
         11    1    3    3    0    0  0.15766432983E+02  0.34470344544E+02 -0.77664279048E+01  0.38692408359E+02  0.51100000000E-03 0. -1.
        -11    1    3    3    0    0  0.31007602477E+01  0.40542646147E+01  0.79943623239E+01  0.94848091655E+01  0.51100000000E-03 0.  1.
        -12    1    3    3    0    0 -0.18163099510E+02 -0.37681090224E+02  0.20267584190E+00  0.41830656482E+02  0.00000000000E+00 0.  1.
</event>
<event>
 7    1  0.4358868E-015  0.9000862E+02  0.7816164E-02  0.1186337E+00
        -11   -1    0    0    0    0  0.00000000000E+00  0.00000000000E+00  0.45593999997E+02  0.45594000000E+02  0.51100000000E-03 0. -1.
         11   -1    0    0    0    0 -0.00000000000E+00 -0.00000000000E+00 -0.45593999997E+02  0.45594000000E+02  0.51100000000E-03 0.  1.
    9900012    2    1    2    0    0 -0.10842962140E+01 -0.32854158723E+00 -0.32755491141E+00  0.90008623014E+02  0.90000896034E+02 0.  0.
         12    1    1    2    0    0  0.10842962140E+01  0.32854158723E+00  0.32755491141E+00  0.11793769857E+01  0.00000000000E+00 0. -1.
         11    1    3    3    0    0  0.11274838935E+02  0.15187725476E+01 -0.53886811215E+01  0.12588349675E+02  0.51100000000E-03 0. -1.
        -11    1    3    3    0    0 -0.82014787518E+01  0.29180465174E+02 -0.20844309764E+02  0.36786533559E+02  0.51100000000E-03 0.  1.
         12    1    3    3    0    0 -0.41576563970E+01 -0.31027779308E+02  0.25905435974E+02  0.40633739780E+02  0.00000000000E+00 0. -1.
</event>
<event>
 7    1  0.4358868E-015  0.9000776E+02  0.7816164E-02  0.1186339E+00
        -11   -1    0    0    0    0  0.00000000000E+00  0.00000000000E+00  0.45593999997E+02  0.45594000000E+02  0.51100000000E-03 0. -1.
         11   -1    0    0    0    0 -0.00000000000E+00 -0.00000000000E+00 -0.45593999997E+02  0.45594000000E+02  0.51100000000E-03 0.  1.
    9900012    2    1    2    0    0 -0.30854915487E+00 -0.56037114050E+00 -0.99183918749E+00  0.90007761308E+02  0.90000022957E+02 0.  0.
         12    1    1    2    0    0  0.30854915487E+00  0.56037114050E+00  0.99183918749E+00  0.11802386919E+01  0.00000000000E+00 0. -1.
         11    1    3    3    0    0 -0.90051786268E+01 -0.13137826566E+01  0.43789202642E+01  0.10099218282E+02  0.51100000000E-03 0. -1.
        -11    1    3    3    0    0 -0.32722800129E+02 -0.15141048666E+01 -0.16892229671E+02  0.36856771227E+02  0.51100000000E-03 0.  1.
         12    1    3    3    0    0  0.41419429601E+02  0.22675163827E+01  0.11521470219E+02  0.43051771798E+02  0.00000000000E+00 0. -1.
</event>
<event>
 7    1  0.4358868E-015  0.9000779E+02  0.7816164E-02  0.1186339E+00
        -11   -1    0    0    0    0  0.00000000000E+00  0.00000000000E+00  0.45593999997E+02  0.45594000000E+02  0.51100000000E-03 0.  1.
         11   -1    0    0    0    0 -0.00000000000E+00 -0.00000000000E+00 -0.45593999997E+02  0.45594000000E+02  0.51100000000E-03 0. -1.
    9900012    2    1    2    0    0 -0.58860961202E+00 -0.51187934598E+00  0.88567692605E+00  0.90007785885E+02  0.90000047859E+02 0.  0.
         12    1    1    2    0    0  0.58860961202E+00  0.51187934598E+00 -0.88567692605E+00  0.11802141151E+01  0.00000000000E+00 0. -1.
         11    1    3    3    0    0  0.56511411487E+00  0.23600989977E+01  0.91770549748E+01  0.94925107065E+01  0.51100000000E-03 0. -1.
        -11    1    3    3    0    0 -0.11852307663E+01 -0.12436987867E+02  0.34487204432E+02  0.36680385889E+02  0.51100000000E-03 0.  1.
         12    1    3    3    0    0  0.31507039406E-01  0.95650095232E+01 -0.42778582481E+02  0.43834889289E+02  0.00000000000E+00 0. -1.
</event>
<event>
 7    1  0.4358868E-015  0.9000773E+02  0.7816164E-02  0.1186339E+00
        -11   -1    0    0    0    0  0.00000000000E+00  0.00000000000E+00  0.45593999997E+02  0.45594000000E+02  0.51100000000E-03 0. -1.
         11   -1    0    0    0    0 -0.00000000000E+00 -0.00000000000E+00 -0.45593999997E+02  0.45594000000E+02  0.51100000000E-03 0.  1.
    9900012    2    1    2    0    0  0.41429349073E+00  0.76788882131E+00 -0.79482978038E+00  0.90007725999E+02  0.89999987182E+02 0.  0.
         12    1    1    2    0    0 -0.41429349073E+00 -0.76788882131E+00  0.79482978038E+00  0.11802740013E+01  0.00000000000E+00 0. -1.
         11    1    3    3    0    0 -0.17377091056E+01  0.68252018598E+01  0.33692996151E+01  0.78073807081E+01  0.51100000000E-03 0. -1.
        -11    1    3    3    0    0 -0.18439959708E+02  0.12248324924E+02 -0.34644311677E+02  0.41113038191E+02  0.51100000000E-03 0.  1.
         12    1    3    3    0    0  0.20591962304E+02 -0.18305637962E+02  0.30480182282E+02  0.41087307099E+02  0.00000000000E+00 0. -1.
</event>
<event>
 7    1  0.4358868E-015  0.9000758E+02  0.7816164E-02  0.1186339E+00
        -11   -1    0    0    0    0  0.00000000000E+00  0.00000000000E+00  0.45593999997E+02  0.45594000000E+02  0.51100000000E-03 0. -1.
         11   -1    0    0    0    0 -0.00000000000E+00 -0.00000000000E+00 -0.45593999997E+02  0.45594000000E+02  0.51100000000E-03 0.  1.
    9900012    2    1    2    0    0  0.79080662062E+00  0.18769775554E+00 -0.85602675774E+00  0.90007581698E+02  0.89999840976E+02 0.  0.
         12    1    1    2    0    0 -0.79080662062E+00 -0.18769775554E+00  0.85602675774E+00  0.11804183024E+01  0.00000000000E+00 0. -1.
         11    1    3    3    0    0  0.10165880416E+01 -0.64517245850E+01 -0.74919231793E+01  0.99391707176E+01  0.51100000000E-03 0. -1.
        -11    1    3    3    0    0  0.96968800265E+01  0.41109283322E+01 -0.35332500899E+02  0.36868887073E+02  0.51100000000E-03 0.  1.
         12    1    3    3    0    0 -0.99226614475E+01  0.25284940084E+01  0.41968397320E+02  0.43199523907E+02  0.00000000000E+00 0. -1.
</event>
<event>
 7    1  0.4358868E-015  0.9000773E+02  0.7816164E-02  0.1186339E+00
        -11   -1    0    0    0    0  0.00000000000E+00  0.00000000000E+00  0.45593999997E+02  0.45594000000E+02  0.51100000000E-03 0. -1.
         11   -1    0    0    0    0 -0.00000000000E+00 -0.00000000000E+00 -0.45593999997E+02  0.45594000000E+02  0.51100000000E-03 0.  1.
    9900012    2    1    2    0    0 -0.66581548954E+00 -0.27579979895E-01 -0.97415377026E+00  0.90007726096E+02  0.89999987280E+02 0.  0.
         12    1    1    2    0    0  0.66581548954E+00  0.27579979895E-01  0.97415377026E+00  0.11802739044E+01  0.00000000000E+00 0. -1.
         11    1    3    3    0    0  0.47582812953E+00 -0.11304479209E+02  0.13548159653E+01  0.11395314351E+02  0.51100000000E-03 0. -1.
        -11    1    3    3    0    0 -0.26587049429E+02 -0.23307287148E+02 -0.43801183476E+01  0.35627044061E+02  0.51100000000E-03 0.  1.
         12    1    3    3    0    0  0.25445405810E+02  0.34584186377E+02  0.20511486120E+01  0.42985367683E+02  0.00000000000E+00 0. -1.
</event>
<event>
 7    1  0.4358868E-015  0.9000784E+02  0.7816164E-02  0.1186339E+00
        -11   -1    0    0    0    0  0.00000000000E+00  0.00000000000E+00  0.45593999997E+02  0.45594000000E+02  0.51100000000E-03 0.  1.
         11   -1    0    0    0    0 -0.00000000000E+00 -0.00000000000E+00 -0.45593999997E+02  0.45594000000E+02  0.51100000000E-03 0. -1.
    9900012    2    1    2    0    0  0.50758014767E+00  0.23189721174E-01  0.10651756310E+01  0.90007841327E+02  0.90000104032E+02 0.  0.
         12    1    1    2    0    0 -0.50758014767E+00 -0.23189721174E-01 -0.10651756310E+01  0.11801586733E+01  0.00000000000E+00 0. -1.
         11    1    3    3    0    0  0.58543513253E+00 -0.65062434927E+01  0.59903965288E+01  0.88633396366E+01  0.51100000000E-03 0. -1.
        -11    1    3    3    0    0 -0.11079232000E+02  0.33305618153E+02  0.22152651497E+02  0.41506066434E+02  0.51100000000E-03 0.  1.
         12    1    3    3    0    0  0.11001377015E+02 -0.26776184939E+02 -0.27077872395E+02  0.39638435256E+02  0.00000000000E+00 0. -1.
</event>
<event>
 7    1  0.4358868E-015  0.9000775E+02  0.7816164E-02  0.1186339E+00
        -11   -1    0    0    0    0  0.00000000000E+00  0.00000000000E+00  0.45593999997E+02  0.45594000000E+02  0.51100000000E-03 0.  1.
         11   -1    0    0    0    0 -0.00000000000E+00 -0.00000000000E+00 -0.45593999997E+02  0.45594000000E+02  0.51100000000E-03 0. -1.
    9900012    2    1    2    0    0  0.10074527495E+01  0.21959647700E+00 -0.57429472899E+00  0.90007746599E+02  0.90000008054E+02 0.  0.
         12    1    1    2    0    0 -0.10074527495E+01 -0.21959647700E+00  0.57429472899E+00  0.11802534012E+01  0.00000000000E+00 0. -1.
         11    1    3    3    0    0  0.90443530249E+01  0.26834983701E+01 -0.22536714519E+01  0.96995113493E+01  0.51100000000E-03 0. -1.
        -11    1    3    3    0    0 -0.25713662731E+01 -0.32998098628E+02  0.25017850371E+02  0.41489508011E+02  0.51100000000E-03 0.  1.
         12    1    3    3    0    0 -0.54655340023E+01  0.30534196735E+02 -0.23338473648E+02  0.38818727238E+02  0.00000000000E+00 0. -1.
</event>
<event>
 7    1  0.4358868E-015  0.9000771E+02  0.7816164E-02  0.1186339E+00
        -11   -1    0    0    0    0  0.00000000000E+00  0.00000000000E+00  0.45593999997E+02  0.45594000000E+02  0.51100000000E-03 0. -1.
         11   -1    0    0    0    0 -0.00000000000E+00 -0.00000000000E+00 -0.45593999997E+02  0.45594000000E+02  0.51100000000E-03 0.  1.
    9900012    2    1    2    0    0  0.80498609506E+00  0.53209900262E+00  0.67966390499E+00  0.90007714024E+02  0.89999975049E+02 0.  0.
         12    1    1    2    0    0 -0.80498609506E+00 -0.53209900262E+00 -0.67966390499E+00  0.11802859762E+01  0.00000000000E+00 0. -1.
         11    1    3    3    0    0 -0.39411840548E+02 -0.18819799179E+01  0.25310715767E+01  0.39537847026E+02  0.51100000000E-03 0. -1.
        -11    1    3    3    0    0 -0.11829403629E+00  0.12070023018E-01 -0.93691382453E+01  0.93698927894E+01  0.51100000000E-03 0.  1.
        -12    1    3    3    0    0  0.40335120680E+02  0.24020088975E+01  0.75177305736E+01  0.41099974209E+02  0.00000000000E+00 0.  1.
</event>
<event>
 7    1  0.4358868E-015  0.9000771E+02  0.7816164E-02  0.1186339E+00
        -11   -1    0    0    0    0  0.00000000000E+00  0.00000000000E+00  0.45593999997E+02  0.45594000000E+02  0.51100000000E-03 0.  1.
         11   -1    0    0    0    0 -0.00000000000E+00 -0.00000000000E+00 -0.45593999997E+02  0.45594000000E+02  0.51100000000E-03 0. -1.
    9900012    2    1    2    0    0 -0.53793128858E+00 -0.85176526900E+00 -0.61499292337E+00  0.90007707477E+02  0.89999968415E+02 0.  0.
         12    1    1    2    0    0  0.53793128858E+00  0.85176526900E+00  0.61499292337E+00  0.11802925233E+01  0.00000000000E+00 0. -1.
         11    1    3    3    0    0 -0.34932908735E+01 -0.77773893775E+01 -0.44986974149E+01  0.96399764184E+01  0.51100000000E-03 0. -1.
        -11    1    3    3    0    0  0.16269551696E+02 -0.36896501189E+01  0.38406844109E+02  0.41873589588E+02  0.51100000000E-03 0.  1.
         12    1    3    3    0    0 -0.13314192111E+02  0.10615274227E+02 -0.34523139617E+02  0.38494141470E+02  0.00000000000E+00 0. -1.
</event>
<event>
 7    1  0.4358868E-015  0.9000784E+02  0.7816164E-02  0.1186339E+00
        -11   -1    0    0    0    0  0.00000000000E+00  0.00000000000E+00  0.45593999997E+02  0.45594000000E+02  0.51100000000E-03 0. -1.
         11   -1    0    0    0    0 -0.00000000000E+00 -0.00000000000E+00 -0.45593999997E+02  0.45594000000E+02  0.51100000000E-03 0.  1.
    9900012    2    1    2    0    0  0.96531376222E+00  0.48032034066E+00 -0.47982829163E+00  0.90007841757E+02  0.90000104468E+02 0.  0.
         12    1    1    2    0    0 -0.96531376222E+00 -0.48032034066E+00  0.47982829163E+00  0.11801582430E+01  0.00000000000E+00 0. -1.
         11    1    3    3    0    0 -0.17305123376E+02  0.21224913699E+02  0.25351511453E+02  0.37318405510E+02  0.51100000000E-03 0. -1.
        -11    1    3    3    0    0 -0.10309289989E+02 -0.57799225660E+01 -0.78046645378E+00  0.11844749600E+02  0.51100000000E-03 0.  1.
        -12    1    3    3    0    0  0.28579727128E+02 -0.14964670792E+02 -0.25050873291E+02  0.40844686647E+02  0.00000000000E+00 0.  1.
</event>
<event>
 7    1  0.1464207E-014  0.9000775E+02  0.7816164E-02  0.1186339E+00
        -11   -1    0    0    0    0  0.00000000000E+00  0.00000000000E+00  0.45593999997E+02  0.45594000000E+02  0.51100000000E-03 0. -1.
         11   -1    0    0    0    0 -0.00000000000E+00 -0.00000000000E+00 -0.45593999997E+02  0.45594000000E+02  0.51100000000E-03 0.  1.
    9900012    2    1    2    0    0  0.44626403130E+00  0.35447338857E+00 -0.10335358889E+01  0.90007746043E+02  0.90000007491E+02 0.  0.
         12    1    1    2    0    0 -0.44626403130E+00 -0.35447338857E+00  0.10335358889E+01  0.11802539568E+01  0.00000000000E+00 0. -1.
         11    1    3    3    0    0  0.16668324580E+02 -0.17414697746E+01  0.35577226831E+02  0.39326897037E+02  0.51100000000E-03 0. -1.
        -11    1    3    3    0    0 -0.90950763188E+01  0.14298079784E+00  0.36103709375E+01  0.97865027114E+01  0.51100000000E-03 0.  1.
        -12    1    3    3    0    0 -0.71269842295E+01  0.19529623653E+01 -0.40221133658E+02  0.40894346295E+02  0.00000000000E+00 0.  1.
</event>
<event>
 7    1  0.4358868E-015  0.9000774E+02  0.7816164E-02  0.1186339E+00
        -11   -1    0    0    0    0  0.00000000000E+00  0.00000000000E+00  0.45593999997E+02  0.45594000000E+02  0.51100000000E-03 0.  1.
         11   -1    0    0    0    0 -0.00000000000E+00 -0.00000000000E+00 -0.45593999997E+02  0.45594000000E+02  0.51100000000E-03 0. -1.
    9900012    2    1    2    0    0  0.61648885003E+00 -0.80246326641E-01  0.10032506050E+01  0.90007741659E+02  0.90000003049E+02 0.  0.
         12    1    1    2    0    0 -0.61648885003E+00  0.80246326641E-01 -0.10032506050E+01  0.11802583410E+01  0.00000000000E+00 0. -1.
         11    1    3    3    0    0 -0.10961788005E+02 -0.48896928479E+01 -0.21758729501E+02  0.24849792800E+02  0.51100000000E-03 0. -1.
        -11    1    3    3    0    0 -0.23604648861E+02  0.49555246525E+01  0.17606874007E+01  0.24183397049E+02  0.51100000000E-03 0.  1.
        -12    1    3    3    0    0  0.35182925716E+02 -0.14607813129E+00  0.21001292705E+02  0.40974551811E+02  0.00000000000E+00 0.  1.
</event>
<event>
 7    1  0.4358868E-015  0.9000780E+02  0.7816164E-02  0.1186339E+00
        -11   -1    0    0    0    0  0.00000000000E+00  0.00000000000E+00  0.45593999997E+02  0.45594000000E+02  0.51100000000E-03 0.  1.
         11   -1    0    0    0    0 -0.00000000000E+00 -0.00000000000E+00 -0.45593999997E+02  0.45594000000E+02  0.51100000000E-03 0. -1.
    9900012    2    1    2    0    0  0.80388305551E+00  0.58844824785E-01  0.86207684291E+00  0.90007802066E+02  0.90000064253E+02 0.  0.
         12    1    1    2    0    0 -0.80388305551E+00 -0.58844824785E-01 -0.86207684291E+00  0.11801979340E+01  0.00000000000E+00 0. -1.
         11    1    3    3    0    0 -0.17619975895E+02  0.11694827226E+02 -0.36575488614E+02  0.42249247354E+02  0.51100000000E-03 0. -1.
        -11    1    3    3    0    0 -0.81829102270E+00 -0.81023197935E+01  0.41315314764E+01  0.91316339630E+01  0.51100000000E-03 0.  1.
        -12    1    3    3    0    0  0.19242149973E+02 -0.35336626082E+01  0.33306033980E+02  0.38626920749E+02  0.00000000000E+00 0.  1.
</event>
<event>
 7    1  0.4358868E-015  0.9000781E+02  0.7816164E-02  0.1186339E+00
        -11   -1    0    0    0    0  0.00000000000E+00  0.00000000000E+00  0.45593999997E+02  0.45594000000E+02  0.51100000000E-03 0.  1.
         11   -1    0    0    0    0 -0.00000000000E+00 -0.00000000000E+00 -0.45593999997E+02  0.45594000000E+02  0.51100000000E-03 0. -1.
    9900012    2    1    2    0    0 -0.10168942928E+01  0.59330686850E+00 -0.82237972066E-01  0.90007809284E+02  0.90000071566E+02 0.  0.
         12    1    1    2    0    0  0.10168942928E+01 -0.59330686850E+00  0.82237972066E-01  0.11801907164E+01  0.00000000000E+00 0. -1.
         11    1    3    3    0    0 -0.30527599783E+01 -0.79220453338E+01 -0.18985402370E+01  0.86995747625E+01  0.51100000000E-03 0. -1.
        -11    1    3    3    0    0  0.38631357102E+02 -0.83701716186E+01  0.85619269662E+01  0.40444383023E+02  0.51100000000E-03 0.  1.
         12    1    3    3    0    0 -0.36595491416E+02  0.16885523821E+02 -0.67456247013E+01  0.40863851499E+02  0.00000000000E+00 0. -1.
</event>
<event>
 7    1  0.4358868E-015  0.9000802E+02  0.7816164E-02  0.1186338E+00
        -11   -1    0    0    0    0  0.00000000000E+00  0.00000000000E+00  0.45593999997E+02  0.45594000000E+02  0.51100000000E-03 0. -1.
         11   -1    0    0    0    0 -0.00000000000E+00 -0.00000000000E+00 -0.45593999997E+02  0.45594000000E+02  0.51100000000E-03 0.  1.
    9900012    2    1    2    0    0  0.55205820947E+00 -0.85721069330E+00 -0.59394128689E+00  0.90008023436E+02  0.90000288545E+02 0.  0.
         12    1    1    2    0    0 -0.55205820947E+00  0.85721069330E+00  0.59394128689E+00  0.11799765640E+01  0.00000000000E+00 0. -1.
         11    1    3    3    0    0  0.38011078688E+01 -0.20949168915E+01  0.35983030008E+02  0.36243834601E+02  0.51100000000E-03 0. -1.
        -11    1    3    3    0    0  0.91335102206E+01 -0.97193687207E-02  0.49666004715E+01  0.10396548654E+02  0.51100000000E-03 0.  1.
        -12    1    3    3    0    0 -0.12382559880E+02  0.12474255670E+01 -0.41543571766E+02  0.43367640180E+02  0.00000000000E+00 0.  1.
</event>
<event>
 7    1  0.7239673E-015  0.9000780E+02  0.7816164E-02  0.1186339E+00
        -11   -1    0    0    0    0  0.00000000000E+00  0.00000000000E+00  0.45593999997E+02  0.45594000000E+02  0.51100000000E-03 0.  1.
         11   -1    0    0    0    0 -0.00000000000E+00 -0.00000000000E+00 -0.45593999997E+02  0.45594000000E+02  0.51100000000E-03 0. -1.
    9900012    2    1    2    0    0 -0.61870817363E+00 -0.87581968947E+00  0.49295269765E+00  0.90007804129E+02  0.90000066343E+02 0.  0.
         12    1    1    2    0    0  0.61870817363E+00  0.87581968947E+00 -0.49295269765E+00  0.11801958713E+01  0.00000000000E+00 0. -1.
         11    1    3    3    0    0  0.15855156196E+02 -0.25012011216E+02 -0.25526736557E+02  0.39097326796E+02  0.51100000000E-03 0. -1.
        -11    1    3    3    0    0  0.90428248609E+01  0.10887388331E+01  0.32510045957E+01  0.96709391920E+01  0.51100000000E-03 0.  1.
        -12    1    3    3    0    0 -0.25516689231E+02  0.23047452693E+02  0.22768684659E+02  0.41239538141E+02  0.00000000000E+00 0.  1.
</event>
<event>
 7    1  0.4358868E-015  0.9000772E+02  0.7816164E-02  0.1186339E+00
        -11   -1    0    0    0    0  0.00000000000E+00  0.00000000000E+00  0.45593999997E+02  0.45594000000E+02  0.51100000000E-03 0. -1.
         11   -1    0    0    0    0 -0.00000000000E+00 -0.00000000000E+00 -0.45593999997E+02  0.45594000000E+02  0.51100000000E-03 0.  1.
    9900012    2    1    2    0    0  0.34599981545E+00 -0.72463806538E+00 -0.86500673471E+00  0.90007723401E+02  0.89999984550E+02 0.  0.
         12    1    1    2    0    0 -0.34599981545E+00  0.72463806538E+00  0.86500673471E+00  0.11802765986E+01  0.00000000000E+00 0. -1.
         11    1    3    3    0    0 -0.21131152482E+02 -0.25676311611E+02 -0.36890069340E+01  0.33457545571E+02  0.51100000000E-03 0. -1.
        -11    1    3    3    0    0 -0.61869970651E+01 -0.91521864507E+01  0.59096725710E+01  0.12528594481E+02  0.51100000000E-03 0.  1.
        -12    1    3    3    0    0  0.27664149363E+02  0.34103859997E+02 -0.30856723717E+01  0.44021583350E+02  0.00000000000E+00 0.  1.
</event>
<event>
 7    1  0.4358868E-015  0.9000782E+02  0.7816164E-02  0.1186339E+00
        -11   -1    0    0    0    0  0.00000000000E+00  0.00000000000E+00  0.45593999997E+02  0.45594000000E+02  0.51100000000E-03 0.  1.
         11   -1    0    0    0    0 -0.00000000000E+00 -0.00000000000E+00 -0.45593999997E+02  0.45594000000E+02  0.51100000000E-03 0. -1.
    9900012    2    1    2    0    0 -0.11310135574E+01 -0.33317062794E+00  0.51174887948E-01  0.90007824927E+02  0.90000087416E+02 0.  0.
         12    1    1    2    0    0  0.11310135574E+01  0.33317062794E+00 -0.51174887948E-01  0.11801750732E+01  0.00000000000E+00 0. -1.
         11    1    3    3    0    0 -0.26286391100E+02 -0.30895176408E+02  0.70046306261E+01  0.41164926002E+02  0.51100000000E-03 0. -1.
        -11    1    3    3    0    0 -0.58691705048E+01  0.79689492147E+01 -0.37673767133E+00  0.99042034276E+01  0.51100000000E-03 0.  1.
        -12    1    3    3    0    0  0.31024548047E+02  0.22593056565E+02 -0.65767180668E+01  0.38938695497E+02  0.00000000000E+00 0.  1.
</event>
<event>
 7    1  0.4358868E-015  0.9000770E+02  0.7816164E-02  0.1186339E+00
        -11   -1    0    0    0    0  0.00000000000E+00  0.00000000000E+00  0.45593999997E+02  0.45594000000E+02  0.51100000000E-03 0.  1.
         11   -1    0    0    0    0 -0.00000000000E+00 -0.00000000000E+00 -0.45593999997E+02  0.45594000000E+02  0.51100000000E-03 0. -1.
    9900012    2    1    2    0    0  0.11501660419E+01 -0.26301203521E+00 -0.32255716329E-01  0.90007704407E+02  0.89999965306E+02 0.  0.
         12    1    1    2    0    0 -0.11501660419E+01  0.26301203521E+00  0.32255716329E-01  0.11802955926E+01  0.00000000000E+00 0. -1.
         11    1    3    3    0    0  0.58734938566E+01 -0.44508948949E+01  0.60286006650E+01  0.95211565310E+01  0.51100000000E-03 0. -1.
        -11    1    3    3    0    0  0.26628438625E+02 -0.25645850112E+02 -0.34254186810E+01  0.37128383549E+02  0.51100000000E-03 0.  1.
         12    1    3    3    0    0 -0.31351766440E+02  0.29833732972E+02 -0.26354377004E+01  0.43358164327E+02  0.00000000000E+00 0. -1.
</event>
<event>
 7    1  0.4358868E-015  0.9000768E+02  0.7816164E-02  0.1186339E+00
        -11   -1    0    0    0    0  0.00000000000E+00  0.00000000000E+00  0.45593999997E+02  0.45594000000E+02  0.51100000000E-03 0. -1.
         11   -1    0    0    0    0 -0.00000000000E+00 -0.00000000000E+00 -0.45593999997E+02  0.45594000000E+02  0.51100000000E-03 0.  1.
    9900012    2    1    2    0    0 -0.68514399187E-01  0.83626084246E+00  0.83013863728E+00  0.90007679460E+02  0.89999940029E+02 0.  0.
         12    1    1    2    0    0  0.68514399187E-01 -0.83626084246E+00 -0.83013863728E+00  0.11803205398E+01  0.00000000000E+00 0. -1.
         11    1    3    3    0    0 -0.25135230200E+01  0.40559131852E+01  0.25720748461E+01  0.54206825228E+01  0.51100000000E-03 0. -1.
        -11    1    3    3    0    0 -0.26085576980E+02  0.98932612128E+01 -0.30974320274E+02  0.41686238263E+02  0.51100000000E-03 0.  1.
         12    1    3    3    0    0  0.28530585601E+02 -0.13112913556E+02  0.29232384066E+02  0.42900758674E+02  0.00000000000E+00 0. -1.
</event>
<event>
 7    1  0.4358868E-015  0.9000773E+02  0.7816164E-02  0.1186339E+00
        -11   -1    0    0    0    0  0.00000000000E+00  0.00000000000E+00  0.45593999997E+02  0.45594000000E+02  0.51100000000E-03 0.  1.
         11   -1    0    0    0    0 -0.00000000000E+00 -0.00000000000E+00 -0.45593999997E+02  0.45594000000E+02  0.51100000000E-03 0. -1.
    9900012    2    1    2    0    0 -0.50941186116E+00 -0.10181045977E+01  0.31146604568E+00  0.90007725238E+02  0.89999986411E+02 0.  0.
         12    1    1    2    0    0  0.50941186116E+00  0.10181045977E+01 -0.31146604568E+00  0.11802747619E+01  0.00000000000E+00 0. -1.
         11    1    3    3    0    0 -0.89413146665E+01 -0.55426148906E+01  0.65180654642E+01  0.12375494554E+02  0.51100000000E-03 0. -1.
        -11    1    3    3    0    0 -0.33433003684E+02 -0.29421615423E+01 -0.97764079309E+01  0.34957119478E+02  0.51100000000E-03 0.  1.
         12    1    3    3    0    0  0.41864906490E+02  0.74666718352E+01  0.35698085124E+01  0.42675111207E+02  0.00000000000E+00 0. -1.
</event>
<event>
 7    1  0.4358868E-015  0.9000775E+02  0.7816164E-02  0.1186339E+00
        -11   -1    0    0    0    0  0.00000000000E+00  0.00000000000E+00  0.45593999997E+02  0.45594000000E+02  0.51100000000E-03 0. -1.
         11   -1    0    0    0    0 -0.00000000000E+00 -0.00000000000E+00 -0.45593999997E+02  0.45594000000E+02  0.51100000000E-03 0.  1.
    9900012    2    1    2    0    0  0.95167227736E+00 -0.43959626051E+00  0.54228442695E+00  0.90007746893E+02  0.90000008352E+02 0.  0.
         12    1    1    2    0    0 -0.95167227736E+00  0.43959626051E+00 -0.54228442695E+00  0.11802531065E+01  0.00000000000E+00 0. -1.
         11    1    3    3    0    0 -0.25449760721E+02 -0.81650829578E+01  0.27434284836E+02  0.38301421452E+02  0.51100000000E-03 0. -1.
        -11    1    3    3    0    0  0.70676667176E+01 -0.37825279695E+01  0.72559562052E+01  0.10812415613E+02  0.51100000000E-03 0.  1.
        -12    1    3    3    0    0  0.19333766281E+02  0.11508014667E+02 -0.34147956614E+02  0.40893909829E+02  0.00000000000E+00 0.  1.
</event>
<event>
 7    1  0.4358868E-015  0.9000786E+02  0.7816164E-02  0.1186339E+00
        -11   -1    0    0    0    0  0.00000000000E+00  0.00000000000E+00  0.45593999997E+02  0.45594000000E+02  0.51100000000E-03 0. -1.
         11   -1    0    0    0    0 -0.00000000000E+00 -0.00000000000E+00 -0.45593999997E+02  0.45594000000E+02  0.51100000000E-03 0.  1.
    9900012    2    1    2    0    0  0.42230690708E+00 -0.10065242509E+01 -0.44865938438E+00  0.90007860417E+02  0.90000123375E+02 0.  0.
         12    1    1    2    0    0 -0.42230690708E+00  0.10065242509E+01  0.44865938438E+00  0.11801395827E+01  0.00000000000E+00 0. -1.
         11    1    3    3    0    0  0.15110621525E+01  0.81634066214E+00  0.14482894570E+02  0.14584373702E+02  0.51100000000E-03 0. -1.
        -11    1    3    3    0    0  0.24959735270E+02 -0.12811865346E+02 -0.31874989114E+02  0.42463480895E+02  0.51100000000E-03 0.  1.
         12    1    3    3    0    0 -0.26048490516E+02  0.10989000433E+02  0.16943435160E+02  0.32960005820E+02  0.00000000000E+00 0. -1.
</event>
<event>
 7    1  0.4358868E-015  0.9000777E+02  0.7816164E-02  0.1186339E+00
        -11   -1    0    0    0    0  0.00000000000E+00  0.00000000000E+00  0.45593999997E+02  0.45594000000E+02  0.51100000000E-03 0. -1.
         11   -1    0    0    0    0 -0.00000000000E+00 -0.00000000000E+00 -0.45593999997E+02  0.45594000000E+02  0.51100000000E-03 0.  1.
    9900012    2    1    2    0    0 -0.47865589053E+00  0.78396278540E+00 -0.74109751784E+00  0.90007773479E+02  0.90000035289E+02 0.  0.
         12    1    1    2    0    0  0.47865589053E+00 -0.78396278540E+00  0.74109751784E+00  0.11802265212E+01  0.00000000000E+00 0. -1.
         11    1    3    3    0    0  0.57927875011E+00  0.12225063427E+02 -0.86320126235E+01  0.14976627853E+02  0.51100000000E-03 0. -1.
        -11    1    3    3    0    0 -0.20243136954E+02 -0.32548106457E+02 -0.12106533200E+02  0.40196168648E+02  0.51100000000E-03 0.  1.
         12    1    3    3    0    0  0.19185202313E+02  0.21107005815E+02  0.19997448305E+02  0.34834976977E+02  0.00000000000E+00 0. -1.
</event>
<event>
 7    1  0.4358868E-015  0.9000774E+02  0.7816164E-02  0.1186339E+00
        -11   -1    0    0    0    0  0.00000000000E+00  0.00000000000E+00  0.45593999997E+02  0.45594000000E+02  0.51100000000E-03 0.  1.
         11   -1    0    0    0    0 -0.00000000000E+00 -0.00000000000E+00 -0.45593999997E+02  0.45594000000E+02  0.51100000000E-03 0. -1.
    9900012    2    1    2    0    0  0.78717902739E+00  0.26507895811E+00  0.83850867634E+00  0.90007739658E+02  0.90000001021E+02 0.  0.
         12    1    1    2    0    0 -0.78717902739E+00 -0.26507895811E+00 -0.83850867634E+00  0.11802603422E+01  0.00000000000E+00 0. -1.
         11    1    3    3    0    0  0.21105337884E+02 -0.26343879901E+02 -0.52402918719E+01  0.34159858820E+02  0.51100000000E-03 0. -1.
        -11    1    3    3    0    0  0.25122181735E+01 -0.87093505828E+01 -0.73833204726E+01  0.11690913103E+02  0.51100000000E-03 0.  1.
        -12    1    3    3    0    0 -0.22830377030E+02  0.35318309442E+02  0.13462121021E+02  0.44156967735E+02  0.00000000000E+00 0.  1.
</event>
<event>
 7    1  0.4358868E-015  0.9000760E+02  0.7816164E-02  0.1186339E+00
        -11   -1    0    0    0    0  0.00000000000E+00  0.00000000000E+00  0.45593999997E+02  0.45594000000E+02  0.51100000000E-03 0. -1.
         11   -1    0    0    0    0 -0.00000000000E+00 -0.00000000000E+00 -0.45593999997E+02  0.45594000000E+02  0.51100000000E-03 0.  1.
    9900012    2    1    2    0    0 -0.86026147178E+00  0.79693490275E+00 -0.13490294502E+00  0.90007595898E+02  0.89999855364E+02 0.  0.
         12    1    1    2    0    0  0.86026147178E+00 -0.79693490275E+00  0.13490294502E+00  0.11804041018E+01  0.00000000000E+00 0. -1.
         11    1    3    3    0    0 -0.12368611492E+02  0.22806140919E+01 -0.60139626403E+00  0.12591482383E+02  0.51100000000E-03 0. -1.
        -11    1    3    3    0    0 -0.32992233839E+01 -0.32825243535E+02 -0.18581706728E+02  0.37863720278E+02  0.51100000000E-03 0.  1.
         12    1    3    3    0    0  0.14807573404E+02  0.31341564346E+02  0.19048200047E+02  0.39552393237E+02  0.00000000000E+00 0. -1.
</event>
<event>
 7    1  0.4358868E-015  0.9000708E+02  0.7816164E-02  0.1186340E+00
        -11   -1    0    0    0    0  0.00000000000E+00  0.00000000000E+00  0.45593999997E+02  0.45594000000E+02  0.51100000000E-03 0. -1.
         11   -1    0    0    0    0 -0.00000000000E+00 -0.00000000000E+00 -0.45593999997E+02  0.45594000000E+02  0.51100000000E-03 0.  1.
    9900012    2    1    2    0    0  0.71123165928E+00 -0.46793663995E+00  0.81838748334E+00  0.90007079492E+02  0.89999332139E+02 0.  0.
         12    1    1    2    0    0 -0.71123165928E+00  0.46793663995E+00 -0.81838748334E+00  0.11809205075E+01  0.00000000000E+00 0. -1.
         11    1    3    3    0    0  0.10503976145E+02 -0.27050048094E+01 -0.71703700554E+01  0.13002491025E+02  0.51100000000E-03 0. -1.
        -11    1    3    3    0    0  0.25479547456E+02 -0.20438926667E+02 -0.51369505269E+01  0.33065772679E+02  0.51100000000E-03 0.  1.
         12    1    3    3    0    0 -0.35272291942E+02  0.22675994837E+02  0.13125708066E+02  0.43938815788E+02  0.00000000000E+00 0. -1.
</event>
<event>
 7    1  0.4358868E-015  0.9000758E+02  0.7816164E-02  0.1186339E+00
        -11   -1    0    0    0    0  0.00000000000E+00  0.00000000000E+00  0.45593999997E+02  0.45594000000E+02  0.51100000000E-03 0. -1.
         11   -1    0    0    0    0 -0.00000000000E+00 -0.00000000000E+00 -0.45593999997E+02  0.45594000000E+02  0.51100000000E-03 0.  1.
    9900012    2    1    2    0    0 -0.35981957763E+00  0.24705187924E-01 -0.11239663652E+01  0.90007584452E+02  0.89999843767E+02 0.  0.
         12    1    1    2    0    0  0.35981957763E+00 -0.24705187924E-01  0.11239663652E+01  0.11804155476E+01  0.00000000000E+00 0. -1.
         11    1    3    3    0    0 -0.26485238595E+02  0.22967942120E+02  0.86368236308E+01  0.36105248252E+02  0.51100000000E-03 0. -1.
        -11    1    3    3    0    0 -0.44129966566E+01  0.44162187387E+01  0.72011575136E+01  0.95306976259E+01  0.51100000000E-03 0.  1.
        -12    1    3    3    0    0  0.30538415674E+02 -0.27359455671E+02 -0.16961947510E+02  0.44371638575E+02  0.00000000000E+00 0.  1.
</event>
<event>
 7    1  0.4358868E-015  0.9000785E+02  0.7816164E-02  0.1186339E+00
        -11   -1    0    0    0    0  0.00000000000E+00  0.00000000000E+00  0.45593999997E+02  0.45594000000E+02  0.51100000000E-03 0.  1.
         11   -1    0    0    0    0 -0.00000000000E+00 -0.00000000000E+00 -0.45593999997E+02  0.45594000000E+02  0.51100000000E-03 0. -1.
    9900012    2    1    2    0    0 -0.98809255092E+00 -0.49996577901E+00  0.40800423120E+00  0.90007847416E+02  0.90000110202E+02 0.  0.
         12    1    1    2    0    0  0.98809255092E+00  0.49996577901E+00 -0.40800423120E+00  0.11801525842E+01  0.00000000000E+00 0. -1.
         11    1    3    3    0    0 -0.37034003411E+02 -0.10243636603E+02  0.18009248134E+02  0.42435627933E+02  0.51100000000E-03 0. -1.
        -11    1    3    3    0    0  0.32062739225E+01  0.96120941214E+01  0.36440765545E+00  0.10139296774E+02  0.51100000000E-03 0.  1.
        -12    1    3    3    0    0  0.32839636937E+02  0.13157670280E+00 -0.17965651558E+02  0.37432922709E+02  0.00000000000E+00 0.  1.
</event>
<event>
 7    1  0.4358868E-015  0.9000773E+02  0.7816164E-02  0.1186339E+00
        -11   -1    0    0    0    0  0.00000000000E+00  0.00000000000E+00  0.45593999997E+02  0.45594000000E+02  0.51100000000E-03 0. -1.
         11   -1    0    0    0    0 -0.00000000000E+00 -0.00000000000E+00 -0.45593999997E+02  0.45594000000E+02  0.51100000000E-03 0.  1.
    9900012    2    1    2    0    0  0.48100606156E+00  0.50207661944E+00 -0.95372793000E+00  0.90007726842E+02  0.89999988036E+02 0.  0.
         12    1    1    2    0    0 -0.48100606156E+00 -0.50207661944E+00  0.95372793000E+00  0.11802731580E+01  0.00000000000E+00 0. -1.
         11    1    3    3    0    0 -0.10053669688E+02 -0.39011345690E+01 -0.16549785653E+01  0.10910274031E+02  0.51100000000E-03 0. -1.
        -11    1    3    3    0    0  0.34598657526E+02 -0.17406134946E+02 -0.16786731496E+02  0.42211787346E+02  0.51100000000E-03 0.  1.
         12    1    3    3    0    0 -0.24063981777E+02  0.21809346134E+02  0.17487982131E+02  0.36885665465E+02  0.00000000000E+00 0. -1.
</event>
<event>
 7    1  0.4358868E-015  0.9000771E+02  0.7816164E-02  0.1186339E+00
        -11   -1    0    0    0    0  0.00000000000E+00  0.00000000000E+00  0.45593999997E+02  0.45594000000E+02  0.51100000000E-03 0. -1.
         11   -1    0    0    0    0 -0.00000000000E+00 -0.00000000000E+00 -0.45593999997E+02  0.45594000000E+02  0.51100000000E-03 0.  1.
    9900012    2    1    2    0    0  0.91458197775E+00  0.56514478140E+00 -0.48705763091E+00  0.90007714461E+02  0.89999975492E+02 0.  0.
         12    1    1    2    0    0 -0.91458197775E+00 -0.56514478140E+00  0.48705763091E+00  0.11802855391E+01  0.00000000000E+00 0. -1.
         11    1    3    3    0    0  0.22794369051E+02 -0.96995112007E+01 -0.53684096818E+01  0.25347260222E+02  0.51100000000E-03 0. -1.
        -11    1    3    3    0    0 -0.67512380036E+01 -0.24147487637E+02 -0.54851094034E+01  0.25666452797E+02  0.51100000000E-03 0.  1.
         12    1    3    3    0    0 -0.15128549070E+02  0.34412143619E+02  0.10366461454E+02  0.38994001442E+02  0.00000000000E+00 0. -1.
</event>
<event>
 7    1  0.4358868E-015  0.9000715E+02  0.7816164E-02  0.1186340E+00
        -11   -1    0    0    0    0  0.00000000000E+00  0.00000000000E+00  0.45593999997E+02  0.45594000000E+02  0.51100000000E-03 0.  1.
         11   -1    0    0    0    0 -0.00000000000E+00 -0.00000000000E+00 -0.45593999997E+02  0.45594000000E+02  0.51100000000E-03 0. -1.
    9900012    2    1    2    0    0  0.11283625713E+01 -0.34672841775E+00  0.31482893084E-01  0.90007146978E+02  0.89999400516E+02 0.  0.
         12    1    1    2    0    0 -0.11283625713E+01  0.34672841775E+00 -0.31482893084E-01  0.11808530224E+01  0.00000000000E+00 0. -1.
         11    1    3    3    0    0 -0.36042901959E+00  0.58496920733E+01  0.70918475495E+01  0.92001689308E+01  0.51100000000E-03 0. -1.
        -11    1    3    3    0    0  0.23406146905E+02  0.19066809436E+02  0.21307325026E+02  0.36951225081E+02  0.51100000000E-03 0.  1.
         12    1    3    3    0    0 -0.21917355314E+02 -0.25263229927E+02 -0.28367689682E+02  0.43855752966E+02  0.00000000000E+00 0. -1.
</event>
<event>
 7    1  0.4358868E-015  0.9000770E+02  0.7816164E-02  0.1186339E+00
        -11   -1    0    0    0    0  0.00000000000E+00  0.00000000000E+00  0.45593999997E+02  0.45594000000E+02  0.51100000000E-03 0.  1.
         11   -1    0    0    0    0 -0.00000000000E+00 -0.00000000000E+00 -0.45593999997E+02  0.45594000000E+02  0.51100000000E-03 0. -1.
    9900012    2    1    2    0    0 -0.11564172845E-01  0.26614900996E+00  0.11498470056E+01  0.90007696157E+02  0.89999956946E+02 0.  0.
         12    1    1    2    0    0  0.11564172845E-01 -0.26614900996E+00 -0.11498470056E+01  0.11803038430E+01  0.00000000000E+00 0. -1.
         11    1    3    3    0    0 -0.23402955684E+02  0.27543005956E+02 -0.13599682773E+02  0.38616924834E+02  0.51100000000E-03 0. -1.
        -11    1    3    3    0    0 -0.41606160495E+01  0.22858622241E+01  0.95260138054E+01  0.10643346809E+02  0.51100000000E-03 0.  1.
        -12    1    3    3    0    0  0.27552007561E+02 -0.29562719170E+02  0.52235159733E+01  0.40747424514E+02  0.00000000000E+00 0.  1.
</event>
<event>
 7    1  0.4358868E-015  0.9000761E+02  0.7816164E-02  0.1186339E+00
        -11   -1    0    0    0    0  0.00000000000E+00  0.00000000000E+00  0.45593999997E+02  0.45594000000E+02  0.51100000000E-03 0.  1.
         11   -1    0    0    0    0 -0.00000000000E+00 -0.00000000000E+00 -0.45593999997E+02  0.45594000000E+02  0.51100000000E-03 0. -1.
    9900012    2    1    2    0    0 -0.10727043926E+01 -0.43807246822E+00  0.22522211486E+00  0.90007607183E+02  0.89999866798E+02 0.  0.
         12    1    1    2    0    0  0.10727043926E+01  0.43807246822E+00 -0.22522211486E+00  0.11803928169E+01  0.00000000000E+00 0. -1.
         11    1    3    3    0    0  0.62945261823E+01  0.24475743853E+01  0.26112487951E+01  0.72408770713E+01  0.51100000000E-03 0. -1.
        -11    1    3    3    0    0  0.14903377863E+02  0.75996665926E+01  0.34545845765E+02  0.38383343574E+02  0.51100000000E-03 0.  1.
         12    1    3    3    0    0 -0.22270608437E+02 -0.10485313446E+02 -0.36931872445E+02  0.44383386538E+02  0.00000000000E+00 0. -1.
</event>
<event>
 7    1  0.4358868E-015  0.9000772E+02  0.7816164E-02  0.1186339E+00
        -11   -1    0    0    0    0  0.00000000000E+00  0.00000000000E+00  0.45593999997E+02  0.45594000000E+02  0.51100000000E-03 0.  1.
         11   -1    0    0    0    0 -0.00000000000E+00 -0.00000000000E+00 -0.45593999997E+02  0.45594000000E+02  0.51100000000E-03 0. -1.
    9900012    2    1    2    0    0 -0.43642230613E+00 -0.71410980204E+00  0.83225417143E+00  0.90007718574E+02  0.89999979659E+02 0.  0.
         12    1    1    2    0    0  0.43642230613E+00  0.71410980204E+00 -0.83225417143E+00  0.11802814260E+01  0.00000000000E+00 0. -1.
         11    1    3    3    0    0  0.48144653416E+01 -0.45291419964E+01  0.42412752724E+01  0.78537010350E+01  0.51100000000E-03 0. -1.
        -11    1    3    3    0    0 -0.11926169125E+02 -0.12570021892E+02  0.35449279210E+02  0.39457449957E+02  0.51100000000E-03 0.  1.
         12    1    3    3    0    0  0.66752814769E+01  0.16385054086E+02 -0.38858300311E+02  0.42696567582E+02  0.00000000000E+00 0. -1.
</event>
<event>
 7    1  0.4358868E-015  0.9000771E+02  0.7816164E-02  0.1186339E+00
        -11   -1    0    0    0    0  0.00000000000E+00  0.00000000000E+00  0.45593999997E+02  0.45594000000E+02  0.51100000000E-03 0. -1.
         11   -1    0    0    0    0 -0.00000000000E+00 -0.00000000000E+00 -0.45593999997E+02  0.45594000000E+02  0.51100000000E-03 0.  1.
    9900012    2    1    2    0    0  0.99941110311E+00 -0.14974514121E-01 -0.62771672352E+00  0.90007713986E+02  0.89999975011E+02 0.  0.
         12    1    1    2    0    0 -0.99941110311E+00  0.14974514121E-01  0.62771672352E+00  0.11802860137E+01  0.00000000000E+00 0. -1.
         11    1    3    3    0    0  0.30096544022E+01  0.12344409598E+02 -0.36614583832E+01  0.13223038444E+02  0.51100000000E-03 0. -1.
        -11    1    3    3    0    0  0.26590724355E+02  0.48042862059E+01 -0.22190482620E+02  0.34965201370E+02  0.51100000000E-03 0.  1.
         12    1    3    3    0    0 -0.28600967654E+02 -0.17163670318E+02  0.25224224280E+02  0.41819474172E+02  0.00000000000E+00 0. -1.
</event>
<event>
 7    1  0.4358868E-015  0.9000793E+02  0.7816164E-02  0.1186339E+00
        -11   -1    0    0    0    0  0.00000000000E+00  0.00000000000E+00  0.45593999997E+02  0.45594000000E+02  0.51100000000E-03 0.  1.
         11   -1    0    0    0    0 -0.00000000000E+00 -0.00000000000E+00 -0.45593999997E+02  0.45594000000E+02  0.51100000000E-03 0. -1.
    9900012    2    1    2    0    0  0.62874463661E+00 -0.58731514350E+00 -0.80765254022E+00  0.90007931561E+02  0.90000195457E+02 0.  0.
         12    1    1    2    0    0 -0.62874463661E+00  0.58731514350E+00  0.80765254022E+00  0.11800684394E+01  0.00000000000E+00 0. -1.
         11    1    3    3    0    0  0.17692272907E+02 -0.65266417904E-01  0.27421782204E+01  0.17903639909E+02  0.51100000000E-03 0. -1.
        -11    1    3    3    0    0 -0.14477533498E+00  0.18598921657E+02  0.26687644922E+02  0.32529544086E+02  0.51100000000E-03 0.  1.
         12    1    3    3    0    0 -0.16918752936E+02 -0.19120970383E+02 -0.30237475682E+02  0.39574747566E+02  0.00000000000E+00 0. -1.
</event>
<event>
 7    1  0.4358868E-015  0.9000784E+02  0.7816164E-02  0.1186339E+00
        -11   -1    0    0    0    0  0.00000000000E+00  0.00000000000E+00  0.45593999997E+02  0.45594000000E+02  0.51100000000E-03 0.  1.
         11   -1    0    0    0    0 -0.00000000000E+00 -0.00000000000E+00 -0.45593999997E+02  0.45594000000E+02  0.51100000000E-03 0. -1.
    9900012    2    1    2    0    0 -0.58493612464E+00  0.89119667499E+00  0.50636199303E+00  0.90007837193E+02  0.90000099844E+02 0.  0.
         12    1    1    2    0    0  0.58493612464E+00 -0.89119667499E+00 -0.50636199303E+00  0.11801628072E+01  0.00000000000E+00 0. -1.
         11    1    3    3    0    0 -0.61906344202E+00 -0.91432452645E+01  0.12746756058E+01  0.92524035619E+01  0.51100000000E-03 0. -1.
        -11    1    3    3    0    0  0.74312300459E+01  0.15995850720E+02  0.37438514174E+02  0.41385175656E+02  0.51100000000E-03 0.  1.
         12    1    3    3    0    0 -0.73971027285E+01 -0.59614087804E+01 -0.38206827787E+02  0.39370257975E+02  0.00000000000E+00 0. -1.
</event>
<event>
 7    1  0.4358868E-015  0.9000773E+02  0.7816164E-02  0.1186339E+00
        -11   -1    0    0    0    0  0.00000000000E+00  0.00000000000E+00  0.45593999997E+02  0.45594000000E+02  0.51100000000E-03 0. -1.
         11   -1    0    0    0    0 -0.00000000000E+00 -0.00000000000E+00 -0.45593999997E+02  0.45594000000E+02  0.51100000000E-03 0.  1.
    9900012    2    1    2    0    0 -0.35458965578E+00 -0.58687851203E-02 -0.11257334118E+01  0.90007727158E+02  0.89999988357E+02 0.  0.
         12    1    1    2    0    0  0.35458965578E+00  0.58687851203E-02  0.11257334118E+01  0.11802728418E+01  0.00000000000E+00 0. -1.
         11    1    3    3    0    0 -0.18566100645E+02 -0.29379674026E+02  0.15267444187E+02  0.37959981445E+02  0.51100000000E-03 0. -1.
        -11    1    3    3    0    0  0.23036083417E+01 -0.74947645407E+01 -0.76465067735E+01  0.10952039674E+02  0.51100000000E-03 0.  1.
        -12    1    3    3    0    0  0.15907902647E+02  0.36868569781E+02 -0.87466708257E+01  0.41095706040E+02  0.00000000000E+00 0.  1.
</event>
<event>
 7    1  0.4358868E-015  0.9000773E+02  0.7816164E-02  0.1186339E+00
        -11   -1    0    0    0    0  0.00000000000E+00  0.00000000000E+00  0.45593999997E+02  0.45594000000E+02  0.51100000000E-03 0. -1.
         11   -1    0    0    0    0 -0.00000000000E+00 -0.00000000000E+00 -0.45593999997E+02  0.45594000000E+02  0.51100000000E-03 0.  1.
    9900012    2    1    2    0    0 -0.98868069265E+00 -0.14109992831E-01 -0.64447344285E+00  0.90007731123E+02  0.89999992374E+02 0.  0.
         12    1    1    2    0    0  0.98868069265E+00  0.14109992831E-01  0.64447344285E+00  0.11802688772E+01  0.00000000000E+00 0. -1.
         11    1    3    3    0    0 -0.84115286547E+00  0.60486560616E+01  0.70202415764E+01  0.93047068920E+01  0.51100000000E-03 0. -1.
        -11    1    3    3    0    0  0.19116433355E+02  0.23710715175E+02  0.19384313141E+02  0.36102460228E+02  0.51100000000E-03 0.  1.
         12    1    3    3    0    0 -0.19263961182E+02 -0.29773481229E+02 -0.27049028161E+02  0.44600564003E+02  0.00000000000E+00 0. -1.
</event>
<event>
 7    1  0.4358868E-015  0.9000768E+02  0.7816164E-02  0.1186339E+00
        -11   -1    0    0    0    0  0.00000000000E+00  0.00000000000E+00  0.45593999997E+02  0.45594000000E+02  0.51100000000E-03 0. -1.
         11   -1    0    0    0    0 -0.00000000000E+00 -0.00000000000E+00 -0.45593999997E+02  0.45594000000E+02  0.51100000000E-03 0.  1.
    9900012    2    1    2    0    0  0.76511209512E+00  0.71215531675E+00 -0.54826284541E+00  0.90007680611E+02  0.89999941195E+02 0.  0.
         12    1    1    2    0    0 -0.76511209512E+00 -0.71215531675E+00  0.54826284541E+00  0.11803193894E+01  0.00000000000E+00 0. -1.
         11    1    3    3    0    0  0.16485756160E+01  0.67465854270E+00 -0.12690383995E+02  0.12814788797E+02  0.51100000000E-03 0. -1.
        -11    1    3    3    0    0 -0.23417569179E+02 -0.24640574061E+02 -0.11909584167E+02  0.36019142572E+02  0.51100000000E-03 0.  1.
         12    1    3    3    0    0  0.22534105658E+02  0.24678070835E+02  0.24051705317E+02  0.41173749242E+02  0.00000000000E+00 0. -1.
</event>
<event>
 7    1  0.4358868E-015  0.9000700E+02  0.7816164E-02  0.1186341E+00
        -11   -1    0    0    0    0  0.00000000000E+00  0.00000000000E+00  0.45593999997E+02  0.45594000000E+02  0.51100000000E-03 0.  1.
         11   -1    0    0    0    0 -0.00000000000E+00 -0.00000000000E+00 -0.45593999997E+02  0.45594000000E+02  0.51100000000E-03 0. -1.
    9900012    2    1    2    0    0 -0.25074028528E+00  0.70948498260E-01  0.11518910629E+01  0.90007001524E+02  0.89999253141E+02 0.  0.
         12    1    1    2    0    0  0.25074028528E+00 -0.70948498260E-01 -0.11518910629E+01  0.11809984762E+01  0.00000000000E+00 0. -1.
         11    1    3    3    0    0 -0.36279388146E+02  0.11338642604E+02 -0.12236804767E+02  0.39931168422E+02  0.51100000000E-03 0. -1.
        -11    1    3    3    0    0  0.32187418866E+01 -0.14422194335E+01 -0.86546477624E+01  0.93457597004E+01  0.51100000000E-03 0.  1.
        -12    1    3    3    0    0  0.32809905974E+02 -0.98254746725E+01  0.22043343592E+02  0.40730073402E+02  0.00000000000E+00 0.  1.
</event>
<event>
 7    1  0.4358868E-015  0.9000777E+02  0.7816164E-02  0.1186339E+00
        -11   -1    0    0    0    0  0.00000000000E+00  0.00000000000E+00  0.45593999997E+02  0.45594000000E+02  0.51100000000E-03 0.  1.
         11   -1    0    0    0    0 -0.00000000000E+00 -0.00000000000E+00 -0.45593999997E+02  0.45594000000E+02  0.51100000000E-03 0. -1.
    9900012    2    1    2    0    0 -0.31037507605E-01  0.24047499584E+00  0.11550545741E+01  0.90007770099E+02  0.90000031864E+02 0.  0.
         12    1    1    2    0    0  0.31037507605E-01 -0.24047499584E+00 -0.11550545741E+01  0.11802299012E+01  0.00000000000E+00 0. -1.
         11    1    3    3    0    0 -0.41152344175E+01 -0.77060690710E+01 -0.16075275614E+01  0.88827248049E+01  0.51100000000E-03 0. -1.
        -11    1    3    3    0    0 -0.33837673750E+02 -0.96421390832E+01 -0.11405409221E+02  0.36987056799E+02  0.51100000000E-03 0.  1.
         12    1    3    3    0    0  0.37921870660E+02  0.17588683150E+02  0.14167991356E+02  0.44137988495E+02  0.00000000000E+00 0. -1.
</event>
<event>
 7    1  0.4358868E-015  0.9000775E+02  0.7816164E-02  0.1186339E+00
        -11   -1    0    0    0    0  0.00000000000E+00  0.00000000000E+00  0.45593999997E+02  0.45594000000E+02  0.51100000000E-03 0. -1.
         11   -1    0    0    0    0 -0.00000000000E+00 -0.00000000000E+00 -0.45593999997E+02  0.45594000000E+02  0.51100000000E-03 0.  1.
    9900012    2    1    2    0    0 -0.18103366463E+00 -0.20151956543E+00 -0.11487421903E+01  0.90007749203E+02  0.90000010693E+02 0.  0.
         12    1    1    2    0    0  0.18103366463E+00  0.20151956543E+00  0.11487421903E+01  0.11802507966E+01  0.00000000000E+00 0. -1.
         11    1    3    3    0    0 -0.11226493670E+02  0.31062195582E+02  0.12674658186E+02  0.35377127002E+02  0.51100000000E-03 0. -1.
        -11    1    3    3    0    0 -0.85434985648E+01  0.61092735919E+01 -0.44475270805E+01  0.11405923415E+02  0.51100000000E-03 0.  1.
        -12    1    3    3    0    0  0.19588958571E+02 -0.37372988739E+02 -0.93758732961E+01  0.43224698787E+02  0.00000000000E+00 0.  1.
</event>
<event>
 7    1  0.4358868E-015  0.9000772E+02  0.7816164E-02  0.1186339E+00
        -11   -1    0    0    0    0  0.00000000000E+00  0.00000000000E+00  0.45593999997E+02  0.45594000000E+02  0.51100000000E-03 0.  1.
         11   -1    0    0    0    0 -0.00000000000E+00 -0.00000000000E+00 -0.45593999997E+02  0.45594000000E+02  0.51100000000E-03 0. -1.
    9900012    2    1    2    0    0  0.68198034274E+00  0.38412094690E+00  0.88340516976E+00  0.90007724276E+02  0.89999985437E+02 0.  0.
         12    1    1    2    0    0 -0.68198034274E+00 -0.38412094690E+00 -0.88340516976E+00  0.11802757236E+01  0.00000000000E+00 0. -1.
         11    1    3    3    0    0 -0.36855082849E+02  0.22399801939E+02  0.60223104963E+01  0.43546716095E+02  0.51100000000E-03 0. -1.
        -11    1    3    3    0    0  0.79441403880E+01 -0.32849750090E+01  0.50707614354E+01  0.99806337029E+01  0.51100000000E-03 0.  1.
        -12    1    3    3    0    0  0.29592922804E+02 -0.18730705983E+02 -0.10209666762E+02  0.36480374478E+02  0.00000000000E+00 0.  1.
</event>
<event>
 7    1  0.4358868E-015  0.9000764E+02  0.7816164E-02  0.1186339E+00
        -11   -1    0    0    0    0  0.00000000000E+00  0.00000000000E+00  0.45593999997E+02  0.45594000000E+02  0.51100000000E-03 0. -1.
         11   -1    0    0    0    0 -0.00000000000E+00 -0.00000000000E+00 -0.45593999997E+02  0.45594000000E+02  0.51100000000E-03 0.  1.
    9900012    2    1    2    0    0 -0.87278844015E+00  0.64263432270E+00 -0.46745460402E+00  0.90007638894E+02  0.89999898927E+02 0.  0.
         12    1    1    2    0    0  0.87278844015E+00 -0.64263432270E+00  0.46745460402E+00  0.11803611061E+01  0.00000000000E+00 0. -1.
         11    1    3    3    0    0  0.13702025589E+02 -0.24554188599E+02  0.15778114237E+02  0.32242868547E+02  0.51100000000E-03 0. -1.
        -11    1    3    3    0    0  0.57025112261E+01 -0.40093804203E+01  0.10964232297E+02  0.12992619280E+02  0.51100000000E-03 0.  1.
        -12    1    3    3    0    0 -0.20277325255E+02  0.29206203342E+02 -0.27209801138E+02  0.44772151067E+02  0.00000000000E+00 0.  1.
</event>
<event>
 7    1  0.4358868E-015  0.9000775E+02  0.7816164E-02  0.1186339E+00
        -11   -1    0    0    0    0  0.00000000000E+00  0.00000000000E+00  0.45593999997E+02  0.45594000000E+02  0.51100000000E-03 0. -1.
         11   -1    0    0    0    0 -0.00000000000E+00 -0.00000000000E+00 -0.45593999997E+02  0.45594000000E+02  0.51100000000E-03 0.  1.
    9900012    2    1    2    0    0 -0.17577328700E+00 -0.91980104605E+00 -0.71837080126E+00  0.90007751373E+02  0.90000012891E+02 0.  0.
         12    1    1    2    0    0  0.17577328700E+00  0.91980104605E+00  0.71837080126E+00  0.11802486267E+01  0.00000000000E+00 0. -1.
         11    1    3    3    0    0  0.16227474779E+02  0.16416928269E+02  0.26193745695E+02  0.34913590266E+02  0.51100000000E-03 0. -1.
        -11    1    3    3    0    0 -0.13145332253E+01  0.39880805670E+01  0.94385404266E+01  0.10330480621E+02  0.51100000000E-03 0.  1.
        -12    1    3    3    0    0 -0.15088714840E+02 -0.21324809882E+02 -0.36350656922E+02  0.44763680487E+02  0.00000000000E+00 0.  1.
</event>
<event>
 7    1  0.4358868E-015  0.9000776E+02  0.7816164E-02  0.1186339E+00
        -11   -1    0    0    0    0  0.00000000000E+00  0.00000000000E+00  0.45593999997E+02  0.45594000000E+02  0.51100000000E-03 0.  1.
         11   -1    0    0    0    0 -0.00000000000E+00 -0.00000000000E+00 -0.45593999997E+02  0.45594000000E+02  0.51100000000E-03 0. -1.
    9900012    2    1    2    0    0  0.33419966271E-02  0.67502109494E+00  0.96814241929E+00  0.90007760875E+02  0.90000022519E+02 0.  0.
         12    1    1    2    0    0 -0.33419966271E-02 -0.67502109494E+00 -0.96814241929E+00  0.11802391247E+01  0.00000000000E+00 0. -1.
         11    1    3    3    0    0 -0.34509451123E+02 -0.68493715484E+00  0.12514236822E+02  0.36714812804E+02  0.51100000000E-03 0. -1.
        -11    1    3    3    0    0 -0.42343886845E+01 -0.67873267080E+01  0.59850664003E+01  0.99909394678E+01  0.51100000000E-03 0.  1.
        -12    1    3    3    0    0  0.38747181805E+02  0.81472849578E+01 -0.17531160803E+02  0.43302008603E+02  0.00000000000E+00 0.  1.
</event>
<event>
 7    1  0.4358868E-015  0.9000777E+02  0.7816164E-02  0.1186339E+00
        -11   -1    0    0    0    0  0.00000000000E+00  0.00000000000E+00  0.45593999997E+02  0.45594000000E+02  0.51100000000E-03 0. -1.
         11   -1    0    0    0    0 -0.00000000000E+00 -0.00000000000E+00 -0.45593999997E+02  0.45594000000E+02  0.51100000000E-03 0.  1.
    9900012    2    1    2    0    0  0.52167071187E+00 -0.10509078059E+01  0.12804232652E+00  0.90007770198E+02  0.90000031965E+02 0.  0.
         12    1    1    2    0    0 -0.52167071187E+00  0.10509078059E+01 -0.12804232652E+00  0.11802298020E+01  0.00000000000E+00 0. -1.
         11    1    3    3    0    0 -0.18374452275E+01  0.95949561049E+00 -0.86244471494E+01  0.88700578174E+01  0.51100000000E-03 0. -1.
        -11    1    3    3    0    0 -0.14843636010E+02 -0.30097693864E+02 -0.18560364408E+02  0.38349600169E+02  0.51100000000E-03 0.  1.
         12    1    3    3    0    0  0.17202751949E+02  0.28087290448E+02  0.27312853884E+02  0.42788112211E+02  0.00000000000E+00 0. -1.
</event>
<event>
 7    1  0.4358868E-015  0.9000772E+02  0.7816164E-02  0.1186339E+00
        -11   -1    0    0    0    0  0.00000000000E+00  0.00000000000E+00  0.45593999997E+02  0.45594000000E+02  0.51100000000E-03 0.  1.
         11   -1    0    0    0    0 -0.00000000000E+00 -0.00000000000E+00 -0.45593999997E+02  0.45594000000E+02  0.51100000000E-03 0. -1.
    9900012    2    1    2    0    0  0.25666687662E+00  0.92734750408E+00  0.68352831969E+00  0.90007719422E+02  0.89999980518E+02 0.  0.
         12    1    1    2    0    0 -0.25666687662E+00 -0.92734750408E+00 -0.68352831969E+00  0.11802805780E+01  0.00000000000E+00 0. -1.
         11    1    3    3    0    0  0.32120303412E+02 -0.41406173851E+01 -0.12380491417E+02  0.34671821002E+02  0.51100000000E-03 0. -1.
        -11    1    3    3    0    0  0.48209777451E+01 -0.53044945091E+00 -0.10369035792E+02  0.11447275071E+02  0.51100000000E-03 0.  1.
        -12    1    3    3    0    0 -0.36684614281E+02  0.55984143400E+01  0.23433055528E+02  0.43888623349E+02  0.00000000000E+00 0.  1.
</event>
<event>
 7    1  0.4959536E-015  0.9000769E+02  0.7816164E-02  0.1186339E+00
        -11   -1    0    0    0    0  0.00000000000E+00  0.00000000000E+00  0.45593999997E+02  0.45594000000E+02  0.51100000000E-03 0.  1.
         11   -1    0    0    0    0 -0.00000000000E+00 -0.00000000000E+00 -0.45593999997E+02  0.45594000000E+02  0.51100000000E-03 0. -1.
    9900012    2    1    2    0    0  0.35080466872E+00 -0.10954388446E+01 -0.26474583726E+00  0.90007686255E+02  0.89999946914E+02 0.  0.
         12    1    1    2    0    0 -0.35080466872E+00  0.10954388446E+01  0.26474583726E+00  0.11803137448E+01  0.00000000000E+00 0. -1.
         11    1    3    3    0    0  0.17642428573E+02 -0.29439081711E+02  0.13693047446E+02  0.36951513725E+02  0.51100000000E-03 0. -1.
        -11    1    3    3    0    0  0.68644787278E+01 -0.60479695175E+01 -0.20721324659E+01  0.93804443768E+01  0.51100000000E-03 0.  1.
        -12    1    3    3    0    0 -0.24156102632E+02  0.34391612384E+02 -0.11885660817E+02  0.43675728154E+02  0.00000000000E+00 0.  1.
</event>
<event>
 7    1  0.5140162E-015  0.9000775E+02  0.7816164E-02  0.1186339E+00
        -11   -1    0    0    0    0  0.00000000000E+00  0.00000000000E+00  0.45593999997E+02  0.45594000000E+02  0.51100000000E-03 0. -1.
         11   -1    0    0    0    0 -0.00000000000E+00 -0.00000000000E+00 -0.45593999997E+02  0.45594000000E+02  0.51100000000E-03 0.  1.
    9900012    2    1    2    0    0  0.11791535292E+01 -0.36619127330E-01 -0.35160630835E-01  0.90007754146E+02  0.90000015701E+02 0.  0.
         12    1    1    2    0    0 -0.11791535292E+01  0.36619127330E-01  0.35160630835E-01  0.11802458540E+01  0.00000000000E+00 0. -1.
         11    1    3    3    0    0  0.25566631678E+02  0.61821822082E+01  0.26208555897E+02  0.37131663506E+02  0.51100000000E-03 0. -1.
        -11    1    3    3    0    0  0.95597313296E+01  0.21057897464E+01 -0.11674314537E+01  0.98582812909E+01  0.51100000000E-03 0.  1.
        -12    1    3    3    0    0 -0.33947209479E+02 -0.83245910819E+01 -0.25076285074E+02  0.43017809349E+02  0.00000000000E+00 0.  1.
</event>
<event>
 7    1  0.4358868E-015  0.9000775E+02  0.7816164E-02  0.1186339E+00
        -11   -1    0    0    0    0  0.00000000000E+00  0.00000000000E+00  0.45593999997E+02  0.45594000000E+02  0.51100000000E-03 0.  1.
         11   -1    0    0    0    0 -0.00000000000E+00 -0.00000000000E+00 -0.45593999997E+02  0.45594000000E+02  0.51100000000E-03 0. -1.
    9900012    2    1    2    0    0 -0.79582438619E-01 -0.68700463191E+00 -0.95639285039E+00  0.90007747479E+02  0.90000008946E+02 0.  0.
         12    1    1    2    0    0  0.79582438619E-01  0.68700463191E+00  0.95639285039E+00  0.11802525209E+01  0.00000000000E+00 0. -1.
         11    1    3    3    0    0 -0.22430033686E+02  0.26206384717E+02  0.73956246103E+01  0.35278552617E+02  0.51100000000E-03 0. -1.
        -11    1    3    3    0    0 -0.31511159136E+00  0.10289576204E+02 -0.36815887955E+01  0.10932921389E+02  0.51100000000E-03 0.  1.
        -12    1    3    3    0    0  0.22665562839E+02 -0.37182965554E+02 -0.46704286652E+01  0.43796273473E+02  0.00000000000E+00 0.  1.
</event>
<event>
 7    1  0.4358868E-015  0.9000778E+02  0.7816164E-02  0.1186339E+00
        -11   -1    0    0    0    0  0.00000000000E+00  0.00000000000E+00  0.45593999997E+02  0.45594000000E+02  0.51100000000E-03 0. -1.
         11   -1    0    0    0    0 -0.00000000000E+00 -0.00000000000E+00 -0.45593999997E+02  0.45594000000E+02  0.51100000000E-03 0.  1.
    9900012    2    1    2    0    0  0.10148241605E+01  0.56410084857E+00  0.21176040966E+00  0.90007779548E+02  0.90000041438E+02 0.  0.
         12    1    1    2    0    0 -0.10148241605E+01 -0.56410084857E+00 -0.21176040966E+00  0.11802204520E+01  0.00000000000E+00 0. -1.
         11    1    3    3    0    0  0.30437014800E+01 -0.83363186563E+01 -0.93224974749E+01  0.12871180477E+02  0.51100000000E-03 0. -1.
        -11    1    3    3    0    0  0.27182311425E+02  0.11754576711E+02 -0.19812740128E+02  0.35631345746E+02  0.51100000000E-03 0.  1.
         12    1    3    3    0    0 -0.29211188745E+02 -0.28541572058E+01  0.29346998012E+02  0.41505253325E+02  0.00000000000E+00 0. -1.
</event>
<event>
 7    1  0.4358868E-015  0.9000770E+02  0.7816164E-02  0.1186339E+00
        -11   -1    0    0    0    0  0.00000000000E+00  0.00000000000E+00  0.45593999997E+02  0.45594000000E+02  0.51100000000E-03 0.  1.
         11   -1    0    0    0    0 -0.00000000000E+00 -0.00000000000E+00 -0.45593999997E+02  0.45594000000E+02  0.51100000000E-03 0. -1.
    9900012    2    1    2    0    0 -0.27657482451E+00 -0.13375970910E-01  0.11473613069E+01  0.90007698971E+02  0.89999959798E+02 0.  0.
         12    1    1    2    0    0  0.27657482451E+00  0.13375970910E-01 -0.11473613069E+01  0.11803010289E+01  0.00000000000E+00 0. -1.
         11    1    3    3    0    0 -0.89517716891E+01  0.16704390493E+02  0.10121305130E+02  0.21485150591E+02  0.51100000000E-03 0. -1.
        -11    1    3    3    0    0  0.22841454196E+02  0.55423938842E+01  0.18885423170E+02  0.30151440568E+02  0.51100000000E-03 0.  1.
         12    1    3    3    0    0 -0.14166257332E+02 -0.22260160348E+02 -0.27859366993E+02  0.38371107812E+02  0.00000000000E+00 0. -1.
</event>
<event>
 7    1  0.4358868E-015  0.9000776E+02  0.7816164E-02  0.1186339E+00
        -11   -1    0    0    0    0  0.00000000000E+00  0.00000000000E+00  0.45593999997E+02  0.45594000000E+02  0.51100000000E-03 0. -1.
         11   -1    0    0    0    0 -0.00000000000E+00 -0.00000000000E+00 -0.45593999997E+02  0.45594000000E+02  0.51100000000E-03 0.  1.
    9900012    2    1    2    0    0  0.13008754406E+00  0.78637334530E+00 -0.87043031474E+00  0.90007764964E+02  0.90000026662E+02 0.  0.
         12    1    1    2    0    0 -0.13008754406E+00 -0.78637334530E+00  0.87043031474E+00  0.11802350360E+01  0.00000000000E+00 0. -1.
         11    1    3    3    0    0 -0.69982380685E+01 -0.19320346285E+01 -0.61033207647E+01  0.94846517326E+01  0.51100000000E-03 0. -1.
        -11    1    3    3    0    0 -0.26912821340E+02 -0.23764660791E+02 -0.48531501284E+01  0.36229989255E+02  0.51100000000E-03 0.  1.
         12    1    3    3    0    0  0.34041146952E+02  0.26483068765E+02  0.10086040578E+02  0.44293123976E+02  0.00000000000E+00 0. -1.
</event>
<event>
 7    1  0.4358868E-015  0.9000764E+02  0.7816164E-02  0.1186339E+00
        -11   -1    0    0    0    0  0.00000000000E+00  0.00000000000E+00  0.45593999997E+02  0.45594000000E+02  0.51100000000E-03 0. -1.
         11   -1    0    0    0    0 -0.00000000000E+00 -0.00000000000E+00 -0.45593999997E+02  0.45594000000E+02  0.51100000000E-03 0.  1.
    9900012    2    1    2    0    0  0.25124785532E+00 -0.20118294422E+00 -0.11356311452E+01  0.90007636429E+02  0.89999896430E+02 0.  0.
         12    1    1    2    0    0 -0.25124785532E+00  0.20118294422E+00  0.11356311452E+01  0.11803635711E+01  0.00000000000E+00 0. -1.
         11    1    3    3    0    0  0.13105206804E+01 -0.56858266055E+01  0.41139336567E+02  0.41551066196E+02  0.51100000000E-03 0. -1.
        -11    1    3    3    0    0 -0.77041737214E+01  0.11548030685E+00 -0.30085617290E+01  0.82715822168E+01  0.51100000000E-03 0.  1.
        -12    1    3    3    0    0  0.66449008963E+01  0.53691633544E+01 -0.39266405983E+02  0.40184988016E+02  0.00000000000E+00 0.  1.
</event>
<event>
 7    1  0.4358868E-015  0.9000773E+02  0.7816164E-02  0.1186339E+00
        -11   -1    0    0    0    0  0.00000000000E+00  0.00000000000E+00  0.45593999997E+02  0.45594000000E+02  0.51100000000E-03 0. -1.
         11   -1    0    0    0    0 -0.00000000000E+00 -0.00000000000E+00 -0.45593999997E+02  0.45594000000E+02  0.51100000000E-03 0.  1.
    9900012    2    1    2    0    0  0.11790197781E+01 -0.31804101884E-01  0.44100055446E-01  0.90007727170E+02  0.89999988369E+02 0.  0.
         12    1    1    2    0    0 -0.11790197781E+01  0.31804101884E-01 -0.44100055446E-01  0.11802728299E+01  0.00000000000E+00 0. -1.
         11    1    3    3    0    0 -0.13452639601E+02  0.86302446952E+00 -0.44723003910E+00  0.13487710645E+02  0.51100000000E-03 0. -1.
        -11    1    3    3    0    0 -0.24756582767E+01  0.66158661212E+01 -0.35378081000E+02  0.36076407581E+02  0.51100000000E-03 0.  1.
         12    1    3    3    0    0  0.17107317656E+02 -0.75106946926E+01  0.35869411095E+02  0.40443608944E+02  0.00000000000E+00 0. -1.
</event>
<event>
 7    1  0.4358868E-015  0.9000774E+02  0.7816164E-02  0.1186339E+00
        -11   -1    0    0    0    0  0.00000000000E+00  0.00000000000E+00  0.45593999997E+02  0.45594000000E+02  0.51100000000E-03 0. -1.
         11   -1    0    0    0    0 -0.00000000000E+00 -0.00000000000E+00 -0.45593999997E+02  0.45594000000E+02  0.51100000000E-03 0.  1.
    9900012    2    1    2    0    0  0.11385269734E+01  0.17602082361E+00 -0.25650484181E+00  0.90007736583E+02  0.89999997906E+02 0.  0.
         12    1    1    2    0    0 -0.11385269734E+01 -0.17602082361E+00  0.25650484181E+00  0.11802634170E+01  0.00000000000E+00 0. -1.
         11    1    3    3    0    0  0.22292771174E+02  0.30636722796E+02  0.12745018163E+02  0.39975141258E+02  0.51100000000E-03 0. -1.
        -11    1    3    3    0    0 -0.91601318745E+01  0.24136202370E+01  0.49658849461E+01  0.10695494012E+02  0.51100000000E-03 0.  1.
        -12    1    3    3    0    0 -0.11994112326E+02 -0.32874322210E+02 -0.17967407951E+02  0.39337101313E+02  0.00000000000E+00 0.  1.
</event>
<event>
 7    1  0.4358868E-015  0.9000775E+02  0.7816164E-02  0.1186339E+00
        -11   -1    0    0    0    0  0.00000000000E+00  0.00000000000E+00  0.45593999997E+02  0.45594000000E+02  0.51100000000E-03 0.  1.
         11   -1    0    0    0    0 -0.00000000000E+00 -0.00000000000E+00 -0.45593999997E+02  0.45594000000E+02  0.51100000000E-03 0. -1.
    9900012    2    1    2    0    0 -0.46835201948E+00  0.25070053760E+00  0.10539431110E+01  0.90007745597E+02  0.90000007039E+02 0.  0.
         12    1    1    2    0    0  0.46835201948E+00 -0.25070053760E+00 -0.10539431110E+01  0.11802544026E+01  0.00000000000E+00 0. -1.
         11    1    3    3    0    0 -0.16746008482E+02 -0.32464508066E+02  0.58314027525E+01  0.36991598267E+02  0.51100000000E-03 0. -1.
        -11    1    3    3    0    0  0.93865436501E+01 -0.35004905784E+01  0.91886921076E+01  0.13593847833E+02  0.51100000000E-03 0.  1.
        -12    1    3    3    0    0  0.68911128128E+01  0.36215699182E+02 -0.13966151749E+02  0.39422299498E+02  0.00000000000E+00 0.  1.
</event>
<event>
 7    1  0.4358868E-015  0.9000775E+02  0.7816164E-02  0.1186339E+00
        -11   -1    0    0    0    0  0.00000000000E+00  0.00000000000E+00  0.45593999997E+02  0.45594000000E+02  0.51100000000E-03 0.  1.
         11   -1    0    0    0    0 -0.00000000000E+00 -0.00000000000E+00 -0.45593999997E+02  0.45594000000E+02  0.51100000000E-03 0. -1.
    9900012    2    1    2    0    0 -0.74179880472E+00 -0.91796292407E+00  0.89697532587E-02  0.90007745005E+02  0.90000006439E+02 0.  0.
         12    1    1    2    0    0  0.74179880472E+00  0.91796292407E+00 -0.89697532587E-02  0.11802549950E+01  0.00000000000E+00 0. -1.
         11    1    3    3    0    0 -0.13035832247E+02 -0.35520555360E+02 -0.23197220486E+01  0.37908097896E+02  0.51100000000E-03 0. -1.
        -11    1    3    3    0    0 -0.71587719927E+01 -0.28828427511E+01 -0.50565370180E+01  0.92264492437E+01  0.51100000000E-03 0.  1.
        -12    1    3    3    0    0  0.19452805435E+02  0.37485435187E+02  0.73852288198E+01  0.42873197865E+02  0.00000000000E+00 0.  1.
</event>
<event>
 7    1  0.4358868E-015  0.9000777E+02  0.7816164E-02  0.1186339E+00
        -11   -1    0    0    0    0  0.00000000000E+00  0.00000000000E+00  0.45593999997E+02  0.45594000000E+02  0.51100000000E-03 0.  1.
         11   -1    0    0    0    0 -0.00000000000E+00 -0.00000000000E+00 -0.45593999997E+02  0.45594000000E+02  0.51100000000E-03 0. -1.
    9900012    2    1    2    0    0 -0.93389726304E+00 -0.12311513786E+00  0.71106339375E+00  0.90007774350E+02  0.90000036171E+02 0.  0.
         12    1    1    2    0    0  0.93389726304E+00  0.12311513786E+00 -0.71106339375E+00  0.11802256500E+01  0.00000000000E+00 0. -1.
         11    1    3    3    0    0 -0.73060984697E+01 -0.34672048568E+00 -0.30849395429E+01  0.79382707303E+01  0.51100000000E-03 0. -1.
        -11    1    3    3    0    0 -0.16572523545E+02 -0.11449273478E+02  0.35750962927E+02  0.41034933292E+02  0.51100000000E-03 0.  1.
         12    1    3    3    0    0  0.22944724751E+02  0.11672878826E+02 -0.31954959990E+02  0.41034570328E+02  0.00000000000E+00 0. -1.
</event>
<event>
 7    1  0.4358868E-015  0.9000775E+02  0.7816164E-02  0.1186339E+00
        -11   -1    0    0    0    0  0.00000000000E+00  0.00000000000E+00  0.45593999997E+02  0.45594000000E+02  0.51100000000E-03 0. -1.
         11   -1    0    0    0    0 -0.00000000000E+00 -0.00000000000E+00 -0.45593999997E+02  0.45594000000E+02  0.51100000000E-03 0.  1.
    9900012    2    1    2    0    0 -0.41486716045E+00  0.39810950695E+00 -0.10307258017E+01  0.90007745104E+02  0.90000006540E+02 0.  0.
         12    1    1    2    0    0  0.41486716045E+00 -0.39810950695E+00  0.10307258017E+01  0.11802548956E+01  0.00000000000E+00 0. -1.
         11    1    3    3    0    0 -0.77754564461E+01 -0.62821987920E+01  0.32926353493E+01  0.10524504378E+02  0.51100000000E-03 0. -1.
        -11    1    3    3    0    0  0.48213294511E+01  0.35729014265E+02  0.20249709145E+02  0.41350434082E+02  0.51100000000E-03 0.  1.
         12    1    3    3    0    0  0.25392598346E+01 -0.29048705966E+02 -0.24573070296E+02  0.38132806644E+02  0.00000000000E+00 0. -1.
</event>
<event>
 7    1  0.4358868E-015  0.9000751E+02  0.7816164E-02  0.1186340E+00
        -11   -1    0    0    0    0  0.00000000000E+00  0.00000000000E+00  0.45593999997E+02  0.45594000000E+02  0.51100000000E-03 0. -1.
         11   -1    0    0    0    0 -0.00000000000E+00 -0.00000000000E+00 -0.45593999997E+02  0.45594000000E+02  0.51100000000E-03 0.  1.
    9900012    2    1    2    0    0  0.87802038771E+00 -0.42491475225E+00  0.66489919380E+00  0.90007507185E+02  0.89999765480E+02 0.  0.
         12    1    1    2    0    0 -0.87802038771E+00  0.42491475225E+00 -0.66489919380E+00  0.11804928148E+01  0.00000000000E+00 0. -1.
         11    1    3    3    0    0  0.45046641493E+01  0.19613079719E+01 -0.14405255636E+02  0.15220056447E+02  0.51100000000E-03 0. -1.
        -11    1    3    3    0    0  0.24870346299E+02 -0.51856389291E+01 -0.17930769932E+02  0.31095618450E+02  0.51100000000E-03 0.  1.
         12    1    3    3    0    0 -0.28496990061E+02  0.27994162049E+01  0.33000924761E+02  0.43691832289E+02  0.00000000000E+00 0. -1.
</event>
<event>
 7    1  0.4358868E-015  0.9000778E+02  0.7816164E-02  0.1186339E+00
        -11   -1    0    0    0    0  0.00000000000E+00  0.00000000000E+00  0.45593999997E+02  0.45594000000E+02  0.51100000000E-03 0. -1.
         11   -1    0    0    0    0 -0.00000000000E+00 -0.00000000000E+00 -0.45593999997E+02  0.45594000000E+02  0.51100000000E-03 0.  1.
    9900012    2    1    2    0    0 -0.62230892439E+00  0.73218673110E+00 -0.68524150661E+00  0.90007778949E+02  0.90000040831E+02 0.  0.
         12    1    1    2    0    0  0.62230892439E+00 -0.73218673110E+00  0.68524150661E+00  0.11802210509E+01  0.00000000000E+00 0. -1.
         11    1    3    3    0    0  0.19571767416E+02 -0.24999168931E+02  0.10186577353E+02  0.33343348444E+02  0.51100000000E-03 0. -1.
        -11    1    3    3    0    0  0.79344731457E+01 -0.63294494745E+01 -0.96361995126E+01  0.13995504137E+02  0.51100000000E-03 0.  1.
        -12    1    3    3    0    0 -0.28128549486E+02  0.32060805136E+02 -0.12356193472E+01  0.42668926368E+02  0.00000000000E+00 0.  1.
</event>
<event>
 7    1  0.4358868E-015  0.9000771E+02  0.7816164E-02  0.1186339E+00
        -11   -1    0    0    0    0  0.00000000000E+00  0.00000000000E+00  0.45593999997E+02  0.45594000000E+02  0.51100000000E-03 0.  1.
         11   -1    0    0    0    0 -0.00000000000E+00 -0.00000000000E+00 -0.45593999997E+02  0.45594000000E+02  0.51100000000E-03 0. -1.
    9900012    2    1    2    0    0  0.28755337401E+00 -0.11438028471E+01  0.45879711808E-01  0.90007713237E+02  0.89999974251E+02 0.  0.
         12    1    1    2    0    0 -0.28755337401E+00  0.11438028471E+01 -0.45879711808E-01  0.11802867634E+01  0.00000000000E+00 0. -1.
         11    1    3    3    0    0  0.31081788072E+02  0.22419832248E+02 -0.13051631857E+02  0.40485448277E+02  0.51100000000E-03 0. -1.
        -11    1    3    3    0    0  0.10176137744E+01  0.49406607014E+01  0.14510443345E+01  0.52489233070E+01  0.51100000000E-03 0.  1.
        -12    1    3    3    0    0 -0.31811848472E+02 -0.28504295796E+02  0.11646467235E+02  0.44273341653E+02  0.00000000000E+00 0.  1.
</event>
<event>
 7    1  0.4358868E-015  0.9000803E+02  0.7816164E-02  0.1186338E+00
        -11   -1    0    0    0    0  0.00000000000E+00  0.00000000000E+00  0.45593999997E+02  0.45594000000E+02  0.51100000000E-03 0.  1.
         11   -1    0    0    0    0 -0.00000000000E+00 -0.00000000000E+00 -0.45593999997E+02  0.45594000000E+02  0.51100000000E-03 0. -1.
    9900012    2    1    2    0    0 -0.66837861728E+00 -0.80186242792E+00  0.55009826374E+00  0.90008033293E+02  0.90000298532E+02 0.  0.
         12    1    1    2    0    0  0.66837861728E+00  0.80186242792E+00 -0.55009826374E+00  0.11799667068E+01  0.00000000000E+00 0. -1.
         11    1    3    3    0    0  0.24338031203E+02  0.26401498331E+02 -0.15994624545E+02  0.39309119700E+02  0.51100000000E-03 0. -1.
        -11    1    3    3    0    0  0.63360719525E+01 -0.71150893901E+01 -0.93269183806E+00  0.95728898010E+01  0.51100000000E-03 0.  1.
        -12    1    3    3    0    0 -0.31342481773E+02 -0.20088271369E+02  0.17477414647E+02  0.41126023793E+02  0.00000000000E+00 0.  1.
</event>
<event>
 7    1  0.4358868E-015  0.9000780E+02  0.7816164E-02  0.1186339E+00
        -11   -1    0    0    0    0  0.00000000000E+00  0.00000000000E+00  0.45593999997E+02  0.45594000000E+02  0.51100000000E-03 0.  1.
         11   -1    0    0    0    0 -0.00000000000E+00 -0.00000000000E+00 -0.45593999997E+02  0.45594000000E+02  0.51100000000E-03 0. -1.
    9900012    2    1    2    0    0  0.27365230758E+00 -0.18717100665E+00  0.11326724321E+01  0.90007802809E+02  0.90000065006E+02 0.  0.
         12    1    1    2    0    0 -0.27365230758E+00  0.18717100665E+00 -0.11326724321E+01  0.11801971910E+01  0.00000000000E+00 0. -1.
         11    1    3    3    0    0  0.31372810515E+02  0.21232424318E+02  0.13588795694E+02  0.40245800411E+02  0.51100000000E-03 0. -1.
        -11    1    3    3    0    0 -0.81691966272E+00 -0.93153245282E+01  0.70955609789E+01  0.11738382115E+02  0.51100000000E-03 0.  1.
        -12    1    3    3    0    0 -0.30282238545E+02 -0.12104270796E+02 -0.19551684240E+02  0.38023620283E+02  0.00000000000E+00 0.  1.
</event>
<event>
 7    1  0.4358868E-015  0.9000789E+02  0.7816164E-02  0.1186339E+00
        -11   -1    0    0    0    0  0.00000000000E+00  0.00000000000E+00  0.45593999997E+02  0.45594000000E+02  0.51100000000E-03 0.  1.
         11   -1    0    0    0    0 -0.00000000000E+00 -0.00000000000E+00 -0.45593999997E+02  0.45594000000E+02  0.51100000000E-03 0. -1.
    9900012    2    1    2    0    0 -0.92903223674E+00  0.41840068134E+00 -0.59540147926E+00  0.90007888586E+02  0.90000151916E+02 0.  0.
         12    1    1    2    0    0  0.92903223674E+00 -0.41840068134E+00  0.59540147926E+00  0.11801114136E+01  0.00000000000E+00 0. -1.
         11    1    3    3    0    0  0.80445552418E+01 -0.10135167911E+00  0.24255007835E+01  0.84028682908E+01  0.51100000000E-03 0. -1.
        -11    1    3    3    0    0 -0.26650191070E+02 -0.33680982291E+02 -0.36205111770E+01  0.43101616601E+02  0.51100000000E-03 0.  1.
         12    1    3    3    0    0  0.17676603591E+02  0.34200734652E+02  0.59960891419E+00  0.38503403695E+02  0.00000000000E+00 0. -1.
</event>
<event>
 7    1  0.4358868E-015  0.9000776E+02  0.7816164E-02  0.1186339E+00
        -11   -1    0    0    0    0  0.00000000000E+00  0.00000000000E+00  0.45593999997E+02  0.45594000000E+02  0.51100000000E-03 0. -1.
         11   -1    0    0    0    0 -0.00000000000E+00 -0.00000000000E+00 -0.45593999997E+02  0.45594000000E+02  0.51100000000E-03 0.  1.
    9900012    2    1    2    0    0  0.10560545624E+01 -0.52676607937E+00  0.15322317521E-01  0.90007759129E+02  0.90000020749E+02 0.  0.
         12    1    1    2    0    0 -0.10560545624E+01  0.52676607937E+00 -0.15322317521E-01  0.11802408714E+01  0.00000000000E+00 0. -1.
         11    1    3    3    0    0 -0.80820739994E+01  0.21666379544E+01 -0.84552732855E+00  0.84100628346E+01  0.51100000000E-03 0. -1.
        -11    1    3    3    0    0 -0.11806035492E+02 -0.13312634926E+02 -0.34692464211E+02  0.38989431850E+02  0.51100000000E-03 0.  1.
         12    1    3    3    0    0  0.20944164054E+02  0.10619230892E+02  0.35553313857E+02  0.42608264444E+02  0.00000000000E+00 0. -1.
</event>
<event>
 7    1  0.4358868E-015  0.9000751E+02  0.7816164E-02  0.1186340E+00
        -11   -1    0    0    0    0  0.00000000000E+00  0.00000000000E+00  0.45593999997E+02  0.45594000000E+02  0.51100000000E-03 0.  1.
         11   -1    0    0    0    0 -0.00000000000E+00 -0.00000000000E+00 -0.45593999997E+02  0.45594000000E+02  0.51100000000E-03 0. -1.
    9900012    2    1    2    0    0 -0.54111124049E+00 -0.88547735684E+00 -0.56275128514E+00  0.90007508351E+02  0.89999766661E+02 0.  0.
         12    1    1    2    0    0  0.54111124049E+00  0.88547735684E+00  0.56275128514E+00  0.11804916488E+01  0.00000000000E+00 0. -1.
         11    1    3    3    0    0 -0.97924237816E+01 -0.19857238526E+02  0.27058725780E+02  0.34962495999E+02  0.51100000000E-03 0. -1.
        -11    1    3    3    0    0 -0.76944247796E+01 -0.83024202807E+01  0.18388978048E+01  0.11468038220E+02  0.51100000000E-03 0.  1.
        -12    1    3    3    0    0  0.16945737321E+02  0.27274181450E+02 -0.29460374869E+02  0.43576974133E+02  0.00000000000E+00 0.  1.
</event>
<event>
 7    1  0.4358868E-015  0.9000764E+02  0.7816164E-02  0.1186339E+00
        -11   -1    0    0    0    0  0.00000000000E+00  0.00000000000E+00  0.45593999997E+02  0.45594000000E+02  0.51100000000E-03 0.  1.
         11   -1    0    0    0    0 -0.00000000000E+00 -0.00000000000E+00 -0.45593999997E+02  0.45594000000E+02  0.51100000000E-03 0. -1.
    9900012    2    1    2    0    0  0.37701078148E+00  0.10961366568E+01  0.22270646028E+00  0.90007639518E+02  0.89999899560E+02 0.  0.
         12    1    1    2    0    0 -0.37701078148E+00 -0.10961366568E+01 -0.22270646028E+00  0.11803604819E+01  0.00000000000E+00 0. -1.
         11    1    3    3    0    0 -0.40346093946E-02 -0.19479043457E+02 -0.20129875667E+02  0.28011516291E+02  0.51100000000E-03 0. -1.
        -11    1    3    3    0    0  0.17099909128E+02  0.93331507093E+01 -0.12722882431E+02  0.23267710071E+02  0.51100000000E-03 0.  1.
        -12    1    3    3    0    0 -0.16718863737E+02  0.11242029405E+02  0.33075464559E+02  0.38728413156E+02  0.00000000000E+00 0.  1.
</event>
<event>
 7    1  0.4358868E-015  0.9000847E+02  0.7816164E-02  0.1186338E+00
        -11   -1    0    0    0    0  0.00000000000E+00  0.00000000000E+00  0.45593999997E+02  0.45594000000E+02  0.51100000000E-03 0.  1.
         11   -1    0    0    0    0 -0.00000000000E+00 -0.00000000000E+00 -0.45593999997E+02  0.45594000000E+02  0.51100000000E-03 0. -1.
    9900012    2    1    2    0    0  0.86635057803E+00  0.70097900474E+00  0.38645421113E+00  0.90008473931E+02  0.90000744984E+02 0.  0.
         12    1    1    2    0    0 -0.86635057803E+00 -0.70097900474E+00 -0.38645421113E+00  0.11795260686E+01  0.00000000000E+00 0. -1.
         11    1    3    3    0    0 -0.59352553417E+01  0.43307522234E+01  0.38264502398E+01  0.82839840953E+01  0.51100000000E-03 0. -1.
        -11    1    3    3    0    0  0.55833644292E+01  0.88317175960E+01  0.37491760563E+02  0.38920499796E+02  0.51100000000E-03 0.  1.
         12    1    3    3    0    0  0.12182414905E+01 -0.12461490815E+02 -0.40931756592E+02  0.42803990040E+02  0.00000000000E+00 0. -1.
</event>
<event>
 7    1  0.4358868E-015  0.9000779E+02  0.7816164E-02  0.1186339E+00
        -11   -1    0    0    0    0  0.00000000000E+00  0.00000000000E+00  0.45593999997E+02  0.45594000000E+02  0.51100000000E-03 0. -1.
         11   -1    0    0    0    0 -0.00000000000E+00 -0.00000000000E+00 -0.45593999997E+02  0.45594000000E+02  0.51100000000E-03 0.  1.
    9900012    2    1    2    0    0  0.10399121861E+01 -0.33411937575E+00  0.44704676126E+00  0.90007786494E+02  0.90000048476E+02 0.  0.
         12    1    1    2    0    0 -0.10399121861E+01  0.33411937575E+00 -0.44704676126E+00  0.11802135056E+01  0.00000000000E+00 0. -1.
         11    1    3    3    0    0  0.82660790589E+01  0.24586690817E+01 -0.19531315206E+01  0.88423887982E+01  0.51100000000E-03 0. -1.
        -11    1    3    3    0    0  0.52261799660E+01 -0.25889453782E+02 -0.29673899135E+02  0.39725521574E+02  0.51100000000E-03 0.  1.
         12    1    3    3    0    0 -0.12452346839E+02  0.23096665325E+02  0.32074077417E+02  0.41439876122E+02  0.00000000000E+00 0. -1.
</event>
<event>
 7    1  0.4358868E-015  0.9000771E+02  0.7816164E-02  0.1186339E+00
        -11   -1    0    0    0    0  0.00000000000E+00  0.00000000000E+00  0.45593999997E+02  0.45594000000E+02  0.51100000000E-03 0.  1.
         11   -1    0    0    0    0 -0.00000000000E+00 -0.00000000000E+00 -0.45593999997E+02  0.45594000000E+02  0.51100000000E-03 0. -1.
    9900012    2    1    2    0    0 -0.79742921469E+00  0.50404213967E+00  0.70931950700E+00  0.90007709360E+02  0.89999970324E+02 0.  0.
         12    1    1    2    0    0  0.79742921469E+00 -0.50404213967E+00 -0.70931950700E+00  0.11802906396E+01  0.00000000000E+00 0. -1.
         11    1    3    3    0    0 -0.17842260043E+01  0.35894480386E+02 -0.82834480088E+01  0.36881061478E+02  0.51100000000E-03 0. -1.
        -11    1    3    3    0    0 -0.38649818874E+01  0.39058990765E+01 -0.82726584119E+01  0.99313146183E+01  0.51100000000E-03 0.  1.
        -12    1    3    3    0    0  0.48517786770E+01 -0.39296337323E+02  0.17265425928E+02  0.43195333264E+02  0.00000000000E+00 0.  1.
</event>
<event>
 7    1  0.4358868E-015  0.9000770E+02  0.7816164E-02  0.1186339E+00
        -11   -1    0    0    0    0  0.00000000000E+00  0.00000000000E+00  0.45593999997E+02  0.45594000000E+02  0.51100000000E-03 0. -1.
         11   -1    0    0    0    0 -0.00000000000E+00 -0.00000000000E+00 -0.45593999997E+02  0.45594000000E+02  0.51100000000E-03 0.  1.
    9900012    2    1    2    0    0 -0.18339995597E+00  0.23547056376E-01 -0.11657285550E+01  0.90007697890E+02  0.89999958702E+02 0.  0.
         12    1    1    2    0    0  0.18339995597E+00 -0.23547056376E-01  0.11657285550E+01  0.11803021104E+01  0.00000000000E+00 0. -1.
         11    1    3    3    0    0  0.21486644805E+01  0.19859702572E+02 -0.15653537563E+01  0.20036838022E+02  0.51100000000E-03 0. -1.
        -11    1    3    3    0    0 -0.11303249520E+02  0.20330139756E+02 -0.13051585671E+02  0.26672493715E+02  0.51100000000E-03 0.  1.
         12    1    3    3    0    0  0.89711850830E+01 -0.40166295271E+02  0.13451210872E+02  0.43298366153E+02  0.00000000000E+00 0. -1.
</event>
<event>
 7    1  0.4358868E-015  0.9000773E+02  0.7816164E-02  0.1186339E+00
        -11   -1    0    0    0    0  0.00000000000E+00  0.00000000000E+00  0.45593999997E+02  0.45594000000E+02  0.51100000000E-03 0.  1.
         11   -1    0    0    0    0 -0.00000000000E+00 -0.00000000000E+00 -0.45593999997E+02  0.45594000000E+02  0.51100000000E-03 0. -1.
    9900012    2    1    2    0    0 -0.84385652451E+00 -0.96858375789E-01  0.81949272423E+00  0.90007727276E+02  0.89999988476E+02 0.  0.
         12    1    1    2    0    0  0.84385652451E+00  0.96858375789E-01 -0.81949272423E+00  0.11802727244E+01  0.00000000000E+00 0. -1.
         11    1    3    3    0    0  0.53040805700E+01 -0.36238712610E+02 -0.83246955133E+01  0.37558995167E+02  0.51100000000E-03 0. -1.
        -11    1    3    3    0    0 -0.11667062509E+01 -0.29052871214E+01 -0.86876330840E+01  0.92345473954E+01  0.51100000000E-03 0.  1.
        -12    1    3    3    0    0 -0.49812308436E+01  0.39047141356E+02  0.17831821322E+02  0.43214184713E+02  0.00000000000E+00 0.  1.
</event>
<event>
 7    1  0.4358868E-015  0.9000773E+02  0.7816164E-02  0.1186339E+00
        -11   -1    0    0    0    0  0.00000000000E+00  0.00000000000E+00  0.45593999997E+02  0.45594000000E+02  0.51100000000E-03 0. -1.
         11   -1    0    0    0    0 -0.00000000000E+00 -0.00000000000E+00 -0.45593999997E+02  0.45594000000E+02  0.51100000000E-03 0.  1.
    9900012    2    1    2    0    0 -0.56660071999E+00  0.80524535662E+00 -0.65082366828E+00  0.90007733968E+02  0.89999995256E+02 0.  0.
         12    1    1    2    0    0  0.56660071999E+00 -0.80524535662E+00  0.65082366828E+00  0.11802660325E+01  0.00000000000E+00 0. -1.
         11    1    3    3    0    0 -0.43314753148E-01  0.80376511835E+00 -0.85962070357E+01  0.86338108732E+01  0.51100000000E-03 0. -1.
        -11    1    3    3    0    0  0.40169555146E+02 -0.21263170020E+01  0.32803817192E+01  0.40359327164E+02  0.51100000000E-03 0.  1.
         12    1    3    3    0    0 -0.40692841113E+02  0.21277972403E+01  0.46650016482E+01  0.41014595930E+02  0.00000000000E+00 0. -1.
</event>
<event>
 7    1  0.4358868E-015  0.9000790E+02  0.7816164E-02  0.1186339E+00
        -11   -1    0    0    0    0  0.00000000000E+00  0.00000000000E+00  0.45593999997E+02  0.45594000000E+02  0.51100000000E-03 0.  1.
         11   -1    0    0    0    0 -0.00000000000E+00 -0.00000000000E+00 -0.45593999997E+02  0.45594000000E+02  0.51100000000E-03 0. -1.
    9900012    2    1    2    0    0  0.11027070128E+01  0.42030665085E+00 -0.30821133739E-02  0.90007902573E+02  0.90000166087E+02 0.  0.
         12    1    1    2    0    0 -0.11027070128E+01 -0.42030665085E+00  0.30821133739E-02  0.11800974266E+01  0.00000000000E+00 0. -1.
         11    1    3    3    0    0  0.32810731389E+01 -0.30236870236E+01  0.12488554281E+02  0.13261678342E+02  0.51100000000E-03 0. -1.
        -11    1    3    3    0    0 -0.53881899417E+01  0.34366296465E+02  0.12390007744E+02  0.36926781822E+02  0.51100000000E-03 0.  1.
         12    1    3    3    0    0  0.32098238156E+01 -0.30922302790E+02 -0.24881644139E+02  0.39819442410E+02  0.00000000000E+00 0. -1.
</event>
<event>
 7    1  0.4358868E-015  0.9000738E+02  0.7816164E-02  0.1186340E+00
        -11   -1    0    0    0    0  0.00000000000E+00  0.00000000000E+00  0.45593999997E+02  0.45594000000E+02  0.51100000000E-03 0.  1.
         11   -1    0    0    0    0 -0.00000000000E+00 -0.00000000000E+00 -0.45593999997E+02  0.45594000000E+02  0.51100000000E-03 0. -1.
    9900012    2    1    2    0    0 -0.50544226407E+00 -0.97282546122E+00 -0.43819051874E+00  0.90007376355E+02  0.89999632922E+02 0.  0.
         12    1    1    2    0    0  0.50544226407E+00  0.97282546122E+00  0.43819051874E+00  0.11806236450E+01  0.00000000000E+00 0. -1.
         11    1    3    3    0    0 -0.86865168944E+01 -0.11259587490E+02  0.10376282481E+01  0.14258701162E+02  0.51100000000E-03 0. -1.
        -11    1    3    3    0    0 -0.28662210767E+02 -0.92912506529E+01  0.11198084776E+02  0.32144156042E+02  0.51100000000E-03 0.  1.
         12    1    3    3    0    0  0.36843285397E+02  0.19578012681E+02 -0.12673903543E+02  0.43604519151E+02  0.00000000000E+00 0. -1.
</event>
<event>
 7    1  0.4358868E-015  0.9000767E+02  0.7816164E-02  0.1186339E+00
        -11   -1    0    0    0    0  0.00000000000E+00  0.00000000000E+00  0.45593999997E+02  0.45594000000E+02  0.51100000000E-03 0. -1.
         11   -1    0    0    0    0 -0.00000000000E+00 -0.00000000000E+00 -0.45593999997E+02  0.45594000000E+02  0.51100000000E-03 0.  1.
    9900012    2    1    2    0    0 -0.81492511223E+00  0.79809145363E+00 -0.30352233156E+00  0.90007670083E+02  0.89999930528E+02 0.  0.
         12    1    1    2    0    0  0.81492511223E+00 -0.79809145363E+00  0.30352233156E+00  0.11803299169E+01  0.00000000000E+00 0. -1.
         11    1    3    3    0    0 -0.26034466551E+02 -0.92114911172E+01  0.23414032086E+02  0.36205827100E+02  0.51100000000E-03 0. -1.
        -11    1    3    3    0    0 -0.75689931247E+01 -0.66495810027E+01 -0.65957828615E-01  0.10075263527E+02  0.51100000000E-03 0.  1.
        -12    1    3    3    0    0  0.32788534563E+02  0.16659163574E+02 -0.23651596589E+02  0.43726579457E+02  0.00000000000E+00 0.  1.
</event>
<event>
 7    1  0.4358868E-015  0.9000823E+02  0.7816164E-02  0.1186338E+00
        -11   -1    0    0    0    0  0.00000000000E+00  0.00000000000E+00  0.45593999997E+02  0.45594000000E+02  0.51100000000E-03 0.  1.
         11   -1    0    0    0    0 -0.00000000000E+00 -0.00000000000E+00 -0.45593999997E+02  0.45594000000E+02  0.51100000000E-03 0. -1.
    9900012    2    1    2    0    0 -0.43849111346E+00  0.20865621303E+00  0.10751969998E+01  0.90008228641E+02  0.90000496457E+02 0.  0.
         12    1    1    2    0    0  0.43849111346E+00 -0.20865621303E+00 -0.10751969998E+01  0.11797713592E+01  0.00000000000E+00 0. -1.
         11    1    3    3    0    0  0.43640634530E+01  0.70081098191E+01  0.39697762674E+01  0.91606646556E+01  0.51100000000E-03 0. -1.
        -11    1    3    3    0    0 -0.39868250648E+02  0.54248949646E+01  0.10135346603E+02  0.41492555310E+02  0.51100000000E-03 0.  1.
         12    1    3    3    0    0  0.35065696081E+02 -0.12224348571E+02 -0.13029925871E+02  0.39355008676E+02  0.00000000000E+00 0. -1.
</event>
<event>
 7    1  0.4358868E-015  0.9000767E+02  0.7816164E-02  0.1186339E+00
        -11   -1    0    0    0    0  0.00000000000E+00  0.00000000000E+00  0.45593999997E+02  0.45594000000E+02  0.51100000000E-03 0. -1.
         11   -1    0    0    0    0 -0.00000000000E+00 -0.00000000000E+00 -0.45593999997E+02  0.45594000000E+02  0.51100000000E-03 0.  1.
    9900012    2    1    2    0    0  0.84308846827E+00  0.76192852482E+00 -0.31914182726E+00  0.90007667526E+02  0.89999927938E+02 0.  0.
         12    1    1    2    0    0 -0.84308846827E+00 -0.76192852482E+00  0.31914182726E+00  0.11803324736E+01  0.00000000000E+00 0. -1.
         11    1    3    3    0    0 -0.94051263216E+01 -0.11622205413E+01  0.13399456267E+01  0.95709253604E+01  0.51100000000E-03 0. -1.
        -11    1    3    3    0    0  0.11101357808E+02 -0.29806167560E+02 -0.25477464301E+02  0.40752287755E+02  0.51100000000E-03 0.  1.
         12    1    3    3    0    0 -0.85314301863E+00  0.31730316626E+02  0.23818376848E+02  0.39684454411E+02  0.00000000000E+00 0. -1.
</event>
<event>
 7    1  0.4358868E-015  0.9000775E+02  0.7816164E-02  0.1186339E+00
        -11   -1    0    0    0    0  0.00000000000E+00  0.00000000000E+00  0.45593999997E+02  0.45594000000E+02  0.51100000000E-03 0. -1.
         11   -1    0    0    0    0 -0.00000000000E+00 -0.00000000000E+00 -0.45593999997E+02  0.45594000000E+02  0.51100000000E-03 0.  1.
    9900012    2    1    2    0    0 -0.27276310225E-01 -0.10610739314E+01  0.51610727568E+00  0.90007750617E+02  0.90000012126E+02 0.  0.
         12    1    1    2    0    0  0.27276310225E-01  0.10610739314E+01 -0.51610727568E+00  0.11802493825E+01  0.00000000000E+00 0. -1.
         11    1    3    3    0    0  0.83892212688E+00 -0.19266473109E+02  0.31274567737E+02  0.36742337484E+02  0.51100000000E-03 0. -1.
        -11    1    3    3    0    0 -0.54513332596E+01 -0.60563353188E+01  0.51850264233E+01  0.96581950215E+01  0.51100000000E-03 0.  1.
        -12    1    3    3    0    0  0.45851348225E+01  0.24261734496E+02 -0.35943486884E+02  0.43607218112E+02  0.00000000000E+00 0.  1.
</event>
<event>
 7    1  0.4358868E-015  0.9000773E+02  0.7816164E-02  0.1186339E+00
        -11   -1    0    0    0    0  0.00000000000E+00  0.00000000000E+00  0.45593999997E+02  0.45594000000E+02  0.51100000000E-03 0. -1.
         11   -1    0    0    0    0 -0.00000000000E+00 -0.00000000000E+00 -0.45593999997E+02  0.45594000000E+02  0.51100000000E-03 0.  1.
    9900012    2    1    2    0    0  0.84122793065E+00  0.48039957048E+00  0.67422770988E+00  0.90007732580E+02  0.89999993850E+02 0.  0.
         12    1    1    2    0    0 -0.84122793065E+00 -0.48039957048E+00 -0.67422770988E+00  0.11802674203E+01  0.00000000000E+00 0. -1.
         11    1    3    3    0    0  0.64804405241E+01 -0.10015192278E+01  0.62334498556E+01  0.90473779358E+01  0.51100000000E-03 0. -1.
        -11    1    3    3    0    0  0.13578419113E+02 -0.36086028707E+02 -0.34381532413E+01  0.38709118195E+02  0.51100000000E-03 0.  1.
         12    1    3    3    0    0 -0.19217631706E+02  0.37567947505E+02 -0.21210689044E+01  0.42251236449E+02  0.00000000000E+00 0. -1.
</event>
<event>
 7    1  0.4358868E-015  0.9000777E+02  0.7816164E-02  0.1186339E+00
        -11   -1    0    0    0    0  0.00000000000E+00  0.00000000000E+00  0.45593999997E+02  0.45594000000E+02  0.51100000000E-03 0. -1.
         11   -1    0    0    0    0 -0.00000000000E+00 -0.00000000000E+00 -0.45593999997E+02  0.45594000000E+02  0.51100000000E-03 0.  1.
    9900012    2    1    2    0    0  0.49029703708E+00 -0.97652122248E+00 -0.44604854418E+00  0.90007769435E+02  0.90000031192E+02 0.  0.
         12    1    1    2    0    0 -0.49029703708E+00  0.97652122248E+00  0.44604854418E+00  0.11802305649E+01  0.00000000000E+00 0. -1.
         11    1    3    3    0    0 -0.36699826558E+01  0.79253197410E+01 -0.16417231561E+01  0.88867722416E+01  0.51100000000E-03 0. -1.
        -11    1    3    3    0    0 -0.25816932747E+02  0.21662626243E+02  0.13913432932E+02  0.36460485576E+02  0.51100000000E-03 0.  1.
         12    1    3    3    0    0  0.29977212440E+02 -0.30564467207E+02 -0.12717758320E+02  0.44660511618E+02  0.00000000000E+00 0. -1.
</event>
<event>
 7    1  0.4358868E-015  0.9000823E+02  0.7816164E-02  0.1186338E+00
        -11   -1    0    0    0    0  0.00000000000E+00  0.00000000000E+00  0.45593999997E+02  0.45594000000E+02  0.51100000000E-03 0. -1.
         11   -1    0    0    0    0 -0.00000000000E+00 -0.00000000000E+00 -0.45593999997E+02  0.45594000000E+02  0.51100000000E-03 0.  1.
    9900012    2    1    2    0    0 -0.86132056827E+00  0.79541521548E+00  0.13154788215E+00  0.90008227424E+02  0.90000495224E+02 0.  0.
         12    1    1    2    0    0  0.86132056827E+00 -0.79541521548E+00 -0.13154788215E+00  0.11797725762E+01  0.00000000000E+00 0. -1.
         11    1    3    3    0    0  0.30404043215E+02 -0.17334367804E+02 -0.24928357522E+01  0.35087040076E+02  0.51100000000E-03 0. -1.
        -11    1    3    3    0    0  0.94510538091E+01  0.12307100955E+01 -0.40111523285E+01  0.10340522651E+02  0.51100000000E-03 0.  1.
        -12    1    3    3    0    0 -0.40716417592E+02  0.16899072924E+02  0.66355359629E+01  0.44580664696E+02  0.00000000000E+00 0.  1.
</event>
<event>
 7    1  0.4358868E-015  0.9000768E+02  0.7816164E-02  0.1186339E+00
        -11   -1    0    0    0    0  0.00000000000E+00  0.00000000000E+00  0.45593999997E+02  0.45594000000E+02  0.51100000000E-03 0.  1.
         11   -1    0    0    0    0 -0.00000000000E+00 -0.00000000000E+00 -0.45593999997E+02  0.45594000000E+02  0.51100000000E-03 0. -1.
    9900012    2    1    2    0    0 -0.10907377135E+01  0.41446061579E+00  0.17798462338E+00  0.90007675939E+02  0.89999936462E+02 0.  0.
         12    1    1    2    0    0  0.10907377135E+01 -0.41446061579E+00 -0.17798462338E+00  0.11803240606E+01  0.00000000000E+00 0. -1.
         11    1    3    3    0    0 -0.87658398239E+01  0.20424755294E+02 -0.29403254171E+02  0.36858675136E+02  0.51100000000E-03 0. -1.
        -11    1    3    3    0    0 -0.55496046000E+01 -0.63506501586E-02 -0.72922074177E+01  0.91637569168E+01  0.51100000000E-03 0.  1.
        -12    1    3    3    0    0  0.13224706710E+02 -0.20003944028E+02  0.36873446212E+02  0.43985243887E+02  0.00000000000E+00 0.  1.
</event>
<event>
 7    1  0.4358868E-015  0.9000773E+02  0.7816164E-02  0.1186339E+00
        -11   -1    0    0    0    0  0.00000000000E+00  0.00000000000E+00  0.45593999997E+02  0.45594000000E+02  0.51100000000E-03 0.  1.
         11   -1    0    0    0    0 -0.00000000000E+00 -0.00000000000E+00 -0.45593999997E+02  0.45594000000E+02  0.51100000000E-03 0. -1.
    9900012    2    1    2    0    0 -0.63646520262E+00 -0.59794541319E+00  0.79399104701E+00  0.90007725263E+02  0.89999986437E+02 0.  0.
         12    1    1    2    0    0  0.63646520262E+00  0.59794541319E+00 -0.79399104701E+00  0.11802747367E+01  0.00000000000E+00 0. -1.
         11    1    3    3    0    0  0.61228248061E+01  0.11170044246E+02 -0.13488604631E+02  0.18552663615E+02  0.51100000000E-03 0. -1.
        -11    1    3    3    0    0 -0.34129048169E+02  0.16277925126E+01 -0.62175700905E+01  0.34728947802E+02  0.51100000000E-03 0.  1.
         12    1    3    3    0    0  0.27369758160E+02 -0.13395782171E+02  0.20500165768E+02  0.36726113846E+02  0.00000000000E+00 0. -1.
</event>
<event>
 7    1  0.4358868E-015  0.9000779E+02  0.7816164E-02  0.1186339E+00
        -11   -1    0    0    0    0  0.00000000000E+00  0.00000000000E+00  0.45593999997E+02  0.45594000000E+02  0.51100000000E-03 0. -1.
         11   -1    0    0    0    0 -0.00000000000E+00 -0.00000000000E+00 -0.45593999997E+02  0.45594000000E+02  0.51100000000E-03 0.  1.
    9900012    2    1    2    0    0 -0.20023754947E+00 -0.73944468716E+00  0.89779001108E+00  0.90007787974E+02  0.90000049976E+02 0.  0.
         12    1    1    2    0    0  0.20023754947E+00  0.73944468716E+00 -0.89779001108E+00  0.11802120257E+01  0.00000000000E+00 0. -1.
         11    1    3    3    0    0 -0.55424175321E+01  0.49033829710E+01 -0.80039146417E+01  0.10900651655E+02  0.51100000000E-03 0. -1.
        -11    1    3    3    0    0  0.20533151802E+02 -0.31260543818E+00 -0.30371425792E+02  0.36662399676E+02  0.51100000000E-03 0.  1.
         12    1    3    3    0    0 -0.15190971819E+02 -0.53302222200E+01  0.39273130445E+02  0.42444736643E+02  0.00000000000E+00 0. -1.
</event>
<event>
 7    1  0.4358868E-015  0.9000771E+02  0.7816164E-02  0.1186339E+00
        -11   -1    0    0    0    0  0.00000000000E+00  0.00000000000E+00  0.45593999997E+02  0.45594000000E+02  0.51100000000E-03 0.  1.
         11   -1    0    0    0    0 -0.00000000000E+00 -0.00000000000E+00 -0.45593999997E+02  0.45594000000E+02  0.51100000000E-03 0. -1.
    9900012    2    1    2    0    0  0.40988652263E+00  0.54746316507E+00  0.96195330949E+00  0.90007713150E+02  0.89999974164E+02 0.  0.
         12    1    1    2    0    0 -0.40988652263E+00 -0.54746316507E+00 -0.96195330949E+00  0.11802868500E+01  0.00000000000E+00 0. -1.
         11    1    3    3    0    0 -0.35525188348E+01  0.26961975571E+02  0.13685891985E+01  0.27229424405E+02  0.51100000000E-03 0. -1.
        -11    1    3    3    0    0  0.19433273603E+01  0.18053118524E+02  0.15376337798E+01  0.18222401806E+02  0.51100000000E-03 0.  1.
        -12    1    3    3    0    0  0.20190779971E+01 -0.44467630930E+02 -0.19442696688E+01  0.44555886940E+02  0.00000000000E+00 0.  1.
</event>
<event>
 7    1  0.4358868E-015  0.9000773E+02  0.7816164E-02  0.1186339E+00
        -11   -1    0    0    0    0  0.00000000000E+00  0.00000000000E+00  0.45593999997E+02  0.45594000000E+02  0.51100000000E-03 0. -1.
         11   -1    0    0    0    0 -0.00000000000E+00 -0.00000000000E+00 -0.45593999997E+02  0.45594000000E+02  0.51100000000E-03 0.  1.
    9900012    2    1    2    0    0  0.36528884870E-01 -0.31922545850E+00 -0.11356890052E+01  0.90007733602E+02  0.89999994886E+02 0.  0.
         12    1    1    2    0    0 -0.36528884870E-01  0.31922545850E+00  0.11356890052E+01  0.11802663977E+01  0.00000000000E+00 0. -1.
         11    1    3    3    0    0 -0.14375448509E+01  0.11187365227E+01 -0.11542031097E+02  0.11684887193E+02  0.51100000000E-03 0. -1.
        -11    1    3    3    0    0 -0.30292127461E+02  0.22598460065E+02  0.51879241289E+01  0.38147318916E+02  0.51100000000E-03 0.  1.
         12    1    3    3    0    0  0.31766201197E+02 -0.24036422047E+02  0.52184179633E+01  0.40175527493E+02  0.00000000000E+00 0. -1.
</event>
<event>
 7    1  0.4358868E-015  0.9000778E+02  0.7816164E-02  0.1186339E+00
        -11   -1    0    0    0    0  0.00000000000E+00  0.00000000000E+00  0.45593999997E+02  0.45594000000E+02  0.51100000000E-03 0. -1.
         11   -1    0    0    0    0 -0.00000000000E+00 -0.00000000000E+00 -0.45593999997E+02  0.45594000000E+02  0.51100000000E-03 0.  1.
    9900012    2    1    2    0    0  0.10524758084E+01 -0.44596672520E+00  0.29380741722E+00  0.90007782035E+02  0.90000043958E+02 0.  0.
         12    1    1    2    0    0 -0.10524758084E+01  0.44596672520E+00 -0.29380741722E+00  0.11802179653E+01  0.00000000000E+00 0. -1.
         11    1    3    3    0    0  0.44069227730E+01  0.27227922054E+02  0.10029460164E+02  0.29349118882E+02  0.51100000000E-03 0. -1.
        -11    1    3    3    0    0  0.14161843482E+02 -0.28992264694E+01  0.15499681925E+02  0.21194420609E+02  0.51100000000E-03 0.  1.
        -12    1    3    3    0    0 -0.17516290446E+02 -0.24774662310E+02 -0.25235334672E+02  0.39464242544E+02  0.00000000000E+00 0.  1.
</event>
<event>
 7    1  0.4358868E-015  0.9000772E+02  0.7816164E-02  0.1186339E+00
        -11   -1    0    0    0    0  0.00000000000E+00  0.00000000000E+00  0.45593999997E+02  0.45594000000E+02  0.51100000000E-03 0. -1.
         11   -1    0    0    0    0 -0.00000000000E+00 -0.00000000000E+00 -0.45593999997E+02  0.45594000000E+02  0.51100000000E-03 0.  1.
    9900012    2    1    2    0    0  0.26736682790E+00 -0.95443165512E+00 -0.64081187960E+00  0.90007718394E+02  0.89999979477E+02 0.  0.
         12    1    1    2    0    0 -0.26736682790E+00  0.95443165512E+00  0.64081187960E+00  0.11802816062E+01  0.00000000000E+00 0. -1.
         11    1    3    3    0    0 -0.11099307404E+02 -0.39365815396E+01 -0.97890971393E+01  0.15313971468E+02  0.51100000000E-03 0. -1.
        -11    1    3    3    0    0  0.10555273344E+02  0.12142058314E+01 -0.31887941695E+02  0.33611440269E+02  0.51100000000E-03 0.  1.
         12    1    3    3    0    0  0.81140088714E+00  0.17679440531E+01  0.41036226954E+02  0.41082306657E+02  0.00000000000E+00 0. -1.
</event>
<event>
 7    1  0.4358868E-015  0.9000729E+02  0.7816164E-02  0.1186340E+00
        -11   -1    0    0    0    0  0.00000000000E+00  0.00000000000E+00  0.45593999997E+02  0.45594000000E+02  0.51100000000E-03 0. -1.
         11   -1    0    0    0    0 -0.00000000000E+00 -0.00000000000E+00 -0.45593999997E+02  0.45594000000E+02  0.51100000000E-03 0.  1.
    9900012    2    1    2    0    0  0.95519822651E-01  0.69970203898E+00 -0.94623449094E+00  0.90007293986E+02  0.89999549465E+02 0.  0.
         12    1    1    2    0    0 -0.95519822651E-01 -0.69970203898E+00  0.94623449094E+00  0.11807060141E+01  0.00000000000E+00 0. -1.
         11    1    3    3    0    0 -0.42271620308E+01  0.46130022128E+01  0.45674809748E+01  0.77466490152E+01  0.51100000000E-03 0. -1.
        -11    1    3    3    0    0  0.11520339300E+02  0.37859871972E+02 -0.50527076155E+00  0.39577056764E+02  0.51100000000E-03 0.  1.
         12    1    3    3    0    0 -0.71976574463E+01 -0.41773172146E+02 -0.50084447042E+01  0.42683588206E+02  0.00000000000E+00 0. -1.
</event>
<event>
 7    1  0.4358868E-015  0.9000773E+02  0.7816164E-02  0.1186339E+00
        -11   -1    0    0    0    0  0.00000000000E+00  0.00000000000E+00  0.45593999997E+02  0.45594000000E+02  0.51100000000E-03 0.  1.
         11   -1    0    0    0    0 -0.00000000000E+00 -0.00000000000E+00 -0.45593999997E+02  0.45594000000E+02  0.51100000000E-03 0. -1.
    9900012    2    1    2    0    0 -0.79153421014E+00 -0.59298217818E+00  0.64411768673E+00  0.90007728055E+02  0.89999989265E+02 0.  0.
         12    1    1    2    0    0  0.79153421014E+00  0.59298217818E+00 -0.64411768673E+00  0.11802719449E+01  0.00000000000E+00 0. -1.
         11    1    3    3    0    0  0.26957140477E+02  0.24327706161E+02 -0.10902573636E+02  0.37912937395E+02  0.51100000000E-03 0. -1.
        -11    1    3    3    0    0  0.76284252192E+01 -0.66444775718E+01  0.63346024447E+01  0.11936043814E+02  0.51100000000E-03 0.  1.
        -12    1    3    3    0    0 -0.35377099907E+02 -0.18276210768E+02  0.52120888779E+01  0.40158746847E+02  0.00000000000E+00 0.  1.
</event>
<event>
 7    1  0.4358868E-015  0.9000784E+02  0.7816164E-02  0.1186339E+00
        -11   -1    0    0    0    0  0.00000000000E+00  0.00000000000E+00  0.45593999997E+02  0.45594000000E+02  0.51100000000E-03 0. -1.
         11   -1    0    0    0    0 -0.00000000000E+00 -0.00000000000E+00 -0.45593999997E+02  0.45594000000E+02  0.51100000000E-03 0.  1.
    9900012    2    1    2    0    0 -0.25831100127E+00  0.11343312841E+01  0.19835781495E+00  0.90007839901E+02  0.90000102588E+02 0.  0.
         12    1    1    2    0    0  0.25831100127E+00 -0.11343312841E+01 -0.19835781495E+00  0.11801600985E+01  0.00000000000E+00 0. -1.
         11    1    3    3    0    0  0.31728131526E+02  0.22364011644E+02  0.29842014531E+01  0.38932361931E+02  0.51100000000E-03 0. -1.
        -11    1    3    3    0    0 -0.17416043139E+01  0.84332125584E+01  0.12922129808E+00  0.86121401548E+01  0.51100000000E-03 0.  1.
        -12    1    3    3    0    0 -0.30244838214E+02 -0.29662892918E+02 -0.29150649363E+01  0.42463337816E+02  0.00000000000E+00 0.  1.
</event>
<event>
 7    1  0.4358868E-015  0.9000767E+02  0.7816164E-02  0.1186339E+00
        -11   -1    0    0    0    0  0.00000000000E+00  0.00000000000E+00  0.45593999997E+02  0.45594000000E+02  0.51100000000E-03 0.  1.
         11   -1    0    0    0    0 -0.00000000000E+00 -0.00000000000E+00 -0.45593999997E+02  0.45594000000E+02  0.51100000000E-03 0. -1.
    9900012    2    1    2    0    0  0.34814887013E+00  0.98915169646E+00  0.54180517988E+00  0.90007668874E+02  0.89999929303E+02 0.  0.
         12    1    1    2    0    0 -0.34814887013E+00 -0.98915169646E+00 -0.54180517988E+00  0.11803311261E+01  0.00000000000E+00 0. -1.
         11    1    3    3    0    0 -0.79769250198E-01  0.33127628554E+01 -0.61470850727E+01  0.69833670977E+01  0.51100000000E-03 0. -1.
        -11    1    3    3    0    0  0.27756974134E+02 -0.27349347711E+02 -0.12979358790E+02  0.41071890487E+02  0.51100000000E-03 0.  1.
         12    1    3    3    0    0 -0.27329056014E+02  0.25025736552E+02  0.19668249043E+02  0.41952411289E+02  0.00000000000E+00 0. -1.
</event>
<event>
 7    1  0.4358868E-015  0.9000770E+02  0.7816164E-02  0.1186339E+00
        -11   -1    0    0    0    0  0.00000000000E+00  0.00000000000E+00  0.45593999997E+02  0.45594000000E+02  0.51100000000E-03 0.  1.
         11   -1    0    0    0    0 -0.00000000000E+00 -0.00000000000E+00 -0.45593999997E+02  0.45594000000E+02  0.51100000000E-03 0. -1.
    9900012    2    1    2    0    0  0.52581075971E+00 -0.61084153361E+00  0.86226619769E+00  0.90007700322E+02  0.89999961166E+02 0.  0.
         12    1    1    2    0    0 -0.52581075971E+00  0.61084153361E+00 -0.86226619769E+00  0.11802996780E+01  0.00000000000E+00 0. -1.
         11    1    3    3    0    0  0.10351377277E+01  0.21896372069E+01  0.95967491324E+01  0.98976570654E+01  0.51100000000E-03 0. -1.
        -11    1    3    3    0    0  0.11929328912E+02  0.32023311701E+02  0.13746195657E+02  0.36834213388E+02  0.51100000000E-03 0.  1.
         12    1    3    3    0    0 -0.12438655880E+02 -0.34823790442E+02 -0.22480678592E+02  0.43275829868E+02  0.00000000000E+00 0. -1.
</event>
<event>
 7    1  0.4358868E-015  0.9000772E+02  0.7816164E-02  0.1186339E+00
        -11   -1    0    0    0    0  0.00000000000E+00  0.00000000000E+00  0.45593999997E+02  0.45594000000E+02  0.51100000000E-03 0.  1.
         11   -1    0    0    0    0 -0.00000000000E+00 -0.00000000000E+00 -0.45593999997E+02  0.45594000000E+02  0.51100000000E-03 0. -1.
    9900012    2    1    2    0    0 -0.58403989333E+00  0.36706007357E+00  0.95771917358E+00  0.90007719648E+02  0.89999980747E+02 0.  0.
         12    1    1    2    0    0  0.58403989333E+00 -0.36706007357E+00 -0.95771917358E+00  0.11802803523E+01  0.00000000000E+00 0. -1.
         11    1    3    3    0    0 -0.36006783244E+02  0.56773016970E+01  0.16135181348E+02  0.39863069018E+02  0.51100000000E-03 0. -1.
        -11    1    3    3    0    0  0.16392668948E+01  0.59264797155E+01  0.61053471016E+01  0.86651959737E+01  0.51100000000E-03 0.  1.
        -12    1    3    3    0    0  0.33783476456E+02 -0.11236721339E+02 -0.21282809276E+02  0.41479454656E+02  0.00000000000E+00 0.  1.
</event>
<event>
 7    1  0.4358868E-015  0.9000773E+02  0.7816164E-02  0.1186339E+00
        -11   -1    0    0    0    0  0.00000000000E+00  0.00000000000E+00  0.45593999997E+02  0.45594000000E+02  0.51100000000E-03 0. -1.
         11   -1    0    0    0    0 -0.00000000000E+00 -0.00000000000E+00 -0.45593999997E+02  0.45594000000E+02  0.51100000000E-03 0.  1.
    9900012    2    1    2    0    0 -0.55749665356E+00 -0.10208432181E+01 -0.20028661769E+00  0.90007729640E+02  0.89999990871E+02 0.  0.
         12    1    1    2    0    0  0.55749665356E+00  0.10208432181E+01  0.20028661769E+00  0.11802703605E+01  0.00000000000E+00 0. -1.
         11    1    3    3    0    0 -0.44726411506E+01 -0.38273030282E+01  0.37757492314E+01  0.69935005435E+01  0.51100000000E-03 0. -1.
        -11    1    3    3    0    0 -0.16851916997E+02 -0.30429068228E+02 -0.20619761590E+02  0.40436244484E+02  0.51100000000E-03 0.  1.
         12    1    3    3    0    0  0.20767061494E+02  0.33235528038E+02  0.16643725741E+02  0.42577984612E+02  0.00000000000E+00 0. -1.
</event>
<event>
 7    1  0.4358868E-015  0.9000697E+02  0.7816164E-02  0.1186341E+00
        -11   -1    0    0    0    0  0.00000000000E+00  0.00000000000E+00  0.45593999997E+02  0.45594000000E+02  0.51100000000E-03 0.  1.
         11   -1    0    0    0    0 -0.00000000000E+00 -0.00000000000E+00 -0.45593999997E+02  0.45594000000E+02  0.51100000000E-03 0. -1.
    9900012    2    1    2    0    0 -0.11258632805E+01 -0.76741401663E-01 -0.34839307799E+00  0.90006968626E+02  0.89999219809E+02 0.  0.
         12    1    1    2    0    0  0.11258632805E+01  0.76741401663E-01  0.34839307799E+00  0.11810313738E+01  0.00000000000E+00 0. -1.
         11    1    3    3    0    0  0.24817208079E+02 -0.24997787953E+02 -0.19272888644E+02  0.40152552301E+02  0.51100000000E-03 0. -1.
        -11    1    3    3    0    0  0.27947241586E+01 -0.49520905332E+00  0.10095570943E+02  0.10486957044E+02  0.51100000000E-03 0.  1.
        -12    1    3    3    0    0 -0.28737795518E+02  0.25416255605E+02  0.88289246230E+01  0.39367459280E+02  0.00000000000E+00 0.  1.
</event>
<event>
 7    1  0.4358868E-015  0.9000788E+02  0.7816164E-02  0.1186339E+00
        -11   -1    0    0    0    0  0.00000000000E+00  0.00000000000E+00  0.45593999997E+02  0.45594000000E+02  0.51100000000E-03 0.  1.
         11   -1    0    0    0    0 -0.00000000000E+00 -0.00000000000E+00 -0.45593999997E+02  0.45594000000E+02  0.51100000000E-03 0. -1.
    9900012    2    1    2    0    0 -0.94212536365E+00  0.14824489583E+00  0.69505233898E+00  0.90007883691E+02  0.90000146955E+02 0.  0.
         12    1    1    2    0    0  0.94212536365E+00 -0.14824489583E+00 -0.69505233898E+00  0.11801163095E+01  0.00000000000E+00 0. -1.
         11    1    3    3    0    0  0.18528994463E+02 -0.17079673364E+02 -0.10582820459E+01  0.25222189421E+02  0.51100000000E-03 0. -1.
        -11    1    3    3    0    0 -0.98860133247E+00 -0.77806711480E+01  0.24844307650E+02  0.26052942233E+02  0.51100000000E-03 0.  1.
         12    1    3    3    0    0 -0.18482518494E+02  0.25008589407E+02 -0.23090973265E+02  0.38732752037E+02  0.00000000000E+00 0. -1.
</event>
<event>
 7    1  0.4358868E-015  0.9000763E+02  0.7816164E-02  0.1186339E+00
        -11   -1    0    0    0    0  0.00000000000E+00  0.00000000000E+00  0.45593999997E+02  0.45594000000E+02  0.51100000000E-03 0. -1.
         11   -1    0    0    0    0 -0.00000000000E+00 -0.00000000000E+00 -0.45593999997E+02  0.45594000000E+02  0.51100000000E-03 0.  1.
    9900012    2    1    2    0    0 -0.62801606423E+00 -0.48524506873E+00 -0.87372549947E+00  0.90007634293E+02  0.89999894266E+02 0.  0.
         12    1    1    2    0    0  0.62801606423E+00  0.48524506873E+00  0.87372549947E+00  0.11803657069E+01  0.00000000000E+00 0. -1.
         11    1    3    3    0    0 -0.12008180009E+02  0.54859011236E+01 -0.65248994917E+01  0.14726364517E+02  0.51100000000E-03 0. -1.
        -11    1    3    3    0    0 -0.16229719441E+02  0.60811074001E+01 -0.26216798882E+02  0.31427761680E+02  0.51100000000E-03 0.  1.
         12    1    3    3    0    0  0.27609883385E+02 -0.12052253593E+02  0.31867972874E+02  0.43853508096E+02  0.00000000000E+00 0. -1.
</event>
<event>
 7    1  0.4358868E-015  0.9000780E+02  0.7816164E-02  0.1186339E+00
        -11   -1    0    0    0    0  0.00000000000E+00  0.00000000000E+00  0.45593999997E+02  0.45594000000E+02  0.51100000000E-03 0. -1.
         11   -1    0    0    0    0 -0.00000000000E+00 -0.00000000000E+00 -0.45593999997E+02  0.45594000000E+02  0.51100000000E-03 0.  1.
    9900012    2    1    2    0    0  0.52252401761E+00 -0.92281071627E+00 -0.51794187229E+00  0.90007798852E+02  0.90000060997E+02 0.  0.
         12    1    1    2    0    0 -0.52252401761E+00  0.92281071627E+00  0.51794187229E+00  0.11802011482E+01  0.00000000000E+00 0. -1.
         11    1    3    3    0    0  0.13501035501E+01  0.42470644900E-01 -0.96524907809E+01  0.97465461518E+01  0.51100000000E-03 0. -1.
        -11    1    3    3    0    0 -0.13180414334E+02  0.34459236875E+02 -0.98903165272E+01  0.38196605730E+02  0.51100000000E-03 0.  1.
         12    1    3    3    0    0  0.12352834802E+02 -0.35424518236E+02  0.19024865436E+02  0.42064646970E+02  0.00000000000E+00 0. -1.
</event>
<event>
 7    1  0.4358868E-015  0.9000770E+02  0.7816164E-02  0.1186339E+00
        -11   -1    0    0    0    0  0.00000000000E+00  0.00000000000E+00  0.45593999997E+02  0.45594000000E+02  0.51100000000E-03 0.  1.
         11   -1    0    0    0    0 -0.00000000000E+00 -0.00000000000E+00 -0.45593999997E+02  0.45594000000E+02  0.51100000000E-03 0. -1.
    9900012    2    1    2    0    0  0.18464420956E+00 -0.10483927752E+01  0.50979091360E+00  0.90007700178E+02  0.89999961020E+02 0.  0.
         12    1    1    2    0    0 -0.18464420956E+00  0.10483927752E+01 -0.50979091360E+00  0.11802998224E+01  0.00000000000E+00 0. -1.
         11    1    3    3    0    0 -0.27140101643E+02 -0.14745612507E+02  0.18455489414E+02  0.35980874019E+02  0.51100000000E-03 0. -1.
        -11    1    3    3    0    0 -0.82595929941E+01  0.22302959247E+01  0.52419647220E+01  0.10033608062E+02  0.51100000000E-03 0.  1.
        -12    1    3    3    0    0  0.35584338847E+02  0.11466923807E+02 -0.23187663222E+02  0.43993218096E+02  0.00000000000E+00 0.  1.
</event>
<event>
 7    1  0.4358868E-015  0.9000775E+02  0.7816164E-02  0.1186339E+00
        -11   -1    0    0    0    0  0.00000000000E+00  0.00000000000E+00  0.45593999997E+02  0.45594000000E+02  0.51100000000E-03 0. -1.
         11   -1    0    0    0    0 -0.00000000000E+00 -0.00000000000E+00 -0.45593999997E+02  0.45594000000E+02  0.51100000000E-03 0.  1.
    9900012    2    1    2    0    0  0.74734597997E+00  0.82260019768E+00  0.39723808216E+00  0.90007747827E+02  0.90000009298E+02 0.  0.
         12    1    1    2    0    0 -0.74734597997E+00 -0.82260019768E+00 -0.39723808216E+00  0.11802521734E+01  0.00000000000E+00 0. -1.
         11    1    3    3    0    0 -0.77789702310E+01 -0.31970897403E+01  0.24291524393E-01  0.84103716328E+01  0.51100000000E-03 0. -1.
        -11    1    3    3    0    0 -0.18974109865E+02  0.35133605158E+02  0.25837495481E+01  0.40013283027E+02  0.51100000000E-03 0.  1.
         12    1    3    3    0    0  0.27500426075E+02 -0.31113915220E+02 -0.22108029903E+01  0.41584093167E+02  0.00000000000E+00 0. -1.
</event>
<event>
 7    1  0.4358868E-015  0.9000855E+02  0.7816164E-02  0.1186337E+00
        -11   -1    0    0    0    0  0.00000000000E+00  0.00000000000E+00  0.45593999997E+02  0.45594000000E+02  0.51100000000E-03 0.  1.
         11   -1    0    0    0    0 -0.00000000000E+00 -0.00000000000E+00 -0.45593999997E+02  0.45594000000E+02  0.51100000000E-03 0. -1.
    9900012    2    1    2    0    0  0.70682933413E+00  0.77451932442E+00  0.54000628897E+00  0.90008553230E+02  0.90000825329E+02 0.  0.
         12    1    1    2    0    0 -0.70682933413E+00 -0.77451932442E+00 -0.54000628897E+00  0.11794467701E+01  0.00000000000E+00 0. -1.
         11    1    3    3    0    0  0.86006231739E+01  0.77057675205E+01  0.20982532042E+01  0.11736789971E+02  0.51100000000E-03 0. -1.
        -11    1    3    3    0    0  0.72814237583E+01  0.30456763458E+02  0.14918338884E+02  0.34687035151E+02  0.51100000000E-03 0.  1.
         12    1    3    3    0    0 -0.15175217598E+02 -0.37388011654E+02 -0.16476585799E+02  0.43584728107E+02  0.00000000000E+00 0. -1.
</event>
<event>
 7    1  0.4358868E-015  0.9000821E+02  0.7816164E-02  0.1186338E+00
        -11   -1    0    0    0    0  0.00000000000E+00  0.00000000000E+00  0.45593999997E+02  0.45594000000E+02  0.51100000000E-03 0. -1.
         11   -1    0    0    0    0 -0.00000000000E+00 -0.00000000000E+00 -0.45593999997E+02  0.45594000000E+02  0.51100000000E-03 0.  1.
    9900012    2    1    2    0    0 -0.34212494183E+00 -0.10678344254E+01  0.36686623981E+00  0.90008207360E+02  0.90000474896E+02 0.  0.
         12    1    1    2    0    0  0.34212494183E+00  0.10678344254E+01 -0.36686623981E+00  0.11797926402E+01  0.00000000000E+00 0. -1.
         11    1    3    3    0    0  0.45037484386E+01 -0.67756745972E+01 -0.72697930162E+01  0.10910701490E+02  0.51100000000E-03 0. -1.
        -11    1    3    3    0    0 -0.32424820141E+01 -0.28477400449E+02 -0.20132537424E+02  0.35025634745E+02  0.51100000000E-03 0.  1.
         12    1    3    3    0    0 -0.16033913663E+01  0.34185240621E+02  0.27769196680E+02  0.44071871124E+02  0.00000000000E+00 0. -1.
</event>
<event>
 7    1  0.4358868E-015  0.9000774E+02  0.7816164E-02  0.1186339E+00
        -11   -1    0    0    0    0  0.00000000000E+00  0.00000000000E+00  0.45593999997E+02  0.45594000000E+02  0.51100000000E-03 0.  1.
         11   -1    0    0    0    0 -0.00000000000E+00 -0.00000000000E+00 -0.45593999997E+02  0.45594000000E+02  0.51100000000E-03 0. -1.
    9900012    2    1    2    0    0  0.10291547212E+01  0.56419173097E+00 -0.12468097281E+00  0.90007738548E+02  0.89999999897E+02 0.  0.
         12    1    1    2    0    0 -0.10291547212E+01 -0.56419173097E+00  0.12468097281E+00  0.11802614517E+01  0.00000000000E+00 0. -1.
         11    1    3    3    0    0 -0.70330778219E+01 -0.40787264774E+01  0.40984669370E+01  0.91048132777E+01  0.51100000000E-03 0. -1.
        -11    1    3    3    0    0  0.22736640592E+02 -0.31095402474E+02 -0.14110226285E+02  0.41024107139E+02  0.51100000000E-03 0.  1.
         12    1    3    3    0    0 -0.14674408049E+02  0.35738320682E+02  0.98870783752E+01  0.39878818132E+02  0.00000000000E+00 0. -1.
</event>
<event>
 7    1  0.4358868E-015  0.9000768E+02  0.7816164E-02  0.1186339E+00
        -11   -1    0    0    0    0  0.00000000000E+00  0.00000000000E+00  0.45593999997E+02  0.45594000000E+02  0.51100000000E-03 0. -1.
         11   -1    0    0    0    0 -0.00000000000E+00 -0.00000000000E+00 -0.45593999997E+02  0.45594000000E+02  0.51100000000E-03 0.  1.
    9900012    2    1    2    0    0  0.53537858339E+00 -0.43736031954E+00  0.95667834916E+00  0.90007683203E+02  0.89999943822E+02 0.  0.
         12    1    1    2    0    0 -0.53537858339E+00  0.43736031954E+00 -0.95667834916E+00  0.11803167966E+01  0.00000000000E+00 0. -1.
         11    1    3    3    0    0 -0.11683371182E+02  0.71150253658E+01 -0.76043499798E+00  0.13700474801E+02  0.51100000000E-03 0. -1.
        -11    1    3    3    0    0 -0.30342804154E+02 -0.10833472876E+02 -0.64162322634E+01  0.32851452558E+02  0.51100000000E-03 0.  1.
         12    1    3    3    0    0  0.42561553919E+02  0.32810871906E+01  0.81333456106E+01  0.43455755844E+02  0.00000000000E+00 0. -1.
</event>
<event>
 7    1  0.4358868E-015  0.9000781E+02  0.7816164E-02  0.1186339E+00
        -11   -1    0    0    0    0  0.00000000000E+00  0.00000000000E+00  0.45593999997E+02  0.45594000000E+02  0.51100000000E-03 0.  1.
         11   -1    0    0    0    0 -0.00000000000E+00 -0.00000000000E+00 -0.45593999997E+02  0.45594000000E+02  0.51100000000E-03 0. -1.
    9900012    2    1    2    0    0  0.28657804289E+00 -0.39327215644E+00  0.10751980782E+01  0.90007813205E+02  0.90000075539E+02 0.  0.
         12    1    1    2    0    0 -0.28657804289E+00  0.39327215644E+00 -0.10751980782E+01  0.11801867950E+01  0.00000000000E+00 0. -1.
         11    1    3    3    0    0  0.68087423471E+01 -0.35402956071E+02  0.73474003556E+01  0.36792833041E+02  0.51100000000E-03 0. -1.
        -11    1    3    3    0    0  0.44539356225E+01 -0.58318369223E+01  0.56666214781E+01  0.92713787354E+01  0.51100000000E-03 0.  1.
        -12    1    3    3    0    0 -0.10976099927E+02  0.40841520837E+02 -0.11938823755E+02  0.43943601429E+02  0.00000000000E+00 0.  1.
</event>
<event>
 7    1  0.4358868E-015  0.9000777E+02  0.7816164E-02  0.1186339E+00
        -11   -1    0    0    0    0  0.00000000000E+00  0.00000000000E+00  0.45593999997E+02  0.45594000000E+02  0.51100000000E-03 0.  1.
         11   -1    0    0    0    0 -0.00000000000E+00 -0.00000000000E+00 -0.45593999997E+02  0.45594000000E+02  0.51100000000E-03 0. -1.
    9900012    2    1    2    0    0  0.96408829802E+00 -0.62421940191E+00  0.27170531699E+00  0.90007771256E+02  0.90000033037E+02 0.  0.
         12    1    1    2    0    0 -0.96408829802E+00  0.62421940191E+00 -0.27170531699E+00  0.11802287437E+01  0.00000000000E+00 0. -1.
         11    1    3    3    0    0 -0.54038667282E+01 -0.97450809209E+01 -0.41545369990E+01  0.11892373847E+02  0.51100000000E-03 0. -1.
        -11    1    3    3    0    0 -0.15961797965E+01 -0.26487277655E+01  0.39838375408E+02  0.39958224486E+02  0.51100000000E-03 0.  1.
         12    1    3    3    0    0  0.79641348226E+01  0.11769589285E+02 -0.35412133092E+02  0.38157172923E+02  0.00000000000E+00 0. -1.
</event>
<event>
 7    1  0.4358868E-015  0.9000777E+02  0.7816164E-02  0.1186339E+00
        -11   -1    0    0    0    0  0.00000000000E+00  0.00000000000E+00  0.45593999997E+02  0.45594000000E+02  0.51100000000E-03 0.  1.
         11   -1    0    0    0    0 -0.00000000000E+00 -0.00000000000E+00 -0.45593999997E+02  0.45594000000E+02  0.51100000000E-03 0. -1.
    9900012    2    1    2    0    0 -0.21809160791E-01 -0.59731419020E+00  0.10176874502E+01  0.90007767977E+02  0.90000029714E+02 0.  0.
         12    1    1    2    0    0  0.21809160791E-01  0.59731419020E+00 -0.10176874502E+01  0.11802320228E+01  0.00000000000E+00 0. -1.
         11    1    3    3    0    0 -0.74117579718E+01  0.95471560793E+01  0.35172955990E+01  0.12587839927E+02  0.51100000000E-03 0. -1.
        -11    1    3    3    0    0  0.12855651864E+02  0.41747502611E+01  0.34671431513E+02  0.37212961291E+02  0.51100000000E-03 0.  1.
         12    1    3    3    0    0 -0.54657030531E+01 -0.14319220531E+02 -0.37171039662E+02  0.40206966760E+02  0.00000000000E+00 0. -1.
</event>
<event>
 7    1  0.4358868E-015  0.9000755E+02  0.7816164E-02  0.1186339E+00
        -11   -1    0    0    0    0  0.00000000000E+00  0.00000000000E+00  0.45593999997E+02  0.45594000000E+02  0.51100000000E-03 0.  1.
         11   -1    0    0    0    0 -0.00000000000E+00 -0.00000000000E+00 -0.45593999997E+02  0.45594000000E+02  0.51100000000E-03 0. -1.
    9900012    2    1    2    0    0 -0.96337591625E+00  0.96129666104E-01  0.67536875095E+00  0.90007552196E+02  0.89999811085E+02 0.  0.
         12    1    1    2    0    0  0.96337591625E+00 -0.96129666104E-01 -0.67536875095E+00  0.11804478042E+01  0.00000000000E+00 0. -1.
         11    1    3    3    0    0  0.26109263238E+02  0.17042877140E+02 -0.20878102541E+02  0.37523971724E+02  0.51100000000E-03 0. -1.
        -11    1    3    3    0    0  0.54878619447E+01 -0.17796512611E+01 -0.51435525054E+01  0.77291603666E+01  0.51100000000E-03 0.  1.
        -12    1    3    3    0    0 -0.32560501099E+02 -0.15167096212E+02  0.26697023797E+02  0.44754420105E+02  0.00000000000E+00 0.  1.
</event>
<event>
 7    1  0.4358868E-015  0.9000773E+02  0.7816164E-02  0.1186339E+00
        -11   -1    0    0    0    0  0.00000000000E+00  0.00000000000E+00  0.45593999997E+02  0.45594000000E+02  0.51100000000E-03 0. -1.
         11   -1    0    0    0    0 -0.00000000000E+00 -0.00000000000E+00 -0.45593999997E+02  0.45594000000E+02  0.51100000000E-03 0.  1.
    9900012    2    1    2    0    0 -0.16705291594E-01  0.62363928201E+00 -0.10019138761E+01  0.90007730355E+02  0.89999991595E+02 0.  0.
         12    1    1    2    0    0  0.16705291594E-01 -0.62363928201E+00  0.10019138761E+01  0.11802696455E+01  0.00000000000E+00 0. -1.
         11    1    3    3    0    0  0.26167916825E+01 -0.19070610984E+02  0.31213609649E+02  0.36671858824E+02  0.51100000000E-03 0. -1.
        -11    1    3    3    0    0  0.29566852390E+01 -0.80229575087E+01  0.21663810804E+01  0.88206032693E+01  0.51100000000E-03 0.  1.
        -12    1    3    3    0    0 -0.55901822130E+01  0.27717207775E+02 -0.34381904606E+02  0.44515268261E+02  0.00000000000E+00 0.  1.
</event>
<event>
 7    1  0.4358868E-015  0.9000769E+02  0.7816164E-02  0.1186339E+00
        -11   -1    0    0    0    0  0.00000000000E+00  0.00000000000E+00  0.45593999997E+02  0.45594000000E+02  0.51100000000E-03 0.  1.
         11   -1    0    0    0    0 -0.00000000000E+00 -0.00000000000E+00 -0.45593999997E+02  0.45594000000E+02  0.51100000000E-03 0. -1.
    9900012    2    1    2    0    0  0.40253445354E+00  0.86469095503E+00  0.69527973158E+00  0.90007687186E+02  0.89999947857E+02 0.  0.
         12    1    1    2    0    0 -0.40253445354E+00 -0.86469095503E+00 -0.69527973158E+00  0.11803128141E+01  0.00000000000E+00 0. -1.
         11    1    3    3    0    0 -0.10864426600E+02  0.91821580121E+01 -0.76609613575E+01  0.16156674172E+02  0.51100000000E-03 0. -1.
        -11    1    3    3    0    0 -0.96739843876E+01  0.28942967317E+02  0.55472933776E+01  0.31016992039E+02  0.51100000000E-03 0.  1.
        -12    1    3    3    0    0  0.20940945441E+02 -0.37260434374E+02  0.28089477115E+01  0.42834020976E+02  0.00000000000E+00 0.  1.
</event>
<event>
 7    1  0.4358868E-015  0.9000792E+02  0.7816164E-02  0.1186339E+00
        -11   -1    0    0    0    0  0.00000000000E+00  0.00000000000E+00  0.45593999997E+02  0.45594000000E+02  0.51100000000E-03 0.  1.
         11   -1    0    0    0    0 -0.00000000000E+00 -0.00000000000E+00 -0.45593999997E+02  0.45594000000E+02  0.51100000000E-03 0. -1.
    9900012    2    1    2    0    0  0.24681120010E+00 -0.11240619089E+01 -0.26105705826E+00  0.90007922998E+02  0.90000186781E+02 0.  0.
         12    1    1    2    0    0 -0.24681120010E+00  0.11240619089E+01  0.26105705826E+00  0.11800770022E+01  0.00000000000E+00 0. -1.
         11    1    3    3    0    0 -0.38949080228E+01 -0.92046047629E+01 -0.50035216354E+00  0.10007267854E+02  0.51100000000E-03 0. -1.
        -11    1    3    3    0    0  0.25650168249E+02  0.35393130909E+01  0.32131634882E+02  0.41266206862E+02  0.51100000000E-03 0.  1.
         12    1    3    3    0    0 -0.21508449027E+02  0.45412297632E+01 -0.31892339776E+02  0.38734448282E+02  0.00000000000E+00 0. -1.
</event>
<event>
 7    1  0.4358868E-015  0.9000885E+02  0.7816164E-02  0.1186337E+00
        -11   -1    0    0    0    0  0.00000000000E+00  0.00000000000E+00  0.45593999997E+02  0.45594000000E+02  0.51100000000E-03 0.  1.
         11   -1    0    0    0    0 -0.00000000000E+00 -0.00000000000E+00 -0.45593999997E+02  0.45594000000E+02  0.51100000000E-03 0. -1.
    9900012    2    1    2    0    0  0.17206838572E-01 -0.22368135277E+00  0.11576095692E+01  0.90008852283E+02  0.90001128326E+02 0.  0.
         12    1    1    2    0    0 -0.17206838572E-01  0.22368135277E+00 -0.11576095692E+01  0.11791477166E+01  0.00000000000E+00 0. -1.
         11    1    3    3    0    0  0.52472538873E+01  0.65085009203E+01  0.60775307054E+01  0.10335890737E+02  0.51100000000E-03 0. -1.
        -11    1    3    3    0    0 -0.13578139924E+02  0.30315331495E+02 -0.20043459544E+02  0.38795946672E+02  0.51100000000E-03 0.  1.
         12    1    3    3    0    0  0.83480928755E+01 -0.37047513768E+02  0.15123538408E+02  0.40877014874E+02  0.00000000000E+00 0. -1.
</event>
<event>
 7    1  0.4358868E-015  0.9000762E+02  0.7816164E-02  0.1186339E+00
        -11   -1    0    0    0    0  0.00000000000E+00  0.00000000000E+00  0.45593999997E+02  0.45594000000E+02  0.51100000000E-03 0.  1.
         11   -1    0    0    0    0 -0.00000000000E+00 -0.00000000000E+00 -0.45593999997E+02  0.45594000000E+02  0.51100000000E-03 0. -1.
    9900012    2    1    2    0    0 -0.42798517580E+00  0.34343551571E+00  0.10450739379E+01  0.90007619214E+02  0.89999878988E+02 0.  0.
         12    1    1    2    0    0  0.42798517580E+00 -0.34343551571E+00 -0.10450739379E+01  0.11803807860E+01  0.00000000000E+00 0. -1.
         11    1    3    3    0    0  0.23924053719E+02 -0.12347742446E+02 -0.15836457963E+02  0.31234924219E+02  0.51100000000E-03 0. -1.
        -11    1    3    3    0    0  0.13645090242E+02  0.12168974086E+02  0.60580292259E+01  0.19260636967E+02  0.51100000000E-03 0.  1.
        -12    1    3    3    0    0 -0.37997129137E+02  0.52220387551E+00  0.10823502675E+02  0.39512058029E+02  0.00000000000E+00 0.  1.
</event>
<event>
 7    1  0.4358868E-015  0.9000788E+02  0.7816164E-02  0.1186339E+00
        -11   -1    0    0    0    0  0.00000000000E+00  0.00000000000E+00  0.45593999997E+02  0.45594000000E+02  0.51100000000E-03 0.  1.
         11   -1    0    0    0    0 -0.00000000000E+00 -0.00000000000E+00 -0.45593999997E+02  0.45594000000E+02  0.51100000000E-03 0. -1.
    9900012    2    1    2    0    0  0.70239734617E-01 -0.10663042292E+01  0.50075126442E+00  0.90007877058E+02  0.90000140235E+02 0.  0.
         12    1    1    2    0    0 -0.70239734617E-01  0.10663042292E+01 -0.50075126442E+00  0.11801229420E+01  0.00000000000E+00 0. -1.
         11    1    3    3    0    0 -0.82523966986E+01  0.70183945824E+00  0.23236819277E+01  0.86019839489E+01  0.51100000000E-03 0. -1.
        -11    1    3    3    0    0 -0.12049964586E+02 -0.31383711040E+02  0.20229093929E+02  0.39234617452E+02  0.51100000000E-03 0.  1.
         12    1    3    3    0    0  0.20372601019E+02  0.29615567353E+02 -0.22052024592E+02  0.42171275657E+02  0.00000000000E+00 0. -1.
</event>
<event>
 7    1  0.4358868E-015  0.9000762E+02  0.7816164E-02  0.1186339E+00
        -11   -1    0    0    0    0  0.00000000000E+00  0.00000000000E+00  0.45593999997E+02  0.45594000000E+02  0.51100000000E-03 0.  1.
         11   -1    0    0    0    0 -0.00000000000E+00 -0.00000000000E+00 -0.45593999997E+02  0.45594000000E+02  0.51100000000E-03 0. -1.
    9900012    2    1    2    0    0 -0.58680710265E-01  0.69955771423E+00 -0.94892911316E+00  0.90007622568E+02  0.89999882385E+02 0.  0.
         12    1    1    2    0    0  0.58680710265E-01 -0.69955771423E+00  0.94892911316E+00  0.11803774325E+01  0.00000000000E+00 0. -1.
         11    1    3    3    0    0  0.43191160871E+01 -0.18310411909E+02 -0.33459345978E+02  0.38385593412E+02  0.51100000000E-03 0. -1.
        -11    1    3    3    0    0  0.75615894662E+01 -0.64059059601E+01  0.19146406539E+01  0.10093518491E+02  0.51100000000E-03 0.  1.
        -12    1    3    3    0    0 -0.11939386264E+02  0.25415875584E+02  0.30595776211E+02  0.41528510664E+02  0.00000000000E+00 0.  1.
</event>
<event>
 7    1  0.4358868E-015  0.9000797E+02  0.7816164E-02  0.1186339E+00
        -11   -1    0    0    0    0  0.00000000000E+00  0.00000000000E+00  0.45593999997E+02  0.45594000000E+02  0.51100000000E-03 0. -1.
         11   -1    0    0    0    0 -0.00000000000E+00 -0.00000000000E+00 -0.45593999997E+02  0.45594000000E+02  0.51100000000E-03 0.  1.
    9900012    2    1    2    0    0  0.13115313866E+00 -0.10707875343E+01 -0.47820924598E+00  0.90007969843E+02  0.90000234244E+02 0.  0.
         12    1    1    2    0    0 -0.13115313866E+00  0.10707875343E+01  0.47820924598E+00  0.11800301574E+01  0.00000000000E+00 0. -1.
         11    1    3    3    0    0  0.97402252900E+00  0.91080908964E+01 -0.35551302668E+00  0.91669203901E+01  0.51100000000E-03 0. -1.
        -11    1    3    3    0    0  0.36473853053E+02  0.53877664538E+01 -0.11874197843E+02  0.38734565424E+02  0.51100000000E-03 0.  1.
         12    1    3    3    0    0 -0.37316722443E+02 -0.15566644885E+02  0.11751501623E+02  0.42106484029E+02  0.00000000000E+00 0. -1.
</event>
<event>
 7    1  0.4358868E-015  0.9000745E+02  0.7816164E-02  0.1186340E+00
        -11   -1    0    0    0    0  0.00000000000E+00  0.00000000000E+00  0.45593999997E+02  0.45594000000E+02  0.51100000000E-03 0. -1.
         11   -1    0    0    0    0 -0.00000000000E+00 -0.00000000000E+00 -0.45593999997E+02  0.45594000000E+02  0.51100000000E-03 0.  1.
    9900012    2    1    2    0    0  0.77373077738E+00 -0.89048522968E+00  0.45496730781E-01  0.90007452156E+02  0.89999709724E+02 0.  0.
         12    1    1    2    0    0 -0.77373077738E+00  0.89048522968E+00 -0.45496730781E-01  0.11805478443E+01  0.00000000000E+00 0. -1.
         11    1    3    3    0    0 -0.31079161685E+01  0.78924126783E+01 -0.35269309439E+01  0.91863247787E+01  0.51100000000E-03 0. -1.
        -11    1    3    3    0    0  0.13527905548E+02  0.28230486127E+02 -0.18793298497E+02  0.36512362895E+02  0.51100000000E-03 0.  1.
         12    1    3    3    0    0 -0.96462586026E+01 -0.37013384035E+02  0.22365726172E+02  0.44308764482E+02  0.00000000000E+00 0. -1.
</event>
<event>
 7    1  0.4358868E-015  0.9000773E+02  0.7816164E-02  0.1186339E+00
        -11   -1    0    0    0    0  0.00000000000E+00  0.00000000000E+00  0.45593999997E+02  0.45594000000E+02  0.51100000000E-03 0. -1.
         11   -1    0    0    0    0 -0.00000000000E+00 -0.00000000000E+00 -0.45593999997E+02  0.45594000000E+02  0.51100000000E-03 0.  1.
    9900012    2    1    2    0    0  0.10886199482E+00  0.11383317984E+01 -0.29220769019E+00  0.90007730729E+02  0.89999991975E+02 0.  0.
         12    1    1    2    0    0 -0.10886199482E+00 -0.11383317984E+01  0.29220769019E+00  0.11802692707E+01  0.00000000000E+00 0. -1.
         11    1    3    3    0    0 -0.30647373155E+02  0.61710554485E+01 -0.20850601323E+02  0.37577799064E+02  0.51100000000E-03 0. -1.
        -11    1    3    3    0    0  0.29443035959E+01 -0.25653049265E+00 -0.10240282978E+02  0.10658242224E+02  0.51100000000E-03 0.  1.
        -12    1    3    3    0    0  0.27811931554E+02 -0.47761931575E+01  0.30798676612E+02  0.41771689442E+02  0.00000000000E+00 0.  1.
</event>
<event>
 7    1  0.4358868E-015  0.9000771E+02  0.7816164E-02  0.1186339E+00
        -11   -1    0    0    0    0  0.00000000000E+00  0.00000000000E+00  0.45593999997E+02  0.45594000000E+02  0.51100000000E-03 0.  1.
         11   -1    0    0    0    0 -0.00000000000E+00 -0.00000000000E+00 -0.45593999997E+02  0.45594000000E+02  0.51100000000E-03 0. -1.
    9900012    2    1    2    0    0  0.82409710591E+00  0.84491667532E+00  0.86397860561E-02  0.90007705599E+02  0.89999966512E+02 0.  0.
         12    1    1    2    0    0 -0.82409710591E+00 -0.84491667532E+00 -0.86397860562E-02  0.11802944015E+01  0.00000000000E+00 0. -1.
         11    1    3    3    0    0 -0.21943712799E+02 -0.27317162933E+02  0.14314558322E+02  0.37850502009E+02  0.51100000000E-03 0. -1.
        -11    1    3    3    0    0 -0.63139374272E+01  0.13658863113E+02  0.29927525062E+01  0.15342324309E+02  0.51100000000E-03 0.  1.
        -12    1    3    3    0    0  0.29081747332E+02  0.14503216496E+02 -0.17298671042E+02  0.36814879281E+02  0.00000000000E+00 0.  1.
</event>
<event>
 7    1  0.4358868E-015  0.9000769E+02  0.7816164E-02  0.1186339E+00
        -11   -1    0    0    0    0  0.00000000000E+00  0.00000000000E+00  0.45593999997E+02  0.45594000000E+02  0.51100000000E-03 0.  1.
         11   -1    0    0    0    0 -0.00000000000E+00 -0.00000000000E+00 -0.45593999997E+02  0.45594000000E+02  0.51100000000E-03 0. -1.
    9900012    2    1    2    0    0 -0.54277889747E-01  0.40663110218E+00  0.11067218014E+01  0.90007691528E+02  0.89999952257E+02 0.  0.
         12    1    1    2    0    0  0.54277889747E-01 -0.40663110218E+00 -0.11067218014E+01  0.11803084716E+01  0.00000000000E+00 0. -1.
         11    1    3    3    0    0  0.37087104533E+01  0.80867295629E+01  0.25193073597E+01  0.92464392111E+01  0.51100000000E-03 0. -1.
        -11    1    3    3    0    0 -0.17166178095E+02  0.22055389071E+02  0.25986986251E+02  0.38163350378E+02  0.51100000000E-03 0.  1.
         12    1    3    3    0    0  0.13403189752E+02 -0.29735487531E+02 -0.27399571809E+02  0.42597901939E+02  0.00000000000E+00 0. -1.
</event>
<event>
 7    1  0.4358868E-015  0.9000774E+02  0.7816164E-02  0.1186339E+00
        -11   -1    0    0    0    0  0.00000000000E+00  0.00000000000E+00  0.45593999997E+02  0.45594000000E+02  0.51100000000E-03 0. -1.
         11   -1    0    0    0    0 -0.00000000000E+00 -0.00000000000E+00 -0.45593999997E+02  0.45594000000E+02  0.51100000000E-03 0.  1.
    9900012    2    1    2    0    0  0.15937666322E+00  0.44645309556E+00 -0.10808723384E+01  0.90007743122E+02  0.90000004531E+02 0.  0.
         12    1    1    2    0    0 -0.15937666322E+00 -0.44645309556E+00  0.10808723384E+01  0.11802568785E+01  0.00000000000E+00 0. -1.
         11    1    3    3    0    0  0.34312070452E+01 -0.95583786273E+01 -0.20317400952E+01  0.10356821513E+02  0.51100000000E-03 0. -1.
        -11    1    3    3    0    0 -0.31805842898E+02  0.16105428988E+01 -0.24756960682E+02  0.40337483726E+02  0.51100000000E-03 0.  1.
         12    1    3    3    0    0  0.28534012516E+02  0.83942888240E+01  0.25707828439E+02  0.39313437883E+02  0.00000000000E+00 0. -1.
</event>
<event>
 7    1  0.4358868E-015  0.9000772E+02  0.7816164E-02  0.1186339E+00
        -11   -1    0    0    0    0  0.00000000000E+00  0.00000000000E+00  0.45593999997E+02  0.45594000000E+02  0.51100000000E-03 0. -1.
         11   -1    0    0    0    0 -0.00000000000E+00 -0.00000000000E+00 -0.45593999997E+02  0.45594000000E+02  0.51100000000E-03 0.  1.
    9900012    2    1    2    0    0 -0.30154780126E+00 -0.71828982034E+00 -0.88667848831E+00  0.90007716100E+02  0.89999977153E+02 0.  0.
         12    1    1    2    0    0  0.30154780126E+00  0.71828982034E+00  0.88667848831E+00  0.11802838998E+01  0.00000000000E+00 0. -1.
         11    1    3    3    0    0  0.20597436793E+02 -0.33585553473E+02  0.15467188251E+02  0.42325851642E+02  0.51100000000E-03 0. -1.
        -11    1    3    3    0    0 -0.15637432583E+01  0.44452565781E+00 -0.90960713575E+01  0.92402061903E+01  0.51100000000E-03 0.  1.
        -12    1    3    3    0    0 -0.19335241336E+02  0.32422737995E+02 -0.72577953819E+01  0.38441658268E+02  0.00000000000E+00 0.  1.
</event>
<event>
 7    1  0.4358868E-015  0.9000840E+02  0.7816164E-02  0.1186338E+00
        -11   -1    0    0    0    0  0.00000000000E+00  0.00000000000E+00  0.45593999997E+02  0.45594000000E+02  0.51100000000E-03 0. -1.
         11   -1    0    0    0    0 -0.00000000000E+00 -0.00000000000E+00 -0.45593999997E+02  0.45594000000E+02  0.51100000000E-03 0.  1.
    9900012    2    1    2    0    0 -0.44909645911E+00  0.19282613879E+00 -0.10735890363E+01  0.90008397114E+02  0.90000667154E+02 0.  0.
         12    1    1    2    0    0  0.44909645911E+00 -0.19282613879E+00  0.10735890363E+01  0.11796028858E+01  0.00000000000E+00 0. -1.
         11    1    3    3    0    0 -0.67172274957E+01  0.37441591755E+00  0.59654635705E+01  0.89915565048E+01  0.51100000000E-03 0. -1.
        -11    1    3    3    0    0  0.11368359911E+02  0.36226520371E+02 -0.18866580778E+02  0.42397502942E+02  0.51100000000E-03 0.  1.
         12    1    3    3    0    0 -0.51002288749E+01 -0.36408110149E+02  0.11827528171E+02  0.38619337667E+02  0.00000000000E+00 0. -1.
</event>
<event>
 7    1  0.4358868E-015  0.9000770E+02  0.7816164E-02  0.1186339E+00
        -11   -1    0    0    0    0  0.00000000000E+00  0.00000000000E+00  0.45593999997E+02  0.45594000000E+02  0.51100000000E-03 0. -1.
         11   -1    0    0    0    0 -0.00000000000E+00 -0.00000000000E+00 -0.45593999997E+02  0.45594000000E+02  0.51100000000E-03 0.  1.
    9900012    2    1    2    0    0 -0.34440762632E-01 -0.15694711190E+00 -0.11693083198E+01  0.90007703212E+02  0.89999964094E+02 0.  0.
         12    1    1    2    0    0  0.34440762632E-01  0.15694711190E+00  0.11693083198E+01  0.11802967884E+01  0.00000000000E+00 0. -1.
         11    1    3    3    0    0 -0.21512447218E+01 -0.45660342410E+01 -0.83524460138E+01  0.97590920283E+01  0.51100000000E-03 0. -1.
        -11    1    3    3    0    0 -0.29490550898E+02  0.41163458230E+01 -0.22161540777E+02  0.37118334891E+02  0.51100000000E-03 0.  1.
         12    1    3    3    0    0  0.31607354857E+02  0.29274130607E+00  0.29344678471E+02  0.43130276293E+02  0.00000000000E+00 0. -1.
</event>
<event>
 7    1  0.4358868E-015  0.9000751E+02  0.7816164E-02  0.1186340E+00
        -11   -1    0    0    0    0  0.00000000000E+00  0.00000000000E+00  0.45593999997E+02  0.45594000000E+02  0.51100000000E-03 0. -1.
         11   -1    0    0    0    0 -0.00000000000E+00 -0.00000000000E+00 -0.45593999997E+02  0.45594000000E+02  0.51100000000E-03 0.  1.
    9900012    2    1    2    0    0 -0.50908411560E-01 -0.94352482337E+00 -0.70762473024E+00  0.90007507087E+02  0.89999765380E+02 0.  0.
         12    1    1    2    0    0  0.50908411560E-01  0.94352482337E+00  0.70762473024E+00  0.11804929129E+01  0.00000000000E+00 0. -1.
         11    1    3    3    0    0 -0.34467901967E+02 -0.25838776768E+01 -0.32142915315E+01  0.34713748864E+02  0.51100000000E-03 0. -1.
        -11    1    3    3    0    0  0.54221584529E+01  0.18666779620E+02  0.83668338614E+01  0.21162522836E+02  0.51100000000E-03 0.  1.
        -12    1    3    3    0    0  0.28994835103E+02 -0.17026426767E+02 -0.58601670602E+01  0.34131235387E+02  0.00000000000E+00 0.  1.
</event>
<event>
 7    1  0.4358868E-015  0.9000773E+02  0.7816164E-02  0.1186339E+00
        -11   -1    0    0    0    0  0.00000000000E+00  0.00000000000E+00  0.45593999997E+02  0.45594000000E+02  0.51100000000E-03 0. -1.
         11   -1    0    0    0    0 -0.00000000000E+00 -0.00000000000E+00 -0.45593999997E+02  0.45594000000E+02  0.51100000000E-03 0.  1.
    9900012    2    1    2    0    0 -0.87829781327E+00 -0.77311752740E+00 -0.15464918114E+00  0.90007731332E+02  0.89999992585E+02 0.  0.
         12    1    1    2    0    0  0.87829781327E+00  0.77311752740E+00  0.15464918114E+00  0.11802686682E+01  0.00000000000E+00 0. -1.
         11    1    3    3    0    0  0.80600450789E+01  0.23117060645E+01 -0.19372957014E+01  0.86058948691E+01  0.51100000000E-03 0. -1.
        -11    1    3    3    0    0 -0.36484629772E+02  0.19052531378E+02 -0.12899828650E+02  0.43133893181E+02  0.51100000000E-03 0.  1.
         12    1    3    3    0    0  0.27546286880E+02 -0.22137354969E+02  0.14682475170E+02  0.38267943282E+02  0.00000000000E+00 0. -1.
</event>
<event>
 7    1  0.4358868E-015  0.9000769E+02  0.7816164E-02  0.1186339E+00
        -11   -1    0    0    0    0  0.00000000000E+00  0.00000000000E+00  0.45593999997E+02  0.45594000000E+02  0.51100000000E-03 0. -1.
         11   -1    0    0    0    0 -0.00000000000E+00 -0.00000000000E+00 -0.45593999997E+02  0.45594000000E+02  0.51100000000E-03 0.  1.
    9900012    2    1    2    0    0 -0.96759658020E+00 -0.25018901547E+00  0.62791999972E+00  0.90007694441E+02  0.89999955208E+02 0.  0.
         12    1    1    2    0    0  0.96759658020E+00  0.25018901547E+00 -0.62791999972E+00  0.11803055585E+01  0.00000000000E+00 0. -1.
         11    1    3    3    0    0 -0.10044669383E+02  0.97914894118E+01  0.86700218896E+00  0.14054193003E+02  0.51100000000E-03 0. -1.
        -11    1    3    3    0    0  0.27693542973E+02  0.22941697347E+02  0.87839162391E+01  0.37019062445E+02  0.51100000000E-03 0.  1.
         12    1    3    3    0    0 -0.18616470171E+02 -0.32983375774E+02 -0.90229984283E+01  0.38934438993E+02  0.00000000000E+00 0. -1.
</event>
<event>
 7    1  0.4358868E-015  0.9000767E+02  0.7816164E-02  0.1186339E+00
        -11   -1    0    0    0    0  0.00000000000E+00  0.00000000000E+00  0.45593999997E+02  0.45594000000E+02  0.51100000000E-03 0. -1.
         11   -1    0    0    0    0 -0.00000000000E+00 -0.00000000000E+00 -0.45593999997E+02  0.45594000000E+02  0.51100000000E-03 0.  1.
    9900012    2    1    2    0    0 -0.57588906186E+00  0.21662550883E+00 -0.10072780128E+01  0.90007667921E+02  0.89999928337E+02 0.  0.
         12    1    1    2    0    0  0.57588906186E+00 -0.21662550883E+00  0.10072780128E+01  0.11803320794E+01  0.00000000000E+00 0. -1.
         11    1    3    3    0    0  0.96159312432E+01  0.37886619462E+01  0.39383592966E+01  0.11060324011E+02  0.51100000000E-03 0. -1.
        -11    1    3    3    0    0  0.29827289691E+01 -0.84219195725E+01 -0.40105328205E+02  0.41088474686E+02  0.51100000000E-03 0.  1.
         12    1    3    3    0    0 -0.13174549274E+02  0.48498831351E+01  0.35159690895E+02  0.37858869223E+02  0.00000000000E+00 0. -1.
</event>
<event>
 7    1  0.4358868E-015  0.9000776E+02  0.7816164E-02  0.1186339E+00
        -11   -1    0    0    0    0  0.00000000000E+00  0.00000000000E+00  0.45593999997E+02  0.45594000000E+02  0.51100000000E-03 0.  1.
         11   -1    0    0    0    0 -0.00000000000E+00 -0.00000000000E+00 -0.45593999997E+02  0.45594000000E+02  0.51100000000E-03 0. -1.
    9900012    2    1    2    0    0  0.29687030787E+00  0.65464465336E+00  0.93610044653E+00  0.90007756107E+02  0.90000017687E+02 0.  0.
         12    1    1    2    0    0 -0.29687030787E+00 -0.65464465336E+00 -0.93610044653E+00  0.11802438934E+01  0.00000000000E+00 0. -1.
         11    1    3    3    0    0 -0.12934238786E+02 -0.91909481512E+00 -0.32146677231E+02  0.34663354216E+02  0.51100000000E-03 0. -1.
        -11    1    3    3    0    0  0.23162348202E+01  0.53694768980E+01 -0.95362659837E+01  0.11186446937E+02  0.51100000000E-03 0.  1.
        -12    1    3    3    0    0  0.10914874274E+02 -0.37957374295E+01  0.42619043661E+02  0.44157954953E+02  0.00000000000E+00 0.  1.
</event>
<event>
 7    1  0.4358868E-015  0.9000774E+02  0.7816164E-02  0.1186339E+00
        -11   -1    0    0    0    0  0.00000000000E+00  0.00000000000E+00  0.45593999997E+02  0.45594000000E+02  0.51100000000E-03 0. -1.
         11   -1    0    0    0    0 -0.00000000000E+00 -0.00000000000E+00 -0.45593999997E+02  0.45594000000E+02  0.51100000000E-03 0.  1.
    9900012    2    1    2    0    0  0.14397344966E-01 -0.11649042519E+01 -0.18920132279E+00  0.90007743104E+02  0.90000004513E+02 0.  0.
         12    1    1    2    0    0 -0.14397344966E-01  0.11649042519E+01  0.18920132279E+00  0.11802568959E+01  0.00000000000E+00 0. -1.
         11    1    3    3    0    0  0.95972398718E+01 -0.13928595633E+02 -0.12264826286E+01  0.16959276204E+02  0.51100000000E-03 0. -1.
        -11    1    3    3    0    0 -0.29570453664E+02  0.40338771414E+00 -0.24456350049E+02  0.38375610869E+02  0.51100000000E-03 0.  1.
         12    1    3    3    0    0  0.19987611137E+02  0.12360303667E+02  0.25493631355E+02  0.34672856032E+02  0.00000000000E+00 0. -1.
</event>
<event>
 7    1  0.4358868E-015  0.9000801E+02  0.7816164E-02  0.1186339E+00
        -11   -1    0    0    0    0  0.00000000000E+00  0.00000000000E+00  0.45593999997E+02  0.45594000000E+02  0.51100000000E-03 0.  1.
         11   -1    0    0    0    0 -0.00000000000E+00 -0.00000000000E+00 -0.45593999997E+02  0.45594000000E+02  0.51100000000E-03 0. -1.
    9900012    2    1    2    0    0  0.58995229648E+00  0.30886871580E+00 -0.97413390864E+00  0.90008008276E+02  0.90000273185E+02 0.  0.
         12    1    1    2    0    0 -0.58995229648E+00 -0.30886871580E+00  0.97413390864E+00  0.11799917236E+01  0.00000000000E+00 0. -1.
         11    1    3    3    0    0  0.17468128666E+01  0.89336940850E-01  0.76985539199E+01  0.78947494576E+01  0.51100000000E-03 0. -1.
        -11    1    3    3    0    0 -0.23076554197E+02  0.19571794872E+02  0.23740364821E+02  0.38460205801E+02  0.51100000000E-03 0.  1.
         12    1    3    3    0    0  0.21919693627E+02 -0.19352263097E+02 -0.32413052650E+02  0.43653053018E+02  0.00000000000E+00 0. -1.
</event>
<event>
 7    1  0.4358868E-015  0.9000774E+02  0.7816164E-02  0.1186339E+00
        -11   -1    0    0    0    0  0.00000000000E+00  0.00000000000E+00  0.45593999997E+02  0.45594000000E+02  0.51100000000E-03 0.  1.
         11   -1    0    0    0    0 -0.00000000000E+00 -0.00000000000E+00 -0.45593999997E+02  0.45594000000E+02  0.51100000000E-03 0. -1.
    9900012    2    1    2    0    0  0.87749304157E+00  0.40826719202E+00 -0.67553413037E+00  0.90007736259E+02  0.89999997577E+02 0.  0.
         12    1    1    2    0    0 -0.87749304157E+00 -0.40826719202E+00  0.67553413037E+00  0.11802637415E+01  0.00000000000E+00 0. -1.
         11    1    3    3    0    0 -0.27208474394E+01 -0.28887184100E+02  0.23426817038E+02  0.37291931738E+02  0.51100000000E-03 0. -1.
        -11    1    3    3    0    0 -0.47875388922E+01  0.10409919233E+01  0.78455273763E+01  0.92496752864E+01  0.51100000000E-03 0.  1.
        -12    1    3    3    0    0  0.83858793732E+01  0.28254459368E+02 -0.31947878545E+02  0.43466129234E+02  0.00000000000E+00 0.  1.
</event>
<event>
 7    1  0.4358868E-015  0.9000774E+02  0.7816164E-02  0.1186339E+00
        -11   -1    0    0    0    0  0.00000000000E+00  0.00000000000E+00  0.45593999997E+02  0.45594000000E+02  0.51100000000E-03 0. -1.
         11   -1    0    0    0    0 -0.00000000000E+00 -0.00000000000E+00 -0.45593999997E+02  0.45594000000E+02  0.51100000000E-03 0.  1.
    9900012    2    1    2    0    0 -0.43475304850E+00  0.35774302449E+00 -0.10373209604E+01  0.90007735174E+02  0.89999996478E+02 0.  0.
         12    1    1    2    0    0  0.43475304850E+00 -0.35774302449E+00  0.10373209604E+01  0.11802648261E+01  0.00000000000E+00 0. -1.
         11    1    3    3    0    0 -0.15712763557E+02  0.18848842942E+02  0.37324310937E+02  0.44668490080E+02  0.51100000000E-03 0.  1.
        -11    1    3    3    0    0  0.74107579528E+01 -0.92117620490E+01 -0.21661118388E+02  0.24677518991E+02  0.51100000000E-03 0. -1.
        -12    1    3    3    0    0  0.78672525560E+01 -0.92793378688E+01 -0.16700513509E+02  0.20661726103E+02  0.00000000000E+00 0.  1.
</event>
<event>
 7    1  0.4358868E-015  0.9000777E+02  0.7816164E-02  0.1186339E+00
        -11   -1    0    0    0    0  0.00000000000E+00  0.00000000000E+00  0.45593999997E+02  0.45594000000E+02  0.51100000000E-03 0.  1.
         11   -1    0    0    0    0 -0.00000000000E+00 -0.00000000000E+00 -0.45593999997E+02  0.45594000000E+02  0.51100000000E-03 0. -1.
    9900012    2    1    2    0    0 -0.11040536949E+01  0.31627513632E+00 -0.27199267994E+00  0.90007769285E+02  0.90000031039E+02 0.  0.
         12    1    1    2    0    0  0.11040536949E+01 -0.31627513632E+00  0.27199267994E+00  0.11802307152E+01  0.00000000000E+00 0. -1.
         11    1    3    3    0    0  0.76220083391E+01 -0.38927810321E+01 -0.12731642509E+01  0.86527280529E+01  0.51100000000E-03 0. -1.
        -11    1    3    3    0    0  0.60084577326E+01 -0.34146770879E+02  0.15234824996E+02  0.37870878240E+02  0.51100000000E-03 0.  1.
         12    1    3    3    0    0 -0.14734519767E+02  0.38355827048E+02 -0.14233653425E+02  0.43484162992E+02  0.00000000000E+00 0. -1.
</event>
<event>
 7    1  0.4358868E-015  0.9000778E+02  0.7816164E-02  0.1186339E+00
        -11   -1    0    0    0    0  0.00000000000E+00  0.00000000000E+00  0.45593999997E+02  0.45594000000E+02  0.51100000000E-03 0. -1.
         11   -1    0    0    0    0 -0.00000000000E+00 -0.00000000000E+00 -0.45593999997E+02  0.45594000000E+02  0.51100000000E-03 0.  1.
    9900012    2    1    2    0    0 -0.17492226864E+00 -0.11527469880E+01 -0.18304126954E+00  0.90007776494E+02  0.90000038343E+02 0.  0.
         12    1    1    2    0    0  0.17492226864E+00  0.11527469880E+01  0.18304126954E+00  0.11802235062E+01  0.00000000000E+00 0. -1.
         11    1    3    3    0    0 -0.10750128721E+02  0.35150103004E+02  0.10079189561E+02  0.38114105934E+02  0.51100000000E-03 0. -1.
        -11    1    3    3    0    0  0.46527118031E+00  0.19587511481E+01  0.80424894966E+01  0.82906465909E+01  0.51100000000E-03 0.  1.
        -12    1    3    3    0    0  0.10109935272E+02 -0.38261601140E+02 -0.18304720327E+02  0.43603023969E+02  0.00000000000E+00 0.  1.
</event>
<event>
 7    1  0.4358868E-015  0.9000780E+02  0.7816164E-02  0.1186339E+00
        -11   -1    0    0    0    0  0.00000000000E+00  0.00000000000E+00  0.45593999997E+02  0.45594000000E+02  0.51100000000E-03 0.  1.
         11   -1    0    0    0    0 -0.00000000000E+00 -0.00000000000E+00 -0.45593999997E+02  0.45594000000E+02  0.51100000000E-03 0. -1.
    9900012    2    1    2    0    0  0.98303408590E-01  0.27632224556E+00  0.11431784572E+01  0.90007798946E+02  0.90000061092E+02 0.  0.
         12    1    1    2    0    0 -0.98303408590E-01 -0.27632224556E+00 -0.11431784572E+01  0.11802010543E+01  0.00000000000E+00 0. -1.
         11    1    3    3    0    0 -0.12940272543E+02 -0.25181455118E+02 -0.30634747007E+02  0.41713835352E+02  0.51100000000E-03 0. -1.
        -11    1    3    3    0    0  0.64140757017E+01  0.55896449900E+01 -0.18224264891E+01  0.87009043663E+01  0.51100000000E-03 0.  1.
        -12    1    3    3    0    0  0.66245002496E+01  0.19868132374E+02  0.33600351953E+02  0.39593059227E+02  0.00000000000E+00 0.  1.
</event>
<event>
 7    1  0.4358868E-015  0.9000760E+02  0.7816164E-02  0.1186339E+00
        -11   -1    0    0    0    0  0.00000000000E+00  0.00000000000E+00  0.45593999997E+02  0.45594000000E+02  0.51100000000E-03 0.  1.
         11   -1    0    0    0    0 -0.00000000000E+00 -0.00000000000E+00 -0.45593999997E+02  0.45594000000E+02  0.51100000000E-03 0. -1.
    9900012    2    1    2    0    0 -0.54241892300E+00 -0.51144339420E+00 -0.91517400315E+00  0.90007603419E+02  0.89999862984E+02 0.  0.
         12    1    1    2    0    0  0.54241892300E+00  0.51144339420E+00  0.91517400315E+00  0.11803965815E+01  0.00000000000E+00 0. -1.
         11    1    3    3    0    0  0.30891510998E+02 -0.13340757535E+02 -0.10164654225E+02  0.35150838669E+02  0.51100000000E-03 0. -1.
        -11    1    3    3    0    0  0.50140541385E+01 -0.79348216908E+01 -0.48983273604E+01  0.10587527821E+02  0.51100000000E-03 0.  1.
        -12    1    3    3    0    0 -0.36447984060E+02  0.20764135832E+02  0.14147807582E+02  0.44269236929E+02  0.00000000000E+00 0.  1.
</event>
<event>
 7    1  0.4358868E-015  0.9000776E+02  0.7816164E-02  0.1186339E+00
        -11   -1    0    0    0    0  0.00000000000E+00  0.00000000000E+00  0.45593999997E+02  0.45594000000E+02  0.51100000000E-03 0. -1.
         11   -1    0    0    0    0 -0.00000000000E+00 -0.00000000000E+00 -0.45593999997E+02  0.45594000000E+02  0.51100000000E-03 0.  1.
    9900012    2    1    2    0    0 -0.29220558028E-01  0.11017914235E+01  0.42211092891E+00  0.90007756034E+02  0.90000017614E+02 0.  0.
         12    1    1    2    0    0  0.29220558028E-01 -0.11017914235E+01 -0.42211092891E+00  0.11802439656E+01  0.00000000000E+00 0. -1.
         11    1    3    3    0    0 -0.54825033257E+01 -0.62193182688E+01 -0.17844608022E+01  0.84806876526E+01  0.51100000000E-03 0. -1.
        -11    1    3    3    0    0  0.42965917651E+01  0.23054928934E+01 -0.39350996157E+02  0.39651946952E+02  0.51100000000E-03 0.  1.
         12    1    3    3    0    0  0.11566910025E+01  0.50156167990E+01  0.41557567888E+02  0.41875121430E+02  0.00000000000E+00 0. -1.
</event>
<event>
 7    1  0.4358868E-015  0.9000783E+02  0.7816164E-02  0.1186339E+00
        -11   -1    0    0    0    0  0.00000000000E+00  0.00000000000E+00  0.45593999997E+02  0.45594000000E+02  0.51100000000E-03 0.  1.
         11   -1    0    0    0    0 -0.00000000000E+00 -0.00000000000E+00 -0.45593999997E+02  0.45594000000E+02  0.51100000000E-03 0. -1.
    9900012    2    1    2    0    0 -0.97073245380E+00  0.54940156256E+00 -0.38553934455E+00  0.90007828758E+02  0.90000091298E+02 0.  0.
         12    1    1    2    0    0  0.97073245380E+00 -0.54940156256E+00  0.38553934455E+00  0.11801712418E+01  0.00000000000E+00 0. -1.
         11    1    3    3    0    0 -0.29011066493E+01 -0.24464063808E+02  0.33419567057E+02  0.41518361003E+02  0.51100000000E-03 0. -1.
        -11    1    3    3    0    0 -0.31415199943E+01 -0.37085424678E+01 -0.88823253617E+01  0.10125124157E+02  0.51100000000E-03 0.  1.
        -12    1    3    3    0    0  0.50718941898E+01  0.28722007838E+02 -0.24922781040E+02  0.38364343598E+02  0.00000000000E+00 0.  1.
</event>
<event>
 7    1  0.4358868E-015  0.9000777E+02  0.7816164E-02  0.1186339E+00
        -11   -1    0    0    0    0  0.00000000000E+00  0.00000000000E+00  0.45593999997E+02  0.45594000000E+02  0.51100000000E-03 0.  1.
         11   -1    0    0    0    0 -0.00000000000E+00 -0.00000000000E+00 -0.45593999997E+02  0.45594000000E+02  0.51100000000E-03 0. -1.
    9900012    2    1    2    0    0 -0.24773348187E+00  0.95104080358E+00 -0.65352708290E+00  0.90007767762E+02  0.90000029496E+02 0.  0.
         12    1    1    2    0    0  0.24773348187E+00 -0.95104080358E+00  0.65352708290E+00  0.11802322383E+01  0.00000000000E+00 0. -1.
         11    1    3    3    0    0  0.38984430100E+01  0.16740358300E+02  0.13198300082E+02  0.21671007804E+02  0.51100000000E-03 0. -1.
        -11    1    3    3    0    0 -0.50632100788E+01  0.22419809376E+01  0.24940996795E+02  0.25548305153E+02  0.51100000000E-03 0.  1.
         12    1    3    3    0    0  0.91703358696E+00 -0.18031298434E+02 -0.38792823960E+02  0.42788454805E+02  0.00000000000E+00 0. -1.
</event>
<event>
 7    1  0.4358868E-015  0.9000777E+02  0.7816164E-02  0.1186339E+00
        -11   -1    0    0    0    0  0.00000000000E+00  0.00000000000E+00  0.45593999997E+02  0.45594000000E+02  0.51100000000E-03 0. -1.
         11   -1    0    0    0    0 -0.00000000000E+00 -0.00000000000E+00 -0.45593999997E+02  0.45594000000E+02  0.51100000000E-03 0.  1.
    9900012    2    1    2    0    0  0.80642801670E+00 -0.76860356164E+00 -0.38970683895E+00  0.90007767395E+02  0.90000029125E+02 0.  0.
         12    1    1    2    0    0 -0.80642801670E+00  0.76860356164E+00  0.38970683895E+00  0.11802326048E+01  0.00000000000E+00 0. -1.
         11    1    3    3    0    0  0.18299060172E+02 -0.34845581193E-02  0.14773229198E+02  0.23518161419E+02  0.51100000000E-03 0. -1.
        -11    1    3    3    0    0  0.19996511257E+02 -0.88738220962E+01 -0.17568621439E+02  0.28058183131E+02  0.51100000000E-03 0.  1.
         12    1    3    3    0    0 -0.37489143413E+02  0.81087030927E+01  0.24056854025E+01  0.38431422846E+02  0.00000000000E+00 0. -1.
</event>
<event>
 7    1  0.4358868E-015  0.9000779E+02  0.7816164E-02  0.1186339E+00
        -11   -1    0    0    0    0  0.00000000000E+00  0.00000000000E+00  0.45593999997E+02  0.45594000000E+02  0.51100000000E-03 0.  1.
         11   -1    0    0    0    0 -0.00000000000E+00 -0.00000000000E+00 -0.45593999997E+02  0.45594000000E+02  0.51100000000E-03 0. -1.
    9900012    2    1    2    0    0 -0.10879946433E+01 -0.14111554932E+00 -0.43503754139E+00  0.90007786628E+02  0.90000048611E+02 0.  0.
         12    1    1    2    0    0  0.10879946433E+01  0.14111554932E+00  0.43503754139E+00  0.11802133724E+01  0.00000000000E+00 0. -1.
         11    1    3    3    0    0  0.10774698860E+02 -0.33060859051E+02  0.21249439882E+02  0.40751113264E+02  0.51100000000E-03 0. -1.
        -11    1    3    3    0    0 -0.63839915571E+01  0.55741963616E+01  0.56659913690E+01  0.10194629554E+02  0.51100000000E-03 0.  1.
        -12    1    3    3    0    0 -0.54787019466E+01  0.27345547140E+02 -0.27350468793E+02  0.39062043810E+02  0.00000000000E+00 0.  1.
</event>
<event>
 7    1  0.4358868E-015  0.9000751E+02  0.7816164E-02  0.1186340E+00
        -11   -1    0    0    0    0  0.00000000000E+00  0.00000000000E+00  0.45593999997E+02  0.45594000000E+02  0.51100000000E-03 0.  1.
         11   -1    0    0    0    0 -0.00000000000E+00 -0.00000000000E+00 -0.45593999997E+02  0.45594000000E+02  0.51100000000E-03 0. -1.
    9900012    2    1    2    0    0  0.55775140683E+00  0.68967012396E+00  0.77899588725E+00  0.90007505992E+02  0.89999764270E+02 0.  0.
         12    1    1    2    0    0 -0.55775140683E+00 -0.68967012396E+00 -0.77899588725E+00  0.11804940085E+01  0.00000000000E+00 0. -1.
         11    1    3    3    0    0 -0.95142823337E+00 -0.99089126550E+01  0.10298702783E+01  0.10007617036E+02  0.51100000000E-03 0. -1.
        -11    1    3    3    0    0 -0.33023679834E+02 -0.11763314123E+02  0.12033638004E+02  0.37064098975E+02  0.51100000000E-03 0.  1.
         12    1    3    3    0    0  0.34532859474E+02  0.22361896902E+02 -0.12284512395E+02  0.42935789981E+02  0.00000000000E+00 0. -1.
</event>
<event>
 7    1  0.4358868E-015  0.9000755E+02  0.7816164E-02  0.1186339E+00
        -11   -1    0    0    0    0  0.00000000000E+00  0.00000000000E+00  0.45593999997E+02  0.45594000000E+02  0.51100000000E-03 0.  1.
         11   -1    0    0    0    0 -0.00000000000E+00 -0.00000000000E+00 -0.45593999997E+02  0.45594000000E+02  0.51100000000E-03 0. -1.
    9900012    2    1    2    0    0 -0.11094601600E+01 -0.17263608943E+00 -0.36435460943E+00  0.90007551209E+02  0.89999810085E+02 0.  0.
         12    1    1    2    0    0  0.11094601600E+01  0.17263608943E+00  0.36435460943E+00  0.11804487907E+01  0.00000000000E+00 0. -1.
         11    1    3    3    0    0  0.17178865921E+01 -0.23213263767E+02 -0.32420886141E+02  0.39911409490E+02  0.51100000000E-03 0. -1.
        -11    1    3    3    0    0  0.82543784270E+01  0.56475436028E+01 -0.20781167161E+01  0.10215090861E+02  0.51100000000E-03 0.  1.
        -12    1    3    3    0    0 -0.11081725179E+02  0.17393084075E+02  0.34134648247E+02  0.39881050858E+02  0.00000000000E+00 0.  1.
</event>
<event>
 7    1  0.4358868E-015  0.9000771E+02  0.7816164E-02  0.1186339E+00
        -11   -1    0    0    0    0  0.00000000000E+00  0.00000000000E+00  0.45593999997E+02  0.45594000000E+02  0.51100000000E-03 0.  1.
         11   -1    0    0    0    0 -0.00000000000E+00 -0.00000000000E+00 -0.45593999997E+02  0.45594000000E+02  0.51100000000E-03 0. -1.
    9900012    2    1    2    0    0 -0.11256047277E+01 -0.20300154698E+00 -0.29137538814E+00  0.90007705440E+02  0.89999966352E+02 0.  0.
         12    1    1    2    0    0  0.11256047277E+01  0.20300154698E+00  0.29137538814E+00  0.11802945598E+01  0.00000000000E+00 0. -1.
         11    1    3    3    0    0 -0.19408298637E+02  0.36038567520E+01 -0.33909796448E+02  0.39237025051E+02  0.51100000000E-03 0. -1.
        -11    1    3    3    0    0  0.52055493591E+01 -0.44122320447E+01 -0.59744316485E+01  0.90696951178E+01  0.51100000000E-03 0.  1.
        -12    1    3    3    0    0  0.13077144550E+02  0.60537374565E+00  0.39592852709E+02  0.41700985271E+02  0.00000000000E+00 0.  1.
</event>
<event>
 7    1  0.4358868E-015  0.9000744E+02  0.7816164E-02  0.1186340E+00
        -11   -1    0    0    0    0  0.00000000000E+00  0.00000000000E+00  0.45593999997E+02  0.45594000000E+02  0.51100000000E-03 0. -1.
         11   -1    0    0    0    0 -0.00000000000E+00 -0.00000000000E+00 -0.45593999997E+02  0.45594000000E+02  0.51100000000E-03 0.  1.
    9900012    2    1    2    0    0  0.53799579850E+00 -0.91697751296E+00  0.51326895069E+00  0.90007435620E+02  0.89999692970E+02 0.  0.
         12    1    1    2    0    0 -0.53799579850E+00  0.91697751296E+00 -0.51326895069E+00  0.11805643795E+01  0.00000000000E+00 0. -1.
         11    1    3    3    0    0 -0.35303033156E+01 -0.13060563787E+02  0.95865466512E+00  0.13563199732E+02  0.51100000000E-03 0. -1.
        -11    1    3    3    0    0  0.76931967400E+01  0.29883922446E+01 -0.37348759989E+02  0.38249779572E+02  0.51100000000E-03 0.  1.
         12    1    3    3    0    0 -0.36248976259E+01  0.91551940295E+01  0.36903374275E+02  0.38194456317E+02  0.00000000000E+00 0. -1.
</event>
<event>
 7    1  0.4358868E-015  0.9000771E+02  0.7816164E-02  0.1186339E+00
        -11   -1    0    0    0    0  0.00000000000E+00  0.00000000000E+00  0.45593999997E+02  0.45594000000E+02  0.51100000000E-03 0.  1.
         11   -1    0    0    0    0 -0.00000000000E+00 -0.00000000000E+00 -0.45593999997E+02  0.45594000000E+02  0.51100000000E-03 0. -1.
    9900012    2    1    2    0    0  0.90116101674E+00 -0.26269914467E+00  0.71553120036E+00  0.90007708969E+02  0.89999969928E+02 0.  0.
         12    1    1    2    0    0 -0.90116101674E+00  0.26269914467E+00 -0.71553120036E+00  0.11802910308E+01  0.00000000000E+00 0. -1.
         11    1    3    3    0    0 -0.71031914986E+00  0.14750336866E+01 -0.85199059260E+01  0.86757751769E+01  0.51100000000E-03 0. -1.
        -11    1    3    3    0    0 -0.27455465189E+02  0.25649508259E+02 -0.70036971083E+01  0.38219780430E+02  0.51100000000E-03 0.  1.
         12    1    3    3    0    0  0.29066945355E+02 -0.27387241091E+02  0.16239134235E+02  0.43112153362E+02  0.00000000000E+00 0. -1.
</event>
<event>
 7    1  0.4358868E-015  0.9000782E+02  0.7816164E-02  0.1186339E+00
        -11   -1    0    0    0    0  0.00000000000E+00  0.00000000000E+00  0.45593999997E+02  0.45594000000E+02  0.51100000000E-03 0.  1.
         11   -1    0    0    0    0 -0.00000000000E+00 -0.00000000000E+00 -0.45593999997E+02  0.45594000000E+02  0.51100000000E-03 0. -1.
    9900012    2    1    2    0    0  0.42438539411E+00 -0.89394863753E+00  0.64309493816E+00  0.90007822798E+02  0.90000085259E+02 0.  0.
         12    1    1    2    0    0 -0.42438539411E+00  0.89394863753E+00 -0.64309493816E+00  0.11801772023E+01  0.00000000000E+00 0. -1.
         11    1    3    3    0    0  0.41004712893E+01  0.10477158098E+02 -0.47551513309E+01  0.12214588452E+02  0.51100000000E-03 0. -1.
        -11    1    3    3    0    0  0.21205277013E+02  0.16916321912E+02  0.23598309334E+02  0.35954219835E+02  0.51100000000E-03 0.  1.
         12    1    3    3    0    0 -0.24881362908E+02 -0.28287428648E+02 -0.18200063065E+02  0.41839014511E+02  0.00000000000E+00 0. -1.
</event>
<event>
 7    1  0.4358868E-015  0.9000772E+02  0.7816164E-02  0.1186339E+00
        -11   -1    0    0    0    0  0.00000000000E+00  0.00000000000E+00  0.45593999997E+02  0.45594000000E+02  0.51100000000E-03 0. -1.
         11   -1    0    0    0    0 -0.00000000000E+00 -0.00000000000E+00 -0.45593999997E+02  0.45594000000E+02  0.51100000000E-03 0.  1.
    9900012    2    1    2    0    0  0.98349610350E+00  0.28471628486E+00  0.58714672509E+00  0.90007716464E+02  0.89999977521E+02 0.  0.
         12    1    1    2    0    0 -0.98349610350E+00 -0.28471628486E+00 -0.58714672509E+00  0.11802835360E+01  0.00000000000E+00 0. -1.
         11    1    3    3    0    0 -0.65047535476E+01  0.67319806041E+01 -0.31439837380E+01  0.98750197760E+01  0.51100000000E-03 0. -1.
        -11    1    3    3    0    0 -0.23086296854E+02  0.16099779533E+02  0.24076448994E+02  0.37038566385E+02  0.51100000000E-03 0.  1.
         12    1    3    3    0    0  0.30574546505E+02 -0.22547043852E+02 -0.20345318531E+02  0.43094130303E+02  0.00000000000E+00 0. -1.
</event>
<event>
 7    1  0.4358868E-015  0.9000747E+02  0.7816164E-02  0.1186340E+00
        -11   -1    0    0    0    0  0.00000000000E+00  0.00000000000E+00  0.45593999997E+02  0.45594000000E+02  0.51100000000E-03 0. -1.
         11   -1    0    0    0    0 -0.00000000000E+00 -0.00000000000E+00 -0.45593999997E+02  0.45594000000E+02  0.51100000000E-03 0.  1.
    9900012    2    1    2    0    0 -0.93736053800E+00  0.69024216701E+00 -0.19640058735E+00  0.90007469518E+02  0.89999727316E+02 0.  0.
         12    1    1    2    0    0  0.93736053800E+00 -0.69024216701E+00  0.19640058735E+00  0.11805304816E+01  0.00000000000E+00 0. -1.
         11    1    3    3    0    0 -0.16184502430E+01  0.10004623781E+02 -0.45478244324E+01  0.11108311551E+02  0.51100000000E-03 0. -1.
        -11    1    3    3    0    0  0.12691184577E+02  0.31423954343E+02 -0.76937792394E+01  0.34752342536E+02  0.51100000000E-03 0.  1.
         12    1    3    3    0    0 -0.12010094872E+02 -0.40738335957E+02  0.12045203085E+02  0.44146815431E+02  0.00000000000E+00 0. -1.
</event>
<event>
 7    1  0.4358868E-015  0.9000781E+02  0.7816164E-02  0.1186339E+00
        -11   -1    0    0    0    0  0.00000000000E+00  0.00000000000E+00  0.45593999997E+02  0.45594000000E+02  0.51100000000E-03 0.  1.
         11   -1    0    0    0    0 -0.00000000000E+00 -0.00000000000E+00 -0.45593999997E+02  0.45594000000E+02  0.51100000000E-03 0. -1.
    9900012    2    1    2    0    0 -0.61659349488E+00 -0.77564115994E+00  0.64113220800E+00  0.90007806264E+02  0.90000068506E+02 0.  0.
         12    1    1    2    0    0  0.61659349488E+00  0.77564115994E+00 -0.64113220800E+00  0.11801937362E+01  0.00000000000E+00 0. -1.
         11    1    3    3    0    0 -0.96897268532E+01 -0.10965522801E+02 -0.94224643288E+01  0.17404491693E+02  0.51100000000E-03 0. -1.
        -11    1    3    3    0    0 -0.20401366799E+02  0.22337085430E+02 -0.13333157807E+02  0.33059556109E+02  0.51100000000E-03 0.  1.
         12    1    3    3    0    0  0.29474500158E+02 -0.12147203789E+02  0.23396754344E+02  0.39543758462E+02  0.00000000000E+00 0. -1.
</event>
<event>
 7    1  0.4358868E-015  0.9000757E+02  0.7816164E-02  0.1186339E+00
        -11   -1    0    0    0    0  0.00000000000E+00  0.00000000000E+00  0.45593999997E+02  0.45594000000E+02  0.51100000000E-03 0. -1.
         11   -1    0    0    0    0 -0.00000000000E+00 -0.00000000000E+00 -0.45593999997E+02  0.45594000000E+02  0.51100000000E-03 0.  1.
    9900012    2    1    2    0    0 -0.41538938814E+00 -0.49827823041E+00 -0.98619206110E+00  0.90007574517E+02  0.89999833701E+02 0.  0.
         12    1    1    2    0    0  0.41538938814E+00  0.49827823041E+00  0.98619206110E+00  0.11804254826E+01  0.00000000000E+00 0. -1.
         11    1    3    3    0    0 -0.78185422973E+01 -0.39816864439E+01  0.84670724690E+01  0.12193225457E+02  0.51100000000E-03 0. -1.
        -11    1    3    3    0    0 -0.83269744004E+01 -0.33236069534E+01 -0.40969431416E+02  0.41938993510E+02  0.51100000000E-03 0.  1.
         12    1    3    3    0    0  0.15730127310E+02  0.68070151668E+01  0.31516166886E+02  0.35875355550E+02  0.00000000000E+00 0. -1.
</event>
<event>
 7    1  0.5744352E-015  0.9000783E+02  0.7816164E-02  0.1186339E+00
        -11   -1    0    0    0    0  0.00000000000E+00  0.00000000000E+00  0.45593999997E+02  0.45594000000E+02  0.51100000000E-03 0. -1.
         11   -1    0    0    0    0 -0.00000000000E+00 -0.00000000000E+00 -0.45593999997E+02  0.45594000000E+02  0.51100000000E-03 0.  1.
    9900012    2    1    2    0    0  0.73369164061E-01 -0.41106758719E+00 -0.11038258985E+01  0.90007834245E+02  0.90000096857E+02 0.  0.
         12    1    1    2    0    0 -0.73369164061E-01  0.41106758719E+00  0.11038258985E+01  0.11801657552E+01  0.00000000000E+00 0. -1.
         11    1    3    3    0    0  0.22095527570E+02 -0.23060010937E+02  0.26263137060E+02  0.41348867113E+02  0.51100000000E-03 0. -1.
        -11    1    3    3    0    0  0.31808308964E+01  0.86922673560E+01 -0.50568624839E+00  0.92697851012E+01  0.51100000000E-03 0.  1.
        -12    1    3    3    0    0 -0.25202989302E+02  0.13956675994E+02 -0.26861276710E+02  0.39389182031E+02  0.00000000000E+00 0.  1.
</event>
<event>
 7    1  0.4358868E-015  0.9000773E+02  0.7816164E-02  0.1186339E+00
        -11   -1    0    0    0    0  0.00000000000E+00  0.00000000000E+00  0.45593999997E+02  0.45594000000E+02  0.51100000000E-03 0. -1.
         11   -1    0    0    0    0 -0.00000000000E+00 -0.00000000000E+00 -0.45593999997E+02  0.45594000000E+02  0.51100000000E-03 0.  1.
    9900012    2    1    2    0    0  0.35213751025E+00  0.94739608729E+00 -0.60949690727E+00  0.90007726027E+02  0.89999987210E+02 0.  0.
         12    1    1    2    0    0 -0.35213751025E+00 -0.94739608729E+00  0.60949690727E+00  0.11802739734E+01  0.00000000000E+00 0. -1.
         11    1    3    3    0    0 -0.24563760670E+02  0.21530952850E+02  0.22686146367E+02  0.39769605305E+02  0.51100000000E-03 0. -1.
        -11    1    3    3    0    0 -0.49677222989E+00 -0.46007298674E+01  0.64751021666E+01  0.79586711385E+01  0.51100000000E-03 0.  1.
        -12    1    3    3    0    0  0.25412670411E+02 -0.15982826895E+02 -0.29770745440E+02  0.42279449583E+02  0.00000000000E+00 0.  1.
</event>
<event>
 7    1  0.4358868E-015  0.9000776E+02  0.7816164E-02  0.1186339E+00
        -11   -1    0    0    0    0  0.00000000000E+00  0.00000000000E+00  0.45593999997E+02  0.45594000000E+02  0.51100000000E-03 0.  1.
         11   -1    0    0    0    0 -0.00000000000E+00 -0.00000000000E+00 -0.45593999997E+02  0.45594000000E+02  0.51100000000E-03 0. -1.
    9900012    2    1    2    0    0  0.18561105890E-01  0.93762116628E+00  0.71657760241E+00  0.90007762131E+02  0.90000023792E+02 0.  0.
         12    1    1    2    0    0 -0.18561105890E-01 -0.93762116628E+00 -0.71657760241E+00  0.11802378686E+01  0.00000000000E+00 0. -1.
         11    1    3    3    0    0 -0.98279823024E+01 -0.14024301181E+01  0.78918875118E+01  0.12682189682E+02  0.51100000000E-03 0. -1.
        -11    1    3    3    0    0  0.26453041698E+02  0.16450020870E+02  0.23975738027E+02  0.39309065315E+02  0.51100000000E-03 0.  1.
         12    1    3    3    0    0 -0.16606498290E+02 -0.14109969586E+02 -0.31151047936E+02  0.38016507134E+02  0.00000000000E+00 0. -1.
</event>
<event>
 7    1  0.4358868E-015  0.9000777E+02  0.7816164E-02  0.1186339E+00
        -11   -1    0    0    0    0  0.00000000000E+00  0.00000000000E+00  0.45593999997E+02  0.45594000000E+02  0.51100000000E-03 0. -1.
         11   -1    0    0    0    0 -0.00000000000E+00 -0.00000000000E+00 -0.45593999997E+02  0.45594000000E+02  0.51100000000E-03 0.  1.
    9900012    2    1    2    0    0 -0.10751853897E+01 -0.19142561802E+00 -0.44752607018E+00  0.90007768255E+02  0.90000029995E+02 0.  0.
         12    1    1    2    0    0  0.10751853897E+01  0.19142561802E+00  0.44752607018E+00  0.11802317455E+01  0.00000000000E+00 0. -1.
         11    1    3    3    0    0 -0.70547351477E+01 -0.63042132444E+01  0.37190278586E+01  0.10165803515E+02  0.51100000000E-03 0. -1.
        -11    1    3    3    0    0 -0.33576453327E+02  0.71355562608E+01 -0.16917873453E+02  0.38268901521E+02  0.51100000000E-03 0.  1.
         12    1    3    3    0    0  0.39556003085E+02 -0.10227686344E+01  0.12751319524E+02  0.41573063218E+02  0.00000000000E+00 0. -1.
</event>
<event>
 7    1  0.4358868E-015  0.9000754E+02  0.7816164E-02  0.1186339E+00
        -11   -1    0    0    0    0  0.00000000000E+00  0.00000000000E+00  0.45593999997E+02  0.45594000000E+02  0.51100000000E-03 0. -1.
         11   -1    0    0    0    0 -0.00000000000E+00 -0.00000000000E+00 -0.45593999997E+02  0.45594000000E+02  0.51100000000E-03 0.  1.
    9900012    2    1    2    0    0 -0.10824806315E+01 -0.43772897327E+00 -0.17356731350E+00  0.90007535437E+02  0.89999794105E+02 0.  0.
         12    1    1    2    0    0  0.10824806315E+01  0.43772897327E+00  0.17356731350E+00  0.11804645628E+01  0.00000000000E+00 0. -1.
         11    1    3    3    0    0 -0.37582952093E+01 -0.30934433946E-01  0.19344996556E+02  0.19706715400E+02  0.51100000000E-03 0. -1.
        -11    1    3    3    0    0 -0.17733004285E+02 -0.20225573227E+02  0.10562629355E+02  0.28898138218E+02  0.51100000000E-03 0.  1.
         12    1    3    3    0    0  0.20408818862E+02  0.19818778688E+02 -0.30081193224E+02  0.41402681819E+02  0.00000000000E+00 0. -1.
</event>
<event>
 7    1  0.4358868E-015  0.9000790E+02  0.7816164E-02  0.1186339E+00
        -11   -1    0    0    0    0  0.00000000000E+00  0.00000000000E+00  0.45593999997E+02  0.45594000000E+02  0.51100000000E-03 0. -1.
         11   -1    0    0    0    0 -0.00000000000E+00 -0.00000000000E+00 -0.45593999997E+02  0.45594000000E+02  0.51100000000E-03 0.  1.
    9900012    2    1    2    0    0 -0.11402725756E+01 -0.75945620712E-01 -0.29436859760E+00  0.90007897396E+02  0.90000160842E+02 0.  0.
         12    1    1    2    0    0  0.11402725756E+01  0.75945620712E-01  0.29436859760E+00  0.11801026037E+01  0.00000000000E+00 0. -1.
         11    1    3    3    0    0 -0.86434353049E+01 -0.21529340815E+01  0.46536712910E+01  0.10049913222E+02  0.51100000000E-03 0. -1.
        -11    1    3    3    0    0 -0.33855990496E+02  0.10220516888E+02  0.71971573702E+01  0.36089972740E+02  0.51100000000E-03 0.  1.
         12    1    3    3    0    0  0.41359153225E+02 -0.81435284272E+01 -0.12145197259E+02  0.43868011434E+02  0.00000000000E+00 0. -1.
</event>
<event>
 7    1  0.4358869E-015  0.9000773E+02  0.7816164E-02  0.1186339E+00
        -11   -1    0    0    0    0  0.00000000000E+00  0.00000000000E+00  0.45593999997E+02  0.45594000000E+02  0.51100000000E-03 0.  1.
         11   -1    0    0    0    0 -0.00000000000E+00 -0.00000000000E+00 -0.45593999997E+02  0.45594000000E+02  0.51100000000E-03 0. -1.
    9900012    2    1    2    0    0  0.61838537747E+00 -0.47889917304E+00  0.88390377673E+00  0.90007732751E+02  0.89999994023E+02 0.  0.
         12    1    1    2    0    0 -0.61838537747E+00  0.47889917304E+00 -0.88390377673E+00  0.11802672492E+01  0.00000000000E+00 0. -1.
         11    1    3    3    0    0 -0.23273982969E+01 -0.30205575963E+01 -0.36090175026E+02  0.36291063427E+02  0.51100000000E-03 0. -1.
        -11    1    3    3    0    0 -0.36377870220E+01 -0.52786178701E+01 -0.64569053178E+01  0.90988421010E+01  0.51100000000E-03 0.  1.
        -12    1    3    3    0    0  0.65835706963E+01  0.78202762933E+01  0.43430984120E+02  0.44617827223E+02  0.00000000000E+00 0.  1.
</event>
<event>
 7    1  0.4358868E-015  0.9000776E+02  0.7816164E-02  0.1186339E+00
        -11   -1    0    0    0    0  0.00000000000E+00  0.00000000000E+00  0.45593999997E+02  0.45594000000E+02  0.51100000000E-03 0.  1.
         11   -1    0    0    0    0 -0.00000000000E+00 -0.00000000000E+00 -0.45593999997E+02  0.45594000000E+02  0.51100000000E-03 0. -1.
    9900012    2    1    2    0    0 -0.45101418859E+00 -0.32446805579E+00  0.10412865930E+01  0.90007758039E+02  0.90000019645E+02 0.  0.
         12    1    1    2    0    0  0.45101418859E+00  0.32446805579E+00 -0.10412865930E+01  0.11802419609E+01  0.00000000000E+00 0. -1.
         11    1    3    3    0    0 -0.26974659988E+02 -0.23590546971E+02  0.83505698785E+00  0.35844713812E+02  0.51100000000E-03 0. -1.
        -11    1    3    3    0    0 -0.52913687991E+01 -0.47647713596E+01  0.83630023329E+01  0.10983689642E+02  0.51100000000E-03 0.  1.
        -12    1    3    3    0    0  0.31815014599E+02  0.28030850274E+02 -0.81567727278E+01  0.43179354585E+02  0.00000000000E+00 0.  1.
</event>
<event>
 7    1  0.4358868E-015  0.9000778E+02  0.7816164E-02  0.1186339E+00
        -11   -1    0    0    0    0  0.00000000000E+00  0.00000000000E+00  0.45593999997E+02  0.45594000000E+02  0.51100000000E-03 0. -1.
         11   -1    0    0    0    0 -0.00000000000E+00 -0.00000000000E+00 -0.45593999997E+02  0.45594000000E+02  0.51100000000E-03 0.  1.
    9900012    2    1    2    0    0  0.56516774168E+00  0.10235129955E+01 -0.16104545434E+00  0.90007775841E+02  0.90000037682E+02 0.  0.
         12    1    1    2    0    0 -0.56516774168E+00 -0.10235129955E+01  0.16104545434E+00  0.11802241594E+01  0.00000000000E+00 0. -1.
         11    1    3    3    0    0  0.36249953689E+01  0.79551081682E+01  0.16773262646E+01  0.89015594730E+01  0.51100000000E-03 0. -1.
        -11    1    3    3    0    0  0.30286921239E+02  0.17951937529E+02 -0.13796621313E+02  0.37814235667E+02  0.51100000000E-03 0.  1.
         12    1    3    3    0    0 -0.33346748866E+02 -0.24883532702E+02  0.11958249594E+02  0.43291980701E+02  0.00000000000E+00 0. -1.
</event>
<event>
 7    1  0.4358868E-015  0.9000739E+02  0.7816164E-02  0.1186340E+00
        -11   -1    0    0    0    0  0.00000000000E+00  0.00000000000E+00  0.45593999997E+02  0.45594000000E+02  0.51100000000E-03 0. -1.
         11   -1    0    0    0    0 -0.00000000000E+00 -0.00000000000E+00 -0.45593999997E+02  0.45594000000E+02  0.51100000000E-03 0.  1.
    9900012    2    1    2    0    0 -0.62540319950E-01  0.11010850782E+01  0.42136853804E+00  0.90007385293E+02  0.89999641978E+02 0.  0.
         12    1    1    2    0    0  0.62540319950E-01 -0.11010850782E+01 -0.42136853804E+00  0.11806147068E+01  0.00000000000E+00 0. -1.
         11    1    3    3    0    0 -0.37352778172E+01  0.29532790214E+01  0.22902119961E+01  0.52838649300E+01  0.51100000000E-03 0. -1.
        -11    1    3    3    0    0 -0.39724067306E+02  0.21166755685E+01 -0.84036198335E+01  0.40658365257E+02  0.51100000000E-03 0.  1.
         12    1    3    3    0    0  0.43396804803E+02 -0.39688695118E+01  0.65347763754E+01  0.44065155107E+02  0.00000000000E+00 0. -1.
</event>
<event>
 7    1  0.4358868E-015  0.9000793E+02  0.7816164E-02  0.1186339E+00
        -11   -1    0    0    0    0  0.00000000000E+00  0.00000000000E+00  0.45593999997E+02  0.45594000000E+02  0.51100000000E-03 0.  1.
         11   -1    0    0    0    0 -0.00000000000E+00 -0.00000000000E+00 -0.45593999997E+02  0.45594000000E+02  0.51100000000E-03 0. -1.
    9900012    2    1    2    0    0 -0.92683601635E+00 -0.69803960603E+00  0.21514411314E+00  0.90007927425E+02  0.90000191267E+02 0.  0.
         12    1    1    2    0    0  0.92683601635E+00  0.69803960603E+00 -0.21514411314E+00  0.11800725750E+01  0.00000000000E+00 0. -1.
         11    1    3    3    0    0 -0.10328183549E+02  0.14409621346E+01 -0.56691110393E+01  0.11869564758E+02  0.51100000000E-03 0. -1.
        -11    1    3    3    0    0 -0.30374795626E+02  0.75792285328E+01  0.17116205987E+02  0.35679649972E+02  0.51100000000E-03 0.  1.
         12    1    3    3    0    0  0.39776143158E+02 -0.97182302734E+01 -0.11231950835E+02  0.42458712696E+02  0.00000000000E+00 0. -1.
</event>
<event>
 7    1  0.4358868E-015  0.9000769E+02  0.7816164E-02  0.1186339E+00
        -11   -1    0    0    0    0  0.00000000000E+00  0.00000000000E+00  0.45593999997E+02  0.45594000000E+02  0.51100000000E-03 0.  1.
         11   -1    0    0    0    0 -0.00000000000E+00 -0.00000000000E+00 -0.45593999997E+02  0.45594000000E+02  0.51100000000E-03 0. -1.
    9900012    2    1    2    0    0  0.87887905065E-01  0.11656424195E+01  0.16334858319E+00  0.90007691018E+02  0.89999951739E+02 0.  0.
         12    1    1    2    0    0 -0.87887905065E-01 -0.11656424195E+01 -0.16334858319E+00  0.11803089822E+01  0.00000000000E+00 0. -1.
         11    1    3    3    0    0  0.32135252027E+02  0.15599493470E+02 -0.91020799986E+01  0.36862806186E+02  0.51100000000E-03 0. -1.
        -11    1    3    3    0    0  0.18788201223E+01  0.99919681045E+01 -0.62562770527E+00  0.10186304626E+02  0.51100000000E-03 0.  1.
        -12    1    3    3    0    0 -0.33926184244E+02 -0.24425819156E+02  0.98910562871E+01  0.42958580205E+02  0.00000000000E+00 0.  1.
</event>
<event>
 7    1  0.4358868E-015  0.9000779E+02  0.7816164E-02  0.1186339E+00
        -11   -1    0    0    0    0  0.00000000000E+00  0.00000000000E+00  0.45593999997E+02  0.45594000000E+02  0.51100000000E-03 0. -1.
         11   -1    0    0    0    0 -0.00000000000E+00 -0.00000000000E+00 -0.45593999997E+02  0.45594000000E+02  0.51100000000E-03 0.  1.
    9900012    2    1    2    0    0 -0.85476717521E+00  0.24755038219E+00 -0.77523034822E+00  0.90007792303E+02  0.90000054361E+02 0.  0.
         12    1    1    2    0    0  0.85476717521E+00 -0.24755038219E+00  0.77523034822E+00  0.11802076971E+01  0.00000000000E+00 0. -1.
         11    1    3    3    0    0  0.50671004314E+00  0.77223925894E+01 -0.87640125513E+01  0.11691878319E+02  0.51100000000E-03 0. -1.
        -11    1    3    3    0    0  0.19342029109E+02  0.94127494273E+01 -0.26854977149E+02  0.34407902286E+02  0.51100000000E-03 0.  1.
         12    1    3    3    0    0 -0.20703506327E+02 -0.16887591634E+02  0.34843759352E+02  0.43908011697E+02  0.00000000000E+00 0. -1.
</event>
<event>
 7    1  0.4358868E-015  0.9000784E+02  0.7816164E-02  0.1186339E+00
        -11   -1    0    0    0    0  0.00000000000E+00  0.00000000000E+00  0.45593999997E+02  0.45594000000E+02  0.51100000000E-03 0. -1.
         11   -1    0    0    0    0 -0.00000000000E+00 -0.00000000000E+00 -0.45593999997E+02  0.45594000000E+02  0.51100000000E-03 0.  1.
    9900012    2    1    2    0    0 -0.36041362895E+00  0.50093781847E+00  0.10059504916E+01  0.90007841929E+02  0.90000104642E+02 0.  0.
         12    1    1    2    0    0  0.36041362895E+00 -0.50093781847E+00 -0.10059504916E+01  0.11801580714E+01  0.00000000000E+00 0. -1.
         11    1    3    3    0    0 -0.26648711932E+00 -0.36661644839E+02  0.13096598996E+01  0.36685997697E+02  0.51100000000E-03 0. -1.
        -11    1    3    3    0    0  0.65798465010E+01 -0.56320058390E+01  0.44720999597E+01  0.97474893207E+01  0.51100000000E-03 0.  1.
        -12    1    3    3    0    0 -0.66737730106E+01  0.42794588497E+02 -0.47758093676E+01  0.43574354911E+02  0.00000000000E+00 0.  1.
</event>
<event>
 7    1  0.4396413E-015  0.9000777E+02  0.7816164E-02  0.1186339E+00
        -11   -1    0    0    0    0  0.00000000000E+00  0.00000000000E+00  0.45593999997E+02  0.45594000000E+02  0.51100000000E-03 0.  1.
         11   -1    0    0    0    0 -0.00000000000E+00 -0.00000000000E+00 -0.45593999997E+02  0.45594000000E+02  0.51100000000E-03 0. -1.
    9900012    2    1    2    0    0  0.76031585971E+00  0.11083713183E+00  0.89587288068E+00  0.90007765576E+02  0.90000027282E+02 0.  0.
         12    1    1    2    0    0 -0.76031585971E+00 -0.11083713183E+00 -0.89587288068E+00  0.11802344236E+01  0.00000000000E+00 0. -1.
         11    1    3    3    0    0  0.38899230069E+01  0.35931174106E+02  0.45082213491E+01  0.36421214061E+02  0.51100000000E-03 0. -1.
        -11    1    3    3    0    0 -0.58446736805E+01  0.78071825293E+01 -0.71277882543E+00  0.97785665305E+01  0.51100000000E-03 0.  1.
        -12    1    3    3    0    0  0.27150665333E+01 -0.43627519504E+02 -0.28995696430E+01  0.43807984985E+02  0.00000000000E+00 0.  1.
</event>
<event>
 7    1  0.4358868E-015  0.9000773E+02  0.7816164E-02  0.1186339E+00
        -11   -1    0    0    0    0  0.00000000000E+00  0.00000000000E+00  0.45593999997E+02  0.45594000000E+02  0.51100000000E-03 0. -1.
         11   -1    0    0    0    0 -0.00000000000E+00 -0.00000000000E+00 -0.45593999997E+02  0.45594000000E+02  0.51100000000E-03 0.  1.
    9900012    2    1    2    0    0  0.54011446913E+00  0.63986202905E+00 -0.83179899622E+00  0.90007730274E+02  0.89999991514E+02 0.  0.
         12    1    1    2    0    0 -0.54011446913E+00 -0.63986202905E+00  0.83179899622E+00  0.11802697260E+01  0.00000000000E+00 0. -1.
         11    1    3    3    0    0 -0.44484651595E+01 -0.44642905200E+01 -0.81744754696E+01  0.10321859406E+02  0.51100000000E-03 0. -1.
        -11    1    3    3    0    0 -0.47879775665E+01  0.14187306613E+02 -0.33513024609E+02  0.36705956149E+02  0.51100000000E-03 0.  1.
         12    1    3    3    0    0  0.97765571952E+01 -0.90831540638E+01  0.40855701083E+02  0.42979914719E+02  0.00000000000E+00 0. -1.
</event>
<event>
 7    1  0.4358868E-015  0.9000782E+02  0.7816164E-02  0.1186339E+00
        -11   -1    0    0    0    0  0.00000000000E+00  0.00000000000E+00  0.45593999997E+02  0.45594000000E+02  0.51100000000E-03 0. -1.
         11   -1    0    0    0    0 -0.00000000000E+00 -0.00000000000E+00 -0.45593999997E+02  0.45594000000E+02  0.51100000000E-03 0.  1.
    9900012    2    1    2    0    0 -0.10280374836E+01 -0.10774701520E-01 -0.57953127949E+00  0.90007816258E+02  0.90000078632E+02 0.  0.
         12    1    1    2    0    0  0.10280374836E+01  0.10774701520E-01  0.57953127949E+00  0.11801837424E+01  0.00000000000E+00 0. -1.
         11    1    3    3    0    0 -0.22093398025E+01  0.54607485719E+01  0.62696539763E+01  0.86028785050E+01  0.51100000000E-03 0. -1.
        -11    1    3    3    0    0 -0.15622242733E+02  0.18720427117E+02 -0.33667871004E+02  0.41569633119E+02  0.51100000000E-03 0.  1.
         12    1    3    3    0    0  0.16803545052E+02 -0.24191950390E+02  0.26818685748E+02  0.39835304634E+02  0.00000000000E+00 0. -1.
</event>
<event>
 7    1  0.4358868E-015  0.9000779E+02  0.7816164E-02  0.1186339E+00
        -11   -1    0    0    0    0  0.00000000000E+00  0.00000000000E+00  0.45593999997E+02  0.45594000000E+02  0.51100000000E-03 0.  1.
         11   -1    0    0    0    0 -0.00000000000E+00 -0.00000000000E+00 -0.45593999997E+02  0.45594000000E+02  0.51100000000E-03 0. -1.
    9900012    2    1    2    0    0  0.93519029228E+00  0.45253410555E+00  0.55992784200E+00  0.90007793583E+02  0.90000055658E+02 0.  0.
         12    1    1    2    0    0 -0.93519029228E+00 -0.45253410555E+00 -0.55992784200E+00  0.11802064174E+01  0.00000000000E+00 0. -1.
         11    1    3    3    0    0  0.46408361611E+01  0.89868729305E+01 -0.21677351678E+01  0.10344095966E+02  0.51100000000E-03 0. -1.
        -11    1    3    3    0    0  0.82125761284E+01  0.28327530293E+00  0.39326630215E+02  0.40175994025E+02  0.51100000000E-03 0.  1.
         12    1    3    3    0    0 -0.11918221997E+02 -0.88176141279E+01 -0.36598967205E+02  0.39487703592E+02  0.00000000000E+00 0. -1.
</event>
<event>
 7    1  0.4358868E-015  0.9000791E+02  0.7816164E-02  0.1186339E+00
        -11   -1    0    0    0    0  0.00000000000E+00  0.00000000000E+00  0.45593999997E+02  0.45594000000E+02  0.51100000000E-03 0.  1.
         11   -1    0    0    0    0 -0.00000000000E+00 -0.00000000000E+00 -0.45593999997E+02  0.45594000000E+02  0.51100000000E-03 0. -1.
    9900012    2    1    2    0    0 -0.23037736151E-02  0.60365451654E+00  0.10140015952E+01  0.90007913852E+02  0.90000177514E+02 0.  0.
         12    1    1    2    0    0  0.23037736151E-02 -0.60365451654E+00 -0.10140015952E+01  0.11800861484E+01  0.00000000000E+00 0. -1.
         11    1    3    3    0    0  0.94850744139E+01 -0.21008700735E+01  0.13259194421E+01  0.98050167941E+01  0.51100000000E-03 0. -1.
        -11    1    3    3    0    0 -0.17082773870E+02 -0.30960596101E+02  0.19528627100E+02  0.40394887681E+02  0.51100000000E-03 0.  1.
         12    1    3    3    0    0  0.75953956827E+01  0.33665120691E+02 -0.19840544947E+02  0.39808009377E+02  0.00000000000E+00 0. -1.
</event>
<event>
 7    1  0.4358868E-015  0.9000769E+02  0.7816164E-02  0.1186339E+00
        -11   -1    0    0    0    0  0.00000000000E+00  0.00000000000E+00  0.45593999997E+02  0.45594000000E+02  0.51100000000E-03 0.  1.
         11   -1    0    0    0    0 -0.00000000000E+00 -0.00000000000E+00 -0.45593999997E+02  0.45594000000E+02  0.51100000000E-03 0. -1.
    9900012    2    1    2    0    0  0.66452304229E+00  0.49176237443E+00  0.84244093802E+00  0.90007691633E+02  0.89999952363E+02 0.  0.
         12    1    1    2    0    0 -0.66452304229E+00 -0.49176237443E+00 -0.84244093802E+00  0.11803083668E+01  0.00000000000E+00 0. -1.
         11    1    3    3    0    0 -0.14735624482E+02  0.10309513440E+01 -0.37563199463E+02  0.40363293271E+02  0.51100000000E-03 0. -1.
        -11    1    3    3    0    0  0.90059106226E+01 -0.45140160496E-02 -0.15832184668E+01  0.91440159391E+01  0.51100000000E-03 0.  1.
        -12    1    3    3    0    0  0.63942369016E+01 -0.53467495350E+00  0.39988858868E+02  0.40500382423E+02  0.00000000000E+00 0.  1.
</event>
<event>
 7    1  0.4358868E-015  0.9000767E+02  0.7816164E-02  0.1186339E+00
        -11   -1    0    0    0    0  0.00000000000E+00  0.00000000000E+00  0.45593999997E+02  0.45594000000E+02  0.51100000000E-03 0. -1.
         11   -1    0    0    0    0 -0.00000000000E+00 -0.00000000000E+00 -0.45593999997E+02  0.45594000000E+02  0.51100000000E-03 0.  1.
    9900012    2    1    2    0    0 -0.56388661277E+00 -0.76334385492E+00 -0.70179073157E+00  0.90007672849E+02  0.89999933330E+02 0.  0.
         12    1    1    2    0    0  0.56388661277E+00  0.76334385492E+00  0.70179073157E+00  0.11803271512E+01  0.00000000000E+00 0. -1.
         11    1    3    3    0    0  0.26508977259E+01  0.93059907604E+01  0.46923919335E+01  0.10753941840E+02  0.51100000000E-03 0. -1.
        -11    1    3    3    0    0 -0.12612290581E+02 -0.20776700853E+02 -0.37181012442E+02  0.44420365357E+02  0.51100000000E-03 0.  1.
         12    1    3    3    0    0  0.93975062421E+01  0.10707366237E+02  0.31786829777E+02  0.34833365651E+02  0.00000000000E+00 0. -1.
</event>
<event>
 7    1  0.4358868E-015  0.9000779E+02  0.7816164E-02  0.1186339E+00
        -11   -1    0    0    0    0  0.00000000000E+00  0.00000000000E+00  0.45593999997E+02  0.45594000000E+02  0.51100000000E-03 0.  1.
         11   -1    0    0    0    0 -0.00000000000E+00 -0.00000000000E+00 -0.45593999997E+02  0.45594000000E+02  0.51100000000E-03 0. -1.
    9900012    2    1    2    0    0 -0.51716885181E+00 -0.55510136730E+00  0.90404824134E+00  0.90007786302E+02  0.90000048282E+02 0.  0.
         12    1    1    2    0    0  0.51716885181E+00  0.55510136730E+00 -0.90404824134E+00  0.11802136976E+01  0.00000000000E+00 0. -1.
         11    1    3    3    0    0 -0.23948641271E+02  0.17656010300E+02 -0.22573159410E+02  0.37347284298E+02  0.51100000000E-03 0. -1.
        -11    1    3    3    0    0 -0.20684404377E+01 -0.12286295981E+01 -0.82271922826E+01  0.85717366764E+01  0.51100000000E-03 0.  1.
        -12    1    3    3    0    0  0.25499912857E+02 -0.16982482070E+02  0.31704399934E+02  0.44088765328E+02  0.00000000000E+00 0.  1.
</event>
<event>
 7    1  0.4358868E-015  0.9000789E+02  0.7816164E-02  0.1186339E+00
        -11   -1    0    0    0    0  0.00000000000E+00  0.00000000000E+00  0.45593999997E+02  0.45594000000E+02  0.51100000000E-03 0. -1.
         11   -1    0    0    0    0 -0.00000000000E+00 -0.00000000000E+00 -0.45593999997E+02  0.45594000000E+02  0.51100000000E-03 0.  1.
    9900012    2    1    2    0    0  0.16194256474E+00  0.51852814077E+00 -0.10476418130E+01  0.90007893990E+02  0.90000157390E+02 0.  0.
         12    1    1    2    0    0 -0.16194256474E+00 -0.51852814077E+00  0.10476418130E+01  0.11801060103E+01  0.00000000000E+00 0. -1.
         11    1    3    3    0    0 -0.47080744418E+01 -0.32396104687E+01  0.75362958086E+01  0.94581602711E+01  0.51100000000E-03 0. -1.
        -11    1    3    3    0    0 -0.33453312000E+02 -0.42142109954E+01  0.12655988380E+02  0.36014687284E+02  0.51100000000E-03 0.  1.
         12    1    3    3    0    0  0.38323329006E+02  0.79723496049E+01 -0.21239926002E+02  0.44535046434E+02  0.00000000000E+00 0. -1.
</event>
<event>
 7    1  0.4358868E-015  0.9000776E+02  0.7816164E-02  0.1186339E+00
        -11   -1    0    0    0    0  0.00000000000E+00  0.00000000000E+00  0.45593999997E+02  0.45594000000E+02  0.51100000000E-03 0.  1.
         11   -1    0    0    0    0 -0.00000000000E+00 -0.00000000000E+00 -0.45593999997E+02  0.45594000000E+02  0.51100000000E-03 0. -1.
    9900012    2    1    2    0    0  0.38289654810E+00  0.11143169720E+01  0.68224011636E-01  0.90007759941E+02  0.90000021572E+02 0.  0.
         12    1    1    2    0    0 -0.38289654810E+00 -0.11143169720E+01 -0.68224011636E-01  0.11802400588E+01  0.00000000000E+00 0. -1.
         11    1    3    3    0    0 -0.28897231832E+02 -0.22233265785E+02 -0.15112915271E+02  0.39468573869E+02  0.51100000000E-03 0. -1.
        -11    1    3    3    0    0  0.77724145078E+01  0.83824528603E+01 -0.92571094810E+01  0.14709521387E+02  0.51100000000E-03 0.  1.
        -12    1    3    3    0    0  0.21507713872E+02  0.14965129897E+02  0.24438248763E+02  0.35829664685E+02  0.00000000000E+00 0.  1.
</event>
<event>
 7    1  0.4358868E-015  0.9000765E+02  0.7816164E-02  0.1186339E+00
        -11   -1    0    0    0    0  0.00000000000E+00  0.00000000000E+00  0.45593999997E+02  0.45594000000E+02  0.51100000000E-03 0.  1.
         11   -1    0    0    0    0 -0.00000000000E+00 -0.00000000000E+00 -0.45593999997E+02  0.45594000000E+02  0.51100000000E-03 0. -1.
    9900012    2    1    2    0    0  0.84291689624E-01 -0.55498299778E-01  0.11760232120E+01  0.90007654396E+02  0.89999914634E+02 0.  0.
         12    1    1    2    0    0 -0.84291689624E-01  0.55498299778E-01 -0.11760232120E+01  0.11803456042E+01  0.00000000000E+00 0. -1.
         11    1    3    3    0    0  0.25724755936E+02  0.78044209081E+01  0.18596691364E+02  0.32688055672E+02  0.51100000000E-03 0. -1.
        -11    1    3    3    0    0 -0.15953458328E+01 -0.47679486885E+01  0.15580017892E+02  0.16371176525E+02  0.51100000000E-03 0.  1.
        -12    1    3    3    0    0 -0.24045118413E+02 -0.30919705194E+01 -0.33000686044E+02  0.40948422199E+02  0.00000000000E+00 0.  1.
</event>
<event>
 7    1  0.4358868E-015  0.9000774E+02  0.7816164E-02  0.1186339E+00
        -11   -1    0    0    0    0  0.00000000000E+00  0.00000000000E+00  0.45593999997E+02  0.45594000000E+02  0.51100000000E-03 0.  1.
         11   -1    0    0    0    0 -0.00000000000E+00 -0.00000000000E+00 -0.45593999997E+02  0.45594000000E+02  0.51100000000E-03 0. -1.
    9900012    2    1    2    0    0  0.59211347496E+00 -0.80952157573E-01  0.10177730381E+01  0.90007740039E+02  0.90000001407E+02 0.  0.
         12    1    1    2    0    0 -0.59211347496E+00  0.80952157573E-01 -0.10177730381E+01  0.11802599612E+01  0.00000000000E+00 0. -1.
         11    1    3    3    0    0  0.32850534538E+02  0.25194967195E+02  0.11986176234E+01  0.41417154367E+02  0.51100000000E-03 0. -1.
        -11    1    3    3    0    0  0.39789529918E+00 -0.95675077566E+01 -0.68111658765E+01  0.11751064045E+02  0.51100000000E-03 0.  1.
        -12    1    3    3    0    0 -0.32656316363E+02 -0.15708411596E+02  0.66303212911E+01  0.36839521626E+02  0.00000000000E+00 0.  1.
</event>
<event>
 7    1  0.4358868E-015  0.9000777E+02  0.7816164E-02  0.1186339E+00
        -11   -1    0    0    0    0  0.00000000000E+00  0.00000000000E+00  0.45593999997E+02  0.45594000000E+02  0.51100000000E-03 0.  1.
         11   -1    0    0    0    0 -0.00000000000E+00 -0.00000000000E+00 -0.45593999997E+02  0.45594000000E+02  0.51100000000E-03 0. -1.
    9900012    2    1    2    0    0 -0.53132129025E+00  0.89342607349E+00  0.55896318829E+00  0.90007765994E+02  0.90000027705E+02 0.  0.
         12    1    1    2    0    0  0.53132129025E+00 -0.89342607349E+00 -0.55896318829E+00  0.11802340057E+01  0.00000000000E+00 0. -1.
         11    1    3    3    0    0  0.28815262503E+02  0.11957274186E+02 -0.13503399726E+02  0.33994669633E+02  0.51100000000E-03 0. -1.
        -11    1    3    3    0    0 -0.15189614837E+02 -0.22862014355E+02 -0.66977616603E+01  0.28253426532E+02  0.51100000000E-03 0.  1.
        -12    1    3    3    0    0 -0.14156968956E+02  0.11798166243E+02  0.20760124574E+02  0.27759669829E+02  0.00000000000E+00 0.  1.
</event>
<event>
 7    1  0.4358868E-015  0.9000777E+02  0.7816164E-02  0.1186339E+00
        -11   -1    0    0    0    0  0.00000000000E+00  0.00000000000E+00  0.45593999997E+02  0.45594000000E+02  0.51100000000E-03 0.  1.
         11   -1    0    0    0    0 -0.00000000000E+00 -0.00000000000E+00 -0.45593999997E+02  0.45594000000E+02  0.51100000000E-03 0. -1.
    9900012    2    1    2    0    0  0.94969354722E+00 -0.38494098898E+00  0.58553886212E+00  0.90007765634E+02  0.90000027341E+02 0.  0.
         12    1    1    2    0    0 -0.94969354722E+00  0.38494098898E+00 -0.58553886212E+00  0.11802343656E+01  0.00000000000E+00 0. -1.
         11    1    3    3    0    0 -0.24556988764E+02 -0.38047864622E+01 -0.25655266503E+02  0.35717149897E+02  0.51100000000E-03 0. -1.
        -11    1    3    3    0    0 -0.92905861741E+01  0.33418212747E+01 -0.12393935302E+01  0.99508219496E+01  0.51100000000E-03 0.  1.
        -12    1    3    3    0    0  0.34797268485E+02  0.78024198499E-01  0.27480198895E+02  0.44339793788E+02  0.00000000000E+00 0.  1.
</event>
<event>
 7    1  0.4358868E-015  0.9000789E+02  0.7816164E-02  0.1186339E+00
        -11   -1    0    0    0    0  0.00000000000E+00  0.00000000000E+00  0.45593999997E+02  0.45594000000E+02  0.51100000000E-03 0.  1.
         11   -1    0    0    0    0 -0.00000000000E+00 -0.00000000000E+00 -0.45593999997E+02  0.45594000000E+02  0.51100000000E-03 0. -1.
    9900012    2    1    2    0    0  0.24568556261E+00 -0.11102236062E+01  0.31576305066E+00  0.90007888075E+02  0.90000151397E+02 0.  0.
         12    1    1    2    0    0 -0.24568556261E+00  0.11102236062E+01 -0.31576305066E+00  0.11801119250E+01  0.00000000000E+00 0. -1.
         11    1    3    3    0    0 -0.84560595380E+01 -0.60733989451E+01  0.38842059187E+01  0.11112073323E+02  0.51100000000E-03 0. -1.
        -11    1    3    3    0    0 -0.29410455490E+01  0.98737472305E+01  0.35954833410E+02  0.37401747006E+02  0.51100000000E-03 0.  1.
         12    1    3    3    0    0  0.11642790650E+02 -0.49105718915E+01 -0.39523276278E+02  0.41494067746E+02  0.00000000000E+00 0. -1.
</event>
<event>
 7    1  0.4358868E-015  0.9000776E+02  0.7816164E-02  0.1186339E+00
        -11   -1    0    0    0    0  0.00000000000E+00  0.00000000000E+00  0.45593999997E+02  0.45594000000E+02  0.51100000000E-03 0.  1.
         11   -1    0    0    0    0 -0.00000000000E+00 -0.00000000000E+00 -0.45593999997E+02  0.45594000000E+02  0.51100000000E-03 0. -1.
    9900012    2    1    2    0    0 -0.96031658647E+00 -0.34968464273E+00  0.59032646225E+00  0.90007757386E+02  0.90000018984E+02 0.  0.
         12    1    1    2    0    0  0.96031658647E+00  0.34968464273E+00 -0.59032646225E+00  0.11802426139E+01  0.00000000000E+00 0. -1.
         11    1    3    3    0    0  0.34282122059E+02 -0.14182243327E+02  0.80313038147E+01  0.37959211792E+02  0.51100000000E-03 0. -1.
        -11    1    3    3    0    0  0.35401732762E+01 -0.40689406967E+01  0.52108116638E+01  0.74994442245E+01  0.51100000000E-03 0.  1.
        -12    1    3    3    0    0 -0.38782611922E+02  0.17901499381E+02 -0.12651789016E+02  0.44549101370E+02  0.00000000000E+00 0.  1.
</event>
<event>
 7    1  0.4358868E-015  0.9000782E+02  0.7816164E-02  0.1186339E+00
        -11   -1    0    0    0    0  0.00000000000E+00  0.00000000000E+00  0.45593999997E+02  0.45594000000E+02  0.51100000000E-03 0.  1.
         11   -1    0    0    0    0 -0.00000000000E+00 -0.00000000000E+00 -0.45593999997E+02  0.45594000000E+02  0.51100000000E-03 0. -1.
    9900012    2    1    2    0    0 -0.10363690465E+01  0.53836590213E+00  0.17008827875E+00  0.90007818375E+02  0.90000080778E+02 0.  0.
         12    1    1    2    0    0  0.10363690465E+01 -0.53836590213E+00 -0.17008827875E+00  0.11801816249E+01  0.00000000000E+00 0. -1.
         11    1    3    3    0    0  0.83957481538E+01 -0.76397046036E+01 -0.43340622889E+01  0.12150628366E+02  0.51100000000E-03 0. -1.
        -11    1    3    3    0    0 -0.85555986473E+01  0.33709053034E+02  0.26834593769E+02  0.43927143632E+02  0.51100000000E-03 0.  1.
         12    1    3    3    0    0 -0.87651855298E+00 -0.25530982528E+02 -0.22330443201E+02  0.33930046378E+02  0.00000000000E+00 0. -1.
</event>
<event>
 7    1  0.4358868E-015  0.9000769E+02  0.7816164E-02  0.1186339E+00
        -11   -1    0    0    0    0  0.00000000000E+00  0.00000000000E+00  0.45593999997E+02  0.45594000000E+02  0.51100000000E-03 0. -1.
         11   -1    0    0    0    0 -0.00000000000E+00 -0.00000000000E+00 -0.45593999997E+02  0.45594000000E+02  0.51100000000E-03 0.  1.
    9900012    2    1    2    0    0  0.90699349763E+00  0.49395857633E+00  0.57140117434E+00  0.90007690048E+02  0.89999950757E+02 0.  0.
         12    1    1    2    0    0 -0.90699349763E+00 -0.49395857633E+00 -0.57140117434E+00  0.11803099516E+01  0.00000000000E+00 0. -1.
         11    1    3    3    0    0 -0.65099925754E+01  0.10180319260E+02  0.16214810749E+02  0.20222240021E+02  0.51100000000E-03 0. -1.
        -11    1    3    3    0    0  0.26026482612E+02  0.16748083875E+02 -0.20459505653E+02  0.37100774688E+02  0.51100000000E-03 0.  1.
         12    1    3    3    0    0 -0.18609496539E+02 -0.26434444559E+02  0.48160960778E+01  0.32684675339E+02  0.00000000000E+00 0. -1.
</event>
<event>
 7    1  0.4358868E-015  0.9000774E+02  0.7816164E-02  0.1186339E+00
        -11   -1    0    0    0    0  0.00000000000E+00  0.00000000000E+00  0.45593999997E+02  0.45594000000E+02  0.51100000000E-03 0. -1.
         11   -1    0    0    0    0 -0.00000000000E+00 -0.00000000000E+00 -0.45593999997E+02  0.45594000000E+02  0.51100000000E-03 0.  1.
    9900012    2    1    2    0    0 -0.11298246702E+00  0.95945086426E+00 -0.67800629127E+00  0.90007744295E+02  0.90000005719E+02 0.  0.
         12    1    1    2    0    0  0.11298246702E+00 -0.95945086426E+00  0.67800629127E+00  0.11802557053E+01  0.00000000000E+00 0. -1.
         11    1    3    3    0    0  0.59288495536E+01 -0.59515845441E+01 -0.46492641580E+01  0.96014724437E+01  0.51100000000E-03 0. -1.
        -11    1    3    3    0    0  0.36976930470E+02  0.27876615057E+01  0.24777163256E+01  0.37164546575E+02  0.51100000000E-03 0.  1.
         12    1    3    3    0    0 -0.43018762490E+02  0.41233739027E+01  0.14935415412E+01  0.43241725276E+02  0.00000000000E+00 0. -1.
</event>
<event>
 7    1  0.4358868E-015  0.9000776E+02  0.7816164E-02  0.1186339E+00
        -11   -1    0    0    0    0  0.00000000000E+00  0.00000000000E+00  0.45593999997E+02  0.45594000000E+02  0.51100000000E-03 0.  1.
         11   -1    0    0    0    0 -0.00000000000E+00 -0.00000000000E+00 -0.45593999997E+02  0.45594000000E+02  0.51100000000E-03 0. -1.
    9900012    2    1    2    0    0 -0.77884341119E+00  0.40303269371E+00  0.78989986785E+00  0.90007756715E+02  0.90000018303E+02 0.  0.
         12    1    1    2    0    0  0.77884341119E+00 -0.40303269371E+00 -0.78989986785E+00  0.11802432853E+01  0.00000000000E+00 0. -1.
         11    1    3    3    0    0 -0.69694122988E+01 -0.59806312846E+01 -0.36405613287E+01  0.98789850390E+01  0.51100000000E-03 0. -1.
        -11    1    3    3    0    0  0.38905823607E+02 -0.90436583738E+00  0.19325848152E+02  0.43450769788E+02  0.51100000000E-03 0.  1.
         12    1    3    3    0    0 -0.32715254719E+02  0.72880298157E+01 -0.14895386956E+02  0.36678001888E+02  0.00000000000E+00 0. -1.
</event>
<event>
 7    1  0.4358868E-015  0.9000775E+02  0.7816164E-02  0.1186339E+00
        -11   -1    0    0    0    0  0.00000000000E+00  0.00000000000E+00  0.45593999997E+02  0.45594000000E+02  0.51100000000E-03 0.  1.
         11   -1    0    0    0    0 -0.00000000000E+00 -0.00000000000E+00 -0.45593999997E+02  0.45594000000E+02  0.51100000000E-03 0. -1.
    9900012    2    1    2    0    0 -0.18711391163E+00 -0.99383694554E+00 -0.60849408147E+00  0.90007750646E+02  0.90000012155E+02 0.  0.
         12    1    1    2    0    0  0.18711391163E+00  0.99383694554E+00  0.60849408147E+00  0.11802493539E+01  0.00000000000E+00 0. -1.
         11    1    3    3    0    0 -0.79656958477E+01 -0.95195947786E+01 -0.35671840423E+01  0.12915099587E+02  0.51100000000E-03 0. -1.
        -11    1    3    3    0    0 -0.89446473593E+01 -0.95472285451E+01  0.34604988789E+02  0.36995425915E+02  0.51100000000E-03 0.  1.
         12    1    3    3    0    0  0.16723229295E+02  0.18072986378E+02 -0.31646298829E+02  0.40097225144E+02  0.00000000000E+00 0. -1.
</event>
<event>
 7    1  0.4358868E-015  0.9000795E+02  0.7816164E-02  0.1186339E+00
        -11   -1    0    0    0    0  0.00000000000E+00  0.00000000000E+00  0.45593999997E+02  0.45594000000E+02  0.51100000000E-03 0.  1.
         11   -1    0    0    0    0 -0.00000000000E+00 -0.00000000000E+00 -0.45593999997E+02  0.45594000000E+02  0.51100000000E-03 0. -1.
    9900012    2    1    2    0    0  0.10894669599E+01  0.18898375657E+00  0.41213557473E+00  0.90007953878E+02  0.90000218069E+02 0.  0.
         12    1    1    2    0    0 -0.10894669599E+01 -0.18898375657E+00 -0.41213557473E+00  0.11800461215E+01  0.00000000000E+00 0. -1.
         11    1    3    3    0    0  0.16789281642E+02 -0.24449757469E+02 -0.25182601973E+02  0.38908020519E+02  0.51100000000E-03 0. -1.
        -11    1    3    3    0    0 -0.21678829022E+01  0.20149482383E+01 -0.79227770654E+01  0.84575486620E+01  0.51100000000E-03 0.  1.
        -12    1    3    3    0    0 -0.13531931780E+02  0.22623792987E+02  0.33517514613E+02  0.42642384697E+02  0.00000000000E+00 0.  1.
</event>
<event>
 7    1  0.4358868E-015  0.9000783E+02  0.7816164E-02  0.1186339E+00
        -11   -1    0    0    0    0  0.00000000000E+00  0.00000000000E+00  0.45593999997E+02  0.45594000000E+02  0.51100000000E-03 0. -1.
         11   -1    0    0    0    0 -0.00000000000E+00 -0.00000000000E+00 -0.45593999997E+02  0.45594000000E+02  0.51100000000E-03 0.  1.
    9900012    2    1    2    0    0  0.10014668778E+00 -0.10054923329E+00 -0.11716098752E+01  0.90007826620E+02  0.90000089131E+02 0.  0.
         12    1    1    2    0    0 -0.10014668778E+00  0.10054923329E+00  0.11716098752E+01  0.11801733800E+01  0.00000000000E+00 0. -1.
         11    1    3    3    0    0 -0.86248987175E+01 -0.39977933950E+01  0.44639471237E+01  0.10502288041E+02  0.51100000000E-03 0. -1.
        -11    1    3    3    0    0  0.16818136871E+02  0.34711629786E+02  0.15177719975E+02  0.41450092329E+02  0.51100000000E-03 0.  1.
         12    1    3    3    0    0 -0.80930914655E+01 -0.30814385624E+02 -0.20813276974E+02  0.38055446250E+02  0.00000000000E+00 0. -1.
</event>
<event>
 7    1  0.4358868E-015  0.9000755E+02  0.7816164E-02  0.1186339E+00
        -11   -1    0    0    0    0  0.00000000000E+00  0.00000000000E+00  0.45593999997E+02  0.45594000000E+02  0.51100000000E-03 0.  1.
         11   -1    0    0    0    0 -0.00000000000E+00 -0.00000000000E+00 -0.45593999997E+02  0.45594000000E+02  0.51100000000E-03 0. -1.
    9900012    2    1    2    0    0  0.59632552093E+00  0.10150025475E+01 -0.87366789648E-01  0.90007547860E+02  0.89999806692E+02 0.  0.
         12    1    1    2    0    0 -0.59632552093E+00 -0.10150025475E+01  0.87366789648E-01  0.11804521397E+01  0.00000000000E+00 0. -1.
         11    1    3    3    0    0 -0.22576226618E+01  0.11771950277E+02  0.50163534772E+00  0.11996970938E+02  0.51100000000E-03 0. -1.
        -11    1    3    3    0    0  0.10244461970E+00  0.33353569760E+02  0.39274205856E+01  0.33584159114E+02  0.51100000000E-03 0.  1.
         12    1    3    3    0    0  0.27515035630E+01 -0.44110517490E+02 -0.45164227229E+01  0.44426417808E+02  0.00000000000E+00 0. -1.
</event>
<event>
 7    1  0.4358868E-015  0.9000774E+02  0.7816164E-02  0.1186339E+00
        -11   -1    0    0    0    0  0.00000000000E+00  0.00000000000E+00  0.45593999997E+02  0.45594000000E+02  0.51100000000E-03 0. -1.
         11   -1    0    0    0    0 -0.00000000000E+00 -0.00000000000E+00 -0.45593999997E+02  0.45594000000E+02  0.51100000000E-03 0.  1.
    9900012    2    1    2    0    0 -0.16471099713E+00  0.11449796531E+01  0.23432630856E+00  0.90007738615E+02  0.89999999964E+02 0.  0.
         12    1    1    2    0    0  0.16471099713E+00 -0.11449796531E+01 -0.23432630856E+00  0.11802613853E+01  0.00000000000E+00 0. -1.
         11    1    3    3    0    0  0.13506689203E+02  0.30995991463E+02 -0.17265164656E+02  0.37964036282E+02  0.51100000000E-03 0. -1.
        -11    1    3    3    0    0 -0.50731316018E+01  0.47150469164E+01 -0.61711601934E+01  0.92763974724E+01  0.51100000000E-03 0.  1.
        -12    1    3    3    0    0 -0.85982685986E+01 -0.34566058726E+02  0.23670651158E+02  0.42767304860E+02  0.00000000000E+00 0.  1.
</event>
<event>
 7    1  0.4358868E-015  0.9000788E+02  0.7816164E-02  0.1186339E+00
        -11   -1    0    0    0    0  0.00000000000E+00  0.00000000000E+00  0.45593999997E+02  0.45594000000E+02  0.51100000000E-03 0.  1.
         11   -1    0    0    0    0 -0.00000000000E+00 -0.00000000000E+00 -0.45593999997E+02  0.45594000000E+02  0.51100000000E-03 0. -1.
    9900012    2    1    2    0    0  0.15022138816E+00 -0.64557565293E+00  0.97640074417E+00  0.90007875938E+02  0.90000139100E+02 0.  0.
         12    1    1    2    0    0 -0.15022138816E+00  0.64557565293E+00 -0.97640074417E+00  0.11801240623E+01  0.00000000000E+00 0. -1.
         11    1    3    3    0    0  0.13362150909E+02  0.30979134265E+02 -0.18883118809E+02  0.38662979876E+02  0.51100000000E-03 0. -1.
        -11    1    3    3    0    0  0.96626955130E+01 -0.43500711174E+01  0.28861653581E-01  0.10596774819E+02  0.51100000000E-03 0.  1.
        -12    1    3    3    0    0 -0.22874625033E+02 -0.27274638800E+02  0.19830657899E+02  0.40748121243E+02  0.00000000000E+00 0.  1.
</event>
<event>
 7    1  0.4358868E-015  0.9000768E+02  0.7816164E-02  0.1186339E+00
        -11   -1    0    0    0    0  0.00000000000E+00  0.00000000000E+00  0.45593999997E+02  0.45594000000E+02  0.51100000000E-03 0. -1.
         11   -1    0    0    0    0 -0.00000000000E+00 -0.00000000000E+00 -0.45593999997E+02  0.45594000000E+02  0.51100000000E-03 0.  1.
    9900012    2    1    2    0    0 -0.45783000880E+00 -0.44550527669E+00 -0.99250206861E+00  0.90007684947E+02  0.89999945588E+02 0.  0.
         12    1    1    2    0    0  0.45783000880E+00  0.44550527669E+00  0.99250206861E+00  0.11803150532E+01  0.00000000000E+00 0. -1.
         11    1    3    3    0    0 -0.82149244661E+01 -0.69165208498E+01 -0.36833617042E+01  0.11352990723E+02  0.51100000000E-03 0. -1.
        -11    1    3    3    0    0  0.32722655974E+01 -0.17333594074E+02 -0.31884201257E+02  0.36438489207E+02  0.51100000000E-03 0.  1.
         12    1    3    3    0    0  0.44848288599E+01  0.23804609647E+02  0.34575060892E+02  0.42216205017E+02  0.00000000000E+00 0. -1.
</event>
<event>
 7    1  0.4358868E-015  0.9000783E+02  0.7816164E-02  0.1186339E+00
        -11   -1    0    0    0    0  0.00000000000E+00  0.00000000000E+00  0.45593999997E+02  0.45594000000E+02  0.51100000000E-03 0.  1.
         11   -1    0    0    0    0 -0.00000000000E+00 -0.00000000000E+00 -0.45593999997E+02  0.45594000000E+02  0.51100000000E-03 0. -1.
    9900012    2    1    2    0    0  0.24962122750E+00 -0.98319493839E+00  0.60317743705E+00  0.90007827951E+02  0.90000090480E+02 0.  0.
         12    1    1    2    0    0 -0.24962122750E+00  0.98319493839E+00 -0.60317743705E+00  0.11801720488E+01  0.00000000000E+00 0. -1.
         11    1    3    3    0    0 -0.76367791565E+01 -0.33590086509E+01  0.62853338414E+01  0.10445513715E+02  0.51100000000E-03 0. -1.
        -11    1    3    3    0    0 -0.17024483477E+02  0.34441637099E+02  0.88462765096E+00  0.38429701665E+02  0.51100000000E-03 0.  1.
         12    1    3    3    0    0  0.24910883861E+02 -0.32065823386E+02 -0.65667840553E+01  0.41132612572E+02  0.00000000000E+00 0. -1.
</event>
<event>
 7    1  0.4358868E-015  0.9000776E+02  0.7816164E-02  0.1186339E+00
        -11   -1    0    0    0    0  0.00000000000E+00  0.00000000000E+00  0.45593999997E+02  0.45594000000E+02  0.51100000000E-03 0.  1.
         11   -1    0    0    0    0 -0.00000000000E+00 -0.00000000000E+00 -0.45593999997E+02  0.45594000000E+02  0.51100000000E-03 0. -1.
    9900012    2    1    2    0    0  0.99094357750E+00 -0.45176896821E+00  0.45486069002E+00  0.90007761625E+02  0.90000023278E+02 0.  0.
         12    1    1    2    0    0 -0.99094357750E+00  0.45176896821E+00 -0.45486069002E+00  0.11802383750E+01  0.00000000000E+00 0. -1.
         11    1    3    3    0    0 -0.13816465881E+02  0.12747357223E+02 -0.12060937691E+02  0.22335085938E+02  0.51100000000E-03 0. -1.
        -11    1    3    3    0    0  0.11015019145E+02  0.15474995806E+02  0.28784847123E+02  0.34487295720E+02  0.51100000000E-03 0.  1.
         12    1    3    3    0    0  0.37923903134E+01 -0.28674121997E+02 -0.16269048742E+02  0.33185379967E+02  0.00000000000E+00 0. -1.
</event>
<event>
 7    1  0.4358868E-015  0.9000785E+02  0.7816164E-02  0.1186339E+00
        -11   -1    0    0    0    0  0.00000000000E+00  0.00000000000E+00  0.45593999997E+02  0.45594000000E+02  0.51100000000E-03 0. -1.
         11   -1    0    0    0    0 -0.00000000000E+00 -0.00000000000E+00 -0.45593999997E+02  0.45594000000E+02  0.51100000000E-03 0.  1.
    9900012    2    1    2    0    0  0.83592503127E+00 -0.43976580127E+00 -0.70751721382E+00  0.90007853727E+02  0.90000116596E+02 0.  0.
         12    1    1    2    0    0 -0.83592503127E+00  0.43976580127E+00  0.70751721382E+00  0.11801462730E+01  0.00000000000E+00 0. -1.
         11    1    3    3    0    0  0.33029109432E+02 -0.21818948895E+02  0.59107556676E+01  0.40024063182E+02  0.51100000000E-03 0. -1.
        -11    1    3    3    0    0 -0.71640123435E+01 -0.79189326463E+01 -0.38478970541E+01  0.11350721524E+02  0.51100000000E-03 0.  1.
        -12    1    3    3    0    0 -0.25029172057E+02  0.29298115740E+02 -0.27703758273E+01  0.38633069021E+02  0.00000000000E+00 0.  1.
</event>
<event>
 7    1  0.4358868E-015  0.9000781E+02  0.7816164E-02  0.1186339E+00
        -11   -1    0    0    0    0  0.00000000000E+00  0.00000000000E+00  0.45593999997E+02  0.45594000000E+02  0.51100000000E-03 0. -1.
         11   -1    0    0    0    0 -0.00000000000E+00 -0.00000000000E+00 -0.45593999997E+02  0.45594000000E+02  0.51100000000E-03 0.  1.
    9900012    2    1    2    0    0 -0.63265534906E+00 -0.95141106332E+00  0.29567551752E+00  0.90007805180E+02  0.90000067408E+02 0.  0.
         12    1    1    2    0    0  0.63265534906E+00  0.95141106332E+00 -0.29567551752E+00  0.11801948203E+01  0.00000000000E+00 0. -1.
         11    1    3    3    0    0  0.17074815170E+02  0.29385694893E+02  0.13389252411E+02  0.36528625184E+02  0.51100000000E-03 0. -1.
        -11    1    3    3    0    0  0.41135615589E+01 -0.74993439270E+00  0.94641723568E+01  0.10346707155E+02  0.51100000000E-03 0.  1.
        -12    1    3    3    0    0 -0.21821032078E+02 -0.29587171564E+02 -0.22557749250E+02  0.43132472841E+02  0.00000000000E+00 0.  1.
</event>
<event>
 7    1  0.4358868E-015  0.9000771E+02  0.7816164E-02  0.1186339E+00
        -11   -1    0    0    0    0  0.00000000000E+00  0.00000000000E+00  0.45593999997E+02  0.45594000000E+02  0.51100000000E-03 0.  1.
         11   -1    0    0    0    0 -0.00000000000E+00 -0.00000000000E+00 -0.45593999997E+02  0.45594000000E+02  0.51100000000E-03 0. -1.
    9900012    2    1    2    0    0 -0.99846976560E+00  0.62924739601E+00 -0.13773467946E-01  0.90007710262E+02  0.89999971237E+02 0.  0.
         12    1    1    2    0    0  0.99846976560E+00 -0.62924739601E+00  0.13773467946E-01  0.11802897384E+01  0.00000000000E+00 0. -1.
         11    1    3    3    0    0  0.91760973436E+00  0.23135440014E+01  0.89892555346E+01  0.93274438513E+01  0.51100000000E-03 0. -1.
        -11    1    3    3    0    0  0.28089620943E+02 -0.84861220842E+01  0.22249119930E+02  0.36824779846E+02  0.51100000000E-03 0.  1.
         12    1    3    3    0    0 -0.30005700443E+02  0.68018254788E+01 -0.31252148932E+02  0.43855486565E+02  0.00000000000E+00 0. -1.
</event>
<event>
 7    1  0.4358868E-015  0.9000773E+02  0.7816164E-02  0.1186339E+00
        -11   -1    0    0    0    0  0.00000000000E+00  0.00000000000E+00  0.45593999997E+02  0.45594000000E+02  0.51100000000E-03 0.  1.
         11   -1    0    0    0    0 -0.00000000000E+00 -0.00000000000E+00 -0.45593999997E+02  0.45594000000E+02  0.51100000000E-03 0. -1.
    9900012    2    1    2    0    0  0.33930430556E+00 -0.98767317352E+00  0.54991840842E+00  0.90007730554E+02  0.89999991797E+02 0.  0.
         12    1    1    2    0    0 -0.33930430556E+00  0.98767317352E+00 -0.54991840842E+00  0.11802694461E+01  0.00000000000E+00 0. -1.
         11    1    3    3    0    0  0.75693260513E+01  0.40506193572E+01 -0.40965555608E+01  0.95123068585E+01  0.51100000000E-03 0. -1.
        -11    1    3    3    0    0  0.13478573130E+02 -0.30827897626E+02  0.24769576859E+02  0.41779937096E+02  0.51100000000E-03 0.  1.
         12    1    3    3    0    0 -0.20708594876E+02  0.25789605095E+02 -0.20123102890E+02  0.38715486600E+02  0.00000000000E+00 0. -1.
</event>
<event>
 7    1  0.4358868E-015  0.9000764E+02  0.7816164E-02  0.1186339E+00
        -11   -1    0    0    0    0  0.00000000000E+00  0.00000000000E+00  0.45593999997E+02  0.45594000000E+02  0.51100000000E-03 0. -1.
         11   -1    0    0    0    0 -0.00000000000E+00 -0.00000000000E+00 -0.45593999997E+02  0.45594000000E+02  0.51100000000E-03 0.  1.
    9900012    2    1    2    0    0  0.61086620622E+00 -0.64854712219E+00 -0.77425274502E+00  0.90007644882E+02  0.89999904994E+02 0.  0.
         12    1    1    2    0    0 -0.61086620622E+00  0.64854712219E+00  0.77425274502E+00  0.11803551181E+01  0.00000000000E+00 0. -1.
         11    1    3    3    0    0 -0.31479450359E+02  0.10125348693E+02 -0.17541667194E+02  0.37432453423E+02  0.51100000000E-03 0. -1.
        -11    1    3    3    0    0  0.11547120975E+01  0.88087046232E+01 -0.47841954388E+01  0.10090350015E+02  0.51100000000E-03 0.  1.
        -12    1    3    3    0    0  0.30935604468E+02 -0.19582600439E+02  0.21551609888E+02  0.42484841444E+02  0.00000000000E+00 0.  1.
</event>
<event>
 7    1  0.4358868E-015  0.9000767E+02  0.7816164E-02  0.1186339E+00
        -11   -1    0    0    0    0  0.00000000000E+00  0.00000000000E+00  0.45593999997E+02  0.45594000000E+02  0.51100000000E-03 0. -1.
         11   -1    0    0    0    0 -0.00000000000E+00 -0.00000000000E+00 -0.45593999997E+02  0.45594000000E+02  0.51100000000E-03 0.  1.
    9900012    2    1    2    0    0  0.24169286245E+00 -0.10016355463E+01 -0.57574497758E+00  0.90007673144E+02  0.89999933630E+02 0.  0.
         12    1    1    2    0    0 -0.24169286245E+00  0.10016355463E+01  0.57574497758E+00  0.11803268558E+01  0.00000000000E+00 0. -1.
         11    1    3    3    0    0  0.24345247987E+01 -0.13309445120E+02  0.34191603780E+02  0.36771374868E+02  0.51100000000E-03 0. -1.
        -11    1    3    3    0    0  0.24854921285E+01 -0.74981842081E+01  0.44401366406E+01  0.90617465860E+01  0.51100000000E-03 0.  1.
        -12    1    3    3    0    0 -0.46783240647E+01  0.19805993782E+02 -0.39207485398E+02  0.44174551690E+02  0.00000000000E+00 0.  1.
</event>
<event>
 7    1  0.4358868E-015  0.9000804E+02  0.7816164E-02  0.1186338E+00
        -11   -1    0    0    0    0  0.00000000000E+00  0.00000000000E+00  0.45593999997E+02  0.45594000000E+02  0.51100000000E-03 0. -1.
         11   -1    0    0    0    0 -0.00000000000E+00 -0.00000000000E+00 -0.45593999997E+02  0.45594000000E+02  0.51100000000E-03 0.  1.
    9900012    2    1    2    0    0 -0.11364720451E+01  0.30122008136E+00  0.10002562938E+00  0.90008039249E+02  0.90000304567E+02 0.  0.
         12    1    1    2    0    0  0.11364720451E+01 -0.30122008136E+00 -0.10002562938E+00  0.11799607507E+01  0.00000000000E+00 0. -1.
         11    1    3    3    0    0 -0.13030023921E+02  0.35914990573E+02  0.72727199049E+01  0.38891651113E+02  0.51100000000E-03 0. -1.
        -11    1    3    3    0    0 -0.87618627483E+01 -0.17337115788E-01  0.19174410799E+01  0.89692318484E+01  0.51100000000E-03 0.  1.
        -12    1    3    3    0    0  0.20655414624E+02 -0.35596433376E+02 -0.90901353555E+01  0.42147156288E+02  0.00000000000E+00 0.  1.
</event>
<event>
 7    1  0.4358868E-015  0.9000752E+02  0.7816164E-02  0.1186339E+00
        -11   -1    0    0    0    0  0.00000000000E+00  0.00000000000E+00  0.45593999997E+02  0.45594000000E+02  0.51100000000E-03 0. -1.
         11   -1    0    0    0    0 -0.00000000000E+00 -0.00000000000E+00 -0.45593999997E+02  0.45594000000E+02  0.51100000000E-03 0.  1.
    9900012    2    1    2    0    0  0.49982325572E-01 -0.51610573271E-01 -0.11782960548E+01  0.90007515575E+02  0.89999773981E+02 0.  0.
         12    1    1    2    0    0 -0.49982325572E-01  0.51610573271E-01  0.11782960548E+01  0.11804844247E+01  0.00000000000E+00 0. -1.
         11    1    3    3    0    0 -0.24520235472E+02  0.14873661670E+02  0.29936309348E+02  0.41456608360E+02  0.51100000000E-03 0. -1.
        -11    1    3    3    0    0 -0.39395338220E+00  0.49645572305E+01 -0.67863743400E+01  0.84176543470E+01  0.51100000000E-03 0.  1.
        -12    1    3    3    0    0  0.24964171180E+02 -0.19889829474E+02 -0.24328231063E+02  0.40133252869E+02  0.00000000000E+00 0.  1.
</event>
<event>
 7    1  0.4358868E-015  0.9000776E+02  0.7816164E-02  0.1186339E+00
        -11   -1    0    0    0    0  0.00000000000E+00  0.00000000000E+00  0.45593999997E+02  0.45594000000E+02  0.51100000000E-03 0.  1.
         11   -1    0    0    0    0 -0.00000000000E+00 -0.00000000000E+00 -0.45593999997E+02  0.45594000000E+02  0.51100000000E-03 0. -1.
    9900012    2    1    2    0    0 -0.53255593695E-01  0.94723785392E+00  0.70204642577E+00  0.90007760662E+02  0.90000022303E+02 0.  0.
         12    1    1    2    0    0  0.53255593695E-01 -0.94723785392E+00 -0.70204642577E+00  0.11802393376E+01  0.00000000000E+00 0. -1.
         11    1    3    3    0    0  0.56729467116E+01  0.11903410943E+01 -0.67034552507E+01  0.88620284852E+01  0.51100000000E-03 0. -1.
        -11    1    3    3    0    0 -0.29400059309E+02  0.29415816720E+02 -0.32888291024E+01  0.41718942434E+02  0.51100000000E-03 0.  1.
         12    1    3    3    0    0  0.23673857004E+02 -0.29658919960E+02  0.10694330779E+02  0.39426789743E+02  0.00000000000E+00 0. -1.
</event>
<event>
 7    1  0.4358868E-015  0.9000777E+02  0.7816164E-02  0.1186339E+00
        -11   -1    0    0    0    0  0.00000000000E+00  0.00000000000E+00  0.45593999997E+02  0.45594000000E+02  0.51100000000E-03 0.  1.
         11   -1    0    0    0    0 -0.00000000000E+00 -0.00000000000E+00 -0.45593999997E+02  0.45594000000E+02  0.51100000000E-03 0. -1.
    9900012    2    1    2    0    0 -0.58550522920E+00  0.90790624850E+00  0.47521746339E+00  0.90007770460E+02  0.90000032230E+02 0.  0.
         12    1    1    2    0    0  0.58550522920E+00 -0.90790624850E+00 -0.47521746339E+00  0.11802295400E+01  0.00000000000E+00 0. -1.
         11    1    3    3    0    0 -0.36251995435E+01  0.20357285781E+01 -0.93768382229E+01  0.10257258790E+02  0.51100000000E-03 0. -1.
        -11    1    3    3    0    0  0.16745554988E+02  0.31503325258E+02  0.22484034345E+02  0.42171138411E+02  0.51100000000E-03 0.  1.
         12    1    3    3    0    0 -0.13705860674E+02 -0.32631147587E+02 -0.12631978659E+02  0.37579373259E+02  0.00000000000E+00 0. -1.
</event>
<event>
 7    1  0.4358868E-015  0.9000775E+02  0.7816164E-02  0.1186339E+00
        -11   -1    0    0    0    0  0.00000000000E+00  0.00000000000E+00  0.45593999997E+02  0.45594000000E+02  0.51100000000E-03 0.  1.
         11   -1    0    0    0    0 -0.00000000000E+00 -0.00000000000E+00 -0.45593999997E+02  0.45594000000E+02  0.51100000000E-03 0. -1.
    9900012    2    1    2    0    0  0.29699386616E-01 -0.11606903254E+01 -0.21192076762E+00  0.90007748121E+02  0.90000009597E+02 0.  0.
         12    1    1    2    0    0 -0.29699386616E-01  0.11606903254E+01  0.21192076762E+00  0.11802518785E+01  0.00000000000E+00 0. -1.
         11    1    3    3    0    0  0.35588374876E+02  0.10199009417E+01 -0.19606080039E+01  0.35656929316E+02  0.51100000000E-03 0. -1.
        -11    1    3    3    0    0  0.88260611488E+01 -0.19868985248E+01 -0.34070537712E+01  0.96672197043E+01  0.51100000000E-03 0.  1.
        -12    1    3    3    0    0 -0.44384736638E+02 -0.19369274232E+00  0.51557410075E+01  0.44683599101E+02  0.00000000000E+00 0.  1.
</event>
<event>
 7    1  0.4358868E-015  0.9000786E+02  0.7816164E-02  0.1186339E+00
        -11   -1    0    0    0    0  0.00000000000E+00  0.00000000000E+00  0.45593999997E+02  0.45594000000E+02  0.51100000000E-03 0. -1.
         11   -1    0    0    0    0 -0.00000000000E+00 -0.00000000000E+00 -0.45593999997E+02  0.45594000000E+02  0.51100000000E-03 0.  1.
    9900012    2    1    2    0    0 -0.33268699443E+00  0.98703471455E+00 -0.55481629909E+00  0.90007856242E+02  0.90000119144E+02 0.  0.
         12    1    1    2    0    0  0.33268699443E+00 -0.98703471455E+00  0.55481629909E+00  0.11801437581E+01  0.00000000000E+00 0. -1.
         11    1    3    3    0    0 -0.39520153774E+01  0.29274859886E+01 -0.96653613265E+01  0.10844713440E+02  0.51100000000E-03 0. -1.
        -11    1    3    3    0    0  0.39397128559E+02  0.77270540529E+01 -0.27735727013E+01  0.40243431872E+02  0.51100000000E-03 0.  1.
         12    1    3    3    0    0 -0.35777800176E+02 -0.96675053269E+01  0.11884117729E+02  0.38919710930E+02  0.00000000000E+00 0. -1.
</event>
<event>
 7    1  0.4358868E-015  0.9000772E+02  0.7816164E-02  0.1186339E+00
        -11   -1    0    0    0    0  0.00000000000E+00  0.00000000000E+00  0.45593999997E+02  0.45594000000E+02  0.51100000000E-03 0.  1.
         11   -1    0    0    0    0 -0.00000000000E+00 -0.00000000000E+00 -0.45593999997E+02  0.45594000000E+02  0.51100000000E-03 0. -1.
    9900012    2    1    2    0    0  0.70287144269E+00  0.20243529263E+00  0.92630549581E+00  0.90007724530E+02  0.89999985694E+02 0.  0.
         12    1    1    2    0    0 -0.70287144269E+00 -0.20243529263E+00 -0.92630549581E+00  0.11802754696E+01  0.00000000000E+00 0. -1.
         11    1    3    3    0    0 -0.31738866892E+01  0.70738704510E+01 -0.72091702412E+01  0.10587036209E+02  0.51100000000E-03 0. -1.
        -11    1    3    3    0    0 -0.34107210293E+02 -0.89297886477E+01  0.18743642775E+02  0.39929526218E+02  0.51100000000E-03 0.  1.
         12    1    3    3    0    0  0.37983968424E+02  0.20583534893E+01 -0.10608167038E+02  0.39491162103E+02  0.00000000000E+00 0. -1.
</event>
<event>
 7    1  0.4358868E-015  0.9000799E+02  0.7816164E-02  0.1186339E+00
        -11   -1    0    0    0    0  0.00000000000E+00  0.00000000000E+00  0.45593999997E+02  0.45594000000E+02  0.51100000000E-03 0. -1.
         11   -1    0    0    0    0 -0.00000000000E+00 -0.00000000000E+00 -0.45593999997E+02  0.45594000000E+02  0.51100000000E-03 0.  1.
    9900012    2    1    2    0    0  0.50549080158E+00 -0.56400168700E+00 -0.90488030203E+00  0.90007988469E+02  0.90000253116E+02 0.  0.
         12    1    1    2    0    0 -0.50549080158E+00  0.56400168700E+00  0.90488030203E+00  0.11800115315E+01  0.00000000000E+00 0. -1.
         11    1    3    3    0    0 -0.38190121503E+02  0.15098070053E+02  0.12495572585E+02  0.42925242390E+02  0.51100000000E-03 0. -1.
        -11    1    3    3    0    0  0.98522800862E+01  0.16455411355E+01  0.18345690334E+01  0.10155829475E+02  0.51100000000E-03 0.  1.
        -12    1    3    3    0    0  0.28843332219E+02 -0.17307612876E+02 -0.15235021920E+02  0.36926916603E+02  0.00000000000E+00 0.  1.
</event>
<event>
 7    1  0.4358868E-015  0.9000769E+02  0.7816164E-02  0.1186339E+00
        -11   -1    0    0    0    0  0.00000000000E+00  0.00000000000E+00  0.45593999997E+02  0.45594000000E+02  0.51100000000E-03 0. -1.
         11   -1    0    0    0    0 -0.00000000000E+00 -0.00000000000E+00 -0.45593999997E+02  0.45594000000E+02  0.51100000000E-03 0.  1.
    9900012    2    1    2    0    0  0.11125397872E+01  0.36197995913E+00 -0.15603633933E+00  0.90007694273E+02  0.89999955038E+02 0.  0.
         12    1    1    2    0    0 -0.11125397872E+01 -0.36197995913E+00  0.15603633933E+00  0.11803057266E+01  0.00000000000E+00 0. -1.
         11    1    3    3    0    0  0.11067433189E+02 -0.39340489546E+02 -0.11929704987E+02  0.42573231689E+02  0.51100000000E-03 0. -1.
        -11    1    3    3    0    0  0.58853037404E+01  0.47754370376E+01  0.24647035657E+01  0.79697153615E+01  0.51100000000E-03 0.  1.
        -12    1    3    3    0    0 -0.15840197142E+02  0.34927032467E+02  0.93089650822E+01  0.39464747223E+02  0.00000000000E+00 0.  1.
</event>
<event>
 7    1  0.4358868E-015  0.9000775E+02  0.7816164E-02  0.1186339E+00
        -11   -1    0    0    0    0  0.00000000000E+00  0.00000000000E+00  0.45593999997E+02  0.45594000000E+02  0.51100000000E-03 0.  1.
         11   -1    0    0    0    0 -0.00000000000E+00 -0.00000000000E+00 -0.45593999997E+02  0.45594000000E+02  0.51100000000E-03 0. -1.
    9900012    2    1    2    0    0 -0.16529818290E+00  0.14414885643E+00  0.11596948277E+01  0.90007748130E+02  0.90000009606E+02 0.  0.
         12    1    1    2    0    0  0.16529818290E+00 -0.14414885643E+00 -0.11596948277E+01  0.11802518695E+01  0.00000000000E+00 0. -1.
         11    1    3    3    0    0  0.76858561488E+01 -0.46554823825E+01 -0.31277600565E+01  0.95146615381E+01  0.51100000000E-03 0. -1.
        -11    1    3    3    0    0  0.78302346921E+01  0.36600313678E+02 -0.14772131941E+02  0.40238183595E+02  0.51100000000E-03 0.  1.
         12    1    3    3    0    0 -0.15681389024E+02 -0.31800682440E+02  0.19059586826E+02  0.40254902997E+02  0.00000000000E+00 0. -1.
</event>
<event>
 7    1  0.4358868E-015  0.9000773E+02  0.7816164E-02  0.1186339E+00
        -11   -1    0    0    0    0  0.00000000000E+00  0.00000000000E+00  0.45593999997E+02  0.45594000000E+02  0.51100000000E-03 0.  1.
         11   -1    0    0    0    0 -0.00000000000E+00 -0.00000000000E+00 -0.45593999997E+02  0.45594000000E+02  0.51100000000E-03 0. -1.
    9900012    2    1    2    0    0 -0.94597701928E+00  0.29317635338E+00  0.64204596933E+00  0.90007725489E+02  0.89999986665E+02 0.  0.
         12    1    1    2    0    0  0.94597701928E+00 -0.29317635338E+00 -0.64204596933E+00  0.11802745113E+01  0.00000000000E+00 0. -1.
         11    1    3    3    0    0  0.57018572726E+01  0.15097976405E+01 -0.68128116358E+01  0.90113854605E+01  0.51100000000E-03 0. -1.
        -11    1    3    3    0    0 -0.14396848174E+02 -0.37226083940E+02 -0.85780537393E+01  0.40824423683E+02  0.51100000000E-03 0.  1.
         12    1    3    3    0    0  0.77490138818E+01  0.36009462653E+02  0.16032911344E+02  0.40171916345E+02  0.00000000000E+00 0. -1.
</event>
<event>
 7    1  0.4358868E-015  0.9000777E+02  0.7816164E-02  0.1186339E+00
        -11   -1    0    0    0    0  0.00000000000E+00  0.00000000000E+00  0.45593999997E+02  0.45594000000E+02  0.51100000000E-03 0.  1.
         11   -1    0    0    0    0 -0.00000000000E+00 -0.00000000000E+00 -0.45593999997E+02  0.45594000000E+02  0.51100000000E-03 0. -1.
    9900012    2    1    2    0    0 -0.10139618780E+01  0.59837556883E+00  0.82319354201E-01  0.90007767613E+02  0.90000029345E+02 0.  0.
         12    1    1    2    0    0  0.10139618780E+01 -0.59837556883E+00 -0.82319354201E-01  0.11802323871E+01  0.00000000000E+00 0. -1.
         11    1    3    3    0    0 -0.38314699359E+01  0.84835970640E+01 -0.82807655264E+01  0.12458838589E+02  0.51100000000E-03 0. -1.
        -11    1    3    3    0    0 -0.11716295121E+02  0.32301763332E+02  0.39552184505E+01  0.34587848140E+02  0.51100000000E-03 0.  1.
         12    1    3    3    0    0  0.14533803178E+02 -0.40186984827E+02  0.44078664301E+01  0.42961080884E+02  0.00000000000E+00 0. -1.
</event>
<event>
 7    1  0.4358868E-015  0.9000776E+02  0.7816164E-02  0.1186339E+00
        -11   -1    0    0    0    0  0.00000000000E+00  0.00000000000E+00  0.45593999997E+02  0.45594000000E+02  0.51100000000E-03 0.  1.
         11   -1    0    0    0    0 -0.00000000000E+00 -0.00000000000E+00 -0.45593999997E+02  0.45594000000E+02  0.51100000000E-03 0. -1.
    9900012    2    1    2    0    0  0.11524816254E+01 -0.23360572906E+00  0.10091489972E+00  0.90007758774E+02  0.90000020390E+02 0.  0.
         12    1    1    2    0    0 -0.11524816254E+01  0.23360572906E+00 -0.10091489972E+00  0.11802412256E+01  0.00000000000E+00 0. -1.
         11    1    3    3    0    0  0.89475574198E+01 -0.14284661808E+01  0.25839442505E+01  0.94221052616E+01  0.51100000000E-03 0. -1.
        -11    1    3    3    0    0  0.28525093727E+02 -0.92237760961E+01  0.20538420623E+02  0.36339864330E+02  0.51100000000E-03 0.  1.
         12    1    3    3    0    0 -0.36320169521E+02  0.10418636548E+02 -0.23021449973E+02  0.44245789183E+02  0.00000000000E+00 0. -1.
</event>
<event>
 7    1  0.4358868E-015  0.9000787E+02  0.7816164E-02  0.1186339E+00
        -11   -1    0    0    0    0  0.00000000000E+00  0.00000000000E+00  0.45593999997E+02  0.45594000000E+02  0.51100000000E-03 0.  1.
         11   -1    0    0    0    0 -0.00000000000E+00 -0.00000000000E+00 -0.45593999997E+02  0.45594000000E+02  0.51100000000E-03 0. -1.
    9900012    2    1    2    0    0 -0.96941951810E-01 -0.11471254659E+01  0.25965247841E+00  0.90007866963E+02  0.90000130006E+02 0.  0.
         12    1    1    2    0    0  0.96941951810E-01  0.11471254659E+01 -0.25965247841E+00  0.11801330375E+01  0.00000000000E+00 0. -1.
         11    1    3    3    0    0 -0.28649739611E+01  0.98834420275E+01  0.13169282449E+01  0.10374237436E+02  0.51100000000E-03 0. -1.
        -11    1    3    3    0    0  0.16432881188E+02  0.88065298369E+01 -0.34028113878E+02  0.38800864504E+02  0.51100000000E-03 0.  1.
         12    1    3    3    0    0 -0.13664849179E+02 -0.19837097330E+02  0.32970838112E+02  0.40832765022E+02  0.00000000000E+00 0. -1.
</event>
<event>
 7    1  0.4358868E-015  0.9000777E+02  0.7816164E-02  0.1186339E+00
        -11   -1    0    0    0    0  0.00000000000E+00  0.00000000000E+00  0.45593999997E+02  0.45594000000E+02  0.51100000000E-03 0. -1.
         11   -1    0    0    0    0 -0.00000000000E+00 -0.00000000000E+00 -0.45593999997E+02  0.45594000000E+02  0.51100000000E-03 0.  1.
    9900012    2    1    2    0    0 -0.41369449875E+00 -0.25850404403E+00 -0.10747000747E+01  0.90007767934E+02  0.90000029671E+02 0.  0.
         12    1    1    2    0    0  0.41369449875E+00  0.25850404403E+00  0.10747000747E+01  0.11802320660E+01  0.00000000000E+00 0. -1.
         11    1    3    3    0    0 -0.50331710724E+01  0.70676272187E+01 -0.29566040273E+01  0.91665518698E+01  0.51100000000E-03 0. -1.
        -11    1    3    3    0    0 -0.17668053989E+02  0.13705528034E+02 -0.29474970116E+02  0.36996966011E+02  0.51100000000E-03 0.  1.
         12    1    3    3    0    0  0.22287530563E+02 -0.21031659296E+02  0.31356874069E+02  0.43844250053E+02  0.00000000000E+00 0. -1.
</event>
<event>
 7    1  0.4358868E-015  0.9000779E+02  0.7816164E-02  0.1186339E+00
        -11   -1    0    0    0    0  0.00000000000E+00  0.00000000000E+00  0.45593999997E+02  0.45594000000E+02  0.51100000000E-03 0.  1.
         11   -1    0    0    0    0 -0.00000000000E+00 -0.00000000000E+00 -0.45593999997E+02  0.45594000000E+02  0.51100000000E-03 0. -1.
    9900012    2    1    2    0    0  0.32054486791E+00  0.71089744250E+00  0.88587718304E+00  0.90007787066E+02  0.90000049055E+02 0.  0.
         12    1    1    2    0    0 -0.32054486791E+00 -0.71089744250E+00 -0.88587718304E+00  0.11802129340E+01  0.00000000000E+00 0. -1.
         11    1    3    3    0    0  0.10552899445E+02  0.34682173821E+02  0.66438912096E+01  0.36855910765E+02  0.51100000000E-03 0. -1.
        -11    1    3    3    0    0  0.20738652288E+00  0.62040136048E+01  0.73512164618E+01  0.96214956066E+01  0.51100000000E-03 0.  1.
        -12    1    3    3    0    0 -0.10439741100E+02 -0.40175289983E+02 -0.13109230488E+02  0.43530380695E+02  0.00000000000E+00 0.  1.
</event>
<event>
 7    1  0.4358868E-015  0.9000727E+02  0.7816164E-02  0.1186340E+00
        -11   -1    0    0    0    0  0.00000000000E+00  0.00000000000E+00  0.45593999997E+02  0.45594000000E+02  0.51100000000E-03 0. -1.
         11   -1    0    0    0    0 -0.00000000000E+00 -0.00000000000E+00 -0.45593999997E+02  0.45594000000E+02  0.51100000000E-03 0.  1.
    9900012    2    1    2    0    0 -0.24093523307E+00 -0.10786448380E+01  0.41545300656E+00  0.90007269009E+02  0.89999524158E+02 0.  0.
         12    1    1    2    0    0  0.24093523307E+00  0.10786448380E+01 -0.41545300656E+00  0.11807309913E+01  0.00000000000E+00 0. -1.
         11    1    3    3    0    0  0.29899523216E+02 -0.33032492588E+01  0.32051463248E+02  0.43956674588E+02  0.51100000000E-03 0. -1.
        -11    1    3    3    0    0 -0.55540977883E+01 -0.28443586356E+01 -0.14128325339E+02  0.15444997748E+02  0.51100000000E-03 0.  1.
        -12    1    3    3    0    0 -0.24586360661E+02  0.50689630563E+01 -0.17507684903E+02  0.30605596673E+02  0.00000000000E+00 0.  1.
</event>
<event>
 7    1  0.4358868E-015  0.9000777E+02  0.7816164E-02  0.1186339E+00
        -11   -1    0    0    0    0  0.00000000000E+00  0.00000000000E+00  0.45593999997E+02  0.45594000000E+02  0.51100000000E-03 0.  1.
         11   -1    0    0    0    0 -0.00000000000E+00 -0.00000000000E+00 -0.45593999997E+02  0.45594000000E+02  0.51100000000E-03 0. -1.
    9900012    2    1    2    0    0 -0.37094066903E+00 -0.29063538059E-01  0.11200437285E+01  0.90007771368E+02  0.90000033150E+02 0.  0.
         12    1    1    2    0    0  0.37094066903E+00  0.29063538059E-01 -0.11200437285E+01  0.11802286316E+01  0.00000000000E+00 0. -1.
         11    1    3    3    0    0  0.10243413396E+01  0.35035927708E+02 -0.11761376668E+02  0.36971549696E+02  0.51100000000E-03 0. -1.
        -11    1    3    3    0    0 -0.38760256230E+01  0.76401624935E+01  0.90881534951E+00  0.86151960603E+01  0.51100000000E-03 0.  1.
        -12    1    3    3    0    0  0.24807436144E+01 -0.42705153740E+02  0.11972605047E+02  0.44421025612E+02  0.00000000000E+00 0.  1.
</event>
<event>
 7    1  0.4358868E-015  0.9000773E+02  0.7816164E-02  0.1186339E+00
        -11   -1    0    0    0    0  0.00000000000E+00  0.00000000000E+00  0.45593999997E+02  0.45594000000E+02  0.51100000000E-03 0.  1.
         11   -1    0    0    0    0 -0.00000000000E+00 -0.00000000000E+00 -0.45593999997E+02  0.45594000000E+02  0.51100000000E-03 0. -1.
    9900012    2    1    2    0    0 -0.12453458604E+00 -0.10981215639E+01  0.41431694536E+00  0.90007729538E+02  0.89999990768E+02 0.  0.
         12    1    1    2    0    0  0.12453458604E+00  0.10981215639E+01 -0.41431694536E+00  0.11802704620E+01  0.00000000000E+00 0. -1.
         11    1    3    3    0    0  0.60041775460E+01 -0.32791277370E+01  0.72163675176E+01  0.99437813296E+01  0.51100000000E-03 0. -1.
        -11    1    3    3    0    0  0.28611113004E+02  0.21018004845E+02  0.10356826272E+02  0.36981294808E+02  0.51100000000E-03 0.  1.
         12    1    3    3    0    0 -0.34739825136E+02 -0.18836998672E+02 -0.17158876844E+02  0.43082653400E+02  0.00000000000E+00 0. -1.
</event>
<event>
 7    1  0.4358868E-015  0.9000764E+02  0.7816164E-02  0.1186339E+00
        -11   -1    0    0    0    0  0.00000000000E+00  0.00000000000E+00  0.45593999997E+02  0.45594000000E+02  0.51100000000E-03 0.  1.
         11   -1    0    0    0    0 -0.00000000000E+00 -0.00000000000E+00 -0.45593999997E+02  0.45594000000E+02  0.51100000000E-03 0. -1.
    9900012    2    1    2    0    0  0.56940709433E+00 -0.96527892126E+00  0.37047649956E+00  0.90007643837E+02  0.89999903936E+02 0.  0.
         12    1    1    2    0    0 -0.56940709433E+00  0.96527892126E+00 -0.37047649956E+00  0.11803561630E+01  0.00000000000E+00 0. -1.
         11    1    3    3    0    0  0.72782809943E+01 -0.76016192504E+01 -0.27732834473E+01  0.10883431940E+02  0.51100000000E-03 0. -1.
        -11    1    3    3    0    0 -0.10025567919E+02 -0.75246261040E+01  0.38715360550E+02  0.40694116932E+02  0.51100000000E-03 0.  1.
         12    1    3    3    0    0  0.33166940193E+01  0.14160966433E+02 -0.35571600603E+02  0.38430094965E+02  0.00000000000E+00 0. -1.
</event>
<event>
 7    1  0.4358868E-015  0.9000756E+02  0.7816164E-02  0.1186339E+00
        -11   -1    0    0    0    0  0.00000000000E+00  0.00000000000E+00  0.45593999997E+02  0.45594000000E+02  0.51100000000E-03 0.  1.
         11   -1    0    0    0    0 -0.00000000000E+00 -0.00000000000E+00 -0.45593999997E+02  0.45594000000E+02  0.51100000000E-03 0. -1.
    9900012    2    1    2    0    0 -0.27360752634E+00 -0.79169682590E+00  0.83173480756E+00  0.90007564600E+02  0.89999823653E+02 0.  0.
         12    1    1    2    0    0  0.27360752634E+00  0.79169682590E+00 -0.83173480756E+00  0.11804353996E+01  0.00000000000E+00 0. -1.
         11    1    3    3    0    0 -0.12259219279E+02  0.65154523731E+01  0.57177560056E+01  0.15014403450E+02  0.51100000000E-03 0. -1.
        -11    1    3    3    0    0 -0.26074694606E+02 -0.72047159059E+01  0.16150375005E+02  0.31506066767E+02  0.51100000000E-03 0.  1.
         12    1    3    3    0    0  0.38060306359E+02 -0.10243329316E+00 -0.21036396203E+02  0.43487094383E+02  0.00000000000E+00 0. -1.
</event>
<event>
 7    1  0.4358868E-015  0.9000777E+02  0.7816164E-02  0.1186339E+00
        -11   -1    0    0    0    0  0.00000000000E+00  0.00000000000E+00  0.45593999997E+02  0.45594000000E+02  0.51100000000E-03 0. -1.
         11   -1    0    0    0    0 -0.00000000000E+00 -0.00000000000E+00 -0.45593999997E+02  0.45594000000E+02  0.51100000000E-03 0.  1.
    9900012    2    1    2    0    0  0.75252062140E+00  0.88042924264E+00  0.22691710359E+00  0.90007773620E+02  0.90000035431E+02 0.  0.
         12    1    1    2    0    0 -0.75252062140E+00 -0.88042924264E+00 -0.22691710359E+00  0.11802263803E+01  0.00000000000E+00 0. -1.
         11    1    3    3    0    0  0.32637894276E+01 -0.72177334213E+00 -0.69597519398E+01  0.77208435750E+01  0.51100000000E-03 0. -1.
        -11    1    3    3    0    0  0.18241899304E+02  0.34777859299E+02 -0.84085012860E+01  0.40161788827E+02  0.51100000000E-03 0.  1.
         12    1    3    3    0    0 -0.20753168110E+02 -0.33175656714E+02  0.15595170329E+02  0.42125141218E+02  0.00000000000E+00 0. -1.
</event>
<event>
 7    1  0.4358868E-015  0.9000799E+02  0.7816164E-02  0.1186339E+00
        -11   -1    0    0    0    0  0.00000000000E+00  0.00000000000E+00  0.45593999997E+02  0.45594000000E+02  0.51100000000E-03 0. -1.
         11   -1    0    0    0    0 -0.00000000000E+00 -0.00000000000E+00 -0.45593999997E+02  0.45594000000E+02  0.51100000000E-03 0.  1.
    9900012    2    1    2    0    0 -0.86383585983E+00  0.57189764896E+00  0.56492294350E+00  0.90007992693E+02  0.90000257396E+02 0.  0.
         12    1    1    2    0    0  0.86383585983E+00 -0.57189764896E+00 -0.56492294350E+00  0.11800073075E+01  0.00000000000E+00 0. -1.
         11    1    3    3    0    0 -0.86526327042E+01 -0.24739311108E+01  0.47798067899E+01  0.10189943134E+02  0.51100000000E-03 0. -1.
        -11    1    3    3    0    0  0.20069751584E+02  0.36062682533E+01 -0.38406195948E+02  0.43483743938E+02  0.51100000000E-03 0.  1.
         12    1    3    3    0    0 -0.12280954739E+02 -0.56043949356E+00  0.34191312102E+02  0.36334305621E+02  0.00000000000E+00 0. -1.
</event>
<event>
 7    1  0.4460620E-015  0.9000782E+02  0.7816164E-02  0.1186339E+00
        -11   -1    0    0    0    0  0.00000000000E+00  0.00000000000E+00  0.45593999997E+02  0.45594000000E+02  0.51100000000E-03 0. -1.
         11   -1    0    0    0    0 -0.00000000000E+00 -0.00000000000E+00 -0.45593999997E+02  0.45594000000E+02  0.51100000000E-03 0.  1.
    9900012    2    1    2    0    0  0.98778088395E+00 -0.61043523891E+00 -0.21089763827E+00  0.90007822018E+02  0.90000084469E+02 0.  0.
         12    1    1    2    0    0 -0.98778088395E+00  0.61043523891E+00  0.21089763827E+00  0.11801779821E+01  0.00000000000E+00 0. -1.
         11    1    3    3    0    0  0.30336254797E+02  0.22659175576E+02  0.33202676383E+01  0.38009877273E+02  0.51100000000E-03 0. -1.
        -11    1    3    3    0    0  0.24859517070E+01  0.43110839020E+01 -0.82286437411E+01  0.96164431252E+01  0.51100000000E-03 0.  1.
        -12    1    3    3    0    0 -0.31834425620E+02 -0.27580694717E+02  0.46974784645E+01  0.42381501620E+02  0.00000000000E+00 0.  1.
</event>
<event>
 7    1  0.4358868E-015  0.9000785E+02  0.7816164E-02  0.1186339E+00
        -11   -1    0    0    0    0  0.00000000000E+00  0.00000000000E+00  0.45593999997E+02  0.45594000000E+02  0.51100000000E-03 0. -1.
         11   -1    0    0    0    0 -0.00000000000E+00 -0.00000000000E+00 -0.45593999997E+02  0.45594000000E+02  0.51100000000E-03 0.  1.
    9900012    2    1    2    0    0 -0.11783739625E+01  0.46551713229E-01  0.45043632851E-01  0.90007846965E+02  0.90000109745E+02 0.  0.
         12    1    1    2    0    0  0.11783739625E+01 -0.46551713229E-01 -0.45043632851E-01  0.11801530352E+01  0.00000000000E+00 0. -1.
         11    1    3    3    0    0 -0.62895481036E+01 -0.36204295710E+01 -0.47337429700E+01  0.86645397104E+01  0.51100000000E-03 0. -1.
        -11    1    3    3    0    0  0.96779096093E+01 -0.60960191919E+01 -0.36723918779E+02  0.38463873896E+02  0.51100000000E-03 0.  1.
         12    1    3    3    0    0 -0.45667354682E+01  0.97630004761E+01  0.41502705381E+02  0.42879433358E+02  0.00000000000E+00 0. -1.
</event>
<event>
 7    1  0.4358868E-015  0.9000771E+02  0.7816164E-02  0.1186339E+00
        -11   -1    0    0    0    0  0.00000000000E+00  0.00000000000E+00  0.45593999997E+02  0.45594000000E+02  0.51100000000E-03 0. -1.
         11   -1    0    0    0    0 -0.00000000000E+00 -0.00000000000E+00 -0.45593999997E+02  0.45594000000E+02  0.51100000000E-03 0.  1.
    9900012    2    1    2    0    0  0.53832736955E+00 -0.65201785215E+00 -0.82349905293E+00  0.90007714303E+02  0.89999975332E+02 0.  0.
         12    1    1    2    0    0 -0.53832736955E+00  0.65201785215E+00  0.82349905293E+00  0.11802856970E+01  0.00000000000E+00 0. -1.
         11    1    3    3    0    0 -0.10123950328E+02  0.14414904835E+02  0.29856297334E+02  0.34665290167E+02  0.51100000000E-03 0. -1.
        -11    1    3    3    0    0 -0.82826470601E+01  0.63666661848E+01  0.32709045823E+01  0.10946940106E+02  0.51100000000E-03 0.  1.
        -12    1    3    3    0    0  0.18944924757E+02 -0.21433588872E+02 -0.33950700969E+02  0.44395484030E+02  0.00000000000E+00 0.  1.
</event>
<event>
 7    1  0.4358868E-015  0.9000771E+02  0.7816164E-02  0.1186339E+00
        -11   -1    0    0    0    0  0.00000000000E+00  0.00000000000E+00  0.45593999997E+02  0.45594000000E+02  0.51100000000E-03 0.  1.
         11   -1    0    0    0    0 -0.00000000000E+00 -0.00000000000E+00 -0.45593999997E+02  0.45594000000E+02  0.51100000000E-03 0. -1.
    9900012    2    1    2    0    0  0.80806622313E+00  0.80129553398E+00 -0.31310856724E+00  0.90007710828E+02  0.89999971811E+02 0.  0.
         12    1    1    2    0    0 -0.80806622313E+00 -0.80129553398E+00  0.31310856724E+00  0.11802891716E+01  0.00000000000E+00 0. -1.
         11    1    3    3    0    0 -0.96828628528E+01 -0.19478498409E+01  0.10665942655E+01  0.99342627113E+01  0.51100000000E-03 0. -1.
        -11    1    3    3    0    0  0.22100975349E+02  0.44854343302E+01  0.35117370324E+02  0.41734900638E+02  0.51100000000E-03 0.  1.
         12    1    3    3    0    0 -0.11610046273E+02 -0.17362889553E+01 -0.36497073157E+02  0.38338547479E+02  0.00000000000E+00 0. -1.
</event>
<event>
 7    1  0.4358868E-015  0.9000775E+02  0.7816164E-02  0.1186339E+00
        -11   -1    0    0    0    0  0.00000000000E+00  0.00000000000E+00  0.45593999997E+02  0.45594000000E+02  0.51100000000E-03 0.  1.
         11   -1    0    0    0    0 -0.00000000000E+00 -0.00000000000E+00 -0.45593999997E+02  0.45594000000E+02  0.51100000000E-03 0. -1.
    9900012    2    1    2    0    0 -0.91873511217E+00 -0.71535639960E+00  0.19281690419E+00  0.90007751152E+02  0.90000012667E+02 0.  0.
         12    1    1    2    0    0  0.91873511217E+00  0.71535639960E+00 -0.19281690419E+00  0.11802488481E+01  0.00000000000E+00 0. -1.
         11    1    3    3    0    0 -0.21585099968E+02  0.27588076171E+02 -0.22751863997E+02  0.41769196821E+02  0.51100000000E-03 0. -1.
        -11    1    3    3    0    0 -0.48945486398E+01 -0.89338813083E+01  0.37070603771E+01  0.10840347712E+02  0.51100000000E-03 0.  1.
        -12    1    3    3    0    0  0.25560913496E+02 -0.19369551263E+02  0.19237620524E+02  0.37398206619E+02  0.00000000000E+00 0.  1.
</event>
<event>
 7    1  0.4358868E-015  0.9000781E+02  0.7816164E-02  0.1186339E+00
        -11   -1    0    0    0    0  0.00000000000E+00  0.00000000000E+00  0.45593999997E+02  0.45594000000E+02  0.51100000000E-03 0.  1.
         11   -1    0    0    0    0 -0.00000000000E+00 -0.00000000000E+00 -0.45593999997E+02  0.45594000000E+02  0.51100000000E-03 0. -1.
    9900012    2    1    2    0    0  0.93844414093E+00  0.59409216839E+00 -0.39903592403E+00  0.90007808245E+02  0.90000070514E+02 0.  0.
         12    1    1    2    0    0 -0.93844414093E+00 -0.59409216839E+00  0.39903592403E+00  0.11801917551E+01  0.00000000000E+00 0. -1.
         11    1    3    3    0    0 -0.97746128693E+00  0.36133523584E+01  0.82435630789E+01  0.90536223873E+01  0.51100000000E-03 0. -1.
        -11    1    3    3    0    0  0.26273711578E+02 -0.10331967388E+01  0.27032496712E+02  0.37711156099E+02  0.51100000000E-03 0.  1.
         12    1    3    3    0    0 -0.24357806150E+02 -0.19860634512E+01 -0.35675095715E+02  0.43243029759E+02  0.00000000000E+00 0. -1.
</event>
<event>
 7    1  0.4358868E-015  0.9000773E+02  0.7816164E-02  0.1186339E+00
        -11   -1    0    0    0    0  0.00000000000E+00  0.00000000000E+00  0.45593999997E+02  0.45594000000E+02  0.51100000000E-03 0.  1.
         11   -1    0    0    0    0 -0.00000000000E+00 -0.00000000000E+00 -0.45593999997E+02  0.45594000000E+02  0.51100000000E-03 0. -1.
    9900012    2    1    2    0    0 -0.88067019774E+00 -0.60107245517E+00 -0.50612750398E+00  0.90007731749E+02  0.89999993008E+02 0.  0.
         12    1    1    2    0    0  0.88067019774E+00  0.60107245517E+00  0.50612750398E+00  0.11802682508E+01  0.00000000000E+00 0. -1.
         11    1    3    3    0    0  0.41167606802E+01 -0.17568842843E+02 -0.32723252999E+02  0.37368746894E+02  0.51100000000E-03 0. -1.
        -11    1    3    3    0    0  0.96976021356E+01 -0.25016657026E+01 -0.23927718346E+01  0.10296949829E+02  0.51100000000E-03 0.  1.
        -12    1    3    3    0    0 -0.14695033013E+02  0.19469436091E+02  0.34609897330E+02  0.42342035026E+02  0.00000000000E+00 0.  1.
</event>
<event>
 7    1  0.4358868E-015  0.9000780E+02  0.7816164E-02  0.1186339E+00
        -11   -1    0    0    0    0  0.00000000000E+00  0.00000000000E+00  0.45593999997E+02  0.45594000000E+02  0.51100000000E-03 0.  1.
         11   -1    0    0    0    0 -0.00000000000E+00 -0.00000000000E+00 -0.45593999997E+02  0.45594000000E+02  0.51100000000E-03 0. -1.
    9900012    2    1    2    0    0  0.95786851085E+00 -0.42203351721E+00  0.54520044029E+00  0.90007801757E+02  0.90000063940E+02 0.  0.
         12    1    1    2    0    0 -0.95786851085E+00  0.42203351721E+00 -0.54520044029E+00  0.11801982434E+01  0.00000000000E+00 0. -1.
         11    1    3    3    0    0  0.84742668894E+01  0.30561445322E+01 -0.11148836085E+01  0.90772344046E+01  0.51100000000E-03 0. -1.
        -11    1    3    3    0    0  0.18683954781E+02  0.58354721629E+01  0.33412403556E+02  0.38723786143E+02  0.51100000000E-03 0.  1.
         12    1    3    3    0    0 -0.26200353159E+02 -0.93136502123E+01 -0.31752319507E+02  0.42206781209E+02  0.00000000000E+00 0. -1.
</event>
<event>
 7    1  0.4358868E-015  0.9000780E+02  0.7816164E-02  0.1186339E+00
        -11   -1    0    0    0    0  0.00000000000E+00  0.00000000000E+00  0.45593999997E+02  0.45594000000E+02  0.51100000000E-03 0. -1.
         11   -1    0    0    0    0 -0.00000000000E+00 -0.00000000000E+00 -0.45593999997E+02  0.45594000000E+02  0.51100000000E-03 0.  1.
    9900012    2    1    2    0    0  0.78465433965E+00  0.88003846230E+00  0.52262389925E-01  0.90007795998E+02  0.90000058106E+02 0.  0.
         12    1    1    2    0    0 -0.78465433965E+00 -0.88003846230E+00 -0.52262389925E-01  0.11802040015E+01  0.00000000000E+00 0. -1.
         11    1    3    3    0    0 -0.12586506671E+01 -0.37870551342E+01 -0.93257509586E+01  0.10143747793E+02  0.51100000000E-03 0. -1.
        -11    1    3    3    0    0 -0.27314672876E+02 -0.25391632269E+02  0.42229102188E+01  0.37532110447E+02  0.51100000000E-03 0.  1.
         12    1    3    3    0    0  0.29357977883E+02  0.30058725866E+02  0.51551031297E+01  0.42331937758E+02  0.00000000000E+00 0. -1.
</event>
<event>
 7    1  0.4358868E-015  0.9000787E+02  0.7816164E-02  0.1186339E+00
        -11   -1    0    0    0    0  0.00000000000E+00  0.00000000000E+00  0.45593999997E+02  0.45594000000E+02  0.51100000000E-03 0.  1.
         11   -1    0    0    0    0 -0.00000000000E+00 -0.00000000000E+00 -0.45593999997E+02  0.45594000000E+02  0.51100000000E-03 0. -1.
    9900012    2    1    2    0    0 -0.93341808857E+00  0.28193847910E+00  0.66478532619E+00  0.90007873666E+02  0.90000136798E+02 0.  0.
         12    1    1    2    0    0  0.93341808857E+00 -0.28193847910E+00 -0.66478532619E+00  0.11801263339E+01  0.00000000000E+00 0. -1.
         11    1    3    3    0    0 -0.11609371472E+01  0.51975606254E+00  0.39180789669E+01  0.41193767097E+01  0.51100000000E-03 0. -1.
        -11    1    3    3    0    0 -0.12510907908E+02  0.38803387566E+02  0.11319663456E+02  0.42312651587E+02  0.51100000000E-03 0.  1.
         12    1    3    3    0    0  0.12738426966E+02 -0.39041205150E+02 -0.14572957097E+02  0.43575845369E+02  0.00000000000E+00 0. -1.
</event>
<event>
 7    1  0.4358868E-015  0.9000773E+02  0.7816164E-02  0.1186339E+00
        -11   -1    0    0    0    0  0.00000000000E+00  0.00000000000E+00  0.45593999997E+02  0.45594000000E+02  0.51100000000E-03 0. -1.
         11   -1    0    0    0    0 -0.00000000000E+00 -0.00000000000E+00 -0.45593999997E+02  0.45594000000E+02  0.51100000000E-03 0.  1.
    9900012    2    1    2    0    0 -0.50813684130E-01 -0.70988853794E+00 -0.94154724831E+00  0.90007730968E+02  0.89999992217E+02 0.  0.
         12    1    1    2    0    0  0.50813684130E-01  0.70988853794E+00  0.94154724831E+00  0.11802690319E+01  0.00000000000E+00 0. -1.
         11    1    3    3    0    0 -0.76049490171E+01 -0.51343699095E+01 -0.29188126856E+01  0.96289392809E+01  0.51100000000E-03 0. -1.
        -11    1    3    3    0    0 -0.27930323907E+00 -0.39423108358E+01 -0.38299551493E+02  0.38502928069E+02  0.51100000000E-03 0.  1.
         12    1    3    3    0    0  0.78334385720E+01  0.83667922074E+01  0.40276816931E+02  0.41875863618E+02  0.00000000000E+00 0. -1.
</event>
<event>
 7    1  0.4358868E-015  0.9000769E+02  0.7816164E-02  0.1186339E+00
        -11   -1    0    0    0    0  0.00000000000E+00  0.00000000000E+00  0.45593999997E+02  0.45594000000E+02  0.51100000000E-03 0. -1.
         11   -1    0    0    0    0 -0.00000000000E+00 -0.00000000000E+00 -0.45593999997E+02  0.45594000000E+02  0.51100000000E-03 0.  1.
    9900012    2    1    2    0    0  0.10270850946E+01 -0.30320782344E+00 -0.49627426379E+00  0.90007692023E+02  0.89999952758E+02 0.  0.
         12    1    1    2    0    0 -0.10270850946E+01  0.30320782344E+00  0.49627426379E+00  0.11803079770E+01  0.00000000000E+00 0. -1.
         11    1    3    3    0    0  0.31069868887E+01  0.64310712756E+01  0.15693936300E+01  0.73126631199E+01  0.51100000000E-03 0. -1.
        -11    1    3    3    0    0  0.58956320032E+01  0.30895300932E+02 -0.22940767895E+02  0.38930154486E+02  0.51100000000E-03 0.  1.
         12    1    3    3    0    0 -0.79755337972E+01 -0.37629580031E+02  0.20875100001E+02  0.43764874417E+02  0.00000000000E+00 0. -1.
</event>
<event>
 7    1  0.4358868E-015  0.9000794E+02  0.7816164E-02  0.1186339E+00
        -11   -1    0    0    0    0  0.00000000000E+00  0.00000000000E+00  0.45593999997E+02  0.45594000000E+02  0.51100000000E-03 0. -1.
         11   -1    0    0    0    0 -0.00000000000E+00 -0.00000000000E+00 -0.45593999997E+02  0.45594000000E+02  0.51100000000E-03 0.  1.
    9900012    2    1    2    0    0 -0.88889391714E+00  0.16099294961E+00 -0.75927442051E+00  0.90007936963E+02  0.90000200931E+02 0.  0.
         12    1    1    2    0    0  0.88889391714E+00 -0.16099294961E+00  0.75927442051E+00  0.11800630370E+01  0.00000000000E+00 0. -1.
         11    1    3    3    0    0 -0.87729672491E+01 -0.31089762959E+01  0.45511537543E+00  0.93186811421E+01  0.51100000000E-03 0. -1.
        -11    1    3    3    0    0 -0.21576982354E+02  0.11276968824E+02 -0.30063481302E+02  0.38685256903E+02  0.51100000000E-03 0.  1.
         12    1    3    3    0    0  0.29461055686E+02 -0.80069995786E+01  0.28849091506E+02  0.42003998918E+02  0.00000000000E+00 0. -1.
</event>
<event>
 7    1  0.4358868E-015  0.9000780E+02  0.7816164E-02  0.1186339E+00
        -11   -1    0    0    0    0  0.00000000000E+00  0.00000000000E+00  0.45593999997E+02  0.45594000000E+02  0.51100000000E-03 0. -1.
         11   -1    0    0    0    0 -0.00000000000E+00 -0.00000000000E+00 -0.45593999997E+02  0.45594000000E+02  0.51100000000E-03 0.  1.
    9900012    2    1    2    0    0  0.57391035037E+00  0.90377658593E+00 -0.49667534781E+00  0.90007800183E+02  0.90000062345E+02 0.  0.
         12    1    1    2    0    0 -0.57391035037E+00 -0.90377658593E+00  0.49667534781E+00  0.11801998173E+01  0.00000000000E+00 0. -1.
         11    1    3    3    0    0  0.51440451296E+01 -0.27070298653E+02  0.23754200827E+02  0.36380273867E+02  0.51100000000E-03 0. -1.
        -11    1    3    3    0    0 -0.49761496624E+01  0.19066830305E+01  0.95526598726E+01  0.10938501568E+02  0.51100000000E-03 0.  1.
        -12    1    3    3    0    0  0.40601488312E+00  0.26067392209E+02 -0.33803536047E+02  0.42689024748E+02  0.00000000000E+00 0.  1.
</event>
<event>
 7    1  0.4358868E-015  0.9000774E+02  0.7816164E-02  0.1186339E+00
        -11   -1    0    0    0    0  0.00000000000E+00  0.00000000000E+00  0.45593999997E+02  0.45594000000E+02  0.51100000000E-03 0.  1.
         11   -1    0    0    0    0 -0.00000000000E+00 -0.00000000000E+00 -0.45593999997E+02  0.45594000000E+02  0.51100000000E-03 0. -1.
    9900012    2    1    2    0    0  0.46712401929E+00 -0.35432902687E+00 -0.10243331608E+01  0.90007740565E+02  0.90000001941E+02 0.  0.
         12    1    1    2    0    0 -0.46712401929E+00  0.35432902687E+00  0.10243331608E+01  0.11802594346E+01  0.00000000000E+00 0. -1.
         11    1    3    3    0    0 -0.22601095121E+02 -0.65015155003E+01 -0.28186042605E+02  0.36708748310E+02  0.51100000000E-03 0. -1.
        -11    1    3    3    0    0 -0.43046164202E+01 -0.72896425179E+01 -0.42913565161E+01  0.94912776576E+01  0.51100000000E-03 0.  1.
        -12    1    3    3    0    0  0.27372835561E+02  0.13436828991E+02  0.31453065960E+02  0.43807714598E+02  0.00000000000E+00 0.  1.
</event>
<event>
 7    1  0.4358868E-015  0.9000767E+02  0.7816164E-02  0.1186339E+00
        -11   -1    0    0    0    0  0.00000000000E+00  0.00000000000E+00  0.45593999997E+02  0.45594000000E+02  0.51100000000E-03 0. -1.
         11   -1    0    0    0    0 -0.00000000000E+00 -0.00000000000E+00 -0.45593999997E+02  0.45594000000E+02  0.51100000000E-03 0.  1.
    9900012    2    1    2    0    0 -0.10790000520E+01 -0.36635499112E+00  0.30777996654E+00  0.90007667166E+02  0.89999927572E+02 0.  0.
         12    1    1    2    0    0  0.10790000520E+01  0.36635499112E+00 -0.30777996654E+00  0.11803328342E+01  0.00000000000E+00 0. -1.
         11    1    3    3    0    0  0.45317370481E+01  0.66579633467E+01 -0.24809362193E+01  0.84273460463E+01  0.51100000000E-03 0. -1.
        -11    1    3    3    0    0  0.35651018791E+02  0.46641473076E+01 -0.90785970617E+01  0.37083289172E+02  0.51100000000E-03 0.  1.
         12    1    3    3    0    0 -0.41261755891E+02 -0.11688465645E+02  0.11867313248E+02  0.44497031947E+02  0.00000000000E+00 0. -1.
</event>
<event>
 7    1  0.4358868E-015  0.9000769E+02  0.7816164E-02  0.1186339E+00
        -11   -1    0    0    0    0  0.00000000000E+00  0.00000000000E+00  0.45593999997E+02  0.45594000000E+02  0.51100000000E-03 0.  1.
         11   -1    0    0    0    0 -0.00000000000E+00 -0.00000000000E+00 -0.45593999997E+02  0.45594000000E+02  0.51100000000E-03 0. -1.
    9900012    2    1    2    0    0 -0.11433706666E+01 -0.13215335435E-02  0.29299227765E+00  0.90007685338E+02  0.89999945984E+02 0.  0.
         12    1    1    2    0    0  0.11433706666E+01  0.13215335436E-02 -0.29299227765E+00  0.11803146624E+01  0.00000000000E+00 0. -1.
         11    1    3    3    0    0  0.11546800855E+02  0.25329183137E+02 -0.31937373641E+02  0.42366165318E+02  0.51100000000E-03 0. -1.
        -11    1    3    3    0    0 -0.83511715352E+01 -0.43229306214E+01  0.59926630883E+00  0.94227870367E+01  0.51100000000E-03 0.  1.
        -12    1    3    3    0    0 -0.43389999867E+01 -0.21007574049E+02  0.31631099610E+02  0.38218732983E+02  0.00000000000E+00 0.  1.
</event>
<event>
 7    1  0.4358868E-015  0.9000774E+02  0.7816164E-02  0.1186339E+00
        -11   -1    0    0    0    0  0.00000000000E+00  0.00000000000E+00  0.45593999997E+02  0.45594000000E+02  0.51100000000E-03 0.  1.
         11   -1    0    0    0    0 -0.00000000000E+00 -0.00000000000E+00 -0.45593999997E+02  0.45594000000E+02  0.51100000000E-03 0. -1.
    9900012    2    1    2    0    0 -0.71073691428E+00  0.63677069038E+00 -0.69453913402E+00  0.90007742197E+02  0.90000003594E+02 0.  0.
         12    1    1    2    0    0  0.71073691428E+00 -0.63677069038E+00  0.69453913402E+00  0.11802578033E+01  0.00000000000E+00 0. -1.
         11    1    3    3    0    0  0.18316510791E+02 -0.29736825429E+02 -0.45105485683E+01  0.35215314890E+02  0.51100000000E-03 0. -1.
        -11    1    3    3    0    0  0.58030363255E+01 -0.63880117481E+01 -0.43828975039E+01  0.96794480979E+01  0.51100000000E-03 0.  1.
        -12    1    3    3    0    0 -0.24830284031E+02  0.36761607868E+02  0.81989069382E+01  0.45112979208E+02  0.00000000000E+00 0.  1.
</event>
<event>
 7    1  0.4358868E-015  0.9000770E+02  0.7816164E-02  0.1186339E+00
        -11   -1    0    0    0    0  0.00000000000E+00  0.00000000000E+00  0.45593999997E+02  0.45594000000E+02  0.51100000000E-03 0. -1.
         11   -1    0    0    0    0 -0.00000000000E+00 -0.00000000000E+00 -0.45593999997E+02  0.45594000000E+02  0.51100000000E-03 0.  1.
    9900012    2    1    2    0    0 -0.58967832079E+00 -0.40010171481E+00 -0.94090872506E+00  0.90007698711E+02  0.89999959534E+02 0.  0.
         12    1    1    2    0    0  0.58967832079E+00  0.40010171481E+00  0.94090872506E+00  0.11803012891E+01  0.00000000000E+00 0. -1.
         11    1    3    3    0    0  0.43362310906E+01 -0.29889067015E+02  0.16973791474E+02  0.34644896080E+02  0.51100000000E-03 0. -1.
        -11    1    3    3    0    0  0.15200763294E+01 -0.10988099883E+02 -0.63220114962E+01  0.12767803284E+02  0.51100000000E-03 0.  1.
        -12    1    3    3    0    0 -0.64459857408E+01  0.40477065183E+02 -0.11592688703E+02  0.42594999347E+02  0.00000000000E+00 0.  1.
</event>
<event>
 7    1  0.4358868E-015  0.9000793E+02  0.7816164E-02  0.1186339E+00
        -11   -1    0    0    0    0  0.00000000000E+00  0.00000000000E+00  0.45593999997E+02  0.45594000000E+02  0.51100000000E-03 0.  1.
         11   -1    0    0    0    0 -0.00000000000E+00 -0.00000000000E+00 -0.45593999997E+02  0.45594000000E+02  0.51100000000E-03 0. -1.
    9900012    2    1    2    0    0  0.27305113227E+00  0.86745642032E-01  0.11447592225E+01  0.90007934152E+02  0.90000198083E+02 0.  0.
         12    1    1    2    0    0 -0.27305113227E+00 -0.86745642032E-01 -0.11447592225E+01  0.11800658477E+01  0.00000000000E+00 0. -1.
         11    1    3    3    0    0  0.15188747490E+02 -0.12307511329E+02  0.79341127803E+00  0.19565336367E+02  0.51100000000E-03 0. -1.
        -11    1    3    3    0    0 -0.17064906921E+02 -0.61306644331E+01  0.30212572979E+02  0.35236283301E+02  0.51100000000E-03 0.  1.
         12    1    3    3    0    0  0.21492105631E+01  0.18524921404E+02 -0.29861225034E+02  0.35206314485E+02  0.00000000000E+00 0. -1.
</event>
<event>
 7    1  0.4358868E-015  0.9000776E+02  0.7816164E-02  0.1186339E+00
        -11   -1    0    0    0    0  0.00000000000E+00  0.00000000000E+00  0.45593999997E+02  0.45594000000E+02  0.51100000000E-03 0.  1.
         11   -1    0    0    0    0 -0.00000000000E+00 -0.00000000000E+00 -0.45593999997E+02  0.45594000000E+02  0.51100000000E-03 0. -1.
    9900012    2    1    2    0    0  0.43052739082E+00  0.53706318455E+00  0.95874257255E+00  0.90007755102E+02  0.90000016670E+02 0.  0.
         12    1    1    2    0    0 -0.43052739082E+00 -0.53706318455E+00 -0.95874257255E+00  0.11802448978E+01  0.00000000000E+00 0. -1.
         11    1    3    3    0    0 -0.36082087034E+02  0.57207947944E+01 -0.25233198322E+01  0.36619825792E+02  0.51100000000E-03 0. -1.
        -11    1    3    3    0    0 -0.69188407578E+01 -0.15333312438E+01  0.66104488795E+01  0.96912071892E+01  0.51100000000E-03 0.  1.
        -12    1    3    3    0    0  0.43431455183E+02 -0.36504003661E+01 -0.31283864747E+01  0.43696722120E+02  0.00000000000E+00 0.  1.
</event>
<event>
 7    1  0.4358868E-015  0.9000775E+02  0.7816164E-02  0.1186339E+00
        -11   -1    0    0    0    0  0.00000000000E+00  0.00000000000E+00  0.45593999997E+02  0.45594000000E+02  0.51100000000E-03 0. -1.
         11   -1    0    0    0    0 -0.00000000000E+00 -0.00000000000E+00 -0.45593999997E+02  0.45594000000E+02  0.51100000000E-03 0.  1.
    9900012    2    1    2    0    0  0.86942713701E+00 -0.44632343949E+00  0.66172087993E+00  0.90007753127E+02  0.90000014668E+02 0.  0.
         12    1    1    2    0    0 -0.86942713701E+00  0.44632343949E+00 -0.66172087993E+00  0.11802468734E+01  0.00000000000E+00 0. -1.
         11    1    3    3    0    0 -0.86819357855E+01 -0.23356063239E+01 -0.43073625075E+01  0.99691743849E+01  0.51100000000E-03 0. -1.
        -11    1    3    3    0    0 -0.28375503871E+01 -0.88827687350E+00 -0.36524836399E+02  0.36645660074E+02  0.51100000000E-03 0.  1.
         12    1    3    3    0    0  0.12388913310E+02  0.27775597579E+01  0.41493919787E+02  0.43392918668E+02  0.00000000000E+00 0. -1.
</event>
<event>
 7    1  0.4358868E-015  0.9000774E+02  0.7816164E-02  0.1186339E+00
        -11   -1    0    0    0    0  0.00000000000E+00  0.00000000000E+00  0.45593999997E+02  0.45594000000E+02  0.51100000000E-03 0.  1.
         11   -1    0    0    0    0 -0.00000000000E+00 -0.00000000000E+00 -0.45593999997E+02  0.45594000000E+02  0.51100000000E-03 0. -1.
    9900012    2    1    2    0    0  0.85472725908E+00  0.43798206927E+00  0.68602150026E+00  0.90007740503E+02  0.90000001878E+02 0.  0.
         12    1    1    2    0    0 -0.85472725908E+00 -0.43798206927E+00 -0.68602150026E+00  0.11802594966E+01  0.00000000000E+00 0. -1.
         11    1    3    3    0    0  0.22855060424E+02  0.33683087507E+02 -0.10006436332E+02  0.41916976743E+02  0.51100000000E-03 0. -1.
        -11    1    3    3    0    0 -0.65666077580E+01  0.12812073245E+01 -0.36767044637E+01  0.76341329325E+01  0.51100000000E-03 0.  1.
        -12    1    3    3    0    0 -0.15433725407E+02 -0.34526312762E+02  0.14369162296E+02  0.40456630828E+02  0.00000000000E+00 0.  1.
</event>
<event>
 7    1  0.4358868E-015  0.9000768E+02  0.7816164E-02  0.1186339E+00
        -11   -1    0    0    0    0  0.00000000000E+00  0.00000000000E+00  0.45593999997E+02  0.45594000000E+02  0.51100000000E-03 0.  1.
         11   -1    0    0    0    0 -0.00000000000E+00 -0.00000000000E+00 -0.45593999997E+02  0.45594000000E+02  0.51100000000E-03 0. -1.
    9900012    2    1    2    0    0 -0.10305974728E+01 -0.53005204498E+00  0.22375207983E+00  0.90007681689E+02  0.89999942288E+02 0.  0.
         12    1    1    2    0    0  0.10305974728E+01  0.53005204498E+00 -0.22375207983E+00  0.11803183107E+01  0.00000000000E+00 0. -1.
         11    1    3    3    0    0  0.26296353475E+02  0.18057835606E+02  0.13619539858E+02  0.34685378751E+02  0.51100000000E-03 0. -1.
        -11    1    3    3    0    0  0.10799141848E+01  0.60387818907E+01  0.94964195761E+01  0.11305533441E+02  0.51100000000E-03 0.  1.
        -12    1    3    3    0    0 -0.28406865133E+02 -0.24626669542E+02 -0.22892207354E+02  0.44016769497E+02  0.00000000000E+00 0.  1.
</event>
<event>
 7    1  0.4358868E-015  0.9000790E+02  0.7816164E-02  0.1186339E+00
        -11   -1    0    0    0    0  0.00000000000E+00  0.00000000000E+00  0.45593999997E+02  0.45594000000E+02  0.51100000000E-03 0. -1.
         11   -1    0    0    0    0 -0.00000000000E+00 -0.00000000000E+00 -0.45593999997E+02  0.45594000000E+02  0.51100000000E-03 0.  1.
    9900012    2    1    2    0    0 -0.16436877331E+00  0.23977080718E+00 -0.11437316226E+01  0.90007902903E+02  0.90000166421E+02 0.  0.
         12    1    1    2    0    0  0.16436877331E+00 -0.23977080718E+00  0.11437316226E+01  0.11800970969E+01  0.00000000000E+00 0. -1.
         11    1    3    3    0    0  0.11491477524E+01  0.31324558288E+02  0.20722965315E+02  0.37576452523E+02  0.51100000000E-03 0. -1.
        -11    1    3    3    0    0 -0.96866859848E+01  0.47905408523E+01 -0.45599747272E+01  0.11729217229E+02  0.51100000000E-03 0.  1.
        -12    1    3    3    0    0  0.83731694591E+01 -0.35875328333E+02 -0.17306722210E+02  0.40702233151E+02  0.00000000000E+00 0.  1.
</event>
<event>
 7    1  0.4358868E-015  0.9000775E+02  0.7816164E-02  0.1186339E+00
        -11   -1    0    0    0    0  0.00000000000E+00  0.00000000000E+00  0.45593999997E+02  0.45594000000E+02  0.51100000000E-03 0. -1.
         11   -1    0    0    0    0 -0.00000000000E+00 -0.00000000000E+00 -0.45593999997E+02  0.45594000000E+02  0.51100000000E-03 0.  1.
    9900012    2    1    2    0    0 -0.18356590878E-01  0.72261872923E+00 -0.93298956681E+00  0.90007752431E+02  0.90000013963E+02 0.  0.
         12    1    1    2    0    0  0.18356590878E-01 -0.72261872923E+00  0.93298956681E+00  0.11802475690E+01  0.00000000000E+00 0. -1.
         11    1    3    3    0    0  0.22160137126E+02 -0.60963315358E+01  0.27198574501E+02  0.35608979075E+02  0.51100000000E-03 0. -1.
        -11    1    3    3    0    0  0.13754927241E+01 -0.98965148277E+01  0.43811732741E+01  0.10909980087E+02  0.51100000000E-03 0.  1.
        -12    1    3    3    0    0 -0.23553986441E+02  0.16715465093E+02 -0.32512737342E+02  0.43488793269E+02  0.00000000000E+00 0.  1.
</event>
<event>
 7    1  0.4358868E-015  0.9000773E+02  0.7816164E-02  0.1186339E+00
        -11   -1    0    0    0    0  0.00000000000E+00  0.00000000000E+00  0.45593999997E+02  0.45594000000E+02  0.51100000000E-03 0.  1.
         11   -1    0    0    0    0 -0.00000000000E+00 -0.00000000000E+00 -0.45593999997E+02  0.45594000000E+02  0.51100000000E-03 0. -1.
    9900012    2    1    2    0    0  0.53433270646E+00 -0.10443714874E+01  0.12963595977E+00  0.90007733620E+02  0.89999994904E+02 0.  0.
         12    1    1    2    0    0 -0.53433270646E+00  0.10443714874E+01 -0.12963595977E+00  0.11802663797E+01  0.00000000000E+00 0. -1.
         11    1    3    3    0    0  0.15474455322E+02  0.33571458044E+02 -0.11246127204E+02  0.38639059772E+02  0.51100000000E-03 0. -1.
        -11    1    3    3    0    0  0.44227569070E+01  0.36077829168E+01  0.58373659102E+01  0.81640502977E+01  0.51100000000E-03 0.  1.
        -12    1    3    3    0    0 -0.19362879522E+02 -0.38223612448E+02  0.55383972540E+01  0.43204623551E+02  0.00000000000E+00 0.  1.
</event>
<event>
 7    1  0.4358868E-015  0.9000768E+02  0.7816164E-02  0.1186339E+00
        -11   -1    0    0    0    0  0.00000000000E+00  0.00000000000E+00  0.45593999997E+02  0.45594000000E+02  0.51100000000E-03 0.  1.
         11   -1    0    0    0    0 -0.00000000000E+00 -0.00000000000E+00 -0.45593999997E+02  0.45594000000E+02  0.51100000000E-03 0. -1.
    9900012    2    1    2    0    0 -0.87861054870E+00 -0.33598496953E+00  0.71296176643E+00  0.90007679333E+02  0.89999939900E+02 0.  0.
         12    1    1    2    0    0  0.87861054870E+00  0.33598496953E+00 -0.71296176643E+00  0.11803206668E+01  0.00000000000E+00 0. -1.
         11    1    3    3    0    0 -0.14644803357E+01  0.10416047332E+02  0.36788816993E+00  0.10524926919E+02  0.51100000000E-03 0. -1.
        -11    1    3    3    0    0  0.38010301681E+02 -0.16785890894E+02  0.11252987795E+01  0.41566999706E+02  0.51100000000E-03 0.  1.
         12    1    3    3    0    0 -0.37424431894E+02  0.60338585922E+01 -0.78022518300E+00  0.37915752708E+02  0.00000000000E+00 0. -1.
</event>
<event>
 7    1  0.4358868E-015  0.9000771E+02  0.7816164E-02  0.1186339E+00
        -11   -1    0    0    0    0  0.00000000000E+00  0.00000000000E+00  0.45593999997E+02  0.45594000000E+02  0.51100000000E-03 0. -1.
         11   -1    0    0    0    0 -0.00000000000E+00 -0.00000000000E+00 -0.45593999997E+02  0.45594000000E+02  0.51100000000E-03 0.  1.
    9900012    2    1    2    0    0  0.61275509560E-01  0.10312552817E+01 -0.57083542248E+00  0.90007705450E+02  0.89999966362E+02 0.  0.
         12    1    1    2    0    0 -0.61275509560E-01 -0.10312552817E+01  0.57083542248E+00  0.11802945495E+01  0.00000000000E+00 0. -1.
         11    1    3    3    0    0 -0.26918878880E+02  0.17263604651E+02  0.29608922378E+01  0.32115805592E+02  0.51100000000E-03 0. -1.
        -11    1    3    3    0    0 -0.80746379785E+01  0.27278659225E+01 -0.14265754662E+02  0.16617845447E+02  0.51100000000E-03 0.  1.
        -12    1    3    3    0    0  0.35054792368E+02 -0.18960215292E+02  0.10734027001E+02  0.41274054411E+02  0.00000000000E+00 0.  1.
</event>
<event>
 7    1  0.4358868E-015  0.9000775E+02  0.7816164E-02  0.1186339E+00
        -11   -1    0    0    0    0  0.00000000000E+00  0.00000000000E+00  0.45593999997E+02  0.45594000000E+02  0.51100000000E-03 0.  1.
         11   -1    0    0    0    0 -0.00000000000E+00 -0.00000000000E+00 -0.45593999997E+02  0.45594000000E+02  0.51100000000E-03 0. -1.
    9900012    2    1    2    0    0  0.11124681201E+01 -0.35652896095E+00 -0.16821076769E+00  0.90007748721E+02  0.90000010205E+02 0.  0.
         12    1    1    2    0    0 -0.11124681201E+01  0.35652896095E+00  0.16821076769E+00  0.11802512786E+01  0.00000000000E+00 0. -1.
         11    1    3    3    0    0  0.88506480091E+01  0.44088731306E+01 -0.70269159114E+01  0.12130526780E+02  0.51100000000E-03 0. -1.
        -11    1    3    3    0    0  0.16178954594E+02 -0.84598817608E+01  0.35778411910E+02  0.40167436192E+02  0.51100000000E-03 0.  1.
         12    1    3    3    0    0 -0.23917134483E+02  0.36944796692E+01 -0.28919706766E+02  0.37709785750E+02  0.00000000000E+00 0. -1.
</event>
<event>
 7    1  0.4358868E-015  0.9000781E+02  0.7816164E-02  0.1186339E+00
        -11   -1    0    0    0    0  0.00000000000E+00  0.00000000000E+00  0.45593999997E+02  0.45594000000E+02  0.51100000000E-03 0.  1.
         11   -1    0    0    0    0 -0.00000000000E+00 -0.00000000000E+00 -0.45593999997E+02  0.45594000000E+02  0.51100000000E-03 0. -1.
    9900012    2    1    2    0    0 -0.49551371233E+00  0.76453202123E+00 -0.75020983330E+00  0.90007806014E+02  0.90000068253E+02 0.  0.
         12    1    1    2    0    0  0.49551371233E+00 -0.76453202123E+00  0.75020983330E+00  0.11801939860E+01  0.00000000000E+00 0. -1.
         11    1    3    3    0    0  0.10994402892E+00  0.43361069038E+01  0.90350651923E+01  0.10022290859E+02  0.51100000000E-03 0. -1.
        -11    1    3    3    0    0  0.21185222118E+02  0.12141845033E+02  0.25717925318E+02  0.35463357426E+02  0.51100000000E-03 0.  1.
         12    1    3    3    0    0 -0.21790679859E+02 -0.15713419915E+02 -0.35503200344E+02  0.44522157729E+02  0.00000000000E+00 0. -1.
</event>
<event>
 7    1  0.4358868E-015  0.9000769E+02  0.7816164E-02  0.1186339E+00
        -11   -1    0    0    0    0  0.00000000000E+00  0.00000000000E+00  0.45593999997E+02  0.45594000000E+02  0.51100000000E-03 0.  1.
         11   -1    0    0    0    0 -0.00000000000E+00 -0.00000000000E+00 -0.45593999997E+02  0.45594000000E+02  0.51100000000E-03 0. -1.
    9900012    2    1    2    0    0  0.75423903094E+00  0.75215238569E+00 -0.50845411316E+00  0.90007688468E+02  0.89999949156E+02 0.  0.
         12    1    1    2    0    0 -0.75423903094E+00 -0.75215238569E+00  0.50845411316E+00  0.11803115319E+01  0.00000000000E+00 0. -1.
         11    1    3    3    0    0 -0.90203635513E+01  0.23657350719E+00  0.30980314644E+00  0.90287819706E+01  0.51100000000E-03 0. -1.
        -11    1    3    3    0    0 -0.17114776288E+02 -0.17537572614E+02 -0.29056264337E+02  0.38009847646E+02  0.51100000000E-03 0.  1.
         12    1    3    3    0    0  0.26889378871E+02  0.18053151492E+02  0.28238007078E+02  0.42969058851E+02  0.00000000000E+00 0. -1.
</event>
<event>
 7    1  0.4358868E-015  0.9000757E+02  0.7816164E-02  0.1186339E+00
        -11   -1    0    0    0    0  0.00000000000E+00  0.00000000000E+00  0.45593999997E+02  0.45594000000E+02  0.51100000000E-03 0.  1.
         11   -1    0    0    0    0 -0.00000000000E+00 -0.00000000000E+00 -0.45593999997E+02  0.45594000000E+02  0.51100000000E-03 0. -1.
    9900012    2    1    2    0    0 -0.10965087494E+01 -0.18114218650E+00  0.39783673554E+00  0.90007568724E+02  0.89999827831E+02 0.  0.
         12    1    1    2    0    0  0.10965087494E+01  0.18114218650E+00 -0.39783673554E+00  0.11804312760E+01  0.00000000000E+00 0. -1.
         11    1    3    3    0    0 -0.53375252738E+01  0.51978146973E+01 -0.16840862322E-01  0.74502843940E+01  0.51100000000E-03 0. -1.
        -11    1    3    3    0    0 -0.17499448572E+02  0.59573670112E+01  0.35341200894E+02  0.39883848898E+02  0.51100000000E-03 0.  1.
         12    1    3    3    0    0  0.21740465097E+02 -0.11336323895E+02 -0.34926523296E+02  0.42673435432E+02  0.00000000000E+00 0. -1.
</event>
<event>
 7    1  0.4358868E-015  0.9000779E+02  0.7816164E-02  0.1186339E+00
        -11   -1    0    0    0    0  0.00000000000E+00  0.00000000000E+00  0.45593999997E+02  0.45594000000E+02  0.51100000000E-03 0. -1.
         11   -1    0    0    0    0 -0.00000000000E+00 -0.00000000000E+00 -0.45593999997E+02  0.45594000000E+02  0.51100000000E-03 0.  1.
    9900012    2    1    2    0    0 -0.53604644490E+00  0.42222363586E+00 -0.96295026951E+00  0.90007791624E+02  0.90000053673E+02 0.  0.
         12    1    1    2    0    0  0.53604644490E+00 -0.42222363586E+00  0.96295026951E+00  0.11802083762E+01  0.00000000000E+00 0. -1.
         11    1    3    3    0    0 -0.10085986847E+02 -0.29034934163E+01  0.46082314004E+00  0.10505701448E+02  0.51100000000E-03 0. -1.
        -11    1    3    3    0    0 -0.31485732963E+02  0.11468593835E+02 -0.13239033877E+02  0.36029877088E+02  0.51100000000E-03 0.  1.
         12    1    3    3    0    0  0.41035673364E+02 -0.81428767834E+01  0.11815260467E+02  0.43472213087E+02  0.00000000000E+00 0. -1.
</event>
<event>
 7    1  0.4358868E-015  0.9000795E+02  0.7816164E-02  0.1186339E+00
        -11   -1    0    0    0    0  0.00000000000E+00  0.00000000000E+00  0.45593999997E+02  0.45594000000E+02  0.51100000000E-03 0.  1.
         11   -1    0    0    0    0 -0.00000000000E+00 -0.00000000000E+00 -0.45593999997E+02  0.45594000000E+02  0.51100000000E-03 0. -1.
    9900012    2    1    2    0    0 -0.55322917025E+00 -0.18541437708E-01  0.10421706558E+01  0.90007946622E+02  0.90000210717E+02 0.  0.
         12    1    1    2    0    0  0.55322917025E+00  0.18541437708E-01 -0.10421706558E+01  0.11800533783E+01  0.00000000000E+00 0. -1.
         11    1    3    3    0    0  0.64833684384E+01 -0.37794206962E+01  0.75793772064E+01  0.10666069857E+02  0.51100000000E-03 0. -1.
        -11    1    3    3    0    0  0.58645476002E+01  0.60596648932E+01  0.34888360780E+02  0.35893037979E+02  0.51100000000E-03 0.  1.
         12    1    3    3    0    0 -0.12901145209E+02 -0.22987856347E+01 -0.41425567331E+02  0.43448838785E+02  0.00000000000E+00 0. -1.
</event>
<event>
 7    1  0.4358868E-015  0.9000802E+02  0.7816164E-02  0.1186338E+00
        -11   -1    0    0    0    0  0.00000000000E+00  0.00000000000E+00  0.45593999997E+02  0.45594000000E+02  0.51100000000E-03 0. -1.
         11   -1    0    0    0    0 -0.00000000000E+00 -0.00000000000E+00 -0.45593999997E+02  0.45594000000E+02  0.51100000000E-03 0.  1.
    9900012    2    1    2    0    0 -0.27647148021E+00 -0.21976608706E-01 -0.11469233377E+01  0.90008020088E+02  0.90000285152E+02 0.  0.
         12    1    1    2    0    0  0.27647148021E+00  0.21976608706E-01  0.11469233377E+01  0.11799799122E+01  0.00000000000E+00 0. -1.
         11    1    3    3    0    0 -0.36056923491E+02  0.22110151867E+01  0.12950607196E+02  0.38375884964E+02  0.51100000000E-03 0. -1.
        -11    1    3    3    0    0 -0.44714026706E+01 -0.68900117719E+01 -0.63397149106E+01  0.10375822351E+02  0.51100000000E-03 0.  1.
        -12    1    3    3    0    0  0.40251854681E+02  0.46570199765E+01 -0.77578156233E+01  0.41256312772E+02  0.00000000000E+00 0.  1.
</event>
<event>
 7    1  0.4358868E-015  0.9000775E+02  0.7816164E-02  0.1186339E+00
        -11   -1    0    0    0    0  0.00000000000E+00  0.00000000000E+00  0.45593999997E+02  0.45594000000E+02  0.51100000000E-03 0. -1.
         11   -1    0    0    0    0 -0.00000000000E+00 -0.00000000000E+00 -0.45593999997E+02  0.45594000000E+02  0.51100000000E-03 0.  1.
    9900012    2    1    2    0    0  0.10394133203E+00  0.41061122119E+00 -0.11016265622E+01  0.90007751527E+02  0.90000013047E+02 0.  0.
         12    1    1    2    0    0 -0.10394133203E+00 -0.41061122119E+00  0.11016265622E+01  0.11802484730E+01  0.00000000000E+00 0. -1.
         11    1    3    3    0    0 -0.32632278152E+01 -0.30204633270E+01 -0.10147528826E+02  0.11078997970E+02  0.51100000000E-03 0. -1.
        -11    1    3    3    0    0 -0.21301766813E+01  0.39974825862E+02 -0.27794298125E+01  0.40127915293E+02  0.51100000000E-03 0.  1.
         12    1    3    3    0    0  0.54973458285E+01 -0.36543751314E+02  0.11825332077E+02  0.38800838264E+02  0.00000000000E+00 0. -1.
</event>
<event>
 7    1  0.4358868E-015  0.9000775E+02  0.7816164E-02  0.1186339E+00
        -11   -1    0    0    0    0  0.00000000000E+00  0.00000000000E+00  0.45593999997E+02  0.45594000000E+02  0.51100000000E-03 0.  1.
         11   -1    0    0    0    0 -0.00000000000E+00 -0.00000000000E+00 -0.45593999997E+02  0.45594000000E+02  0.51100000000E-03 0. -1.
    9900012    2    1    2    0    0 -0.27845292074E+00 -0.27288860452E+00  0.11139931662E+01  0.90007752147E+02  0.90000013676E+02 0.  0.
         12    1    1    2    0    0  0.27845292074E+00  0.27288860452E+00 -0.11139931662E+01  0.11802478528E+01  0.00000000000E+00 0. -1.
         11    1    3    3    0    0 -0.77330798795E+01 -0.50788639715E+01 -0.35865370384E+01  0.99226323046E+01  0.51100000000E-03 0. -1.
        -11    1    3    3    0    0  0.41888746286E+02 -0.87136850201E+01 -0.71323349692E-01  0.42785516934E+02  0.51100000000E-03 0.  1.
         12    1    3    3    0    0 -0.34434119327E+02  0.13519660387E+02  0.47718535543E+01  0.37299602909E+02  0.00000000000E+00 0. -1.
</event>
<event>
 7    1  0.4358868E-015  0.9000786E+02  0.7816164E-02  0.1186339E+00
        -11   -1    0    0    0    0  0.00000000000E+00  0.00000000000E+00  0.45593999997E+02  0.45594000000E+02  0.51100000000E-03 0.  1.
         11   -1    0    0    0    0 -0.00000000000E+00 -0.00000000000E+00 -0.45593999997E+02  0.45594000000E+02  0.51100000000E-03 0. -1.
    9900012    2    1    2    0    0 -0.10122966827E+01 -0.28653954338E+00  0.53467335520E+00  0.90007862262E+02  0.90000125244E+02 0.  0.
         12    1    1    2    0    0  0.10122966827E+01  0.28653954338E+00 -0.53467335520E+00  0.11801377380E+01  0.00000000000E+00 0. -1.
         11    1    3    3    0    0  0.62498294698E+01 -0.12701258329E+02 -0.17712894391E+02  0.22674411999E+02  0.51100000000E-03 0. -1.
        -11    1    3    3    0    0  0.18488413921E+02 -0.15194568581E+02 -0.28241139971E+01  0.24097136424E+02  0.51100000000E-03 0.  1.
        -12    1    3    3    0    0 -0.25750540074E+02  0.27609287366E+02  0.21071681743E+02  0.43236313840E+02  0.00000000000E+00 0.  1.
</event>
<event>
 7    1  0.4358868E-015  0.9000773E+02  0.7816164E-02  0.1186339E+00
        -11   -1    0    0    0    0  0.00000000000E+00  0.00000000000E+00  0.45593999997E+02  0.45594000000E+02  0.51100000000E-03 0. -1.
         11   -1    0    0    0    0 -0.00000000000E+00 -0.00000000000E+00 -0.45593999997E+02  0.45594000000E+02  0.51100000000E-03 0.  1.
    9900012    2    1    2    0    0  0.11266336949E+01  0.28113890960E+00  0.21141126758E+00  0.90007729991E+02  0.89999991227E+02 0.  0.
         12    1    1    2    0    0 -0.11266336949E+01 -0.28113890960E+00 -0.21141126758E+00  0.11802700085E+01  0.00000000000E+00 0. -1.
         11    1    3    3    0    0  0.54456295104E+00 -0.54914731107E+01 -0.85135513377E+01  0.10145609019E+02  0.51100000000E-03 0. -1.
        -11    1    3    3    0    0  0.24718069012E+02 -0.24495771582E+02 -0.10889004691E+02  0.36463628241E+02  0.51100000000E-03 0.  1.
         12    1    3    3    0    0 -0.24135998268E+02  0.30268383602E+02  0.19613967296E+02  0.43398492731E+02  0.00000000000E+00 0. -1.
</event>
<event>
 7    1  0.4358868E-015  0.9000815E+02  0.7816164E-02  0.1186338E+00
        -11   -1    0    0    0    0  0.00000000000E+00  0.00000000000E+00  0.45593999997E+02  0.45594000000E+02  0.51100000000E-03 0. -1.
         11   -1    0    0    0    0 -0.00000000000E+00 -0.00000000000E+00 -0.45593999997E+02  0.45594000000E+02  0.51100000000E-03 0.  1.
    9900012    2    1    2    0    0 -0.77648189000E+00 -0.60951408084E-01 -0.88623420435E+00  0.90008148202E+02  0.90000414958E+02 0.  0.
         12    1    1    2    0    0  0.77648189000E+00  0.60951408084E-01  0.88623420435E+00  0.11798517977E+01  0.00000000000E+00 0. -1.
         11    1    3    3    0    0 -0.54559299500E+01 -0.90273377834E+01  0.41483933256E+01  0.11334423961E+02  0.51100000000E-03 0. -1.
        -11    1    3    3    0    0  0.19816538835E+02 -0.17480226505E+01 -0.36833327669E+02  0.41862212340E+02  0.51100000000E-03 0.  1.
         12    1    3    3    0    0 -0.15137090775E+02  0.10714409026E+02  0.31798700139E+02  0.36811511901E+02  0.00000000000E+00 0. -1.
</event>
<event>
 7    1  0.5378205E-015  0.9000780E+02  0.7816164E-02  0.1186339E+00
        -11   -1    0    0    0    0  0.00000000000E+00  0.00000000000E+00  0.45593999997E+02  0.45594000000E+02  0.51100000000E-03 0. -1.
         11   -1    0    0    0    0 -0.00000000000E+00 -0.00000000000E+00 -0.45593999997E+02  0.45594000000E+02  0.51100000000E-03 0.  1.
    9900012    2    1    2    0    0  0.85360341737E-01 -0.95603330545E+00 -0.68671997415E+00  0.90007800698E+02  0.90000062867E+02 0.  0.
         12    1    1    2    0    0 -0.85360341737E-01  0.95603330545E+00  0.68671997415E+00  0.11801993018E+01  0.00000000000E+00 0. -1.
         11    1    3    3    0    0 -0.13581170282E+02 -0.44578649367E+01  0.38744167940E+02  0.41296867867E+02  0.51100000000E-03 0. -1.
        -11    1    3    3    0    0 -0.40190382186E+01 -0.64392043757E+01 -0.63123280797E+01  0.98722594801E+01  0.51100000000E-03 0.  1.
        -12    1    3    3    0    0  0.17685568842E+02  0.99410360070E+01 -0.33118559834E+02  0.38838673351E+02  0.00000000000E+00 0.  1.
</event>
<event>
 7    1  0.4358868E-015  0.9000769E+02  0.7816164E-02  0.1186339E+00
        -11   -1    0    0    0    0  0.00000000000E+00  0.00000000000E+00  0.45593999997E+02  0.45594000000E+02  0.51100000000E-03 0.  1.
         11   -1    0    0    0    0 -0.00000000000E+00 -0.00000000000E+00 -0.45593999997E+02  0.45594000000E+02  0.51100000000E-03 0. -1.
    9900012    2    1    2    0    0 -0.99525353797E+00 -0.10520249077E+00  0.62572825118E+00  0.90007689442E+02  0.89999950143E+02 0.  0.
         12    1    1    2    0    0  0.99525353797E+00  0.10520249077E+00 -0.62572825118E+00  0.11803105580E+01  0.00000000000E+00 0. -1.
         11    1    3    3    0    0 -0.19999464340E+02  0.24806142346E+02 -0.18190890405E+02  0.36691031138E+02  0.51100000000E-03 0. -1.
        -11    1    3    3    0    0 -0.14796483841E+01  0.34480640704E+01 -0.82642898797E+01  0.90761772047E+01  0.51100000000E-03 0.  1.
        -12    1    3    3    0    0  0.20483859186E+02 -0.28359408907E+02  0.27080908536E+02  0.44240481099E+02  0.00000000000E+00 0.  1.
</event>
<event>
 7    1  0.4358868E-015  0.9000780E+02  0.7816164E-02  0.1186339E+00
        -11   -1    0    0    0    0  0.00000000000E+00  0.00000000000E+00  0.45593999997E+02  0.45594000000E+02  0.51100000000E-03 0.  1.
         11   -1    0    0    0    0 -0.00000000000E+00 -0.00000000000E+00 -0.45593999997E+02  0.45594000000E+02  0.51100000000E-03 0. -1.
    9900012    2    1    2    0    0 -0.99357715051E+00  0.62232982099E+00  0.13556176432E+00  0.90007802156E+02  0.90000064344E+02 0.  0.
         12    1    1    2    0    0  0.99357715051E+00 -0.62232982099E+00 -0.13556176432E+00  0.11801978445E+01  0.00000000000E+00 0. -1.
         11    1    3    3    0    0  0.56400853116E+01 -0.37296347462E+01  0.30818762004E+01  0.74309285314E+01  0.51100000000E-03 0. -1.
        -11    1    3    3    0    0  0.28694790732E+02  0.22700259586E+02  0.14180428948E+02  0.39239997016E+02  0.51100000000E-03 0.  1.
         12    1    3    3    0    0 -0.35328453194E+02 -0.18348295019E+02 -0.17126743384E+02  0.43336876608E+02  0.00000000000E+00 0. -1.
</event>
<event>
 7    1  0.4358868E-015  0.9000775E+02  0.7816164E-02  0.1186339E+00
        -11   -1    0    0    0    0  0.00000000000E+00  0.00000000000E+00  0.45593999997E+02  0.45594000000E+02  0.51100000000E-03 0.  1.
         11   -1    0    0    0    0 -0.00000000000E+00 -0.00000000000E+00 -0.45593999997E+02  0.45594000000E+02  0.51100000000E-03 0. -1.
    9900012    2    1    2    0    0 -0.81892513039E+00 -0.84576809263E+00 -0.83827592443E-01  0.90007750407E+02  0.90000011913E+02 0.  0.
         12    1    1    2    0    0  0.81892513039E+00  0.84576809263E+00  0.83827592443E-01  0.11802495926E+01  0.00000000000E+00 0. -1.
         11    1    3    3    0    0 -0.61373175848E+01  0.52032761488E+00  0.82414846397E+01  0.10288803492E+02  0.51100000000E-03 0. -1.
        -11    1    3    3    0    0 -0.34402149224E+02 -0.14442922187E+02 -0.64083988144E+01  0.37857277347E+02  0.51100000000E-03 0.  1.
         12    1    3    3    0    0  0.39720541678E+02  0.13076826479E+02 -0.19169134177E+01  0.41861669568E+02  0.00000000000E+00 0. -1.
</event>
<event>
 7    1  0.4358868E-015  0.9000773E+02  0.7816164E-02  0.1186339E+00
        -11   -1    0    0    0    0  0.00000000000E+00  0.00000000000E+00  0.45593999997E+02  0.45594000000E+02  0.51100000000E-03 0.  1.
         11   -1    0    0    0    0 -0.00000000000E+00 -0.00000000000E+00 -0.45593999997E+02  0.45594000000E+02  0.51100000000E-03 0. -1.
    9900012    2    1    2    0    0  0.92366806527E+00 -0.20648415621E+00 -0.70515651835E+00  0.90007727101E+02  0.89999988298E+02 0.  0.
         12    1    1    2    0    0 -0.92366806527E+00  0.20648415621E+00  0.70515651835E+00  0.11802728993E+01  0.00000000000E+00 0. -1.
         11    1    3    3    0    0 -0.99583704054E+01  0.33210857867E+00  0.21051063188E+01  0.10183855366E+02  0.51100000000E-03 0. -1.
        -11    1    3    3    0    0 -0.20637989770E+02  0.25377642619E+02  0.14141953540E+02  0.35636304758E+02  0.51100000000E-03 0.  1.
         12    1    3    3    0    0  0.31520028241E+02 -0.25916235354E+02 -0.16952216377E+02  0.44187566977E+02  0.00000000000E+00 0. -1.
</event>
<event>
 7    1  0.4358868E-015  0.9000774E+02  0.7816164E-02  0.1186339E+00
        -11   -1    0    0    0    0  0.00000000000E+00  0.00000000000E+00  0.45593999997E+02  0.45594000000E+02  0.51100000000E-03 0.  1.
         11   -1    0    0    0    0 -0.00000000000E+00 -0.00000000000E+00 -0.45593999997E+02  0.45594000000E+02  0.51100000000E-03 0. -1.
    9900012    2    1    2    0    0 -0.32813370377E+00  0.85804763310E+00  0.74100291475E+00  0.90007744609E+02  0.90000006038E+02 0.  0.
         12    1    1    2    0    0  0.32813370377E+00 -0.85804763310E+00 -0.74100291475E+00  0.11802553910E+01  0.00000000000E+00 0. -1.
         11    1    3    3    0    0  0.28288128012E+02 -0.20937683695E+02  0.21102291961E+02  0.41035490873E+02  0.51100000000E-03 0. -1.
        -11    1    3    3    0    0 -0.95145353481E+01  0.24067196449E+01  0.56496299042E+01  0.11324177703E+02  0.51100000000E-03 0.  1.
        -12    1    3    3    0    0 -0.19101726368E+02  0.19389011683E+02 -0.26010918951E+02  0.37648076032E+02  0.00000000000E+00 0.  1.
</event>
<event>
 7    1  0.4358868E-015  0.9000775E+02  0.7816164E-02  0.1186339E+00
        -11   -1    0    0    0    0  0.00000000000E+00  0.00000000000E+00  0.45593999997E+02  0.45594000000E+02  0.51100000000E-03 0. -1.
         11   -1    0    0    0    0 -0.00000000000E+00 -0.00000000000E+00 -0.45593999997E+02  0.45594000000E+02  0.51100000000E-03 0.  1.
    9900012    2    1    2    0    0  0.77998561275E+00 -0.44024651987E+00 -0.76863251428E+00  0.90007749816E+02  0.90000011314E+02 0.  0.
         12    1    1    2    0    0 -0.77998561275E+00  0.44024651987E+00  0.76863251428E+00  0.11802501838E+01  0.00000000000E+00 0. -1.
         11    1    3    3    0    0 -0.26059316298E+01  0.38848972971E+02  0.91632059564E+01  0.39999974052E+02  0.51100000000E-03 0. -1.
        -11    1    3    3    0    0 -0.10153226462E+02 -0.35919230905E+01 -0.32441784430E+01  0.11247871492E+02  0.51100000000E-03 0.  1.
        -12    1    3    3    0    0  0.13539143704E+02 -0.35697296400E+02 -0.66876600277E+01  0.38759904272E+02  0.00000000000E+00 0.  1.
</event>
<event>
 7    1  0.4358868E-015  0.9000769E+02  0.7816164E-02  0.1186339E+00
        -11   -1    0    0    0    0  0.00000000000E+00  0.00000000000E+00  0.45593999997E+02  0.45594000000E+02  0.51100000000E-03 0.  1.
         11   -1    0    0    0    0 -0.00000000000E+00 -0.00000000000E+00 -0.45593999997E+02  0.45594000000E+02  0.51100000000E-03 0. -1.
    9900012    2    1    2    0    0 -0.11145388441E+01  0.29197581276E+00  0.25629922285E+00  0.90007688176E+02  0.89999948860E+02 0.  0.
         12    1    1    2    0    0  0.11145388441E+01 -0.29197581276E+00 -0.25629922285E+00  0.11803118240E+01  0.00000000000E+00 0. -1.
         11    1    3    3    0    0  0.69502413077E+01  0.32484794493E+02 -0.21259634772E+02  0.39440332128E+02  0.51100000000E-03 0. -1.
        -11    1    3    3    0    0 -0.93050701818E+01  0.89912287797E-01 -0.32538145878E+01  0.98579777308E+01  0.51100000000E-03 0.  1.
        -12    1    3    3    0    0  0.12402900300E+01 -0.32282730968E+02  0.24769748582E+02  0.40709378317E+02  0.00000000000E+00 0.  1.
</event>
<event>
 7    1  0.4358868E-015  0.9000740E+02  0.7816164E-02  0.1186340E+00
        -11   -1    0    0    0    0  0.00000000000E+00  0.00000000000E+00  0.45593999997E+02  0.45594000000E+02  0.51100000000E-03 0. -1.
         11   -1    0    0    0    0 -0.00000000000E+00 -0.00000000000E+00 -0.45593999997E+02  0.45594000000E+02  0.51100000000E-03 0.  1.
    9900012    2    1    2    0    0  0.11348915990E+01 -0.32483539518E+00 -0.17585146143E-01  0.90007404298E+02  0.89999661234E+02 0.  0.
         12    1    1    2    0    0 -0.11348915990E+01  0.32483539518E+00  0.17585146143E-01  0.11805957025E+01  0.00000000000E+00 0. -1.
         11    1    3    3    0    0  0.15728625638E+02  0.19074334551E+01  0.10750509307E+02  0.19146838315E+02  0.51100000000E-03 0. -1.
        -11    1    3    3    0    0  0.24036662191E+02  0.14207674041E+01 -0.19621117569E+02  0.31060714161E+02  0.51100000000E-03 0.  1.
         12    1    3    3    0    0 -0.38630396229E+02 -0.36530362543E+01  0.88530231158E+01  0.39799851821E+02  0.00000000000E+00 0. -1.
</event>
<event>
 7    1  0.4358868E-015  0.9000723E+02  0.7816164E-02  0.1186340E+00
        -11   -1    0    0    0    0  0.00000000000E+00  0.00000000000E+00  0.45593999997E+02  0.45594000000E+02  0.51100000000E-03 0.  1.
         11   -1    0    0    0    0 -0.00000000000E+00 -0.00000000000E+00 -0.45593999997E+02  0.45594000000E+02  0.51100000000E-03 0. -1.
    9900012    2    1    2    0    0 -0.44474008739E+00  0.69594913540E+00  0.84385027730E+00  0.90007228119E+02  0.89999482729E+02 0.  0.
         12    1    1    2    0    0  0.44474008739E+00 -0.69594913540E+00 -0.84385027730E+00  0.11807718810E+01  0.00000000000E+00 0. -1.
         11    1    3    3    0    0  0.40562385960E+01 -0.10645812228E+00 -0.13204388319E+02  0.13813771245E+02  0.51100000000E-03 0. -1.
        -11    1    3    3    0    0  0.22912622900E+02 -0.27105511818E+02  0.34259825693E+01  0.35657179023E+02  0.51100000000E-03 0.  1.
         12    1    3    3    0    0 -0.27413601583E+02  0.27907919075E+02  0.10622256027E+02  0.40536277851E+02  0.00000000000E+00 0. -1.
</event>
<event>
 7    1  0.4358868E-015  0.9000763E+02  0.7816164E-02  0.1186339E+00
        -11   -1    0    0    0    0  0.00000000000E+00  0.00000000000E+00  0.45593999997E+02  0.45594000000E+02  0.51100000000E-03 0.  1.
         11   -1    0    0    0    0 -0.00000000000E+00 -0.00000000000E+00 -0.45593999997E+02  0.45594000000E+02  0.51100000000E-03 0. -1.
    9900012    2    1    2    0    0 -0.10980847797E+01 -0.90149202378E-01 -0.42351505638E+00  0.90007626303E+02  0.89999886170E+02 0.  0.
         12    1    1    2    0    0  0.10980847797E+01  0.90149202378E-01  0.42351505638E+00  0.11803736972E+01  0.00000000000E+00 0. -1.
         11    1    3    3    0    0 -0.19893582693E+02 -0.91515798580E+01 -0.90348651426E+01  0.23688284755E+02  0.51100000000E-03 0. -1.
        -11    1    3    3    0    0 -0.13899688520E+02  0.42672020361E+01 -0.18532446303E+02  0.23555507220E+02  0.51100000000E-03 0.  1.
        -12    1    3    3    0    0  0.32695186433E+02  0.47942286195E+01  0.27143796389E+02  0.42763834327E+02  0.00000000000E+00 0.  1.
</event>
<event>
 7    1  0.4358868E-015  0.9000764E+02  0.7816164E-02  0.1186339E+00
        -11   -1    0    0    0    0  0.00000000000E+00  0.00000000000E+00  0.45593999997E+02  0.45594000000E+02  0.51100000000E-03 0. -1.
         11   -1    0    0    0    0 -0.00000000000E+00 -0.00000000000E+00 -0.45593999997E+02  0.45594000000E+02  0.51100000000E-03 0.  1.
    9900012    2    1    2    0    0  0.64828544854E+00 -0.67310092037E+00 -0.72105285010E+00  0.90007637308E+02  0.89999897321E+02 0.  0.
         12    1    1    2    0    0 -0.64828544854E+00  0.67310092037E+00  0.72105285010E+00  0.11803626919E+01  0.00000000000E+00 0. -1.
         11    1    3    3    0    0 -0.48158037437E+01  0.37348834174E+02 -0.64227278912E+01  0.38201816889E+02  0.51100000000E-03 0. -1.
        -11    1    3    3    0    0 -0.57330859517E+01  0.38335265676E+01  0.49194662743E+01  0.84714431568E+01  0.51100000000E-03 0.  1.
        -12    1    3    3    0    0  0.11197175144E+02 -0.41855461662E+02  0.78220876675E+00  0.43334377262E+02  0.00000000000E+00 0.  1.
</event>
<event>
 7    1  0.4358868E-015  0.9000796E+02  0.7816164E-02  0.1186339E+00
        -11   -1    0    0    0    0  0.00000000000E+00  0.00000000000E+00  0.45593999997E+02  0.45594000000E+02  0.51100000000E-03 0. -1.
         11   -1    0    0    0    0 -0.00000000000E+00 -0.00000000000E+00 -0.45593999997E+02  0.45594000000E+02  0.51100000000E-03 0.  1.
    9900012    2    1    2    0    0  0.13513608786E+00  0.31484106214E-01 -0.11718585015E+01  0.90007955357E+02  0.90000219568E+02 0.  0.
         12    1    1    2    0    0 -0.13513608786E+00 -0.31484106214E-01  0.11718585015E+01  0.11800446427E+01  0.00000000000E+00 0. -1.
         11    1    3    3    0    0  0.62379583830E+01  0.52033238917E+01 -0.97044139381E+01  0.12655526637E+02  0.51100000000E-03 0. -1.
        -11    1    3    3    0    0  0.28111772621E+02 -0.19936583970E+02 -0.97899700710E+01  0.35827121773E+02  0.51100000000E-03 0.  1.
         12    1    3    3    0    0 -0.34214594916E+02  0.14764744185E+02  0.18322525508E+02  0.41525306948E+02  0.00000000000E+00 0. -1.
</event>
<event>
 7    1  0.4358868E-015  0.9000773E+02  0.7816164E-02  0.1186339E+00
        -11   -1    0    0    0    0  0.00000000000E+00  0.00000000000E+00  0.45593999997E+02  0.45594000000E+02  0.51100000000E-03 0.  1.
         11   -1    0    0    0    0 -0.00000000000E+00 -0.00000000000E+00 -0.45593999997E+02  0.45594000000E+02  0.51100000000E-03 0. -1.
    9900012    2    1    2    0    0  0.27973266294E+00  0.51621971560E+00  0.10238697456E+01  0.90007727822E+02  0.89999989030E+02 0.  0.
         12    1    1    2    0    0 -0.27973266294E+00 -0.51621971560E+00 -0.10238697456E+01  0.11802721777E+01  0.00000000000E+00 0. -1.
         11    1    3    3    0    0  0.95026033036E+01 -0.19244354045E+01  0.83650791903E+00  0.97315295269E+01  0.51100000000E-03 0. -1.
        -11    1    3    3    0    0  0.25524590772E+02  0.25858881742E+02  0.90554739054E+01  0.37445802260E+02  0.51100000000E-03 0.  1.
         12    1    3    3    0    0 -0.34747461412E+02 -0.23418226621E+02 -0.88681120788E+01  0.42830396035E+02  0.00000000000E+00 0. -1.
</event>
<event>
 7    1  0.4358868E-015  0.9000775E+02  0.7816164E-02  0.1186339E+00
        -11   -1    0    0    0    0  0.00000000000E+00  0.00000000000E+00  0.45593999997E+02  0.45594000000E+02  0.51100000000E-03 0. -1.
         11   -1    0    0    0    0 -0.00000000000E+00 -0.00000000000E+00 -0.45593999997E+02  0.45594000000E+02  0.51100000000E-03 0.  1.
    9900012    2    1    2    0    0 -0.14923736468E-01  0.10425235484E+01  0.55309061771E+00  0.90007751171E+02  0.90000012686E+02 0.  0.
         12    1    1    2    0    0  0.14923736468E-01 -0.10425235484E+01 -0.55309061771E+00  0.11802488290E+01  0.00000000000E+00 0. -1.
         11    1    3    3    0    0 -0.62347093302E+01 -0.92986272412E+01  0.50202021200E+01  0.12269413131E+02  0.51100000000E-03 0. -1.
        -11    1    3    3    0    0 -0.15191497066E+02  0.38639337295E+02 -0.72382745314E+01  0.42144662630E+02  0.51100000000E-03 0.  1.
         12    1    3    3    0    0  0.21411282660E+02 -0.28298186506E+02  0.27711630292E+01  0.35593675410E+02  0.00000000000E+00 0. -1.
</event>
<event>
 7    1  0.4358868E-015  0.9000772E+02  0.7816164E-02  0.1186339E+00
        -11   -1    0    0    0    0  0.00000000000E+00  0.00000000000E+00  0.45593999997E+02  0.45594000000E+02  0.51100000000E-03 0.  1.
         11   -1    0    0    0    0 -0.00000000000E+00 -0.00000000000E+00 -0.45593999997E+02  0.45594000000E+02  0.51100000000E-03 0. -1.
    9900012    2    1    2    0    0  0.75184423758E+00  0.23967372657E+00  0.87769491297E+00  0.90007719689E+02  0.89999980789E+02 0.  0.
         12    1    1    2    0    0 -0.75184423758E+00 -0.23967372657E+00 -0.87769491297E+00  0.11802803112E+01  0.00000000000E+00 0. -1.
         11    1    3    3    0    0 -0.43966992525E+01  0.38938024107E+02 -0.15277738214E+02  0.42058411417E+02  0.51100000000E-03 0. -1.
        -11    1    3    3    0    0 -0.67053831519E+01 -0.10623350487E+02 -0.16241264061E+01  0.12667104074E+02  0.51100000000E-03 0.  1.
        -12    1    3    3    0    0  0.11853926642E+02 -0.28074999894E+02  0.17779559533E+02  0.35282204198E+02  0.00000000000E+00 0.  1.
</event>
<event>
 7    1  0.4358868E-015  0.9000782E+02  0.7816164E-02  0.1186339E+00
        -11   -1    0    0    0    0  0.00000000000E+00  0.00000000000E+00  0.45593999997E+02  0.45594000000E+02  0.51100000000E-03 0. -1.
         11   -1    0    0    0    0 -0.00000000000E+00 -0.00000000000E+00 -0.45593999997E+02  0.45594000000E+02  0.51100000000E-03 0.  1.
    9900012    2    1    2    0    0 -0.91451056624E+00  0.60010956660E+00 -0.44312951567E+00  0.90007819999E+02  0.90000082423E+02 0.  0.
         12    1    1    2    0    0  0.91451056624E+00 -0.60010956660E+00  0.44312951567E+00  0.11801800012E+01  0.00000000000E+00 0. -1.
         11    1    3    3    0    0  0.88298383153E+01  0.69762211634E+01 -0.96926798969E+00  0.11294830105E+02  0.51100000000E-03 0. -1.
        -11    1    3    3    0    0  0.33473183248E+01  0.34756001930E+02 -0.47029760614E+01  0.35232118787E+02  0.51100000000E-03 0.  1.
         12    1    3    3    0    0 -0.13091667206E+02 -0.41132113527E+02  0.52291145354E+01  0.43480871107E+02  0.00000000000E+00 0. -1.
</event>
<event>
 7    1  0.4358868E-015  0.9000782E+02  0.7816164E-02  0.1186339E+00
        -11   -1    0    0    0    0  0.00000000000E+00  0.00000000000E+00  0.45593999997E+02  0.45594000000E+02  0.51100000000E-03 0.  1.
         11   -1    0    0    0    0 -0.00000000000E+00 -0.00000000000E+00 -0.45593999997E+02  0.45594000000E+02  0.51100000000E-03 0. -1.
    9900012    2    1    2    0    0 -0.80118152187E+00 -0.26661804304E+00  0.82453394459E+00  0.90007816439E+02  0.90000078816E+02 0.  0.
         12    1    1    2    0    0  0.80118152187E+00  0.26661804304E+00 -0.82453394459E+00  0.11801835610E+01  0.00000000000E+00 0. -1.
         11    1    3    3    0    0  0.16003959921E+02 -0.11019103272E+02 -0.20753557003E+02  0.28429869831E+02  0.51100000000E-03 0. -1.
        -11    1    3    3    0    0  0.67070399917E+01  0.22283132689E+02 -0.54963610283E+01  0.23910925801E+02  0.51100000000E-03 0.  1.
        -12    1    3    3    0    0 -0.23512181435E+02 -0.11530647460E+02  0.27074451976E+02  0.37667020807E+02  0.00000000000E+00 0.  1.
</event>
<event>
 7    1  0.4358868E-015  0.9000772E+02  0.7816164E-02  0.1186339E+00
        -11   -1    0    0    0    0  0.00000000000E+00  0.00000000000E+00  0.45593999997E+02  0.45594000000E+02  0.51100000000E-03 0.  1.
         11   -1    0    0    0    0 -0.00000000000E+00 -0.00000000000E+00 -0.45593999997E+02  0.45594000000E+02  0.51100000000E-03 0. -1.
    9900012    2    1    2    0    0  0.41361223562E+00  0.17091320026E+00  0.10921454546E+01  0.90007716942E+02  0.89999978005E+02 0.  0.
         12    1    1    2    0    0 -0.41361223562E+00 -0.17091320026E+00 -0.10921454546E+01  0.11802830582E+01  0.00000000000E+00 0. -1.
         11    1    3    3    0    0  0.19809160377E+01 -0.85239473392E+01  0.30418735851E+01  0.92647019250E+01  0.51100000000E-03 0. -1.
        -11    1    3    3    0    0 -0.37440594328E+02 -0.11620928762E+02 -0.43706823627E+01  0.39445493450E+02  0.51100000000E-03 0.  1.
         12    1    3    3    0    0  0.35873290526E+02  0.20315789302E+02  0.24209542322E+01  0.41297521566E+02  0.00000000000E+00 0. -1.
</event>
<event>
 7    1  0.4358868E-015  0.9000781E+02  0.7816164E-02  0.1186339E+00
        -11   -1    0    0    0    0  0.00000000000E+00  0.00000000000E+00  0.45593999997E+02  0.45594000000E+02  0.51100000000E-03 0.  1.
         11   -1    0    0    0    0 -0.00000000000E+00 -0.00000000000E+00 -0.45593999997E+02  0.45594000000E+02  0.51100000000E-03 0. -1.
    9900012    2    1    2    0    0  0.99671925540E+00 -0.58240073494E+00  0.24539646299E+00  0.90007805391E+02  0.90000067623E+02 0.  0.
         12    1    1    2    0    0 -0.99671925540E+00  0.58240073494E+00 -0.24539646299E+00  0.11801946086E+01  0.00000000000E+00 0. -1.
         11    1    3    3    0    0 -0.95343772008E+01  0.83406352913E+00  0.41119034870E+01  0.10416705867E+02  0.51100000000E-03 0. -1.
        -11    1    3    3    0    0 -0.28110626081E+02  0.89626335561E+01 -0.20845982921E+02  0.36126044665E+02  0.51100000000E-03 0.  1.
         12    1    3    3    0    0  0.38641722537E+02 -0.10379097820E+02  0.16979475897E+02  0.43465054859E+02  0.00000000000E+00 0. -1.
</event>
<event>
 7    1  0.4358868E-015  0.9000761E+02  0.7816164E-02  0.1186339E+00
        -11   -1    0    0    0    0  0.00000000000E+00  0.00000000000E+00  0.45593999997E+02  0.45594000000E+02  0.51100000000E-03 0.  1.
         11   -1    0    0    0    0 -0.00000000000E+00 -0.00000000000E+00 -0.45593999997E+02  0.45594000000E+02  0.51100000000E-03 0. -1.
    9900012    2    1    2    0    0 -0.22277444937E-01 -0.10044951388E+01  0.61951849367E+00  0.90007614498E+02  0.89999874210E+02 0.  0.
         12    1    1    2    0    0  0.22277444937E-01  0.10044951388E+01 -0.61951849367E+00  0.11803855016E+01  0.00000000000E+00 0. -1.
         11    1    3    3    0    0  0.91591430103E+01 -0.69758953615E-01 -0.61896593156E+00  0.91802988013E+01  0.51100000000E-03 0. -1.
        -11    1    3    3    0    0  0.21554717229E+02  0.20343057910E+02  0.23050228506E+02  0.37546755844E+02  0.51100000000E-03 0.  1.
         12    1    3    3    0    0 -0.30736137685E+02 -0.21277794095E+02 -0.21811744081E+02  0.43280559853E+02  0.00000000000E+00 0. -1.
</event>
<event>
 7    1  0.4358868E-015  0.9000770E+02  0.7816164E-02  0.1186339E+00
        -11   -1    0    0    0    0  0.00000000000E+00  0.00000000000E+00  0.45593999997E+02  0.45594000000E+02  0.51100000000E-03 0.  1.
         11   -1    0    0    0    0 -0.00000000000E+00 -0.00000000000E+00 -0.45593999997E+02  0.45594000000E+02  0.51100000000E-03 0. -1.
    9900012    2    1    2    0    0  0.69380910922E+00  0.57682134175E+00  0.76092884129E+00  0.90007700613E+02  0.89999961462E+02 0.  0.
         12    1    1    2    0    0 -0.69380910922E+00 -0.57682134175E+00 -0.76092884129E+00  0.11802993865E+01  0.00000000000E+00 0. -1.
         11    1    3    3    0    0  0.41855497468E+01 -0.69851303708E+01  0.73647973887E+00  0.81763852433E+01  0.51100000000E-03 0. -1.
        -11    1    3    3    0    0  0.73101694891E+01 -0.16966354154E+02  0.33917147205E+02  0.38622126120E+02  0.51100000000E-03 0.  1.
         12    1    3    3    0    0 -0.10801910127E+02  0.24528305866E+02 -0.33892698102E+02  0.43209189251E+02  0.00000000000E+00 0. -1.
</event>
<event>
 7    1  0.4358868E-015  0.9000775E+02  0.7816164E-02  0.1186339E+00
        -11   -1    0    0    0    0  0.00000000000E+00  0.00000000000E+00  0.45593999997E+02  0.45594000000E+02  0.51100000000E-03 0.  1.
         11   -1    0    0    0    0 -0.00000000000E+00 -0.00000000000E+00 -0.45593999997E+02  0.45594000000E+02  0.51100000000E-03 0. -1.
    9900012    2    1    2    0    0 -0.11131098570E+01  0.15417615631E+00  0.36084238974E+00  0.90007749573E+02  0.90000011067E+02 0.  0.
         12    1    1    2    0    0  0.11131098570E+01 -0.15417615631E+00 -0.36084238974E+00  0.11802504273E+01  0.00000000000E+00 0. -1.
         11    1    3    3    0    0  0.14064006448E+02 -0.27067074305E+02  0.70258155683E+01  0.31301515514E+02  0.51100000000E-03 0. -1.
        -11    1    3    3    0    0 -0.46788474799E+01 -0.10716421577E+02 -0.14441503248E+02  0.18581989169E+02  0.51100000000E-03 0.  1.
        -12    1    3    3    0    0 -0.10498268825E+02  0.37937672039E+02  0.77765300696E+01  0.40124244889E+02  0.00000000000E+00 0.  1.
</event>
<event>
 7    1  0.4358868E-015  0.9000770E+02  0.7816164E-02  0.1186339E+00
        -11   -1    0    0    0    0  0.00000000000E+00  0.00000000000E+00  0.45593999997E+02  0.45594000000E+02  0.51100000000E-03 0.  1.
         11   -1    0    0    0    0 -0.00000000000E+00 -0.00000000000E+00 -0.45593999997E+02  0.45594000000E+02  0.51100000000E-03 0. -1.
    9900012    2    1    2    0    0  0.56102769766E+00  0.49194035618E-01  0.10372766769E+01  0.90007697058E+02  0.89999957859E+02 0.  0.
         12    1    1    2    0    0 -0.56102769766E+00 -0.49194035618E-01 -0.10372766769E+01  0.11803029421E+01  0.00000000000E+00 0. -1.
         11    1    3    3    0    0  0.18821403021E+02  0.24306294070E+02 -0.17292256418E+02  0.35271281170E+02  0.51100000000E-03 0. -1.
        -11    1    3    3    0    0 -0.60671509152E+00  0.81598318554E+01 -0.63299272411E+01  0.10344995807E+02  0.51100000000E-03 0.  1.
        -12    1    3    3    0    0 -0.17653660232E+02 -0.32416931890E+02  0.24659460336E+02  0.44391420081E+02  0.00000000000E+00 0.  1.
</event>
<event>
 7    1  0.4358868E-015  0.9000778E+02  0.7816164E-02  0.1186339E+00
        -11   -1    0    0    0    0  0.00000000000E+00  0.00000000000E+00  0.45593999997E+02  0.45594000000E+02  0.51100000000E-03 0. -1.
         11   -1    0    0    0    0 -0.00000000000E+00 -0.00000000000E+00 -0.45593999997E+02  0.45594000000E+02  0.51100000000E-03 0.  1.
    9900012    2    1    2    0    0 -0.25117455496E+00  0.11491949924E+01 -0.95838082357E-01  0.90007778527E+02  0.90000040403E+02 0.  0.
         12    1    1    2    0    0  0.25117455496E+00 -0.11491949924E+01  0.95838082357E-01  0.11802214731E+01  0.00000000000E+00 0. -1.
         11    1    3    3    0    0 -0.37463688335E+01  0.51398331836E+01  0.32884531759E+02  0.33493963543E+02  0.51100000000E-03 0. -1.
        -11    1    3    3    0    0 -0.16751803476E+02  0.50878764340E+01 -0.93019931914E+00  0.17532104190E+02  0.51100000000E-03 0.  1.
        -12    1    3    3    0    0  0.20246997755E+02 -0.90785146251E+01 -0.32050170522E+02  0.38981710793E+02  0.00000000000E+00 0.  1.
</event>
<event>
 7    1  0.4358868E-015  0.9000778E+02  0.7816164E-02  0.1186339E+00
        -11   -1    0    0    0    0  0.00000000000E+00  0.00000000000E+00  0.45593999997E+02  0.45594000000E+02  0.51100000000E-03 0. -1.
         11   -1    0    0    0    0 -0.00000000000E+00 -0.00000000000E+00 -0.45593999997E+02  0.45594000000E+02  0.51100000000E-03 0.  1.
    9900012    2    1    2    0    0 -0.98702063771E+00 -0.57452537775E+00 -0.29771337021E+00  0.90007778665E+02  0.90000040543E+02 0.  0.
         12    1    1    2    0    0  0.98702063771E+00  0.57452537775E+00  0.29771337021E+00  0.11802213351E+01  0.00000000000E+00 0. -1.
         11    1    3    3    0    0  0.32406673287E+02  0.50253913543E+01  0.27142726270E+02  0.42569644366E+02  0.51100000000E-03 0. -1.
        -11    1    3    3    0    0 -0.81046813375E+01  0.13112726783E+01  0.15463955731E+01  0.83544380510E+01  0.51100000000E-03 0.  1.
        -12    1    3    3    0    0 -0.25289012588E+02 -0.69111894103E+01 -0.28986835213E+02  0.39083696248E+02  0.00000000000E+00 0.  1.
</event>
<event>
 7    1  0.4358868E-015  0.9000773E+02  0.7816164E-02  0.1186339E+00
        -11   -1    0    0    0    0  0.00000000000E+00  0.00000000000E+00  0.45593999997E+02  0.45594000000E+02  0.51100000000E-03 0. -1.
         11   -1    0    0    0    0 -0.00000000000E+00 -0.00000000000E+00 -0.45593999997E+02  0.45594000000E+02  0.51100000000E-03 0.  1.
    9900012    2    1    2    0    0 -0.88757405633E+00  0.77041426791E+00  0.10820340025E+00  0.90007731460E+02  0.89999992716E+02 0.  0.
         12    1    1    2    0    0  0.88757405633E+00 -0.77041426791E+00 -0.10820340025E+00  0.11802685396E+01  0.00000000000E+00 0. -1.
         11    1    3    3    0    0 -0.36793361119E+02 -0.48593624176E+01  0.12202399190E+02  0.39067420849E+02  0.51100000000E-03 0. -1.
        -11    1    3    3    0    0  0.46115774542E+01 -0.73621152675E+01  0.77768199311E+01  0.11659601894E+02  0.51100000000E-03 0.  1.
        -12    1    3    3    0    0  0.31294209609E+02  0.12991891953E+02 -0.19871015721E+02  0.39280708717E+02  0.00000000000E+00 0.  1.
</event>
<event>
 7    1  0.5295946E-015  0.9000778E+02  0.7816164E-02  0.1186339E+00
        -11   -1    0    0    0    0  0.00000000000E+00  0.00000000000E+00  0.45593999997E+02  0.45594000000E+02  0.51100000000E-03 0.  1.
         11   -1    0    0    0    0 -0.00000000000E+00 -0.00000000000E+00 -0.45593999997E+02  0.45594000000E+02  0.51100000000E-03 0. -1.
    9900012    2    1    2    0    0 -0.88455502079E+00 -0.66333157406E+00 -0.41289418145E+00  0.90007776306E+02  0.90000038154E+02 0.  0.
         12    1    1    2    0    0  0.88455502079E+00  0.66333157406E+00  0.41289418145E+00  0.11802236936E+01  0.00000000000E+00 0. -1.
         11    1    3    3    0    0  0.34261810510E+02  0.12472577174E+02 -0.14617517141E+02  0.39282421621E+02  0.51100000000E-03 0. -1.
        -11    1    3    3    0    0 -0.60812580049E+00 -0.60671649117E+01 -0.72365749321E+01  0.94629976256E+01  0.51100000000E-03 0.  1.
        -12    1    3    3    0    0 -0.34538239730E+02 -0.70687438364E+01  0.21441197891E+02  0.41262357060E+02  0.00000000000E+00 0.  1.
</event>
<event>
 7    1  0.4358868E-015  0.9000772E+02  0.7816164E-02  0.1186339E+00
        -11   -1    0    0    0    0  0.00000000000E+00  0.00000000000E+00  0.45593999997E+02  0.45594000000E+02  0.51100000000E-03 0. -1.
         11   -1    0    0    0    0 -0.00000000000E+00 -0.00000000000E+00 -0.45593999997E+02  0.45594000000E+02  0.51100000000E-03 0.  1.
    9900012    2    1    2    0    0 -0.26186292606E+00  0.73653126757E+00 -0.88431238732E+00  0.90007720839E+02  0.89999981954E+02 0.  0.
         12    1    1    2    0    0  0.26186292606E+00 -0.73653126757E+00  0.88431238732E+00  0.11802791613E+01  0.00000000000E+00 0. -1.
         11    1    3    3    0    0 -0.33309851620E+02 -0.15865609538E+02  0.23052803340E+02  0.43505120653E+02  0.51100000000E-03 0. -1.
        -11    1    3    3    0    0  0.19561122554E+01  0.41225275020E+01 -0.84281726653E+01  0.95841380884E+01  0.51100000000E-03 0.  1.
        -12    1    3    3    0    0  0.31091876439E+02  0.12479613304E+02 -0.15508943062E+02  0.36918462097E+02  0.00000000000E+00 0.  1.
</event>
<event>
 7    1  0.4358868E-015  0.9000776E+02  0.7816164E-02  0.1186339E+00
        -11   -1    0    0    0    0  0.00000000000E+00  0.00000000000E+00  0.45593999997E+02  0.45594000000E+02  0.51100000000E-03 0.  1.
         11   -1    0    0    0    0 -0.00000000000E+00 -0.00000000000E+00 -0.45593999997E+02  0.45594000000E+02  0.51100000000E-03 0. -1.
    9900012    2    1    2    0    0 -0.65570334521E+00 -0.56550409907E+00 -0.80201828142E+00  0.90007756344E+02  0.90000017928E+02 0.  0.
         12    1    1    2    0    0  0.65570334521E+00  0.56550409907E+00  0.80201828142E+00  0.11802436557E+01  0.00000000000E+00 0. -1.
         11    1    3    3    0    0 -0.17803606260E+02 -0.13624884271E+02  0.33590728080E+02  0.40384933830E+02  0.51100000000E-03 0. -1.
        -11    1    3    3    0    0 -0.48291388920E+01 -0.95931384819E-02  0.19319804872E+01  0.52012713186E+01  0.51100000000E-03 0.  1.
        -12    1    3    3    0    0  0.21977041806E+02  0.13068973311E+02 -0.36324726849E+02  0.44421551195E+02  0.00000000000E+00 0.  1.
</event>
<event>
 7    1  0.4358868E-015  0.9000793E+02  0.7816164E-02  0.1186339E+00
        -11   -1    0    0    0    0  0.00000000000E+00  0.00000000000E+00  0.45593999997E+02  0.45594000000E+02  0.51100000000E-03 0.  1.
         11   -1    0    0    0    0 -0.00000000000E+00 -0.00000000000E+00 -0.45593999997E+02  0.45594000000E+02  0.51100000000E-03 0. -1.
    9900012    2    1    2    0    0 -0.11191228771E+01 -0.26728215290E+00  0.26208584136E+00  0.90007930192E+02  0.90000194070E+02 0.  0.
         12    1    1    2    0    0  0.11191228771E+01  0.26728215290E+00 -0.26208584136E+00  0.11800698079E+01  0.00000000000E+00 0. -1.
         11    1    3    3    0    0 -0.21879318717E+02  0.19485632436E+02 -0.14596893830E+02  0.32733221179E+02  0.51100000000E-03 0. -1.
        -11    1    3    3    0    0  0.16968063629E+01  0.19965052269E+01 -0.15280462384E+02  0.15503474316E+02  0.51100000000E-03 0.  1.
        -12    1    3    3    0    0  0.19063389477E+02 -0.21749419816E+02  0.30139442055E+02  0.41771234697E+02  0.00000000000E+00 0.  1.
</event>
<event>
 7    1  0.4358868E-015  0.9000770E+02  0.7816164E-02  0.1186339E+00
        -11   -1    0    0    0    0  0.00000000000E+00  0.00000000000E+00  0.45593999997E+02  0.45594000000E+02  0.51100000000E-03 0.  1.
         11   -1    0    0    0    0 -0.00000000000E+00 -0.00000000000E+00 -0.45593999997E+02  0.45594000000E+02  0.51100000000E-03 0. -1.
    9900012    2    1    2    0    0 -0.18320032240E+00 -0.68633300635E+00  0.94259563255E+00  0.90007702631E+02  0.89999963505E+02 0.  0.
         12    1    1    2    0    0  0.18320032240E+00  0.68633300635E+00 -0.94259563255E+00  0.11802973694E+01  0.00000000000E+00 0. -1.
         11    1    3    3    0    0  0.28428163432E+02 -0.60233567260E+01 -0.25681286470E+02  0.38781049204E+02  0.51100000000E-03 0. -1.
        -11    1    3    3    0    0 -0.17583064228E+00  0.40701389783E+00 -0.69440902118E+01  0.69582300809E+01  0.51100000000E-03 0.  1.
        -12    1    3    3    0    0 -0.28435533112E+02  0.49300098218E+01  0.33567972314E+02  0.44268423346E+02  0.00000000000E+00 0.  1.
</event>
<event>
 7    1  0.4358868E-015  0.9000776E+02  0.7816164E-02  0.1186339E+00
        -11   -1    0    0    0    0  0.00000000000E+00  0.00000000000E+00  0.45593999997E+02  0.45594000000E+02  0.51100000000E-03 0.  1.
         11   -1    0    0    0    0 -0.00000000000E+00 -0.00000000000E+00 -0.45593999997E+02  0.45594000000E+02  0.51100000000E-03 0. -1.
    9900012    2    1    2    0    0  0.65601041388E-01  0.14735542821E+00  0.11691622483E+01  0.90007763803E+02  0.90000025485E+02 0.  0.
         12    1    1    2    0    0 -0.65601041388E-01 -0.14735542821E+00 -0.11691622483E+01  0.11802361974E+01  0.00000000000E+00 0. -1.
         11    1    3    3    0    0 -0.22633103945E+02 -0.12208497356E+02 -0.16545775297E+02  0.30578873137E+02  0.51100000000E-03 0. -1.
        -11    1    3    3    0    0  0.25489962062E+02 -0.12143523611E+02 -0.13397340039E+01  0.28266556547E+02  0.51100000000E-03 0.  1.
        -12    1    3    3    0    0 -0.27912570752E+01  0.24499376396E+02  0.19054671549E+02  0.31162334118E+02  0.00000000000E+00 0.  1.
</event>
<event>
 7    1  0.4358868E-015  0.9000772E+02  0.7816164E-02  0.1186339E+00
        -11   -1    0    0    0    0  0.00000000000E+00  0.00000000000E+00  0.45593999997E+02  0.45594000000E+02  0.51100000000E-03 0.  1.
         11   -1    0    0    0    0 -0.00000000000E+00 -0.00000000000E+00 -0.45593999997E+02  0.45594000000E+02  0.51100000000E-03 0. -1.
    9900012    2    1    2    0    0 -0.75044847786E+00  0.73313602096E+00  0.54073261398E+00  0.90007723294E+02  0.89999984441E+02 0.  0.
         12    1    1    2    0    0  0.75044847786E+00 -0.73313602096E+00 -0.54073261398E+00  0.11802767061E+01  0.00000000000E+00 0. -1.
         11    1    3    3    0    0 -0.23730403685E+01  0.84190280989E+01  0.41499015562E+01  0.96815824072E+01  0.51100000000E-03 0. -1.
        -11    1    3    3    0    0  0.23768956578E+02  0.20193617412E+02 -0.23946997040E+02  0.39321802457E+02  0.51100000000E-03 0.  1.
         12    1    3    3    0    0 -0.22146364687E+02 -0.27879509490E+02  0.20337828098E+02  0.41004338429E+02  0.00000000000E+00 0. -1.
</event>
<event>
 7    1  0.4358868E-015  0.9000771E+02  0.7816164E-02  0.1186339E+00
        -11   -1    0    0    0    0  0.00000000000E+00  0.00000000000E+00  0.45593999997E+02  0.45594000000E+02  0.51100000000E-03 0.  1.
         11   -1    0    0    0    0 -0.00000000000E+00 -0.00000000000E+00 -0.45593999997E+02  0.45594000000E+02  0.51100000000E-03 0. -1.
    9900012    2    1    2    0    0  0.22915711262E+00 -0.67017748070E+00  0.94415200847E+00  0.90007714504E+02  0.89999975535E+02 0.  0.
         12    1    1    2    0    0 -0.22915711262E+00  0.67017748070E+00 -0.94415200847E+00  0.11802854964E+01  0.00000000000E+00 0. -1.
         11    1    3    3    0    0 -0.19467943718E+02  0.22515907777E+02 -0.22455492420E+02  0.37285601453E+02  0.51100000000E-03 0. -1.
        -11    1    3    3    0    0 -0.46079430762E+01 -0.61872705089E+00 -0.65513098148E+01  0.80334066938E+01  0.51100000000E-03 0.  1.
        -12    1    3    3    0    0  0.24305043907E+02 -0.22567358207E+02  0.29950954244E+02  0.44688706357E+02  0.00000000000E+00 0.  1.
</event>
<event>
 7    1  0.4358868E-015  0.9000777E+02  0.7816164E-02  0.1186339E+00
        -11   -1    0    0    0    0  0.00000000000E+00  0.00000000000E+00  0.45593999997E+02  0.45594000000E+02  0.51100000000E-03 0. -1.
         11   -1    0    0    0    0 -0.00000000000E+00 -0.00000000000E+00 -0.45593999997E+02  0.45594000000E+02  0.51100000000E-03 0.  1.
    9900012    2    1    2    0    0  0.60279874357E+00 -0.38063344614E+00  0.94057640642E+00  0.90007774546E+02  0.90000036370E+02 0.  0.
         12    1    1    2    0    0 -0.60279874357E+00  0.38063344614E+00 -0.94057640642E+00  0.11802254538E+01  0.00000000000E+00 0. -1.
         11    1    3    3    0    0  0.15441007328E+02  0.29320113486E+01  0.18902107135E+02  0.24582738909E+02  0.51100000000E-03 0. -1.
        -11    1    3    3    0    0  0.19875319696E+02  0.13557132999E+02 -0.40409613307E+01  0.24395769242E+02  0.51100000000E-03 0.  1.
        -12    1    3    3    0    0 -0.34713528281E+02 -0.16869777794E+02 -0.13920569398E+02  0.41029266395E+02  0.00000000000E+00 0.  1.
</event>
<event>
 7    1  0.4358868E-015  0.9000775E+02  0.7816164E-02  0.1186339E+00
        -11   -1    0    0    0    0  0.00000000000E+00  0.00000000000E+00  0.45593999997E+02  0.45594000000E+02  0.51100000000E-03 0.  1.
         11   -1    0    0    0    0 -0.00000000000E+00 -0.00000000000E+00 -0.45593999997E+02  0.45594000000E+02  0.51100000000E-03 0. -1.
    9900012    2    1    2    0    0 -0.17523484038E+00  0.93747874609E+00  0.69528252605E+00  0.90007749417E+02  0.90000010909E+02 0.  0.
         12    1    1    2    0    0  0.17523484038E+00 -0.93747874609E+00 -0.69528252605E+00  0.11802505834E+01  0.00000000000E+00 0. -1.
         11    1    3    3    0    0 -0.63132411655E+01 -0.62271415740E+01 -0.14715090040E+01  0.89888622866E+01  0.51100000000E-03 0. -1.
        -11    1    3    3    0    0 -0.19439802454E+02  0.35278391885E+02  0.11485057530E+02  0.41885288589E+02  0.51100000000E-03 0.  1.
         12    1    3    3    0    0  0.25577808779E+02 -0.28113771565E+02 -0.93182660003E+01  0.39133598541E+02  0.00000000000E+00 0. -1.
</event>
<event>
 7    1  0.4358868E-015  0.9000773E+02  0.7816164E-02  0.1186339E+00
        -11   -1    0    0    0    0  0.00000000000E+00  0.00000000000E+00  0.45593999997E+02  0.45594000000E+02  0.51100000000E-03 0. -1.
         11   -1    0    0    0    0 -0.00000000000E+00 -0.00000000000E+00 -0.45593999997E+02  0.45594000000E+02  0.51100000000E-03 0.  1.
    9900012    2    1    2    0    0 -0.10336608897E+01 -0.18788336829E+00  0.53784376480E+00  0.90007732695E+02  0.89999993967E+02 0.  0.
         12    1    1    2    0    0  0.10336608897E+01  0.18788336829E+00 -0.53784376480E+00  0.11802673046E+01  0.00000000000E+00 0. -1.
         11    1    3    3    0    0  0.12582002750E+02 -0.39935144689E+01  0.35623789463E+02  0.37990911110E+02  0.51100000000E-03 0. -1.
        -11    1    3    3    0    0  0.80923161638E+01  0.18015539291E+01  0.24191082601E+01  0.86361601705E+01  0.51100000000E-03 0.  1.
        -12    1    3    3    0    0 -0.21707979803E+02  0.20040771715E+01 -0.37505053958E+02  0.43380661415E+02  0.00000000000E+00 0.  1.
</event>
<event>
 7    1  0.4358868E-015  0.9000775E+02  0.7816164E-02  0.1186339E+00
        -11   -1    0    0    0    0  0.00000000000E+00  0.00000000000E+00  0.45593999997E+02  0.45594000000E+02  0.51100000000E-03 0. -1.
         11   -1    0    0    0    0 -0.00000000000E+00 -0.00000000000E+00 -0.45593999997E+02  0.45594000000E+02  0.51100000000E-03 0.  1.
    9900012    2    1    2    0    0 -0.72827795358E+00  0.52311807293E+00 -0.76742370305E+00  0.90007754078E+02  0.90000015632E+02 0.  0.
         12    1    1    2    0    0  0.72827795358E+00 -0.52311807293E+00  0.76742370305E+00  0.11802459218E+01  0.00000000000E+00 0. -1.
         11    1    3    3    0    0  0.17453496087E+01 -0.28321107177E+02  0.22232156515E+02  0.36047193241E+02  0.51100000000E-03 0. -1.
        -11    1    3    3    0    0  0.27590095589E+01 -0.95796398440E+01 -0.35898018188E+01  0.10595674148E+02  0.51100000000E-03 0.  1.
        -12    1    3    3    0    0 -0.52326371212E+01  0.38423865094E+02 -0.19409778400E+02  0.43364886689E+02  0.00000000000E+00 0.  1.
</event>
<event>
 7    1  0.4358868E-015  0.9000788E+02  0.7816164E-02  0.1186339E+00
        -11   -1    0    0    0    0  0.00000000000E+00  0.00000000000E+00  0.45593999997E+02  0.45594000000E+02  0.51100000000E-03 0.  1.
         11   -1    0    0    0    0 -0.00000000000E+00 -0.00000000000E+00 -0.45593999997E+02  0.45594000000E+02  0.51100000000E-03 0. -1.
    9900012    2    1    2    0    0  0.54818822978E+00 -0.43522534822E+00  0.95013829085E+00  0.90007875341E+02  0.90000138495E+02 0.  0.
         12    1    1    2    0    0 -0.54818822978E+00  0.43522534822E+00 -0.95013829085E+00  0.11801246590E+01  0.00000000000E+00 0. -1.
         11    1    3    3    0    0  0.16222842982E+01  0.47559403687E+01 -0.74116139644E+01  0.89544847397E+01  0.51100000000E-03 0. -1.
        -11    1    3    3    0    0 -0.14322708778E+02  0.34714331986E+02 -0.24675570238E+01  0.37633943056E+02  0.51100000000E-03 0.  1.
         12    1    3    3    0    0  0.13248612710E+02 -0.39905497703E+02  0.10829309279E+02  0.43419447545E+02  0.00000000000E+00 0. -1.
</event>
<event>
 7    1  0.4358868E-015  0.9000771E+02  0.7816164E-02  0.1186339E+00
        -11   -1    0    0    0    0  0.00000000000E+00  0.00000000000E+00  0.45593999997E+02  0.45594000000E+02  0.51100000000E-03 0.  1.
         11   -1    0    0    0    0 -0.00000000000E+00 -0.00000000000E+00 -0.45593999997E+02  0.45594000000E+02  0.51100000000E-03 0. -1.
    9900012    2    1    2    0    0  0.43611978892E+00  0.80275381782E+00  0.74730819505E+00  0.90007710332E+02  0.89999971308E+02 0.  0.
         12    1    1    2    0    0 -0.43611978892E+00 -0.80275381782E+00 -0.74730819505E+00  0.11802896681E+01  0.00000000000E+00 0. -1.
         11    1    3    3    0    0 -0.27042437691E+01  0.27147180343E+02 -0.15751405937E+02  0.31502208243E+02  0.51100000000E-03 0. -1.
        -11    1    3    3    0    0 -0.41462840316E+01  0.13959228847E+02  0.61077041173E+00  0.14574799554E+02  0.51100000000E-03 0.  1.
        -12    1    3    3    0    0  0.72866475897E+01 -0.40303655373E+02  0.15887943720E+02  0.43930702534E+02  0.00000000000E+00 0.  1.
</event>
<event>
 7    1  0.4358868E-015  0.9000807E+02  0.7816164E-02  0.1186338E+00
        -11   -1    0    0    0    0  0.00000000000E+00  0.00000000000E+00  0.45593999997E+02  0.45594000000E+02  0.51100000000E-03 0.  1.
         11   -1    0    0    0    0 -0.00000000000E+00 -0.00000000000E+00 -0.45593999997E+02  0.45594000000E+02  0.51100000000E-03 0. -1.
    9900012    2    1    2    0    0  0.11181222288E+01  0.29099073771E+00 -0.23949189691E+00  0.90008072334E+02  0.90000338088E+02 0.  0.
         12    1    1    2    0    0 -0.11181222288E+01 -0.29099073771E+00  0.23949189691E+00  0.11799276658E+01  0.00000000000E+00 0. -1.
         11    1    3    3    0    0 -0.45063258050E+01  0.16499446476E+01 -0.86148137791E+01  0.98612527759E+01  0.51100000000E-03 0. -1.
        -11    1    3    3    0    0  0.26940220831E+02 -0.30936476160E+02 -0.49712434681E+01  0.41322564266E+02  0.51100000000E-03 0.  1.
         12    1    3    3    0    0 -0.21315772797E+02  0.29577522250E+02  0.13346565350E+02  0.38824255293E+02  0.00000000000E+00 0. -1.
</event>
<event>
 7    1  0.4358868E-015  0.9000774E+02  0.7816164E-02  0.1186339E+00
        -11   -1    0    0    0    0  0.00000000000E+00  0.00000000000E+00  0.45593999997E+02  0.45594000000E+02  0.51100000000E-03 0.  1.
         11   -1    0    0    0    0 -0.00000000000E+00 -0.00000000000E+00 -0.45593999997E+02  0.45594000000E+02  0.51100000000E-03 0. -1.
    9900012    2    1    2    0    0  0.67178588056E+00  0.94157199099E+00  0.23487369793E+00  0.90007737429E+02  0.89999998763E+02 0.  0.
         12    1    1    2    0    0 -0.67178588056E+00 -0.94157199099E+00 -0.23487369793E+00  0.11802625714E+01  0.00000000000E+00 0. -1.
         11    1    3    3    0    0 -0.88329868266E+01 -0.15703626385E+00  0.26971843333E+01  0.92369432312E+01  0.51100000000E-03 0. -1.
        -11    1    3    3    0    0 -0.26548651778E+01  0.36812955262E+02 -0.16615110538E+02  0.40475966729E+02  0.51100000000E-03 0.  1.
         12    1    3    3    0    0  0.12159637885E+02 -0.35714347007E+02  0.14152799903E+02  0.40294827468E+02  0.00000000000E+00 0. -1.
</event>
<event>
 7    1  0.4358868E-015  0.9000775E+02  0.7816164E-02  0.1186339E+00
        -11   -1    0    0    0    0  0.00000000000E+00  0.00000000000E+00  0.45593999997E+02  0.45594000000E+02  0.51100000000E-03 0.  1.
         11   -1    0    0    0    0 -0.00000000000E+00 -0.00000000000E+00 -0.45593999997E+02  0.45594000000E+02  0.51100000000E-03 0. -1.
    9900012    2    1    2    0    0 -0.10570657758E+01  0.18406120805E+00 -0.49165684071E+00  0.90007748742E+02  0.90000010226E+02 0.  0.
         12    1    1    2    0    0  0.10570657758E+01 -0.18406120805E+00  0.49165684071E+00  0.11802512578E+01  0.00000000000E+00 0. -1.
         11    1    3    3    0    0  0.75277553074E+01 -0.40452246278E+02 -0.91274764112E+01  0.42146911569E+02  0.51100000000E-03 0. -1.
        -11    1    3    3    0    0 -0.89970798288E+01  0.30914312252E+01  0.22288109383E+01  0.97709769688E+01  0.51100000000E-03 0.  1.
        -12    1    3    3    0    0  0.41225874561E+00  0.37544876261E+02  0.64070086322E+01  0.38089860204E+02  0.00000000000E+00 0.  1.
</event>
<event>
 7    1  0.4358868E-015  0.9000787E+02  0.7816164E-02  0.1186339E+00
        -11   -1    0    0    0    0  0.00000000000E+00  0.00000000000E+00  0.45593999997E+02  0.45594000000E+02  0.51100000000E-03 0. -1.
         11   -1    0    0    0    0 -0.00000000000E+00 -0.00000000000E+00 -0.45593999997E+02  0.45594000000E+02  0.51100000000E-03 0.  1.
    9900012    2    1    2    0    0 -0.56052250851E+00  0.67122503320E+00  0.79245700735E+00  0.90007865840E+02  0.90000128869E+02 0.  0.
         12    1    1    2    0    0  0.56052250851E+00 -0.67122503320E+00 -0.79245700735E+00  0.11801341603E+01  0.00000000000E+00 0. -1.
         11    1    3    3    0    0 -0.23769676405E+02 -0.27357115406E+01  0.11348666367E+02  0.26481575908E+02  0.51100000000E-03 0. -1.
        -11    1    3    3    0    0 -0.12596733872E+02  0.19441900129E+02 -0.66403108157E+01  0.24098940078E+02  0.51100000000E-03 0.  1.
         12    1    3    3    0    0  0.35805887768E+02 -0.16034963555E+02 -0.39158985440E+01  0.39427349854E+02  0.00000000000E+00 0. -1.
</event>
<event>
 7    1  0.4358868E-015  0.9000772E+02  0.7816164E-02  0.1186339E+00
        -11   -1    0    0    0    0  0.00000000000E+00  0.00000000000E+00  0.45593999997E+02  0.45594000000E+02  0.51100000000E-03 0.  1.
         11   -1    0    0    0    0 -0.00000000000E+00 -0.00000000000E+00 -0.45593999997E+02  0.45594000000E+02  0.51100000000E-03 0. -1.
    9900012    2    1    2    0    0 -0.51322518184E+00 -0.93834587007E+00  0.49917195253E+00  0.90007717959E+02  0.89999979036E+02 0.  0.
         12    1    1    2    0    0  0.51322518184E+00  0.93834587007E+00 -0.49917195253E+00  0.11802820414E+01  0.00000000000E+00 0. -1.
         11    1    3    3    0    0  0.10283120752E+02 -0.65969847290E+01 -0.30467138570E+02  0.32825436978E+02  0.51100000000E-03 0. -1.
        -11    1    3    3    0    0  0.37057804857E+01  0.11064895386E+01 -0.11470795491E+02  0.12105216957E+02  0.51100000000E-03 0.  1.
        -12    1    3    3    0    0 -0.14502126420E+02  0.45521493203E+01  0.42437106014E+02  0.45077064023E+02  0.00000000000E+00 0.  1.
</event>
<event>
 7    1  0.4358868E-015  0.9000774E+02  0.7816164E-02  0.1186339E+00
        -11   -1    0    0    0    0  0.00000000000E+00  0.00000000000E+00  0.45593999997E+02  0.45594000000E+02  0.51100000000E-03 0. -1.
         11   -1    0    0    0    0 -0.00000000000E+00 -0.00000000000E+00 -0.45593999997E+02  0.45594000000E+02  0.51100000000E-03 0.  1.
    9900012    2    1    2    0    0  0.80962971959E+00  0.41904796702E+00 -0.74960158106E+00  0.90007744091E+02  0.90000005513E+02 0.  0.
         12    1    1    2    0    0 -0.80962971959E+00 -0.41904796702E+00  0.74960158106E+00  0.11802559095E+01  0.00000000000E+00 0. -1.
         11    1    3    3    0    0  0.72972234428E+01 -0.87241661193E+01  0.14388651228E+01  0.11464330663E+02  0.51100000000E-03 0. -1.
        -11    1    3    3    0    0  0.27120866142E+02  0.26905710826E+02  0.83319016566E+01  0.39100885423E+02  0.51100000000E-03 0.  1.
         12    1    3    3    0    0 -0.33608459865E+02 -0.17762496740E+02 -0.10520368360E+02  0.39442528005E+02  0.00000000000E+00 0. -1.
</event>
<event>
 7    1  0.4358868E-015  0.9000772E+02  0.7816164E-02  0.1186339E+00
        -11   -1    0    0    0    0  0.00000000000E+00  0.00000000000E+00  0.45593999997E+02  0.45594000000E+02  0.51100000000E-03 0. -1.
         11   -1    0    0    0    0 -0.00000000000E+00 -0.00000000000E+00 -0.45593999997E+02  0.45594000000E+02  0.51100000000E-03 0.  1.
    9900012    2    1    2    0    0 -0.32187711041E+00 -0.11335861016E+01  0.66677042071E-01  0.90007716919E+02  0.89999977982E+02 0.  0.
         12    1    1    2    0    0  0.32187711041E+00  0.11335861016E+01 -0.66677042071E-01  0.11802830813E+01  0.00000000000E+00 0. -1.
         11    1    3    3    0    0 -0.79336669022E+01  0.35908643982E+01 -0.26645837278E+01  0.91069964502E+01  0.51100000000E-03 0. -1.
        -11    1    3    3    0    0  0.26697598376E+02 -0.15390568046E+02 -0.29033381304E+02  0.42338736094E+02  0.51100000000E-03 0.  1.
         12    1    3    3    0    0 -0.19085808584E+02  0.10666117546E+02  0.31764642074E+02  0.38561984375E+02  0.00000000000E+00 0. -1.
</event>
<event>
 7    1  0.4358868E-015  0.9000679E+02  0.7816164E-02  0.1186341E+00
        -11   -1    0    0    0    0  0.00000000000E+00  0.00000000000E+00  0.45593999997E+02  0.45594000000E+02  0.51100000000E-03 0.  1.
         11   -1    0    0    0    0 -0.00000000000E+00 -0.00000000000E+00 -0.45593999997E+02  0.45594000000E+02  0.51100000000E-03 0. -1.
    9900012    2    1    2    0    0  0.39858534990E+00  0.10863621877E+01 -0.23709007242E+00  0.90006786731E+02  0.89999035511E+02 0.  0.
         12    1    1    2    0    0 -0.39858534990E+00 -0.10863621877E+01  0.23709007242E+00  0.11812132688E+01  0.00000000000E+00 0. -1.
         11    1    3    3    0    0 -0.26763682388E+01  0.11018523951E+02 -0.38774937145E+02  0.40398843645E+02  0.51100000000E-03 0. -1.
        -11    1    3    3    0    0 -0.40423011702E+01 -0.36577164494E+01 -0.35226051825E+01  0.64905959593E+01  0.51100000000E-03 0.  1.
        -12    1    3    3    0    0  0.71172547588E+01 -0.62744453137E+01  0.42060452255E+02  0.43117347126E+02  0.00000000000E+00 0.  1.
</event>
<event>
 7    1  0.4358868E-015  0.9000755E+02  0.7816164E-02  0.1186339E+00
        -11   -1    0    0    0    0  0.00000000000E+00  0.00000000000E+00  0.45593999997E+02  0.45594000000E+02  0.51100000000E-03 0. -1.
         11   -1    0    0    0    0 -0.00000000000E+00 -0.00000000000E+00 -0.45593999997E+02  0.45594000000E+02  0.51100000000E-03 0.  1.
    9900012    2    1    2    0    0  0.50150680069E+00 -0.10165567158E+01 -0.32948936838E+00  0.90007550987E+02  0.89999809860E+02 0.  0.
         12    1    1    2    0    0 -0.50150680069E+00  0.10165567158E+01  0.32948936838E+00  0.11804490126E+01  0.00000000000E+00 0. -1.
         11    1    3    3    0    0 -0.20407696576E+02  0.17722316881E+02  0.59669204344E+01  0.27679572521E+02  0.51100000000E-03 0. -1.
        -11    1    3    3    0    0 -0.17308222315E+02 -0.73104172770E+01  0.73405107872E+01  0.20171758955E+02  0.51100000000E-03 0.  1.
        -12    1    3    3    0    0  0.38217425692E+02 -0.11428456320E+02 -0.13636920590E+02  0.42156219512E+02  0.00000000000E+00 0.  1.
</event>
<event>
 7    1  0.4358868E-015  0.9000778E+02  0.7816164E-02  0.1186339E+00
        -11   -1    0    0    0    0  0.00000000000E+00  0.00000000000E+00  0.45593999997E+02  0.45594000000E+02  0.51100000000E-03 0. -1.
         11   -1    0    0    0    0 -0.00000000000E+00 -0.00000000000E+00 -0.45593999997E+02  0.45594000000E+02  0.51100000000E-03 0.  1.
    9900012    2    1    2    0    0 -0.50879287969E+00 -0.10550699956E+01  0.14450927598E+00  0.90007777216E+02  0.90000039075E+02 0.  0.
         12    1    1    2    0    0  0.50879287969E+00  0.10550699956E+01 -0.14450927598E+00  0.11802227844E+01  0.00000000000E+00 0. -1.
         11    1    3    3    0    0 -0.36471415349E+02  0.88440084020E+01  0.91375331167E-02  0.37528398659E+02  0.51100000000E-03 0. -1.
        -11    1    3    3    0    0 -0.57875308221E+01  0.57462870021E+00  0.67722329850E+01  0.89268612079E+01  0.51100000000E-03 0.  1.
        -12    1    3    3    0    0  0.41750153291E+02 -0.10473707098E+02 -0.66368612421E+01  0.43552517348E+02  0.00000000000E+00 0.  1.
</event>
<event>
 7    1  0.4358868E-015  0.9000775E+02  0.7816164E-02  0.1186339E+00
        -11   -1    0    0    0    0  0.00000000000E+00  0.00000000000E+00  0.45593999997E+02  0.45594000000E+02  0.51100000000E-03 0. -1.
         11   -1    0    0    0    0 -0.00000000000E+00 -0.00000000000E+00 -0.45593999997E+02  0.45594000000E+02  0.51100000000E-03 0.  1.
    9900012    2    1    2    0    0 -0.30087614407E-01  0.56567559552E+00 -0.10354246715E+01  0.90007746470E+02  0.90000007924E+02 0.  0.
         12    1    1    2    0    0  0.30087614407E-01 -0.56567559552E+00  0.10354246715E+01  0.11802535296E+01  0.00000000000E+00 0. -1.
         11    1    3    3    0    0 -0.27124502443E+01 -0.99041517685E+01 -0.11407399705E+01  0.10332032546E+02  0.51100000000E-03 0. -1.
        -11    1    3    3    0    0 -0.26519565223E+01  0.81120778177E+01 -0.39109346637E+02  0.40029734879E+02  0.51100000000E-03 0.  1.
         12    1    3    3    0    0  0.53343191523E+01  0.23577495464E+01  0.39214661936E+02  0.39645979045E+02  0.00000000000E+00 0. -1.
</event>
<event>
 7    1  0.4358868E-015  0.9000771E+02  0.7816164E-02  0.1186339E+00
        -11   -1    0    0    0    0  0.00000000000E+00  0.00000000000E+00  0.45593999997E+02  0.45594000000E+02  0.51100000000E-03 0.  1.
         11   -1    0    0    0    0 -0.00000000000E+00 -0.00000000000E+00 -0.45593999997E+02  0.45594000000E+02  0.51100000000E-03 0. -1.
    9900012    2    1    2    0    0 -0.10265923040E+01 -0.36118278093E+00  0.45689088570E+00  0.90007705951E+02  0.89999966870E+02 0.  0.
         12    1    1    2    0    0  0.10265923040E+01  0.36118278093E+00 -0.45689088570E+00  0.11802940486E+01  0.00000000000E+00 0. -1.
         11    1    3    3    0    0 -0.30488930149E+01 -0.76747778956E+01 -0.57570870058E+01  0.10066877143E+02  0.51100000000E-03 0. -1.
        -11    1    3    3    0    0  0.81930406299E+01 -0.35080863635E+02 -0.28982039560E+01  0.36141285182E+02  0.51100000000E-03 0.  1.
         12    1    3    3    0    0 -0.61707399189E+01  0.42394458750E+02  0.91121818475E+01  0.43799543626E+02  0.00000000000E+00 0. -1.
</event>
<event>
 7    1  0.4358868E-015  0.9000772E+02  0.7816164E-02  0.1186339E+00
        -11   -1    0    0    0    0  0.00000000000E+00  0.00000000000E+00  0.45593999997E+02  0.45594000000E+02  0.51100000000E-03 0.  1.
         11   -1    0    0    0    0 -0.00000000000E+00 -0.00000000000E+00 -0.45593999997E+02  0.45594000000E+02  0.51100000000E-03 0. -1.
    9900012    2    1    2    0    0 -0.11610170150E+01  0.16940053999E+00 -0.12803790851E+00  0.90007724287E+02  0.89999985448E+02 0.  0.
         12    1    1    2    0    0  0.11610170150E+01 -0.16940053999E+00  0.12803790851E+00  0.11802757128E+01  0.00000000000E+00 0. -1.
         11    1    3    3    0    0 -0.41372643604E+01 -0.28996300768E+01  0.11477950059E+02  0.12540659823E+02  0.51100000000E-03 0. -1.
        -11    1    3    3    0    0 -0.35881757946E+02 -0.38808355159E+01  0.76575647998E+00  0.36099138783E+02  0.51100000000E-03 0.  1.
         12    1    3    3    0    0  0.38858005292E+02  0.69498661327E+01 -0.12371744447E+02  0.41367925682E+02  0.00000000000E+00 0. -1.
</event>
<event>
 7    1  0.4358868E-015  0.9000771E+02  0.7816164E-02  0.1186339E+00
        -11   -1    0    0    0    0  0.00000000000E+00  0.00000000000E+00  0.45593999997E+02  0.45594000000E+02  0.51100000000E-03 0. -1.
         11   -1    0    0    0    0 -0.00000000000E+00 -0.00000000000E+00 -0.45593999997E+02  0.45594000000E+02  0.51100000000E-03 0.  1.
    9900012    2    1    2    0    0  0.11332985983E+00  0.61741194360E+00 -0.99952406444E+00  0.90007707866E+02  0.89999968810E+02 0.  0.
         12    1    1    2    0    0 -0.11332985983E+00 -0.61741194360E+00  0.99952406444E+00  0.11802921336E+01  0.00000000000E+00 0. -1.
         11    1    3    3    0    0  0.46932391242E+01  0.12258700687E+01 -0.14028720740E+02  0.14843660491E+02  0.51100000000E-03 0. -1.
        -11    1    3    3    0    0  0.22004697430E+02  0.17154491875E+02  0.28291452217E+02  0.39735243416E+02  0.51100000000E-03 0.  1.
         12    1    3    3    0    0 -0.26584606695E+02 -0.17762950000E+02 -0.15262255541E+02  0.35428803960E+02  0.00000000000E+00 0. -1.
</event>
<event>
 7    1  0.4358868E-015  0.9000773E+02  0.7816164E-02  0.1186339E+00
        -11   -1    0    0    0    0  0.00000000000E+00  0.00000000000E+00  0.45593999997E+02  0.45594000000E+02  0.51100000000E-03 0. -1.
         11   -1    0    0    0    0 -0.00000000000E+00 -0.00000000000E+00 -0.45593999997E+02  0.45594000000E+02  0.51100000000E-03 0.  1.
    9900012    2    1    2    0    0  0.16127295666E+00 -0.11171595056E+01 -0.34495113792E+00  0.90007726466E+02  0.89999987655E+02 0.  0.
         12    1    1    2    0    0 -0.16127295666E+00  0.11171595056E+01  0.34495113792E+00  0.11802735340E+01  0.00000000000E+00 0. -1.
         11    1    3    3    0    0  0.30156828044E+02 -0.17042862103E+02  0.72792334482E+01  0.35396054387E+02  0.51100000000E-03 0. -1.
        -11    1    3    3    0    0  0.83498191227E+01 -0.82884207347E+00  0.63187850038E+01  0.10503975569E+02  0.51100000000E-03 0.  1.
        -12    1    3    3    0    0 -0.38345374210E+02  0.16754544671E+02 -0.13942969590E+02  0.44107696510E+02  0.00000000000E+00 0.  1.
</event>
<event>
 7    1  0.4358868E-015  0.9000835E+02  0.7816164E-02  0.1186338E+00
        -11   -1    0    0    0    0  0.00000000000E+00  0.00000000000E+00  0.45593999997E+02  0.45594000000E+02  0.51100000000E-03 0. -1.
         11   -1    0    0    0    0 -0.00000000000E+00 -0.00000000000E+00 -0.45593999997E+02  0.45594000000E+02  0.51100000000E-03 0.  1.
    9900012    2    1    2    0    0 -0.11593509570E+01 -0.14504360493E+00  0.16263174945E+00  0.90008346926E+02  0.90000616303E+02 0.  0.
         12    1    1    2    0    0  0.11593509570E+01  0.14504360493E+00 -0.16263174945E+00  0.11796530739E+01  0.00000000000E+00 0. -1.
         11    1    3    3    0    0 -0.33490893568E+02 -0.97598552444E+01  0.18295081532E+02  0.39390414251E+02  0.51100000000E-03 0. -1.
        -11    1    3    3    0    0 -0.28353824260E+01  0.77768694917E+01  0.38246251255E+01  0.91184894695E+01  0.51100000000E-03 0.  1.
        -12    1    3    3    0    0  0.35166925037E+02  0.18379421477E+01 -0.21957074908E+02  0.41499443206E+02  0.00000000000E+00 0.  1.
</event>
<event>
 7    1  0.4358868E-015  0.9000716E+02  0.7816164E-02  0.1186340E+00
        -11   -1    0    0    0    0  0.00000000000E+00  0.00000000000E+00  0.45593999997E+02  0.45594000000E+02  0.51100000000E-03 0. -1.
         11   -1    0    0    0    0 -0.00000000000E+00 -0.00000000000E+00 -0.45593999997E+02  0.45594000000E+02  0.51100000000E-03 0.  1.
    9900012    2    1    2    0    0  0.45586507558E+00  0.88653665645E+00 -0.63294772780E+00  0.90007160029E+02  0.89999413740E+02 0.  0.
         12    1    1    2    0    0 -0.45586507558E+00 -0.88653665645E+00  0.63294772780E+00  0.11808399707E+01  0.00000000000E+00 0. -1.
         11    1    3    3    0    0 -0.11243350310E+01  0.39025951057E+01  0.89085640422E+01  0.97906532661E+01  0.51100000000E-03 0. -1.
        -11    1    3    3    0    0  0.27493750538E+02  0.23368711879E+02  0.11242710726E+02  0.37794200061E+02  0.51100000000E-03 0.  1.
         12    1    3    3    0    0 -0.25913550431E+02 -0.26384770328E+02 -0.20784222496E+02  0.42422306703E+02  0.00000000000E+00 0. -1.
</event>
<event>
 7    1  0.4358868E-015  0.9000776E+02  0.7816164E-02  0.1186339E+00
        -11   -1    0    0    0    0  0.00000000000E+00  0.00000000000E+00  0.45593999997E+02  0.45594000000E+02  0.51100000000E-03 0.  1.
         11   -1    0    0    0    0 -0.00000000000E+00 -0.00000000000E+00 -0.45593999997E+02  0.45594000000E+02  0.51100000000E-03 0. -1.
    9900012    2    1    2    0    0  0.40338162443E+00 -0.17836231204E+00  0.10947355822E+01  0.90007756023E+02  0.90000017603E+02 0.  0.
         12    1    1    2    0    0 -0.40338162443E+00  0.17836231204E+00 -0.10947355822E+01  0.11802439765E+01  0.00000000000E+00 0. -1.
         11    1    3    3    0    0  0.29296780962E+01 -0.10679895420E+01  0.95495244414E+01  0.10045746997E+02  0.51100000000E-03 0. -1.
        -11    1    3    3    0    0 -0.18284732279E+02 -0.35404817065E+02 -0.62296574137E+01  0.40331639412E+02  0.51100000000E-03 0.  1.
         12    1    3    3    0    0  0.15758435808E+02  0.36294444295E+02 -0.22251314456E+01  0.39630369614E+02  0.00000000000E+00 0. -1.
</event>
<event>
 7    1  0.4358868E-015  0.9000774E+02  0.7816164E-02  0.1186339E+00
        -11   -1    0    0    0    0  0.00000000000E+00  0.00000000000E+00  0.45593999997E+02  0.45594000000E+02  0.51100000000E-03 0. -1.
         11   -1    0    0    0    0 -0.00000000000E+00 -0.00000000000E+00 -0.45593999997E+02  0.45594000000E+02  0.51100000000E-03 0.  1.
    9900012    2    1    2    0    0 -0.71261674796E+00 -0.82324077029E+00 -0.45549199204E+00  0.90007736915E+02  0.89999998242E+02 0.  0.
         12    1    1    2    0    0  0.71261674796E+00  0.82324077029E+00  0.45549199204E+00  0.11802630851E+01  0.00000000000E+00 0. -1.
         11    1    3    3    0    0 -0.89248540843E+01  0.26603254999E+01 -0.61094986444E+01  0.11138057557E+02  0.51100000000E-03 0. -1.
        -11    1    3    3    0    0 -0.16065134697E+01  0.23230073041E+02 -0.26933226727E+02  0.35603593656E+02  0.51100000000E-03 0.  1.
         12    1    3    3    0    0  0.98187508060E+01 -0.26713639311E+02  0.32587233380E+02  0.43266085702E+02  0.00000000000E+00 0. -1.
</event>
<event>
 7    1  0.4358868E-015  0.9000774E+02  0.7816164E-02  0.1186339E+00
        -11   -1    0    0    0    0  0.00000000000E+00  0.00000000000E+00  0.45593999997E+02  0.45594000000E+02  0.51100000000E-03 0.  1.
         11   -1    0    0    0    0 -0.00000000000E+00 -0.00000000000E+00 -0.45593999997E+02  0.45594000000E+02  0.51100000000E-03 0. -1.
    9900012    2    1    2    0    0 -0.52532546783E+00 -0.78754360123E-01  0.10539649512E+01  0.90007741039E+02  0.90000002421E+02 0.  0.
         12    1    1    2    0    0  0.52532546783E+00  0.78754360123E-01 -0.10539649512E+01  0.11802589609E+01  0.00000000000E+00 0. -1.
         11    1    3    3    0    0  0.11684058831E+02 -0.81169933413E+01  0.43389274694E+01  0.14873772337E+02  0.51100000000E-03 0. -1.
        -11    1    3    3    0    0 -0.35066933094E+02  0.53058959514E+01  0.21366726517E+02  0.41405064071E+02  0.51100000000E-03 0.  1.
         12    1    3    3    0    0  0.22857548795E+02  0.27323430298E+01 -0.24651689035E+02  0.33728904631E+02  0.00000000000E+00 0. -1.
</event>
<event>
 7    1  0.4358868E-015  0.9000753E+02  0.7816164E-02  0.1186339E+00
        -11   -1    0    0    0    0  0.00000000000E+00  0.00000000000E+00  0.45593999997E+02  0.45594000000E+02  0.51100000000E-03 0.  1.
         11   -1    0    0    0    0 -0.00000000000E+00 -0.00000000000E+00 -0.45593999997E+02  0.45594000000E+02  0.51100000000E-03 0. -1.
    9900012    2    1    2    0    0  0.10574747159E+01 -0.49862881379E+00  0.16317875615E+00  0.90007529426E+02  0.89999788015E+02 0.  0.
         12    1    1    2    0    0 -0.10574747159E+01  0.49862881379E+00 -0.16317875615E+00  0.11804705736E+01  0.00000000000E+00 0. -1.
         11    1    3    3    0    0 -0.74767851127E+00  0.31619504090E+01 -0.10030656787E+02  0.10543767324E+02  0.51100000000E-03 0. -1.
        -11    1    3    3    0    0 -0.30955136413E+02  0.21305965056E+02  0.61127540670E+01  0.38072698615E+02  0.51100000000E-03 0.  1.
         12    1    3    3    0    0  0.32760289640E+02 -0.24966544278E+02  0.40810814764E+01  0.41391063487E+02  0.00000000000E+00 0. -1.
</event>
<event>
 7    1  0.4358868E-015  0.9000763E+02  0.7816164E-02  0.1186339E+00
        -11   -1    0    0    0    0  0.00000000000E+00  0.00000000000E+00  0.45593999997E+02  0.45594000000E+02  0.51100000000E-03 0.  1.
         11   -1    0    0    0    0 -0.00000000000E+00 -0.00000000000E+00 -0.45593999997E+02  0.45594000000E+02  0.51100000000E-03 0. -1.
    9900012    2    1    2    0    0  0.96280904512E+00 -0.55110873347E+00 -0.40317145935E+00  0.90007631702E+02  0.89999891640E+02 0.  0.
         12    1    1    2    0    0 -0.96280904512E+00  0.55110873347E+00  0.40317145935E+00  0.11803682981E+01  0.00000000000E+00 0. -1.
         11    1    3    3    0    0 -0.57488866471E+01  0.51535076367E+01  0.93170796072E+01  0.12100260795E+02  0.51100000000E-03 0. -1.
        -11    1    3    3    0    0  0.24646726457E+02 -0.11659911274E+02  0.25886215331E+02  0.37596686030E+02  0.51100000000E-03 0.  1.
         12    1    3    3    0    0 -0.17935030765E+02  0.59552949035E+01 -0.35606466398E+02  0.40310684877E+02  0.00000000000E+00 0. -1.
</event>
<event>
 7    1  0.4358868E-015  0.9000773E+02  0.7816164E-02  0.1186339E+00
        -11   -1    0    0    0    0  0.00000000000E+00  0.00000000000E+00  0.45593999997E+02  0.45594000000E+02  0.51100000000E-03 0.  1.
         11   -1    0    0    0    0 -0.00000000000E+00 -0.00000000000E+00 -0.45593999997E+02  0.45594000000E+02  0.51100000000E-03 0. -1.
    9900012    2    1    2    0    0 -0.80766466596E+00 -0.85541507162E+00  0.94807677108E-01  0.90007726450E+02  0.89999987639E+02 0.  0.
         12    1    1    2    0    0  0.80766466596E+00  0.85541507162E+00 -0.94807677108E-01  0.11802735501E+01  0.00000000000E+00 0. -1.
         11    1    3    3    0    0 -0.63644669461E+01 -0.55601628663E+01  0.37202522474E+01  0.92337493822E+01  0.51100000000E-03 0. -1.
        -11    1    3    3    0    0 -0.29143047270E+02  0.25271295413E+02 -0.10212021080E+02  0.39902894016E+02  0.51100000000E-03 0.  1.
         12    1    3    3    0    0  0.34699849550E+02 -0.20566547618E+02  0.65865765097E+01  0.40871083052E+02  0.00000000000E+00 0. -1.
</event>
<event>
 7    1  0.4358868E-015  0.9000768E+02  0.7816164E-02  0.1186339E+00
        -11   -1    0    0    0    0  0.00000000000E+00  0.00000000000E+00  0.45593999997E+02  0.45594000000E+02  0.51100000000E-03 0. -1.
         11   -1    0    0    0    0 -0.00000000000E+00 -0.00000000000E+00 -0.45593999997E+02  0.45594000000E+02  0.51100000000E-03 0.  1.
    9900012    2    1    2    0    0  0.51917891071E+00  0.25793236631E+00 -0.10281494088E+01  0.90007675022E+02  0.89999935532E+02 0.  0.
         12    1    1    2    0    0 -0.51917891071E+00 -0.25793236631E+00  0.10281494088E+01  0.11803249780E+01  0.00000000000E+00 0. -1.
         11    1    3    3    0    0 -0.27141860399E+02 -0.18295499816E+02  0.25235990441E+02  0.41331115557E+02  0.51100000000E-03 0. -1.
        -11    1    3    3    0    0  0.51421339113E+01  0.98039784816E+01  0.22572528600E+01  0.11298439094E+02  0.51100000000E-03 0.  1.
        -12    1    3    3    0    0  0.22518905398E+02  0.87494537006E+01 -0.28521392709E+02  0.37378120371E+02  0.00000000000E+00 0.  1.
</event>
<event>
 7    1  0.4358868E-015  0.9000774E+02  0.7816164E-02  0.1186339E+00
        -11   -1    0    0    0    0  0.00000000000E+00  0.00000000000E+00  0.45593999997E+02  0.45594000000E+02  0.51100000000E-03 0. -1.
         11   -1    0    0    0    0 -0.00000000000E+00 -0.00000000000E+00 -0.45593999997E+02  0.45594000000E+02  0.51100000000E-03 0.  1.
    9900012    2    1    2    0    0  0.17491946484E+00  0.61666996209E+00 -0.99102540657E+00  0.90007741546E+02  0.90000002935E+02 0.  0.
         12    1    1    2    0    0 -0.17491946484E+00 -0.61666996209E+00  0.99102540657E+00  0.11802584538E+01  0.00000000000E+00 0. -1.
         11    1    3    3    0    0  0.64713508902E+01 -0.18974589046E+01 -0.82265680754E+01  0.10637441196E+02  0.51100000000E-03 0. -1.
        -11    1    3    3    0    0  0.30687762650E+02 -0.15682534984E+02 -0.80822070401E+01  0.35397778898E+02  0.51100000000E-03 0.  1.
         12    1    3    3    0    0 -0.36984194075E+02  0.18196663851E+02  0.15317749709E+02  0.43972521452E+02  0.00000000000E+00 0. -1.
</event>
<event>
 7    1  0.4523231E-015  0.9000771E+02  0.7816164E-02  0.1186339E+00
        -11   -1    0    0    0    0  0.00000000000E+00  0.00000000000E+00  0.45593999997E+02  0.45594000000E+02  0.51100000000E-03 0.  1.
         11   -1    0    0    0    0 -0.00000000000E+00 -0.00000000000E+00 -0.45593999997E+02  0.45594000000E+02  0.51100000000E-03 0. -1.
    9900012    2    1    2    0    0 -0.15489947708E+00  0.72607604788E+00  0.91754748673E+00  0.90007714583E+02  0.89999975615E+02 0.  0.
         12    1    1    2    0    0  0.15489947708E+00 -0.72607604788E+00 -0.91754748673E+00  0.11802854170E+01  0.00000000000E+00 0. -1.
         11    1    3    3    0    0 -0.90448720670E+01 -0.12423365094E+02 -0.32085587824E+02  0.35575759405E+02  0.51100000000E-03 0. -1.
        -11    1    3    3    0    0 -0.22674136225E+00  0.20660396783E+01 -0.94203015783E+01  0.96468654850E+01  0.51100000000E-03 0.  1.
        -12    1    3    3    0    0  0.91167139522E+01  0.11083401464E+02  0.42423436889E+02  0.44785089693E+02  0.00000000000E+00 0.  1.
</event>
<event>
 7    1  0.4358868E-015  0.9000764E+02  0.7816164E-02  0.1186339E+00
        -11   -1    0    0    0    0  0.00000000000E+00  0.00000000000E+00  0.45593999997E+02  0.45594000000E+02  0.51100000000E-03 0. -1.
         11   -1    0    0    0    0 -0.00000000000E+00 -0.00000000000E+00 -0.45593999997E+02  0.45594000000E+02  0.51100000000E-03 0.  1.
    9900012    2    1    2    0    0 -0.71635202651E+00 -0.85993462886E+00 -0.37495914657E+00  0.90007643209E+02  0.89999903300E+02 0.  0.
         12    1    1    2    0    0  0.71635202651E+00  0.85993462886E+00  0.37495914657E+00  0.11803567907E+01  0.00000000000E+00 0. -1.
         11    1    3    3    0    0 -0.24653374288E+01 -0.21934996475E+01 -0.75935816092E+01  0.82796021195E+01  0.51100000000E-03 0. -1.
        -11    1    3    3    0    0 -0.11117072557E+02  0.12485186147E+02 -0.33584433193E+02  0.37515108004E+02  0.51100000000E-03 0.  1.
         12    1    3    3    0    0  0.12866057959E+02 -0.11151621128E+02  0.40803055656E+02  0.44212933086E+02  0.00000000000E+00 0. -1.
</event>
<event>
 7    1  0.4358868E-015  0.9000766E+02  0.7816164E-02  0.1186339E+00
        -11   -1    0    0    0    0  0.00000000000E+00  0.00000000000E+00  0.45593999997E+02  0.45594000000E+02  0.51100000000E-03 0. -1.
         11   -1    0    0    0    0 -0.00000000000E+00 -0.00000000000E+00 -0.45593999997E+02  0.45594000000E+02  0.51100000000E-03 0.  1.
    9900012    2    1    2    0    0  0.11597771384E+00  0.24673313362E+00 -0.11484181919E+01  0.90007664280E+02  0.89999924648E+02 0.  0.
         12    1    1    2    0    0 -0.11597771384E+00 -0.24673313362E+00  0.11484181919E+01  0.11803357204E+01  0.00000000000E+00 0. -1.
         11    1    3    3    0    0 -0.18234704237E+02  0.30686379824E+02  0.29673439242E+01  0.35818479526E+02  0.51100000000E-03 0. -1.
        -11    1    3    3    0    0  0.88764381522E+00  0.91159929728E+01  0.43333382828E+01  0.10132475530E+02  0.51100000000E-03 0.  1.
        -12    1    3    3    0    0  0.17463038135E+02 -0.39555639663E+02 -0.84491003990E+01  0.44056709224E+02  0.00000000000E+00 0.  1.
</event>
<event>
 7    1  0.4358868E-015  0.9000799E+02  0.7816164E-02  0.1186339E+00
        -11   -1    0    0    0    0  0.00000000000E+00  0.00000000000E+00  0.45593999997E+02  0.45594000000E+02  0.51100000000E-03 0. -1.
         11   -1    0    0    0    0 -0.00000000000E+00 -0.00000000000E+00 -0.45593999997E+02  0.45594000000E+02  0.51100000000E-03 0.  1.
    9900012    2    1    2    0    0 -0.71761136013E+00  0.74111598774E+00  0.57289571316E+00  0.90007987937E+02  0.90000252577E+02 0.  0.
         12    1    1    2    0    0  0.71761136013E+00 -0.74111598774E+00 -0.57289571316E+00  0.11800120633E+01  0.00000000000E+00 0. -1.
         11    1    3    3    0    0  0.69391069602E+01 -0.41311015675E+01 -0.44210569991E+01  0.92066796847E+01  0.51100000000E-03 0. -1.
        -11    1    3    3    0    0 -0.15967865359E+01  0.19632141122E+02 -0.33651163694E+02  0.38991941610E+02  0.51100000000E-03 0.  1.
         12    1    3    3    0    0 -0.60599317845E+01 -0.14759923567E+02  0.38645116406E+02  0.41809366642E+02  0.00000000000E+00 0. -1.
</event>
<event>
 7    1  0.4358868E-015  0.9000772E+02  0.7816164E-02  0.1186339E+00
        -11   -1    0    0    0    0  0.00000000000E+00  0.00000000000E+00  0.45593999997E+02  0.45594000000E+02  0.51100000000E-03 0. -1.
         11   -1    0    0    0    0 -0.00000000000E+00 -0.00000000000E+00 -0.45593999997E+02  0.45594000000E+02  0.51100000000E-03 0.  1.
    9900012    2    1    2    0    0 -0.66259926917E+00  0.68035596389E+00 -0.70081674005E+00  0.90007717774E+02  0.89999978849E+02 0.  0.
         12    1    1    2    0    0  0.66259926917E+00 -0.68035596389E+00  0.70081674005E+00  0.11802822257E+01  0.00000000000E+00 0. -1.
         11    1    3    3    0    0  0.14972262695E+00  0.31665882130E+00  0.77805534189E+01  0.77884338246E+01  0.51100000000E-03 0. -1.
        -11    1    3    3    0    0  0.26690466642E+02 -0.29626894490E+02  0.28524521480E+01  0.39978373781E+02  0.51100000000E-03 0.  1.
         12    1    3    3    0    0 -0.27502788538E+02  0.29990591632E+02 -0.11333822307E+02  0.42240910169E+02  0.00000000000E+00 0. -1.
</event>
<event>
 7    1  0.4358868E-015  0.9000773E+02  0.7816164E-02  0.1186339E+00
        -11   -1    0    0    0    0  0.00000000000E+00  0.00000000000E+00  0.45593999997E+02  0.45594000000E+02  0.51100000000E-03 0.  1.
         11   -1    0    0    0    0 -0.00000000000E+00 -0.00000000000E+00 -0.45593999997E+02  0.45594000000E+02  0.51100000000E-03 0. -1.
    9900012    2    1    2    0    0  0.23600247779E+00 -0.44383301668E+00  0.10678702922E+01  0.90007732286E+02  0.89999993552E+02 0.  0.
         12    1    1    2    0    0 -0.23600247779E+00  0.44383301668E+00 -0.10678702922E+01  0.11802677142E+01  0.00000000000E+00 0. -1.
         11    1    3    3    0    0 -0.66302338075E+01  0.27139808976E+01  0.75770301802E+01  0.10427707287E+02  0.51100000000E-03 0. -1.
        -11    1    3    3    0    0  0.33537487396E+02  0.22648901872E+02  0.48729745722E+01  0.40761276946E+02  0.51100000000E-03 0.  1.
         12    1    3    3    0    0 -0.26671251111E+02 -0.25806715786E+02 -0.11382134460E+02  0.38818748052E+02  0.00000000000E+00 0. -1.
</event>
<event>
 7    1  0.4774542E-015  0.9000775E+02  0.7816164E-02  0.1186339E+00
        -11   -1    0    0    0    0  0.00000000000E+00  0.00000000000E+00  0.45593999997E+02  0.45594000000E+02  0.51100000000E-03 0. -1.
         11   -1    0    0    0    0 -0.00000000000E+00 -0.00000000000E+00 -0.45593999997E+02  0.45594000000E+02  0.51100000000E-03 0.  1.
    9900012    2    1    2    0    0 -0.10483625429E+01 -0.53947141021E+00 -0.53907426632E-01  0.90007746030E+02  0.90000007477E+02 0.  0.
         12    1    1    2    0    0  0.10483625429E+01  0.53947141021E+00  0.53907426632E-01  0.11802539703E+01  0.00000000000E+00 0. -1.
         11    1    3    3    0    0  0.30247933308E+02  0.10657251893E+02 -0.26538026893E+02  0.41626690464E+02  0.51100000000E-03 0. -1.
        -11    1    3    3    0    0 -0.29912161252E+01  0.62395054029E+01  0.70235212547E+01  0.98594448453E+01  0.51100000000E-03 0.  1.
        -12    1    3    3    0    0 -0.28305079726E+02 -0.17436228706E+02  0.19460598211E+02  0.38521610721E+02  0.00000000000E+00 0.  1.
</event>
<event>
 7    1  0.4358868E-015  0.9000779E+02  0.7816164E-02  0.1186339E+00
        -11   -1    0    0    0    0  0.00000000000E+00  0.00000000000E+00  0.45593999997E+02  0.45594000000E+02  0.51100000000E-03 0.  1.
         11   -1    0    0    0    0 -0.00000000000E+00 -0.00000000000E+00 -0.45593999997E+02  0.45594000000E+02  0.51100000000E-03 0. -1.
    9900012    2    1    2    0    0  0.10520739311E+01 -0.38760264672E+00  0.36849692161E+00  0.90007794361E+02  0.90000056447E+02 0.  0.
         12    1    1    2    0    0 -0.10520739311E+01  0.38760264672E+00 -0.36849692161E+00  0.11802056387E+01  0.00000000000E+00 0. -1.
         11    1    3    3    0    0 -0.86956156387E+01  0.32618910017E+01 -0.12989044086E+02  0.15967746577E+02  0.51100000000E-03 0. -1.
        -11    1    3    3    0    0 -0.13871955329E+02  0.83893025501E+01 -0.23554564993E+02  0.28594213999E+02  0.51100000000E-03 0.  1.
         12    1    3    3    0    0  0.23619644898E+02 -0.12038796199E+02  0.36912106001E+02  0.45445833785E+02  0.00000000000E+00 0. -1.
</event>
<event>
 7    1  0.4358868E-015  0.9000769E+02  0.7816164E-02  0.1186339E+00
        -11   -1    0    0    0    0  0.00000000000E+00  0.00000000000E+00  0.45593999997E+02  0.45594000000E+02  0.51100000000E-03 0. -1.
         11   -1    0    0    0    0 -0.00000000000E+00 -0.00000000000E+00 -0.45593999997E+02  0.45594000000E+02  0.51100000000E-03 0.  1.
    9900012    2    1    2    0    0  0.10197021481E+01  0.68151780414E-01 -0.59050037033E+00  0.90007691641E+02  0.89999952370E+02 0.  0.
         12    1    1    2    0    0 -0.10197021481E+01 -0.68151780414E-01  0.59050037033E+00  0.11803083594E+01  0.00000000000E+00 0. -1.
         11    1    3    3    0    0  0.19832231657E+01 -0.78611911460E+00 -0.88214742492E+01  0.90757680434E+01  0.51100000000E-03 0. -1.
        -11    1    3    3    0    0 -0.55103959124E+01  0.17107112025E+02 -0.32335616863E+02  0.36994727504E+02  0.51100000000E-03 0.  1.
         12    1    3    3    0    0  0.45468748948E+01 -0.16252841130E+02  0.40566590742E+02  0.43937196093E+02  0.00000000000E+00 0. -1.
</event>
<event>
 7    1  0.4358868E-015  0.9000770E+02  0.7816164E-02  0.1186339E+00
        -11   -1    0    0    0    0  0.00000000000E+00  0.00000000000E+00  0.45593999997E+02  0.45594000000E+02  0.51100000000E-03 0.  1.
         11   -1    0    0    0    0 -0.00000000000E+00 -0.00000000000E+00 -0.45593999997E+02  0.45594000000E+02  0.51100000000E-03 0. -1.
    9900012    2    1    2    0    0 -0.72333054906E+00  0.40583481185E+00  0.83976732955E+00  0.90007695740E+02  0.89999956524E+02 0.  0.
         12    1    1    2    0    0  0.72333054906E+00 -0.40583481185E+00 -0.83976732955E+00  0.11803042597E+01  0.00000000000E+00 0. -1.
         11    1    3    3    0    0  0.10203020403E+02  0.98764044451E+01  0.61274843631E+01  0.15465802759E+02  0.51100000000E-03 0. -1.
        -11    1    3    3    0    0 -0.39150951620E+02  0.81519240115E+01 -0.92091629245E+01  0.41037294744E+02  0.51100000000E-03 0.  1.
         12    1    3    3    0    0  0.28224600669E+02 -0.17622493645E+02  0.39214458910E+01  0.33504598237E+02  0.00000000000E+00 0. -1.
</event>
<event>
 7    1  0.4358868E-015  0.9000774E+02  0.7816164E-02  0.1186339E+00
        -11   -1    0    0    0    0  0.00000000000E+00  0.00000000000E+00  0.45593999997E+02  0.45594000000E+02  0.51100000000E-03 0. -1.
         11   -1    0    0    0    0 -0.00000000000E+00 -0.00000000000E+00 -0.45593999997E+02  0.45594000000E+02  0.51100000000E-03 0.  1.
    9900012    2    1    2    0    0 -0.89570768038E+00 -0.21813139580E+00 -0.73697519399E+00  0.90007743252E+02  0.90000004663E+02 0.  0.
         12    1    1    2    0    0  0.89570768038E+00  0.21813139580E+00  0.73697519399E+00  0.11802567480E+01  0.00000000000E+00 0. -1.
         11    1    3    3    0    0  0.62587353599E+01  0.16108998942E+02  0.20918121445E+00  0.17283384282E+02  0.51100000000E-03 0. -1.
        -11    1    3    3    0    0 -0.18190211163E+02  0.23446694779E+02  0.74642551075E+01  0.30599777496E+02  0.51100000000E-03 0.  1.
         12    1    3    3    0    0  0.11035768123E+02 -0.39773825117E+02 -0.84104115160E+01  0.42124581474E+02  0.00000000000E+00 0. -1.
</event>
<event>
 7    1  0.4358868E-015  0.9000784E+02  0.7816164E-02  0.1186339E+00
        -11   -1    0    0    0    0  0.00000000000E+00  0.00000000000E+00  0.45593999997E+02  0.45594000000E+02  0.51100000000E-03 0. -1.
         11   -1    0    0    0    0 -0.00000000000E+00 -0.00000000000E+00 -0.45593999997E+02  0.45594000000E+02  0.51100000000E-03 0.  1.
    9900012    2    1    2    0    0  0.51901151375E+00  0.32237449193E+00 -0.10096882071E+01  0.90007843849E+02  0.90000106588E+02 0.  0.
         12    1    1    2    0    0 -0.51901151375E+00 -0.32237449193E+00  0.10096882071E+01  0.11801561507E+01  0.00000000000E+00 0. -1.
         11    1    3    3    0    0  0.12277710455E+01 -0.20449492965E+01 -0.11604945336E+02  0.11847531214E+02  0.51100000000E-03 0. -1.
        -11    1    3    3    0    0  0.21390353423E+02 -0.83000700729E+01 -0.25634090149E+02  0.34402688279E+02  0.51100000000E-03 0.  1.
         12    1    3    3    0    0 -0.22099112955E+02  0.10667393861E+02  0.36229347277E+02  0.43757624357E+02  0.00000000000E+00 0. -1.
</event>
<event>
 7    1  0.4358868E-015  0.9000777E+02  0.7816164E-02  0.1186339E+00
        -11   -1    0    0    0    0  0.00000000000E+00  0.00000000000E+00  0.45593999997E+02  0.45594000000E+02  0.51100000000E-03 0. -1.
         11   -1    0    0    0    0 -0.00000000000E+00 -0.00000000000E+00 -0.45593999997E+02  0.45594000000E+02  0.51100000000E-03 0.  1.
    9900012    2    1    2    0    0 -0.74690922077E+00 -0.78262956402E+00 -0.47175191911E+00  0.90007774474E+02  0.90000036297E+02 0.  0.
         12    1    1    2    0    0  0.74690922077E+00  0.78262956402E+00  0.47175191911E+00  0.11802255258E+01  0.00000000000E+00 0. -1.
         11    1    3    3    0    0  0.69036023114E+01 -0.61437248011E+00 -0.65686302275E+01  0.95490356448E+01  0.51100000000E-03 0. -1.
        -11    1    3    3    0    0 -0.15925939047E+02 -0.88929634203E+01 -0.34007376939E+02  0.38590439483E+02  0.51100000000E-03 0.  1.
         12    1    3    3    0    0  0.82754275147E+01  0.87247063364E+01  0.40104255248E+02  0.41868299347E+02  0.00000000000E+00 0. -1.
</event>
<event>
 7    1  0.4358868E-015  0.9000771E+02  0.7816164E-02  0.1186339E+00
        -11   -1    0    0    0    0  0.00000000000E+00  0.00000000000E+00  0.45593999997E+02  0.45594000000E+02  0.51100000000E-03 0.  1.
         11   -1    0    0    0    0 -0.00000000000E+00 -0.00000000000E+00 -0.45593999997E+02  0.45594000000E+02  0.51100000000E-03 0. -1.
    9900012    2    1    2    0    0 -0.71236418269E+00 -0.53727802837E+00  0.77262077529E+00  0.90007714750E+02  0.89999975785E+02 0.  0.
         12    1    1    2    0    0  0.71236418269E+00  0.53727802837E+00 -0.77262077529E+00  0.11802852498E+01  0.00000000000E+00 0. -1.
         11    1    3    3    0    0  0.10231896216E+01 -0.64791994800E+01  0.31814093330E+01  0.72902886437E+01  0.51100000000E-03 0. -1.
        -11    1    3    3    0    0 -0.30815142128E+02  0.43558956772E+01  0.27093299337E+02  0.41262497268E+02  0.51100000000E-03 0.  1.
         12    1    3    3    0    0  0.29079588324E+02  0.15860257744E+01 -0.29502087895E+02  0.41454928839E+02  0.00000000000E+00 0. -1.
</event>
<event>
 7    1  0.4358868E-015  0.9000758E+02  0.7816164E-02  0.1186339E+00
        -11   -1    0    0    0    0  0.00000000000E+00  0.00000000000E+00  0.45593999997E+02  0.45594000000E+02  0.51100000000E-03 0. -1.
         11   -1    0    0    0    0 -0.00000000000E+00 -0.00000000000E+00 -0.45593999997E+02  0.45594000000E+02  0.51100000000E-03 0.  1.
    9900012    2    1    2    0    0  0.39790268866E+00  0.31997599678E+00 -0.10642702727E+01  0.90007583802E+02  0.89999843108E+02 0.  0.
         12    1    1    2    0    0 -0.39790268866E+00 -0.31997599678E+00  0.10642702727E+01  0.11804161985E+01  0.00000000000E+00 0. -1.
         11    1    3    3    0    0  0.41704195574E+02  0.63573171092E+01 -0.60750821050E+01  0.42621145364E+02  0.51100000000E-03 0. -1.
        -11    1    3    3    0    0 -0.35951238028E+01  0.60314254286E+01  0.32889509411E+01  0.77537221005E+01  0.51100000000E-03 0.  1.
        -12    1    3    3    0    0 -0.37711169082E+02 -0.12068766541E+02  0.17218608912E+01  0.39632716337E+02  0.00000000000E+00 0.  1.
</event>
<event>
 7    1  0.4358868E-015  0.9000764E+02  0.7816164E-02  0.1186339E+00
        -11   -1    0    0    0    0  0.00000000000E+00  0.00000000000E+00  0.45593999997E+02  0.45594000000E+02  0.51100000000E-03 0.  1.
         11   -1    0    0    0    0 -0.00000000000E+00 -0.00000000000E+00 -0.45593999997E+02  0.45594000000E+02  0.51100000000E-03 0. -1.
    9900012    2    1    2    0    0  0.23669056408E+00  0.38557793543E+00  0.10902123468E+01  0.90007637459E+02  0.89999897473E+02 0.  0.
         12    1    1    2    0    0 -0.23669056408E+00 -0.38557793543E+00 -0.10902123468E+01  0.11803625412E+01  0.00000000000E+00 0. -1.
         11    1    3    3    0    0  0.49107838945E+01  0.92117318107E+01  0.53773259289E+01  0.11742548097E+02  0.51100000000E-03 0. -1.
        -11    1    3    3    0    0  0.25649127809E+02  0.96887166169E+01  0.21100865244E+02  0.34597622770E+02  0.51100000000E-03 0.  1.
         12    1    3    3    0    0 -0.30323221139E+02 -0.18514870492E+02 -0.25387978826E+02  0.43667466591E+02  0.00000000000E+00 0. -1.
</event>
<event>
 7    1  0.4358868E-015  0.9000703E+02  0.7816164E-02  0.1186340E+00
        -11   -1    0    0    0    0  0.00000000000E+00  0.00000000000E+00  0.45593999997E+02  0.45594000000E+02  0.51100000000E-03 0. -1.
         11   -1    0    0    0    0 -0.00000000000E+00 -0.00000000000E+00 -0.45593999997E+02  0.45594000000E+02  0.51100000000E-03 0.  1.
    9900012    2    1    2    0    0  0.20384392108E+00  0.11286439740E+01 -0.28159805654E+00  0.90007031317E+02  0.89999283328E+02 0.  0.
         12    1    1    2    0    0 -0.20384392108E+00 -0.11286439740E+01  0.28159805654E+00  0.11809686828E+01  0.00000000000E+00 0. -1.
         11    1    3    3    0    0  0.34759644735E+02  0.13338855940E+02  0.20838488634E+01  0.37289414131E+02  0.51100000000E-03 0. -1.
        -11    1    3    3    0    0 -0.34195962510E+01  0.10562494614E+02  0.68649830623E+01  0.13053272528E+02  0.51100000000E-03 0.  1.
        -12    1    3    3    0    0 -0.31136204563E+02 -0.22772706580E+02 -0.92304299823E+01  0.39664344658E+02  0.00000000000E+00 0.  1.
</event>
<event>
 7    1  0.4358868E-015  0.9000775E+02  0.7816164E-02  0.1186339E+00
        -11   -1    0    0    0    0  0.00000000000E+00  0.00000000000E+00  0.45593999997E+02  0.45594000000E+02  0.51100000000E-03 0.  1.
         11   -1    0    0    0    0 -0.00000000000E+00 -0.00000000000E+00 -0.45593999997E+02  0.45594000000E+02  0.51100000000E-03 0. -1.
    9900012    2    1    2    0    0 -0.86016807739E+00  0.75222244211E+00  0.29540855851E+00  0.90007748357E+02  0.90000009836E+02 0.  0.
         12    1    1    2    0    0  0.86016807739E+00 -0.75222244211E+00 -0.29540855851E+00  0.11802516428E+01  0.00000000000E+00 0. -1.
         11    1    3    3    0    0 -0.15924199025E+02 -0.25903853597E+02  0.22305621770E+02  0.37711145681E+02  0.51100000000E-03 0. -1.
        -11    1    3    3    0    0 -0.76792105433E+01 -0.17526846916E+01  0.26801379500E+01  0.83201753520E+01  0.51100000000E-03 0.  1.
        -12    1    3    3    0    0  0.22743241490E+02  0.28408760731E+02 -0.24690351161E+02  0.43976427324E+02  0.00000000000E+00 0.  1.
</event>
<event>
 7    1  0.4358868E-015  0.9000772E+02  0.7816164E-02  0.1186339E+00
        -11   -1    0    0    0    0  0.00000000000E+00  0.00000000000E+00  0.45593999997E+02  0.45594000000E+02  0.51100000000E-03 0. -1.
         11   -1    0    0    0    0 -0.00000000000E+00 -0.00000000000E+00 -0.45593999997E+02  0.45594000000E+02  0.51100000000E-03 0.  1.
    9900012    2    1    2    0    0  0.29848167394E+00 -0.99845601200E+00 -0.55411756818E+00  0.90007723762E+02  0.89999984916E+02 0.  0.
         12    1    1    2    0    0 -0.29848167394E+00  0.99845601200E+00  0.55411756818E+00  0.11802762376E+01  0.00000000000E+00 0. -1.
         11    1    3    3    0    0 -0.22013973614E+01  0.65877768910E+01 -0.35303918561E+01  0.77915737581E+01  0.51100000000E-03 0. -1.
        -11    1    3    3    0    0 -0.23377582454E+02 -0.16924009308E+02 -0.28397600178E+02  0.40488975642E+02  0.51100000000E-03 0.  1.
         12    1    3    3    0    0  0.25877461489E+02  0.93377764048E+01  0.31373874465E+02  0.41727174362E+02  0.00000000000E+00 0. -1.
</event>
<event>
 7    1  0.4358868E-015  0.9000772E+02  0.7816164E-02  0.1186339E+00
        -11   -1    0    0    0    0  0.00000000000E+00  0.00000000000E+00  0.45593999997E+02  0.45594000000E+02  0.51100000000E-03 0. -1.
         11   -1    0    0    0    0 -0.00000000000E+00 -0.00000000000E+00 -0.45593999997E+02  0.45594000000E+02  0.51100000000E-03 0.  1.
    9900012    2    1    2    0    0 -0.11454051879E+01  0.19601819387E+00 -0.20662121618E+00  0.90007716770E+02  0.89999977831E+02 0.  0.
         12    1    1    2    0    0  0.11454051879E+01 -0.19601819387E+00  0.20662121618E+00  0.11802832304E+01  0.00000000000E+00 0. -1.
         11    1    3    3    0    0 -0.16113586954E+02 -0.20654378171E+02  0.27163062323E+02  0.37737023958E+02  0.51100000000E-03 0. -1.
        -11    1    3    3    0    0  0.53120466965E+01 -0.23971677318E+01  0.73533232491E+01  0.93827296831E+01  0.51100000000E-03 0.  1.
        -12    1    3    3    0    0  0.96561350697E+01  0.23247564097E+02 -0.34723006788E+02  0.42887963129E+02  0.00000000000E+00 0.  1.
</event>
<event>
 7    1  0.4358868E-015  0.9000775E+02  0.7816164E-02  0.1186339E+00
        -11   -1    0    0    0    0  0.00000000000E+00  0.00000000000E+00  0.45593999997E+02  0.45594000000E+02  0.51100000000E-03 0. -1.
         11   -1    0    0    0    0 -0.00000000000E+00 -0.00000000000E+00 -0.45593999997E+02  0.45594000000E+02  0.51100000000E-03 0.  1.
    9900012    2    1    2    0    0  0.77525017736E+00  0.75079933656E+00  0.47778735105E+00  0.90007748656E+02  0.90000010139E+02 0.  0.
         12    1    1    2    0    0 -0.77525017736E+00 -0.75079933656E+00 -0.47778735105E+00  0.11802513436E+01  0.00000000000E+00 0. -1.
         11    1    3    3    0    0  0.95916502858E+01 -0.63658115172E+01  0.41800391803E+02  0.43356615027E+02  0.51100000000E-03 0. -1.
        -11    1    3    3    0    0  0.98631896430E+00 -0.55333653802E+01 -0.97447433621E+01  0.11249488032E+02  0.51100000000E-03 0.  1.
        -12    1    3    3    0    0 -0.98027190727E+01  0.12649976234E+02 -0.31577861090E+02  0.35401645597E+02  0.00000000000E+00 0.  1.
</event>
<event>
 7    1  0.4358868E-015  0.9000759E+02  0.7816164E-02  0.1186339E+00
        -11   -1    0    0    0    0  0.00000000000E+00  0.00000000000E+00  0.45593999997E+02  0.45594000000E+02  0.51100000000E-03 0.  1.
         11   -1    0    0    0    0 -0.00000000000E+00 -0.00000000000E+00 -0.45593999997E+02  0.45594000000E+02  0.51100000000E-03 0. -1.
    9900012    2    1    2    0    0 -0.45059752339E+00  0.10274014889E+01 -0.36711145784E+00  0.90007592117E+02  0.89999851533E+02 0.  0.
         12    1    1    2    0    0  0.45059752339E+00 -0.10274014889E+01  0.36711145784E+00  0.11804078829E+01  0.00000000000E+00 0. -1.
         11    1    3    3    0    0 -0.56870028438E+01  0.10910316848E+02  0.20148456153E-02  0.12303536865E+02  0.51100000000E-03 0. -1.
        -11    1    3    3    0    0 -0.25571760506E+02  0.23561013352E+01  0.25092597811E+02  0.35904103025E+02  0.51100000000E-03 0.  1.
         12    1    3    3    0    0  0.30808165827E+02 -0.12239016694E+02 -0.25461724115E+02  0.41799952226E+02  0.00000000000E+00 0. -1.
</event>
<event>
 7    1  0.4358868E-015  0.9000772E+02  0.7816164E-02  0.1186339E+00
        -11   -1    0    0    0    0  0.00000000000E+00  0.00000000000E+00  0.45593999997E+02  0.45594000000E+02  0.51100000000E-03 0. -1.
         11   -1    0    0    0    0 -0.00000000000E+00 -0.00000000000E+00 -0.45593999997E+02  0.45594000000E+02  0.51100000000E-03 0.  1.
    9900012    2    1    2    0    0 -0.12996305197E+00  0.92280105268E+00 -0.72429847730E+00  0.90007720176E+02  0.89999981283E+02 0.  0.
         12    1    1    2    0    0  0.12996305197E+00 -0.92280105268E+00  0.72429847730E+00  0.11802798236E+01  0.00000000000E+00 0. -1.
         11    1    3    3    0    0  0.50194909204E+01 -0.14875239183E+02  0.38169853963E+01  0.16156652117E+02  0.51100000000E-03 0. -1.
        -11    1    3    3    0    0  0.26031857554E+02  0.10507112753E+02 -0.23815692509E+02  0.36813641983E+02  0.51100000000E-03 0.  1.
         12    1    3    3    0    0 -0.31181311526E+02  0.52909274826E+01  0.19274408635E+02  0.37037426076E+02  0.00000000000E+00 0. -1.
</event>
<event>
 7    1  0.4358868E-015  0.9000780E+02  0.7816164E-02  0.1186339E+00
        -11   -1    0    0    0    0  0.00000000000E+00  0.00000000000E+00  0.45593999997E+02  0.45594000000E+02  0.51100000000E-03 0.  1.
         11   -1    0    0    0    0 -0.00000000000E+00 -0.00000000000E+00 -0.45593999997E+02  0.45594000000E+02  0.51100000000E-03 0. -1.
    9900012    2    1    2    0    0  0.69072951009E-01 -0.22178662974E+00  0.11571168619E+01  0.90007796707E+02  0.90000058823E+02 0.  0.
         12    1    1    2    0    0 -0.69072951009E-01  0.22178662974E+00 -0.11571168619E+01  0.11802032934E+01  0.00000000000E+00 0. -1.
         11    1    3    3    0    0 -0.25933988882E+01  0.83000268304E+00  0.73553830408E+01  0.78432316162E+01  0.51100000000E-03 0. -1.
        -11    1    3    3    0    0 -0.39043225953E+02  0.22597749872E+01  0.33502148174E+01  0.39251802702E+02  0.51100000000E-03 0.  1.
         12    1    3    3    0    0  0.41705697792E+02 -0.33115643000E+01 -0.95484809963E+01  0.42912762388E+02  0.00000000000E+00 0. -1.
</event>
<event>
 7    1  0.4358868E-015  0.9000770E+02  0.7816164E-02  0.1186339E+00
        -11   -1    0    0    0    0  0.00000000000E+00  0.00000000000E+00  0.45593999997E+02  0.45594000000E+02  0.51100000000E-03 0. -1.
         11   -1    0    0    0    0 -0.00000000000E+00 -0.00000000000E+00 -0.45593999997E+02  0.45594000000E+02  0.51100000000E-03 0.  1.
    9900012    2    1    2    0    0  0.80405031362E+00  0.80700569941E+00 -0.30877959860E+00  0.90007703450E+02  0.89999964335E+02 0.  0.
         12    1    1    2    0    0 -0.80405031362E+00 -0.80700569941E+00  0.30877959860E+00  0.11802965501E+01  0.00000000000E+00 0. -1.
         11    1    3    3    0    0 -0.32801624757E+02  0.96431308178E+01  0.95112334376E+01  0.35488027847E+02  0.51100000000E-03 0. -1.
        -11    1    3    3    0    0 -0.70810082698E+01 -0.60604457548E+01  0.56541416513E+01  0.10901330145E+02  0.51100000000E-03 0.  1.
        -12    1    3    3    0    0  0.40686683341E+02 -0.27756793637E+01 -0.15474154688E+02  0.43618345458E+02  0.00000000000E+00 0.  1.
</event>
<event>
 7    1  0.4358868E-015  0.9000764E+02  0.7816164E-02  0.1186339E+00
        -11   -1    0    0    0    0  0.00000000000E+00  0.00000000000E+00  0.45593999997E+02  0.45594000000E+02  0.51100000000E-03 0. -1.
         11   -1    0    0    0    0 -0.00000000000E+00 -0.00000000000E+00 -0.45593999997E+02  0.45594000000E+02  0.51100000000E-03 0.  1.
    9900012    2    1    2    0    0  0.72187484498E+00 -0.85550950222E+00 -0.37449685816E+00  0.90007640861E+02  0.89999900920E+02 0.  0.
         12    1    1    2    0    0 -0.72187484498E+00  0.85550950222E+00  0.37449685816E+00  0.11803591390E+01  0.00000000000E+00 0. -1.
         11    1    3    3    0    0  0.17851209441E+02  0.30084896956E+02 -0.15489908250E+02  0.38258384195E+02  0.51100000000E-03 0. -1.
        -11    1    3    3    0    0 -0.70185206524E+01  0.63781760981E+01 -0.16158894776E+01  0.96203878068E+01  0.51100000000E-03 0.  1.
        -12    1    3    3    0    0 -0.10110813943E+02 -0.37318582556E+02  0.16731300870E+02  0.42128868860E+02  0.00000000000E+00 0.  1.
</event>
<event>
 7    1  0.4358868E-015  0.9000791E+02  0.7816164E-02  0.1186339E+00
        -11   -1    0    0    0    0  0.00000000000E+00  0.00000000000E+00  0.45593999997E+02  0.45594000000E+02  0.51100000000E-03 0. -1.
         11   -1    0    0    0    0 -0.00000000000E+00 -0.00000000000E+00 -0.45593999997E+02  0.45594000000E+02  0.51100000000E-03 0.  1.
    9900012    2    1    2    0    0  0.94588505571E+00 -0.47881438074E-01 -0.70400994500E+00  0.90007906286E+02  0.90000169849E+02 0.  0.
         12    1    1    2    0    0 -0.94588505571E+00  0.47881438074E-01  0.70400994500E+00  0.11800937138E+01  0.00000000000E+00 0. -1.
         11    1    3    3    0    0 -0.20478068782E+02  0.27941467620E+02  0.49156216964E+01  0.34989144755E+02  0.51100000000E-03 0. -1.
        -11    1    3    3    0    0 -0.26025696282E+01  0.45404710407E+01 -0.12906000644E+02  0.13926740423E+02  0.51100000000E-03 0.  1.
        -12    1    3    3    0    0  0.24026523466E+02 -0.32529820098E+02  0.72863690023E+01  0.41092021108E+02  0.00000000000E+00 0.  1.
</event>
<event>
 7    1  0.4358868E-015  0.9000773E+02  0.7816164E-02  0.1186339E+00
        -11   -1    0    0    0    0  0.00000000000E+00  0.00000000000E+00  0.45593999997E+02  0.45594000000E+02  0.51100000000E-03 0.  1.
         11   -1    0    0    0    0 -0.00000000000E+00 -0.00000000000E+00 -0.45593999997E+02  0.45594000000E+02  0.51100000000E-03 0. -1.
    9900012    2    1    2    0    0 -0.41087602757E+00  0.11036531110E+01  0.78503038326E-01  0.90007732223E+02  0.89999993488E+02 0.  0.
         12    1    1    2    0    0  0.41087602757E+00 -0.11036531110E+01 -0.78503038326E-01  0.11802677774E+01  0.00000000000E+00 0. -1.
         11    1    3    3    0    0  0.24317442810E+02 -0.18420905372E+02  0.23083768818E+02  0.38256086610E+02  0.51100000000E-03 0. -1.
        -11    1    3    3    0    0 -0.47861112607E+01 -0.22224334796E+01  0.75914826775E+01  0.92453599754E+01  0.51100000000E-03 0.  1.
        -12    1    3    3    0    0 -0.19942207577E+02  0.21746991963E+02 -0.30596748458E+02  0.42506285637E+02  0.00000000000E+00 0.  1.
</event>
<event>
 7    1  0.4358868E-015  0.9000775E+02  0.7816164E-02  0.1186339E+00
        -11   -1    0    0    0    0  0.00000000000E+00  0.00000000000E+00  0.45593999997E+02  0.45594000000E+02  0.51100000000E-03 0.  1.
         11   -1    0    0    0    0 -0.00000000000E+00 -0.00000000000E+00 -0.45593999997E+02  0.45594000000E+02  0.51100000000E-03 0. -1.
    9900012    2    1    2    0    0 -0.42296967349E+00 -0.96662437851E+00  0.52889790262E+00  0.90007746203E+02  0.90000007653E+02 0.  0.
         12    1    1    2    0    0  0.42296967349E+00  0.96662437851E+00 -0.52889790262E+00  0.11802537969E+01  0.00000000000E+00 0. -1.
         11    1    3    3    0    0 -0.83672571259E+00 -0.98514856641E+01  0.17440499373E+01  0.10039601095E+02  0.51100000000E-03 0. -1.
        -11    1    3    3    0    0 -0.85792834080E+00 -0.87760930683E+00  0.38769704026E+02  0.38789124631E+02  0.51100000000E-03 0.  1.
         12    1    3    3    0    0  0.12716843799E+01  0.97624705924E+01 -0.39984856061E+02  0.41179020477E+02  0.00000000000E+00 0. -1.
</event>
<event>
 7    1  0.4358868E-015  0.9000759E+02  0.7816164E-02  0.1186339E+00
        -11   -1    0    0    0    0  0.00000000000E+00  0.00000000000E+00  0.45593999997E+02  0.45594000000E+02  0.51100000000E-03 0.  1.
         11   -1    0    0    0    0 -0.00000000000E+00 -0.00000000000E+00 -0.45593999997E+02  0.45594000000E+02  0.51100000000E-03 0. -1.
    9900012    2    1    2    0    0  0.14573868841E+00 -0.10520907134E+00  0.11666439025E+01  0.90007590449E+02  0.89999849842E+02 0.  0.
         12    1    1    2    0    0 -0.14573868841E+00  0.10520907134E+00 -0.11666439025E+01  0.11804095514E+01  0.00000000000E+00 0. -1.
         11    1    3    3    0    0  0.10109851743E+02 -0.35105400996E+02  0.11042643300E+02  0.38164620432E+02  0.51100000000E-03 0. -1.
        -11    1    3    3    0    0  0.50421710224E+01 -0.22601193488E+01  0.64413332666E+01  0.84866013575E+01  0.51100000000E-03 0.  1.
        -12    1    3    3    0    0 -0.15006284077E+02  0.37260311274E+02 -0.16317332664E+02  0.43356368659E+02  0.00000000000E+00 0.  1.
</event>
<event>
 7    1  0.4358868E-015  0.9000781E+02  0.7816164E-02  0.1186339E+00
        -11   -1    0    0    0    0  0.00000000000E+00  0.00000000000E+00  0.45593999997E+02  0.45594000000E+02  0.51100000000E-03 0.  1.
         11   -1    0    0    0    0 -0.00000000000E+00 -0.00000000000E+00 -0.45593999997E+02  0.45594000000E+02  0.51100000000E-03 0. -1.
    9900012    2    1    2    0    0  0.79993083120E-01 -0.77356841137E+00  0.88771818712E+00  0.90007809100E+02  0.90000071380E+02 0.  0.
         12    1    1    2    0    0 -0.79993083120E-01  0.77356841137E+00 -0.88771818712E+00  0.11801908999E+01  0.00000000000E+00 0. -1.
         11    1    3    3    0    0 -0.50019822612E+01 -0.23184079526E+01  0.73314573847E+01  0.91730643528E+01  0.51100000000E-03 0. -1.
        -11    1    3    3    0    0  0.18726353510E+02 -0.18278525914E+02  0.28316799685E+02  0.38556737025E+02  0.51100000000E-03 0.  1.
         12    1    3    3    0    0 -0.13644378166E+02  0.19823365455E+02 -0.34760538883E+02  0.42278007722E+02  0.00000000000E+00 0. -1.
</event>
<event>
 7    1  0.4358868E-015  0.9000771E+02  0.7816164E-02  0.1186339E+00
        -11   -1    0    0    0    0  0.00000000000E+00  0.00000000000E+00  0.45593999997E+02  0.45594000000E+02  0.51100000000E-03 0.  1.
         11   -1    0    0    0    0 -0.00000000000E+00 -0.00000000000E+00 -0.45593999997E+02  0.45594000000E+02  0.51100000000E-03 0. -1.
    9900012    2    1    2    0    0  0.35651841350E+00  0.11234038354E+01 -0.62706869343E-01  0.90007714565E+02  0.89999975597E+02 0.  0.
         12    1    1    2    0    0 -0.35651841350E+00 -0.11234038354E+01  0.62706869343E-01  0.11802854350E+01  0.00000000000E+00 0. -1.
         11    1    3    3    0    0  0.27115911541E+01 -0.49116257334E+01 -0.97398648249E+01  0.11240185096E+02  0.51100000000E-03 0. -1.
        -11    1    3    3    0    0 -0.11158608622E+02 -0.34638360923E+02  0.19699918232E+01  0.36444635570E+02  0.51100000000E-03 0.  1.
         12    1    3    3    0    0  0.88035358815E+01  0.40673390492E+02  0.77071661323E+01  0.42322893898E+02  0.00000000000E+00 0. -1.
</event>
<event>
 7    1  0.4358868E-015  0.9000768E+02  0.7816164E-02  0.1186339E+00
        -11   -1    0    0    0    0  0.00000000000E+00  0.00000000000E+00  0.45593999997E+02  0.45594000000E+02  0.51100000000E-03 0. -1.
         11   -1    0    0    0    0 -0.00000000000E+00 -0.00000000000E+00 -0.45593999997E+02  0.45594000000E+02  0.51100000000E-03 0.  1.
    9900012    2    1    2    0    0  0.13491601447E+00 -0.29060239547E+00 -0.11359986160E+01  0.90007684390E+02  0.89999945024E+02 0.  0.
         12    1    1    2    0    0 -0.13491601447E+00  0.29060239547E+00  0.11359986160E+01  0.11803156098E+01  0.00000000000E+00 0. -1.
         11    1    3    3    0    0 -0.37292430175E+02 -0.21972133078E+02  0.62271556529E+01  0.43729594648E+02  0.51100000000E-03 0. -1.
        -11    1    3    3    0    0  0.54566787034E+01  0.10928857268E+01 -0.60623564228E+01  0.82293321322E+01  0.51100000000E-03 0.  1.
        -12    1    3    3    0    0  0.31970667486E+02  0.20588644955E+02 -0.13007978461E+01  0.38048757610E+02  0.00000000000E+00 0.  1.
</event>
<event>
 7    1  0.4358868E-015  0.9000838E+02  0.7816164E-02  0.1186338E+00
        -11   -1    0    0    0    0  0.00000000000E+00  0.00000000000E+00  0.45593999997E+02  0.45594000000E+02  0.51100000000E-03 0.  1.
         11   -1    0    0    0    0 -0.00000000000E+00 -0.00000000000E+00 -0.45593999997E+02  0.45594000000E+02  0.51100000000E-03 0. -1.
    9900012    2    1    2    0    0  0.51335984286E+00 -0.10525685797E+01 -0.14164869656E+00  0.90008380020E+02  0.90000649834E+02 0.  0.
         12    1    1    2    0    0 -0.51335984286E+00  0.10525685797E+01  0.14164869656E+00  0.11796199797E+01  0.00000000000E+00 0. -1.
         11    1    3    3    0    0 -0.27993526859E+02 -0.14797815311E+02 -0.13341398148E+02  0.34359944540E+02  0.51100000000E-03 0. -1.
        -11    1    3    3    0    0 -0.44692883207E+01 -0.26516092479E+01  0.17792050616E+02  0.18535442673E+02  0.51100000000E-03 0.  1.
        -12    1    3    3    0    0  0.32976175022E+02  0.16396855980E+02 -0.45923011648E+01  0.37112992807E+02  0.00000000000E+00 0.  1.
</event>
<event>
 7    1  0.4358868E-015  0.9000769E+02  0.7816164E-02  0.1186339E+00
        -11   -1    0    0    0    0  0.00000000000E+00  0.00000000000E+00  0.45593999997E+02  0.45594000000E+02  0.51100000000E-03 0.  1.
         11   -1    0    0    0    0 -0.00000000000E+00 -0.00000000000E+00 -0.45593999997E+02  0.45594000000E+02  0.51100000000E-03 0. -1.
    9900012    2    1    2    0    0  0.74872182227E-01 -0.96397414947E+00  0.67697097434E+00  0.90007685760E+02  0.89999946412E+02 0.  0.
         12    1    1    2    0    0 -0.74872182227E-01  0.96397414947E+00 -0.67697097434E+00  0.11803142398E+01  0.00000000000E+00 0. -1.
         11    1    3    3    0    0  0.36692754296E+02  0.89412902194E+01  0.15182395526E+02  0.40703931294E+02  0.51100000000E-03 0. -1.
        -11    1    3    3    0    0 -0.66265637744E+01  0.11275575397E+01  0.78271129918E+01  0.10317287992E+02  0.51100000000E-03 0.  1.
        -12    1    3    3    0    0 -0.29991318340E+02 -0.11032821909E+02 -0.22332537543E+02  0.38986466474E+02  0.00000000000E+00 0.  1.
</event>
<event>
 7    1  0.4358868E-015  0.9000771E+02  0.7816164E-02  0.1186339E+00
        -11   -1    0    0    0    0  0.00000000000E+00  0.00000000000E+00  0.45593999997E+02  0.45594000000E+02  0.51100000000E-03 0.  1.
         11   -1    0    0    0    0 -0.00000000000E+00 -0.00000000000E+00 -0.45593999997E+02  0.45594000000E+02  0.51100000000E-03 0. -1.
    9900012    2    1    2    0    0  0.33731447706E-01  0.81284157394E+00  0.85512457724E+00  0.90007708817E+02  0.89999969773E+02 0.  0.
         12    1    1    2    0    0 -0.33731447706E-01 -0.81284157394E+00 -0.85512457724E+00  0.11802911834E+01  0.00000000000E+00 0. -1.
         11    1    3    3    0    0  0.13450426660E+01  0.58095272018E+01  0.77244228173E+01  0.97584042857E+01  0.51100000000E-03 0. -1.
        -11    1    3    3    0    0  0.18214679787E+02  0.32567213312E+02  0.27021492454E+00  0.37315827191E+02  0.51100000000E-03 0.  1.
         12    1    3    3    0    0 -0.19525991005E+02 -0.37563898939E+02 -0.71395131646E+01  0.42933477340E+02  0.00000000000E+00 0. -1.
</event>
<event>
 7    1  0.4358868E-015  0.9000773E+02  0.7816164E-02  0.1186339E+00
        -11   -1    0    0    0    0  0.00000000000E+00  0.00000000000E+00  0.45593999997E+02  0.45594000000E+02  0.51100000000E-03 0.  1.
         11   -1    0    0    0    0 -0.00000000000E+00 -0.00000000000E+00 -0.45593999997E+02  0.45594000000E+02  0.51100000000E-03 0. -1.
    9900012    2    1    2    0    0 -0.13103269057E+00 -0.47348782233E+00  0.10731629529E+01  0.90007729265E+02  0.89999990491E+02 0.  0.
         12    1    1    2    0    0  0.13103269057E+00  0.47348782233E+00 -0.10731629529E+01  0.11802707348E+01  0.00000000000E+00 0. -1.
         11    1    3    3    0    0  0.12616574960E+01  0.42129713336E-01  0.89946789245E+01  0.90828301628E+01  0.51100000000E-03 0. -1.
        -11    1    3    3    0    0  0.13334294829E+02 -0.37544155210E+02  0.18849475864E+01  0.39886338973E+02  0.51100000000E-03 0.  1.
         12    1    3    3    0    0 -0.14726985015E+02  0.37028537675E+02 -0.98064635579E+01  0.41038560129E+02  0.00000000000E+00 0. -1.
</event>
<event>
 7    1  0.4358868E-015  0.9000777E+02  0.7816164E-02  0.1186339E+00
        -11   -1    0    0    0    0  0.00000000000E+00  0.00000000000E+00  0.45593999997E+02  0.45594000000E+02  0.51100000000E-03 0. -1.
         11   -1    0    0    0    0 -0.00000000000E+00 -0.00000000000E+00 -0.45593999997E+02  0.45594000000E+02  0.51100000000E-03 0.  1.
    9900012    2    1    2    0    0  0.41063594226E+00 -0.39448440644E+00 -0.10337849718E+01  0.90007766467E+02  0.90000028185E+02 0.  0.
         12    1    1    2    0    0 -0.41063594226E+00  0.39448440644E+00  0.10337849718E+01  0.11802335327E+01  0.00000000000E+00 0. -1.
         11    1    3    3    0    0 -0.17631253741E+02 -0.99985121612E+01  0.24888523025E+02  0.32097818190E+02  0.51100000000E-03 0. -1.
        -11    1    3    3    0    0 -0.13073661920E+02 -0.39799988713E+01  0.21774278589E+01  0.13838432691E+02  0.51100000000E-03 0.  1.
        -12    1    3    3    0    0  0.31115551603E+02  0.13584026626E+02 -0.28099735856E+02  0.44071515586E+02  0.00000000000E+00 0.  1.
</event>
<event>
 7    1  0.4358868E-015  0.9000774E+02  0.7816164E-02  0.1186339E+00
        -11   -1    0    0    0    0  0.00000000000E+00  0.00000000000E+00  0.45593999997E+02  0.45594000000E+02  0.51100000000E-03 0.  1.
         11   -1    0    0    0    0 -0.00000000000E+00 -0.00000000000E+00 -0.45593999997E+02  0.45594000000E+02  0.51100000000E-03 0. -1.
    9900012    2    1    2    0    0  0.91839541495E+00  0.32950951065E+00  0.66407559443E+00  0.90007736025E+02  0.89999997340E+02 0.  0.
         12    1    1    2    0    0 -0.91839541495E+00 -0.32950951065E+00 -0.66407559443E+00  0.11802639751E+01  0.00000000000E+00 0. -1.
         11    1    3    3    0    0  0.90892179329E+01 -0.33020215343E+01 -0.35185127480E+01  0.10290634629E+02  0.51100000000E-03 0. -1.
        -11    1    3    3    0    0  0.29050633006E+02 -0.13679628051E+02  0.17489061337E+02  0.36564173290E+02  0.51100000000E-03 0.  1.
         12    1    3    3    0    0 -0.37221455524E+02  0.17311159096E+02 -0.13306472995E+02  0.43152928106E+02  0.00000000000E+00 0. -1.
</event>
<event>
 7    1  0.4358868E-015  0.9000784E+02  0.7816164E-02  0.1186339E+00
        -11   -1    0    0    0    0  0.00000000000E+00  0.00000000000E+00  0.45593999997E+02  0.45594000000E+02  0.51100000000E-03 0. -1.
         11   -1    0    0    0    0 -0.00000000000E+00 -0.00000000000E+00 -0.45593999997E+02  0.45594000000E+02  0.51100000000E-03 0.  1.
    9900012    2    1    2    0    0  0.62874464663E+00  0.99858064165E+00 -0.17096203271E-01  0.90007840939E+02  0.90000103640E+02 0.  0.
         12    1    1    2    0    0 -0.62874464663E+00 -0.99858064165E+00  0.17096203271E-01  0.11801590608E+01  0.00000000000E+00 0. -1.
         11    1    3    3    0    0 -0.71602017251E+00  0.25714319596E+01 -0.11072517949E+02  0.11389714711E+02  0.51100000000E-03 0. -1.
        -11    1    3    3    0    0 -0.17018624432E+02 -0.22309943380E+02 -0.21880820666E+02  0.35582825414E+02  0.51100000000E-03 0.  1.
         12    1    3    3    0    0  0.18363389251E+02  0.20737092062E+02  0.32936242412E+02  0.43035300814E+02  0.00000000000E+00 0. -1.
</event>
<event>
 7    1  0.4358868E-015  0.9000794E+02  0.7816164E-02  0.1186339E+00
        -11   -1    0    0    0    0  0.00000000000E+00  0.00000000000E+00  0.45593999997E+02  0.45594000000E+02  0.51100000000E-03 0. -1.
         11   -1    0    0    0    0 -0.00000000000E+00 -0.00000000000E+00 -0.45593999997E+02  0.45594000000E+02  0.51100000000E-03 0.  1.
    9900012    2    1    2    0    0 -0.59444359801E-01 -0.98085679054E+00 -0.65339617626E+00  0.90007940578E+02  0.90000204594E+02 0.  0.
         12    1    1    2    0    0  0.59444359801E-01  0.98085679054E+00  0.65339617626E+00  0.11800594216E+01  0.00000000000E+00 0. -1.
         11    1    3    3    0    0  0.59894820937E+01  0.47574848255E+01 -0.49861742935E+01  0.91306895666E+01  0.51100000000E-03 0. -1.
        -11    1    3    3    0    0  0.38629034103E+00  0.24543128241E+02 -0.27234181980E+02  0.36663538188E+02  0.51100000000E-03 0.  1.
         12    1    3    3    0    0 -0.64352167945E+01 -0.30281469857E+02  0.31566960097E+02  0.44213712824E+02  0.00000000000E+00 0. -1.
</event>
<event>
 7    1  0.4358868E-015  0.9000774E+02  0.7816164E-02  0.1186339E+00
        -11   -1    0    0    0    0  0.00000000000E+00  0.00000000000E+00  0.45593999997E+02  0.45594000000E+02  0.51100000000E-03 0. -1.
         11   -1    0    0    0    0 -0.00000000000E+00 -0.00000000000E+00 -0.45593999997E+02  0.45594000000E+02  0.51100000000E-03 0.  1.
    9900012    2    1    2    0    0  0.15298864702E+00  0.67473964271E+00 -0.95621221883E+00  0.90007736928E+02  0.89999998256E+02 0.  0.
         12    1    1    2    0    0 -0.15298864702E+00 -0.67473964271E+00  0.95621221883E+00  0.11802630719E+01  0.00000000000E+00 0. -1.
         11    1    3    3    0    0  0.15618538944E+01 -0.54588503902E+01  0.76516390300E+01  0.95281695659E+01  0.51100000000E-03 0. -1.
        -11    1    3    3    0    0  0.37397952643E+02 -0.77856023731E+01  0.73408918428E+00  0.38206823388E+02  0.51100000000E-03 0.  1.
         12    1    3    3    0    0 -0.38806817891E+02  0.13919192406E+02 -0.93419404331E+01  0.42272743974E+02  0.00000000000E+00 0. -1.
</event>
<event>
 7    1  0.4358868E-015  0.9000775E+02  0.7816164E-02  0.1186339E+00
        -11   -1    0    0    0    0  0.00000000000E+00  0.00000000000E+00  0.45593999997E+02  0.45594000000E+02  0.51100000000E-03 0.  1.
         11   -1    0    0    0    0 -0.00000000000E+00 -0.00000000000E+00 -0.45593999997E+02  0.45594000000E+02  0.51100000000E-03 0. -1.
    9900012    2    1    2    0    0 -0.48181970634E+00  0.92354825363E+00  0.55487729205E+00  0.90007754087E+02  0.90000015641E+02 0.  0.
         12    1    1    2    0    0  0.48181970634E+00 -0.92354825363E+00 -0.55487729205E+00  0.11802459131E+01  0.00000000000E+00 0. -1.
         11    1    3    3    0    0  0.24904656578E+02 -0.91946497861E+01 -0.29061538072E+02  0.39361866055E+02  0.51100000000E-03 0. -1.
        -11    1    3    3    0    0 -0.88306461566E+01 -0.18844248448E+01 -0.50884577198E+01  0.10364543925E+02  0.51100000000E-03 0.  1.
        -12    1    3    3    0    0 -0.16555830128E+02  0.12002622885E+02  0.34704873084E+02  0.40281344107E+02  0.00000000000E+00 0.  1.
</event>
<event>
 7    1  0.4358868E-015  0.9000776E+02  0.7816164E-02  0.1186339E+00
        -11   -1    0    0    0    0  0.00000000000E+00  0.00000000000E+00  0.45593999997E+02  0.45594000000E+02  0.51100000000E-03 0. -1.
         11   -1    0    0    0    0 -0.00000000000E+00 -0.00000000000E+00 -0.45593999997E+02  0.45594000000E+02  0.51100000000E-03 0.  1.
    9900012    2    1    2    0    0  0.67496535766E+00  0.38692947534E+00 -0.88751098132E+00  0.90007759179E+02  0.90000020800E+02 0.  0.
         12    1    1    2    0    0 -0.67496535766E+00 -0.38692947534E+00  0.88751098132E+00  0.11802408207E+01  0.00000000000E+00 0. -1.
         11    1    3    3    0    0  0.80722476506E+01  0.31371838237E+02 -0.12281080161E+02  0.34643590269E+02  0.51100000000E-03 0. -1.
        -11    1    3    3    0    0  0.79692764881E+01  0.62236136286E+01 -0.57240221678E+01  0.11619258340E+02  0.51100000000E-03 0.  1.
        -12    1    3    3    0    0 -0.15366558781E+02 -0.37208522391E+02  0.17117591347E+02  0.43744910570E+02  0.00000000000E+00 0.  1.
</event>
<event>
 7    1  0.4358868E-015  0.9000780E+02  0.7816164E-02  0.1186339E+00
        -11   -1    0    0    0    0  0.00000000000E+00  0.00000000000E+00  0.45593999997E+02  0.45594000000E+02  0.51100000000E-03 0.  1.
         11   -1    0    0    0    0 -0.00000000000E+00 -0.00000000000E+00 -0.45593999997E+02  0.45594000000E+02  0.51100000000E-03 0. -1.
    9900012    2    1    2    0    0 -0.16093925476E+00  0.66983691755E+00 -0.95827675721E+00  0.90007797779E+02  0.90000059909E+02 0.  0.
         12    1    1    2    0    0  0.16093925476E+00 -0.66983691755E+00  0.95827675721E+00  0.11802022213E+01  0.00000000000E+00 0. -1.
         11    1    3    3    0    0  0.13919938644E+02 -0.36194691626E+01 -0.17118416831E+02  0.22358565337E+02  0.51100000000E-03 0. -1.
        -11    1    3    3    0    0  0.24798324319E+02  0.74577198158E+01  0.13709623089E+01  0.25931718258E+02  0.51100000000E-03 0.  1.
        -12    1    3    3    0    0 -0.38879202218E+02 -0.31684137357E+01  0.14789177765E+02  0.41717514184E+02  0.00000000000E+00 0.  1.
</event>
<event>
 7    1  0.4358868E-015  0.9000782E+02  0.7816164E-02  0.1186339E+00
        -11   -1    0    0    0    0  0.00000000000E+00  0.00000000000E+00  0.45593999997E+02  0.45594000000E+02  0.51100000000E-03 0.  1.
         11   -1    0    0    0    0 -0.00000000000E+00 -0.00000000000E+00 -0.45593999997E+02  0.45594000000E+02  0.51100000000E-03 0. -1.
    9900012    2    1    2    0    0  0.78731653472E+00  0.69628812216E+00  0.53679235640E+00  0.90007817595E+02  0.90000079987E+02 0.  0.
         12    1    1    2    0    0 -0.78731653472E+00 -0.69628812216E+00 -0.53679235640E+00  0.11801824049E+01  0.00000000000E+00 0. -1.
         11    1    3    3    0    0 -0.23412859509E+02  0.34064890324E+02  0.12595494106E+01  0.41354143785E+02  0.51100000000E-03 0. -1.
        -11    1    3    3    0    0 -0.33364714342E+01 -0.13953676041E+02  0.32997005114E+01  0.14721587564E+02  0.51100000000E-03 0.  1.
        -12    1    3    3    0    0  0.27536647478E+02 -0.19414926161E+02 -0.40224575656E+01  0.33932086246E+02  0.00000000000E+00 0.  1.
</event>
<event>
 7    1  0.4358868E-015  0.9000796E+02  0.7816164E-02  0.1186339E+00
        -11   -1    0    0    0    0  0.00000000000E+00  0.00000000000E+00  0.45593999997E+02  0.45594000000E+02  0.51100000000E-03 0. -1.
         11   -1    0    0    0    0 -0.00000000000E+00 -0.00000000000E+00 -0.45593999997E+02  0.45594000000E+02  0.51100000000E-03 0.  1.
    9900012    2    1    2    0    0  0.21444687800E+00 -0.76438080425E+00  0.87306284230E+00  0.90007955847E+02  0.90000220063E+02 0.  0.
         12    1    1    2    0    0 -0.21444687800E+00  0.76438080425E+00 -0.87306284230E+00  0.11800441534E+01  0.00000000000E+00 0. -1.
         11    1    3    3    0    0  0.57864486183E+01  0.60897899549E+01 -0.41533794058E+01  0.93711840264E+01  0.51100000000E-03 0. -1.
        -11    1    3    3    0    0 -0.15006694298E+02  0.26808063140E+02 -0.20861307284E+02  0.37135794928E+02  0.51100000000E-03 0.  1.
         12    1    3    3    0    0  0.94346925573E+01 -0.33662233899E+02  0.25887749533E+02  0.43500976892E+02  0.00000000000E+00 0. -1.
</event>
<event>
 7    1  0.4358868E-015  0.9000792E+02  0.7816164E-02  0.1186339E+00
        -11   -1    0    0    0    0  0.00000000000E+00  0.00000000000E+00  0.45593999997E+02  0.45594000000E+02  0.51100000000E-03 0.  1.
         11   -1    0    0    0    0 -0.00000000000E+00 -0.00000000000E+00 -0.45593999997E+02  0.45594000000E+02  0.51100000000E-03 0. -1.
    9900012    2    1    2    0    0  0.32257723523E+00 -0.23965698686E+00  0.11095430689E+01  0.90007924847E+02  0.90000188655E+02 0.  0.
         12    1    1    2    0    0 -0.32257723523E+00  0.23965698686E+00 -0.11095430689E+01  0.11800751526E+01  0.00000000000E+00 0. -1.
         11    1    3    3    0    0  0.80497228478E+01  0.98052711032E+00 -0.20310120750E+01  0.83596938730E+01  0.51100000000E-03 0. -1.
        -11    1    3    3    0    0  0.20254873105E+02  0.13963907346E+02  0.30838550040E+02  0.39449547041E+02  0.51100000000E-03 0.  1.
         12    1    3    3    0    0 -0.27982018717E+02 -0.15184091444E+02 -0.27697994896E+02  0.42198683934E+02  0.00000000000E+00 0. -1.
</event>
<event>
 7    1  0.4358868E-015  0.9000780E+02  0.7816164E-02  0.1186339E+00
        -11   -1    0    0    0    0  0.00000000000E+00  0.00000000000E+00  0.45593999997E+02  0.45594000000E+02  0.51100000000E-03 0. -1.
         11   -1    0    0    0    0 -0.00000000000E+00 -0.00000000000E+00 -0.45593999997E+02  0.45594000000E+02  0.51100000000E-03 0.  1.
    9900012    2    1    2    0    0 -0.32460597324E+00 -0.10727324234E+01 -0.36978279217E+00  0.90007803744E+02  0.90000065953E+02 0.  0.
         12    1    1    2    0    0  0.32460597324E+00  0.10727324234E+01  0.36978279217E+00  0.11801962563E+01  0.00000000000E+00 0. -1.
         11    1    3    3    0    0  0.21584498300E+01 -0.50522411830E+01 -0.66186197925E+01  0.86017541733E+01  0.51100000000E-03 0. -1.
        -11    1    3    3    0    0  0.33516602051E+02 -0.61177809264E+01 -0.16273785876E+02  0.37757462355E+02  0.51100000000E-03 0.  1.
         12    1    3    3    0    0 -0.35999657854E+02  0.10097289686E+02  0.22522622876E+02  0.43648587215E+02  0.00000000000E+00 0. -1.
</event>
<event>
 7    1  0.4358868E-015  0.9000701E+02  0.7816164E-02  0.1186341E+00
        -11   -1    0    0    0    0  0.00000000000E+00  0.00000000000E+00  0.45593999997E+02  0.45594000000E+02  0.51100000000E-03 0. -1.
         11   -1    0    0    0    0 -0.00000000000E+00 -0.00000000000E+00 -0.45593999997E+02  0.45594000000E+02  0.51100000000E-03 0.  1.
    9900012    2    1    2    0    0 -0.63846528913E+00 -0.39881525298E+00 -0.90997614103E+00  0.90007005458E+02  0.89999257127E+02 0.  0.
         12    1    1    2    0    0  0.63846528913E+00  0.39881525298E+00  0.90997614103E+00  0.11809945422E+01  0.00000000000E+00 0. -1.
         11    1    3    3    0    0  0.34540852460E+01  0.82344159761E+01 -0.50997572145E+01  0.10283182156E+02  0.51100000000E-03 0. -1.
        -11    1    3    3    0    0 -0.38263450753E+01 -0.20773505572E+02 -0.33790556375E+02  0.39849481186E+02  0.51100000000E-03 0.  1.
         12    1    3    3    0    0 -0.26620545982E+00  0.12140274343E+02  0.37980337448E+02  0.39874342116E+02  0.00000000000E+00 0. -1.
</event>
<event>
 7    1  0.4358868E-015  0.9000775E+02  0.7816164E-02  0.1186339E+00
        -11   -1    0    0    0    0  0.00000000000E+00  0.00000000000E+00  0.45593999997E+02  0.45594000000E+02  0.51100000000E-03 0.  1.
         11   -1    0    0    0    0 -0.00000000000E+00 -0.00000000000E+00 -0.45593999997E+02  0.45594000000E+02  0.51100000000E-03 0. -1.
    9900012    2    1    2    0    0 -0.35835565460E-01 -0.86441995953E-02  0.11796771690E+01  0.90007747005E+02  0.90000008465E+02 0.  0.
         12    1    1    2    0    0  0.35835565460E-01  0.86441995953E-02 -0.11796771690E+01  0.11802529953E+01  0.00000000000E+00 0. -1.
         11    1    3    3    0    0 -0.62105062712E+01 -0.14501111060E+01  0.12828711194E+02  0.14326515331E+02  0.51100000000E-03 0. -1.
        -11    1    3    3    0    0 -0.19093409991E+02 -0.23799419604E+02  0.12064469818E+02  0.32810396384E+02  0.51100000000E-03 0.  1.
         12    1    3    3    0    0  0.25268080697E+02  0.25240886511E+02 -0.23713503843E+02  0.42870835290E+02  0.00000000000E+00 0. -1.
</event>
<event>
 7    1  0.4358868E-015  0.9000781E+02  0.7816164E-02  0.1186339E+00
        -11   -1    0    0    0    0  0.00000000000E+00  0.00000000000E+00  0.45593999997E+02  0.45594000000E+02  0.51100000000E-03 0.  1.
         11   -1    0    0    0    0 -0.00000000000E+00 -0.00000000000E+00 -0.45593999997E+02  0.45594000000E+02  0.51100000000E-03 0. -1.
    9900012    2    1    2    0    0 -0.41986176308E+00  0.30659822138E+00  0.10595114128E+01  0.90007808997E+02  0.90000071276E+02 0.  0.
         12    1    1    2    0    0  0.41986176308E+00 -0.30659822138E+00 -0.10595114128E+01  0.11801910029E+01  0.00000000000E+00 0. -1.
         11    1    3    3    0    0  0.60475493348E+01 -0.16779602174E+02 -0.27456533569E+02  0.32741245211E+02  0.51100000000E-03 0. -1.
        -11    1    3    3    0    0 -0.37599600031E+01 -0.75584546683E+01 -0.89735430984E+01  0.12320390099E+02  0.51100000000E-03 0.  1.
        -12    1    3    3    0    0 -0.27074510948E+01  0.24644655063E+02  0.37489588081E+02  0.44946173687E+02  0.00000000000E+00 0.  1.
</event>
<event>
 7    1  0.4358868E-015  0.9000776E+02  0.7816164E-02  0.1186339E+00
        -11   -1    0    0    0    0  0.00000000000E+00  0.00000000000E+00  0.45593999997E+02  0.45594000000E+02  0.51100000000E-03 0. -1.
         11   -1    0    0    0    0 -0.00000000000E+00 -0.00000000000E+00 -0.45593999997E+02  0.45594000000E+02  0.51100000000E-03 0.  1.
    9900012    2    1    2    0    0 -0.51978387451E+00  0.10593616977E+01  0.23082544368E-01  0.90007764733E+02  0.90000026427E+02 0.  0.
         12    1    1    2    0    0  0.51978387451E+00 -0.10593616977E+01 -0.23082544368E-01  0.11802352675E+01  0.00000000000E+00 0. -1.
         11    1    3    3    0    0 -0.32615433862E+02  0.11387676772E+02 -0.86004971710E+00  0.34556987630E+02  0.51100000000E-03 0. -1.
        -11    1    3    3    0    0 -0.72947530842E+01  0.83982093930E+01 -0.33839864023E+01  0.11627325909E+02  0.51100000000E-03 0.  1.
        -12    1    3    3    0    0  0.39390403072E+02 -0.18726524467E+02  0.42671186638E+01  0.43823451193E+02  0.00000000000E+00 0.  1.
</event>
<event>
 7    1  0.4358868E-015  0.9000732E+02  0.7816164E-02  0.1186340E+00
        -11   -1    0    0    0    0  0.00000000000E+00  0.00000000000E+00  0.45593999997E+02  0.45594000000E+02  0.51100000000E-03 0.  1.
         11   -1    0    0    0    0 -0.00000000000E+00 -0.00000000000E+00 -0.45593999997E+02  0.45594000000E+02  0.51100000000E-03 0. -1.
    9900012    2    1    2    0    0 -0.18237514040E+00 -0.78035077194E+00  0.86706418146E+00  0.90007318708E+02  0.89999574514E+02 0.  0.
         12    1    1    2    0    0  0.18237514040E+00  0.78035077194E+00 -0.86706418146E+00  0.11806812923E+01  0.00000000000E+00 0. -1.
         11    1    3    3    0    0 -0.36131058613E+02  0.14968404744E+02  0.20147970176E+01  0.39160770477E+02  0.51100000000E-03 0. -1.
        -11    1    3    3    0    0  0.58804954320E+01  0.59806789489E+01 -0.96511272009E+01  0.12786438274E+02  0.51100000000E-03 0.  1.
        -12    1    3    3    0    0  0.30068188041E+02 -0.21729434465E+02  0.85033943647E+01  0.38060109957E+02  0.00000000000E+00 0.  1.
</event>
<event>
 7    1  0.4358868E-015  0.9000773E+02  0.7816164E-02  0.1186339E+00
        -11   -1    0    0    0    0  0.00000000000E+00  0.00000000000E+00  0.45593999997E+02  0.45594000000E+02  0.51100000000E-03 0.  1.
         11   -1    0    0    0    0 -0.00000000000E+00 -0.00000000000E+00 -0.45593999997E+02  0.45594000000E+02  0.51100000000E-03 0. -1.
    9900012    2    1    2    0    0  0.10929393495E+01  0.23393587292E+00 -0.37921639255E+00  0.90007725673E+02  0.89999986852E+02 0.  0.
         12    1    1    2    0    0 -0.10929393495E+01 -0.23393587292E+00  0.37921639255E+00  0.11802743269E+01  0.00000000000E+00 0. -1.
         11    1    3    3    0    0  0.30496608565E+02  0.15375243176E+02  0.80662579182E+01  0.35092816270E+02  0.51100000000E-03 0. -1.
        -11    1    3    3    0    0  0.81207924753E+00 -0.89609670385E+01  0.14089814502E+02  0.16717693499E+02  0.51100000000E-03 0.  1.
        -12    1    3    3    0    0 -0.30215748463E+02 -0.61803402646E+01 -0.22535288813E+02  0.38197215904E+02  0.00000000000E+00 0.  1.
</event>
<event>
 7    1  0.4358868E-015  0.9000713E+02  0.7816164E-02  0.1186340E+00
        -11   -1    0    0    0    0  0.00000000000E+00  0.00000000000E+00  0.45593999997E+02  0.45594000000E+02  0.51100000000E-03 0.  1.
         11   -1    0    0    0    0 -0.00000000000E+00 -0.00000000000E+00 -0.45593999997E+02  0.45594000000E+02  0.51100000000E-03 0. -1.
    9900012    2    1    2    0    0 -0.10084939001E+01 -0.25794111656E+00  0.55755183202E+00  0.90007128453E+02  0.89999381746E+02 0.  0.
         12    1    1    2    0    0  0.10084939001E+01  0.25794111656E+00 -0.55755183202E+00  0.11808715474E+01  0.00000000000E+00 0. -1.
         11    1    3    3    0    0 -0.63451847183E+00  0.57760573377E+01 -0.80968414872E+00  0.58669447536E+01  0.51100000000E-03 0. -1.
        -11    1    3    3    0    0  0.22743837698E+02  0.26827510631E+02 -0.18031459096E+02  0.39523802920E+02  0.51100000000E-03 0.  1.
         12    1    3    3    0    0 -0.23117813126E+02 -0.32861509085E+02  0.19398695077E+02  0.44616380779E+02  0.00000000000E+00 0. -1.
</event>
<event>
 7    1  0.4358868E-015  0.9000771E+02  0.7816164E-02  0.1186339E+00
        -11   -1    0    0    0    0  0.00000000000E+00  0.00000000000E+00  0.45593999997E+02  0.45594000000E+02  0.51100000000E-03 0.  1.
         11   -1    0    0    0    0 -0.00000000000E+00 -0.00000000000E+00 -0.45593999997E+02  0.45594000000E+02  0.51100000000E-03 0. -1.
    9900012    2    1    2    0    0 -0.21363407089E+00 -0.10397177851E+01 -0.51616538802E+00  0.90007712197E+02  0.89999973198E+02 0.  0.
         12    1    1    2    0    0  0.21363407089E+00  0.10397177851E+01  0.51616538802E+00  0.11802878025E+01  0.00000000000E+00 0. -1.
         11    1    3    3    0    0 -0.31524746384E+01 -0.72334990759E+01 -0.56043567761E+01  0.96783480182E+01  0.51100000000E-03 0. -1.
        -11    1    3    3    0    0 -0.20678124987E+02  0.14804749660E+01  0.35758840641E+02  0.41333658722E+02  0.51100000000E-03 0.  1.
         12    1    3    3    0    0  0.23616965554E+02  0.47133063248E+01 -0.30670649253E+02  0.38995705457E+02  0.00000000000E+00 0. -1.
</event>
<event>
 7    1  0.4358868E-015  0.9000773E+02  0.7816164E-02  0.1186339E+00
        -11   -1    0    0    0    0  0.00000000000E+00  0.00000000000E+00  0.45593999997E+02  0.45594000000E+02  0.51100000000E-03 0. -1.
         11   -1    0    0    0    0 -0.00000000000E+00 -0.00000000000E+00 -0.45593999997E+02  0.45594000000E+02  0.51100000000E-03 0.  1.
    9900012    2    1    2    0    0 -0.79861856866E+00 -0.69034635165E+00 -0.52788023499E+00  0.90007734248E+02  0.89999995540E+02 0.  0.
         12    1    1    2    0    0  0.79861856866E+00  0.69034635165E+00  0.52788023499E+00  0.11802657522E+01  0.00000000000E+00 0. -1.
         11    1    3    3    0    0 -0.16874348235E+02  0.29445337309E+02  0.17186920484E+02  0.38041579273E+02  0.51100000000E-03 0. -1.
        -11    1    3    3    0    0  0.28804938405E+01  0.76235440919E+01  0.16992478449E+00  0.81513522792E+01  0.51100000000E-03 0.  1.
        -12    1    3    3    0    0  0.13195235826E+02 -0.37759227752E+02 -0.17884725503E+02  0.43814802696E+02  0.00000000000E+00 0.  1.
</event>
<event>
 7    1  0.4358868E-015  0.9000774E+02  0.7816164E-02  0.1186339E+00
        -11   -1    0    0    0    0  0.00000000000E+00  0.00000000000E+00  0.45593999997E+02  0.45594000000E+02  0.51100000000E-03 0. -1.
         11   -1    0    0    0    0 -0.00000000000E+00 -0.00000000000E+00 -0.45593999997E+02  0.45594000000E+02  0.51100000000E-03 0.  1.
    9900012    2    1    2    0    0 -0.55398947292E+00  0.84992273441E+00 -0.60311164145E+00  0.90007738740E+02  0.90000000091E+02 0.  0.
         12    1    1    2    0    0  0.55398947292E+00 -0.84992273441E+00  0.60311164145E+00  0.11802612603E+01  0.00000000000E+00 0. -1.
         11    1    3    3    0    0  0.44903930373E+01 -0.54449912280E+01  0.59788852169E+01  0.92497906896E+01  0.51100000000E-03 0. -1.
        -11    1    3    3    0    0  0.15916366379E+02  0.21062223859E+02 -0.34113778800E+02  0.43135807595E+02  0.51100000000E-03 0.  1.
         12    1    3    3    0    0 -0.20960748889E+02 -0.14767309897E+02  0.27531781942E+02  0.37622140455E+02  0.00000000000E+00 0. -1.
</event>
<event>
 7    1  0.4358868E-015  0.9000774E+02  0.7816164E-02  0.1186339E+00
        -11   -1    0    0    0    0  0.00000000000E+00  0.00000000000E+00  0.45593999997E+02  0.45594000000E+02  0.51100000000E-03 0. -1.
         11   -1    0    0    0    0 -0.00000000000E+00 -0.00000000000E+00 -0.45593999997E+02  0.45594000000E+02  0.51100000000E-03 0.  1.
    9900012    2    1    2    0    0  0.77575516207E+00  0.86714788602E+00  0.19819058658E+00  0.90007736878E+02  0.89999998205E+02 0.  0.
         12    1    1    2    0    0 -0.77575516207E+00 -0.86714788602E+00 -0.19819058658E+00  0.11802631216E+01  0.00000000000E+00 0. -1.
         11    1    3    3    0    0 -0.34036017823E+02 -0.92446883657E+00  0.15377626348E+02  0.37360092937E+02  0.51100000000E-03 0. -1.
        -11    1    3    3    0    0 -0.39631996376E+01 -0.77182680986E+01  0.24333823136E+01  0.90111022386E+01  0.51100000000E-03 0.  1.
        -12    1    3    3    0    0  0.38774972623E+02  0.95098848212E+01 -0.17612818075E+02  0.43636541703E+02  0.00000000000E+00 0.  1.
</event>
<event>
 7    1  0.4358868E-015  0.9000786E+02  0.7816164E-02  0.1186339E+00
        -11   -1    0    0    0    0  0.00000000000E+00  0.00000000000E+00  0.45593999997E+02  0.45594000000E+02  0.51100000000E-03 0. -1.
         11   -1    0    0    0    0 -0.00000000000E+00 -0.00000000000E+00 -0.45593999997E+02  0.45594000000E+02  0.51100000000E-03 0.  1.
    9900012    2    1    2    0    0 -0.10180422447E+00 -0.29675145477E+00 -0.11376756655E+01  0.90007859565E+02  0.90000122511E+02 0.  0.
         12    1    1    2    0    0  0.10180422447E+00  0.29675145477E+00  0.11376756655E+01  0.11801404348E+01  0.00000000000E+00 0. -1.
         11    1    3    3    0    0 -0.15542311213E+01 -0.78481084245E+01 -0.91623523938E+01  0.12163763475E+02  0.51100000000E-03 0. -1.
        -11    1    3    3    0    0 -0.36049080541E+02  0.12626477636E+02 -0.33105164135E+01  0.38339583520E+02  0.51100000000E-03 0.  1.
         12    1    3    3    0    0  0.37501507437E+02 -0.50751206660E+01  0.11335193142E+02  0.39504512570E+02  0.00000000000E+00 0. -1.
</event>
<event>
 7    1  0.4358868E-015  0.9000761E+02  0.7816164E-02  0.1186339E+00
        -11   -1    0    0    0    0  0.00000000000E+00  0.00000000000E+00  0.45593999997E+02  0.45594000000E+02  0.51100000000E-03 0. -1.
         11   -1    0    0    0    0 -0.00000000000E+00 -0.00000000000E+00 -0.45593999997E+02  0.45594000000E+02  0.51100000000E-03 0.  1.
    9900012    2    1    2    0    0  0.35544070308E+00 -0.47875245890E+00 -0.10187122440E+01  0.90007611654E+02  0.89999871328E+02 0.  0.
         12    1    1    2    0    0 -0.35544070308E+00  0.47875245890E+00  0.10187122440E+01  0.11803883456E+01  0.00000000000E+00 0. -1.
         11    1    3    3    0    0  0.33355026890E+01 -0.60961185728E+01 -0.26840115701E+01  0.74493058879E+01  0.51100000000E-03 0. -1.
        -11    1    3    3    0    0 -0.27406902760E+02 -0.18549287811E+02 -0.22964715309E+02  0.40281416890E+02  0.51100000000E-03 0.  1.
         12    1    3    3    0    0  0.24426840774E+02  0.24166653925E+02  0.24630014635E+02  0.42276888876E+02  0.00000000000E+00 0. -1.
</event>
<event>
 7    1  0.4358868E-015  0.9000731E+02  0.7816164E-02  0.1186340E+00
        -11   -1    0    0    0    0  0.00000000000E+00  0.00000000000E+00  0.45593999997E+02  0.45594000000E+02  0.51100000000E-03 0. -1.
         11   -1    0    0    0    0 -0.00000000000E+00 -0.00000000000E+00 -0.45593999997E+02  0.45594000000E+02  0.51100000000E-03 0.  1.
    9900012    2    1    2    0    0 -0.82260501927E+00  0.29236984732E+00 -0.79489896246E+00  0.90007312274E+02  0.89999567995E+02 0.  0.
         12    1    1    2    0    0  0.82260501927E+00 -0.29236984732E+00  0.79489896246E+00  0.11806877258E+01  0.00000000000E+00 0. -1.
         11    1    3    3    0    0  0.18078320964E+01  0.80834875923E+01 -0.27566365922E+01  0.87298381489E+01  0.51100000000E-03 0. -1.
        -11    1    3    3    0    0 -0.37768783310E+02  0.12404326230E+02  0.72374424432E+01  0.40407039923E+02  0.51100000000E-03 0.  1.
         12    1    3    3    0    0  0.35138346195E+02 -0.20195443975E+02 -0.52757048135E+01  0.40870434202E+02  0.00000000000E+00 0. -1.
</event>
<event>
 7    1  0.4358868E-015  0.9000771E+02  0.7816164E-02  0.1186339E+00
        -11   -1    0    0    0    0  0.00000000000E+00  0.00000000000E+00  0.45593999997E+02  0.45594000000E+02  0.51100000000E-03 0. -1.
         11   -1    0    0    0    0 -0.00000000000E+00 -0.00000000000E+00 -0.45593999997E+02  0.45594000000E+02  0.51100000000E-03 0.  1.
    9900012    2    1    2    0    0 -0.10451894922E+01  0.19061491734E+00  0.51412641646E+00  0.90007711436E+02  0.89999972427E+02 0.  0.
         12    1    1    2    0    0  0.10451894922E+01 -0.19061491734E+00 -0.51412641646E+00  0.11802885636E+01  0.00000000000E+00 0. -1.
         11    1    3    3    0    0 -0.74231597391E+01 -0.37303243521E+02  0.14189136858E+02  0.40595158366E+02  0.51100000000E-03 0. -1.
        -11    1    3    3    0    0  0.77702595078E+01  0.22319092944E+01  0.49805358777E+01  0.94954773343E+01  0.51100000000E-03 0.  1.
        -12    1    3    3    0    0 -0.13922892608E+01  0.35261949144E+02 -0.18655546319E+02  0.39917075736E+02  0.00000000000E+00 0.  1.
</event>
<event>
 7    1  0.4663486E-015  0.9000771E+02  0.7816164E-02  0.1186339E+00
        -11   -1    0    0    0    0  0.00000000000E+00  0.00000000000E+00  0.45593999997E+02  0.45594000000E+02  0.51100000000E-03 0. -1.
         11   -1    0    0    0    0 -0.00000000000E+00 -0.00000000000E+00 -0.45593999997E+02  0.45594000000E+02  0.51100000000E-03 0.  1.
    9900012    2    1    2    0    0  0.39447850534E+00 -0.49729941885E+00 -0.99506737921E+00  0.90007712284E+02  0.89999973286E+02 0.  0.
         12    1    1    2    0    0 -0.39447850534E+00  0.49729941885E+00  0.99506737921E+00  0.11802877159E+01  0.00000000000E+00 0. -1.
         11    1    3    3    0    0 -0.58350205964E+01  0.75216435923E+01  0.36145347499E+02  0.37377917730E+02  0.51100000000E-03 0. -1.
        -11    1    3    3    0    0 -0.76540331450E+01 -0.68552510848E+01  0.25316602397E+01  0.10582438030E+02  0.51100000000E-03 0.  1.
        -12    1    3    3    0    0  0.13883532247E+02 -0.11636919263E+01 -0.39672075118E+02  0.42047356525E+02  0.00000000000E+00 0.  1.
</event>
<event>
 7    1  0.4358868E-015  0.9000770E+02  0.7816164E-02  0.1186339E+00
        -11   -1    0    0    0    0  0.00000000000E+00  0.00000000000E+00  0.45593999997E+02  0.45594000000E+02  0.51100000000E-03 0.  1.
         11   -1    0    0    0    0 -0.00000000000E+00 -0.00000000000E+00 -0.45593999997E+02  0.45594000000E+02  0.51100000000E-03 0. -1.
    9900012    2    1    2    0    0  0.74264958410E+00 -0.16668481602E-01 -0.91722939600E+00  0.90007696646E+02  0.89999957442E+02 0.  0.
         12    1    1    2    0    0 -0.74264958410E+00  0.16668481602E-01  0.91722939600E+00  0.11803033542E+01  0.00000000000E+00 0. -1.
         11    1    3    3    0    0 -0.24783000952E+02  0.33270225410E+01 -0.27523990835E+02  0.37186506785E+02  0.51100000000E-03 0. -1.
        -11    1    3    3    0    0  0.27557609878E+01  0.29966201882E+00 -0.95460272420E+01  0.99403547378E+01  0.51100000000E-03 0.  1.
        -12    1    3    3    0    0  0.22769889548E+02 -0.36433530414E+01  0.36152788681E+02  0.42880835123E+02  0.00000000000E+00 0.  1.
</event>
<event>
 7    1  0.4358868E-015  0.9000780E+02  0.7816164E-02  0.1186339E+00
        -11   -1    0    0    0    0  0.00000000000E+00  0.00000000000E+00  0.45593999997E+02  0.45594000000E+02  0.51100000000E-03 0. -1.
         11   -1    0    0    0    0 -0.00000000000E+00 -0.00000000000E+00 -0.45593999997E+02  0.45594000000E+02  0.51100000000E-03 0.  1.
    9900012    2    1    2    0    0  0.23645477232E-01  0.30203034988E+00 -0.11406544147E+01  0.90007799197E+02  0.90000061347E+02 0.  0.
         12    1    1    2    0    0 -0.23645477232E-01 -0.30203034988E+00  0.11406544147E+01  0.11802008027E+01  0.00000000000E+00 0. -1.
         11    1    3    3    0    0  0.31220826658E+01 -0.70432331160E+01 -0.36939092733E+01  0.85439744194E+01  0.51100000000E-03 0. -1.
        -11    1    3    3    0    0 -0.24787049381E+02  0.23272334297E+02  0.28288833989E+02  0.44229599698E+02  0.51100000000E-03 0.  1.
         12    1    3    3    0    0  0.21688612193E+02 -0.15927070831E+02 -0.25735579131E+02  0.37234225080E+02  0.00000000000E+00 0. -1.
</event>
<event>
 7    1  0.4358868E-015  0.9000775E+02  0.7816164E-02  0.1186339E+00
        -11   -1    0    0    0    0  0.00000000000E+00  0.00000000000E+00  0.45593999997E+02  0.45594000000E+02  0.51100000000E-03 0. -1.
         11   -1    0    0    0    0 -0.00000000000E+00 -0.00000000000E+00 -0.45593999997E+02  0.45594000000E+02  0.51100000000E-03 0.  1.
    9900012    2    1    2    0    0 -0.33809688288E-01  0.95184042223E+00 -0.69702027463E+00  0.90007754031E+02  0.90000015584E+02 0.  0.
         12    1    1    2    0    0  0.33809688288E-01 -0.95184042223E+00  0.69702027463E+00  0.11802459691E+01  0.00000000000E+00 0. -1.
         11    1    3    3    0    0 -0.36806532370E+01  0.86544414914E+01  0.28308624852E+01  0.98214229341E+01  0.51100000000E-03 0. -1.
        -11    1    3    3    0    0 -0.52649404264E+01  0.52977110778E+01 -0.39875224300E+02  0.40568693023E+02  0.51100000000E-03 0.  1.
         12    1    3    3    0    0  0.89117839750E+01 -0.13000312147E+02  0.36347341540E+02  0.39617638074E+02  0.00000000000E+00 0. -1.
</event>
<event>
 7    1  0.4358868E-015  0.9000773E+02  0.7816164E-02  0.1186339E+00
        -11   -1    0    0    0    0  0.00000000000E+00  0.00000000000E+00  0.45593999997E+02  0.45594000000E+02  0.51100000000E-03 0. -1.
         11   -1    0    0    0    0 -0.00000000000E+00 -0.00000000000E+00 -0.45593999997E+02  0.45594000000E+02  0.51100000000E-03 0.  1.
    9900012    2    1    2    0    0  0.63730966854E+00 -0.91665298032E+00 -0.38291640297E+00  0.90007728306E+02  0.89999989520E+02 0.  0.
         12    1    1    2    0    0 -0.63730966854E+00  0.91665298032E+00  0.38291640297E+00  0.11802716940E+01  0.00000000000E+00 0. -1.
         11    1    3    3    0    0 -0.22393415077E+02  0.92340738916E+01  0.31614252035E+02  0.39827052257E+02  0.51100000000E-03 0. -1.
        -11    1    3    3    0    0 -0.16494505298E+01  0.79055870302E+01 -0.67081261973E+01  0.10498473731E+02  0.51100000000E-03 0.  1.
        -12    1    3    3    0    0  0.24680175276E+02 -0.18056313902E+02 -0.25289042241E+02  0.39682202318E+02  0.00000000000E+00 0.  1.
</event>
<event>
 7    1  0.4358868E-015  0.9000770E+02  0.7816164E-02  0.1186339E+00
        -11   -1    0    0    0    0  0.00000000000E+00  0.00000000000E+00  0.45593999997E+02  0.45594000000E+02  0.51100000000E-03 0.  1.
         11   -1    0    0    0    0 -0.00000000000E+00 -0.00000000000E+00 -0.45593999997E+02  0.45594000000E+02  0.51100000000E-03 0. -1.
    9900012    2    1    2    0    0 -0.20234559734E+00  0.11588843143E+01 -0.95603896218E-01  0.90007704825E+02  0.89999965729E+02 0.  0.
         12    1    1    2    0    0  0.20234559734E+00 -0.11588843143E+01  0.95603896218E-01  0.11802951748E+01  0.00000000000E+00 0. -1.
         11    1    3    3    0    0  0.16021592850E+02 -0.31945785582E+02  0.71487023524E+01  0.36446242598E+02  0.51100000000E-03 0. -1.
        -11    1    3    3    0    0 -0.24338496739E+01 -0.56409931610E+01  0.76583613423E+01  0.98180918099E+01  0.51100000000E-03 0.  1.
        -12    1    3    3    0    0 -0.13790088773E+02  0.38745663058E+02 -0.14902667591E+02  0.43743370417E+02  0.00000000000E+00 0.  1.
</event>
<event>
 7    1  0.4358868E-015  0.9000775E+02  0.7816164E-02  0.1186339E+00
        -11   -1    0    0    0    0  0.00000000000E+00  0.00000000000E+00  0.45593999997E+02  0.45594000000E+02  0.51100000000E-03 0.  1.
         11   -1    0    0    0    0 -0.00000000000E+00 -0.00000000000E+00 -0.45593999997E+02  0.45594000000E+02  0.51100000000E-03 0. -1.
    9900012    2    1    2    0    0 -0.30308731039E+00  0.11406296883E+01  0.95206948211E-02  0.90007750600E+02  0.90000012107E+02 0.  0.
         12    1    1    2    0    0  0.30308731039E+00 -0.11406296883E+01 -0.95206948211E-02  0.11802494004E+01  0.00000000000E+00 0. -1.
         11    1    3    3    0    0  0.21428150652E+02  0.19092910735E+02  0.25717441253E+02  0.38536887077E+02  0.51100000000E-03 0. -1.
        -11    1    3    3    0    0  0.62985824923E+01  0.50675014402E+01 -0.68204943933E+01  0.10576902018E+02  0.51100000000E-03 0.  1.
        -12    1    3    3    0    0 -0.28029820455E+02 -0.23019782487E+02 -0.18887426164E+02  0.40893961505E+02  0.00000000000E+00 0.  1.
</event>
<event>
 7    1  0.4358868E-015  0.9000777E+02  0.7816164E-02  0.1186339E+00
        -11   -1    0    0    0    0  0.00000000000E+00  0.00000000000E+00  0.45593999997E+02  0.45594000000E+02  0.51100000000E-03 0. -1.
         11   -1    0    0    0    0 -0.00000000000E+00 -0.00000000000E+00 -0.45593999997E+02  0.45594000000E+02  0.51100000000E-03 0.  1.
    9900012    2    1    2    0    0  0.38889793044E+00 -0.81284843652E+00  0.76222689104E+00  0.90007765271E+02  0.90000026973E+02 0.  0.
         12    1    1    2    0    0 -0.38889793044E+00  0.81284843652E+00 -0.76222689104E+00  0.11802347286E+01  0.00000000000E+00 0. -1.
         11    1    3    3    0    0 -0.17928379364E+02 -0.76395236141E+01  0.38513802575E+02  0.43163666395E+02  0.51100000000E-03 0. -1.
        -11    1    3    3    0    0  0.95281576587E+01  0.18636082330E+01 -0.22915198471E+01  0.99754642742E+01  0.51100000000E-03 0.  1.
        -12    1    3    3    0    0  0.87891196358E+01  0.49630669445E+01 -0.35460055837E+02  0.36868634602E+02  0.00000000000E+00 0.  1.
</event>
<event>
 7    1  0.4358868E-015  0.9000768E+02  0.7816164E-02  0.1186339E+00
        -11   -1    0    0    0    0  0.00000000000E+00  0.00000000000E+00  0.45593999997E+02  0.45594000000E+02  0.51100000000E-03 0. -1.
         11   -1    0    0    0    0 -0.00000000000E+00 -0.00000000000E+00 -0.45593999997E+02  0.45594000000E+02  0.51100000000E-03 0.  1.
    9900012    2    1    2    0    0  0.18018556410E+00 -0.50923168383E+00 -0.10494661553E+01  0.90007676758E+02  0.89999937291E+02 0.  0.
         12    1    1    2    0    0 -0.18018556410E+00  0.50923168383E+00  0.10494661553E+01  0.11803232423E+01  0.00000000000E+00 0. -1.
         11    1    3    3    0    0 -0.25872658436E+02  0.19253343544E+02 -0.22722836249E+02  0.39451400224E+02  0.51100000000E-03 0. -1.
        -11    1    3    3    0    0 -0.68287249881E+01 -0.12052196304E+01 -0.16983025574E+00  0.69363449956E+01  0.51100000000E-03 0.  1.
        -12    1    3    3    0    0  0.32881568988E+02 -0.18557355598E+02  0.21843200349E+02  0.43619931538E+02  0.00000000000E+00 0.  1.
</event>
<event>
 7    1  0.4358868E-015  0.9000777E+02  0.7816164E-02  0.1186339E+00
        -11   -1    0    0    0    0  0.00000000000E+00  0.00000000000E+00  0.45593999997E+02  0.45594000000E+02  0.51100000000E-03 0. -1.
         11   -1    0    0    0    0 -0.00000000000E+00 -0.00000000000E+00 -0.45593999997E+02  0.45594000000E+02  0.51100000000E-03 0.  1.
    9900012    2    1    2    0    0  0.67499994323E+00 -0.59181375522E+00 -0.76621121029E+00  0.90007767793E+02  0.90000029528E+02 0.  0.
         12    1    1    2    0    0 -0.67499994323E+00  0.59181375522E+00  0.76621121029E+00  0.11802322072E+01  0.00000000000E+00 0. -1.
         11    1    3    3    0    0  0.53085632657E+01 -0.33793897416E+01  0.55320471301E+00  0.63172109896E+01  0.51100000000E-03 0. -1.
        -11    1    3    3    0    0  0.20047190777E+02 -0.32777429497E+02  0.83850586273E+01  0.39326313721E+02  0.51100000000E-03 0.  1.
         12    1    3    3    0    0 -0.24680754099E+02  0.35565005483E+02 -0.97044745506E+01  0.44364243082E+02  0.00000000000E+00 0. -1.
</event>
<event>
 7    1  0.4358868E-015  0.9000776E+02  0.7816164E-02  0.1186339E+00
        -11   -1    0    0    0    0  0.00000000000E+00  0.00000000000E+00  0.45593999997E+02  0.45594000000E+02  0.51100000000E-03 0. -1.
         11   -1    0    0    0    0 -0.00000000000E+00 -0.00000000000E+00 -0.45593999997E+02  0.45594000000E+02  0.51100000000E-03 0.  1.
    9900012    2    1    2    0    0 -0.98567891829E-01  0.11735773521E+01  0.77219015278E-01  0.90007761801E+02  0.90000023457E+02 0.  0.
         12    1    1    2    0    0  0.98567891829E-01 -0.11735773521E+01 -0.77219015278E-01  0.11802381992E+01  0.00000000000E+00 0. -1.
         11    1    3    3    0    0  0.67229497355E+01 -0.25837478858E+01 -0.69912922350E+01  0.10037528264E+02  0.51100000000E-03 0. -1.
        -11    1    3    3    0    0  0.24010576057E+02 -0.24660668631E+02  0.14566339120E+02  0.37374250167E+02  0.51100000000E-03 0.  1.
         12    1    3    3    0    0 -0.30832093684E+02  0.28417993869E+02 -0.74978278697E+01  0.42595983370E+02  0.00000000000E+00 0. -1.
</event>
<event>
 7    1  0.4358868E-015  0.9000769E+02  0.7816164E-02  0.1186339E+00
        -11   -1    0    0    0    0  0.00000000000E+00  0.00000000000E+00  0.45593999997E+02  0.45594000000E+02  0.51100000000E-03 0. -1.
         11   -1    0    0    0    0 -0.00000000000E+00 -0.00000000000E+00 -0.45593999997E+02  0.45594000000E+02  0.51100000000E-03 0.  1.
    9900012    2    1    2    0    0 -0.75180888720E+00  0.30815397374E+00 -0.85612386410E+00  0.90007693453E+02  0.89999954206E+02 0.  0.
         12    1    1    2    0    0  0.75180888720E+00 -0.30815397374E+00  0.85612386410E+00  0.11803065471E+01  0.00000000000E+00 0. -1.
         11    1    3    3    0    0 -0.12056754687E+02 -0.18849657700E+02 -0.35450347914E+02  0.41921379945E+02  0.51100000000E-03 0. -1.
        -11    1    3    3    0    0 -0.25356169978E+01 -0.49603123773E+01  0.51451294944E+01  0.75832981094E+01  0.51100000000E-03 0.  1.
        -12    1    3    3    0    0  0.13840562797E+02  0.24118124051E+02  0.29449094555E+02  0.40503015399E+02  0.00000000000E+00 0.  1.
</event>
<event>
 7    1  0.4358868E-015  0.9000772E+02  0.7816164E-02  0.1186339E+00
        -11   -1    0    0    0    0  0.00000000000E+00  0.00000000000E+00  0.45593999997E+02  0.45594000000E+02  0.51100000000E-03 0.  1.
         11   -1    0    0    0    0 -0.00000000000E+00 -0.00000000000E+00 -0.45593999997E+02  0.45594000000E+02  0.51100000000E-03 0. -1.
    9900012    2    1    2    0    0 -0.93807081612E+00  0.71629112554E+00  0.50404321454E-03  0.90007724572E+02  0.89999985736E+02 0.  0.
         12    1    1    2    0    0  0.93807081612E+00 -0.71629112554E+00 -0.50404321453E-03  0.11802754283E+01  0.00000000000E+00 0. -1.
         11    1    3    3    0    0  0.16672249428E+02 -0.10923078597E+02 -0.33789281015E+02  0.39230002024E+02  0.51100000000E-03 0. -1.
        -11    1    3    3    0    0  0.65342637329E+01  0.49818074610E+01 -0.59510431353E+00  0.82382739402E+01  0.51100000000E-03 0.  1.
        -12    1    3    3    0    0 -0.24144583977E+02  0.66575622614E+01  0.34384889372E+02  0.42539448607E+02  0.00000000000E+00 0.  1.
</event>
<event>
 7    1  0.4358868E-015  0.9000772E+02  0.7816164E-02  0.1186339E+00
        -11   -1    0    0    0    0  0.00000000000E+00  0.00000000000E+00  0.45593999997E+02  0.45594000000E+02  0.51100000000E-03 0. -1.
         11   -1    0    0    0    0 -0.00000000000E+00 -0.00000000000E+00 -0.45593999997E+02  0.45594000000E+02  0.51100000000E-03 0.  1.
    9900012    2    1    2    0    0 -0.41508883857E-01 -0.31000577157E+00 -0.11380812406E+01  0.90007722289E+02  0.89999983423E+02 0.  0.
         12    1    1    2    0    0  0.41508883857E-01  0.31000577157E+00  0.11380812406E+01  0.11802777114E+01  0.00000000000E+00 0. -1.
         11    1    3    3    0    0  0.75029956090E+01  0.98426372896E+01 -0.16256277195E+01  0.12482592586E+02  0.51100000000E-03 0. -1.
        -11    1    3    3    0    0 -0.32797347538E+02  0.15875831550E+02 -0.13210936738E+02  0.38758700735E+02  0.51100000000E-03 0.  1.
         12    1    3    3    0    0  0.25252843046E+02 -0.26028474611E+02  0.13698483216E+02  0.38766428967E+02  0.00000000000E+00 0. -1.
</event>
<event>
 7    1  0.4358868E-015  0.9000781E+02  0.7816164E-02  0.1186339E+00
        -11   -1    0    0    0    0  0.00000000000E+00  0.00000000000E+00  0.45593999997E+02  0.45594000000E+02  0.51100000000E-03 0.  1.
         11   -1    0    0    0    0 -0.00000000000E+00 -0.00000000000E+00 -0.45593999997E+02  0.45594000000E+02  0.51100000000E-03 0. -1.
    9900012    2    1    2    0    0 -0.44203190800E+00  0.86142664949E+00  0.67483389913E+00  0.90007809816E+02  0.90000072105E+02 0.  0.
         12    1    1    2    0    0  0.44203190800E+00 -0.86142664949E+00 -0.67483389913E+00  0.11801901845E+01  0.00000000000E+00 0. -1.
         11    1    3    3    0    0  0.21134099083E+01 -0.84960657891E+01 -0.31182266520E+01  0.92937060986E+01  0.51100000000E-03 0. -1.
        -11    1    3    3    0    0  0.26375757265E+02 -0.17331815818E+02  0.20839305426E+02  0.37819955866E+02  0.51100000000E-03 0.  1.
         12    1    3    3    0    0 -0.28931199081E+02  0.26689308256E+02 -0.17046244875E+02  0.42894147850E+02  0.00000000000E+00 0. -1.
</event>
<event>
 7    1  0.4358868E-015  0.9000781E+02  0.7816164E-02  0.1186339E+00
        -11   -1    0    0    0    0  0.00000000000E+00  0.00000000000E+00  0.45593999997E+02  0.45594000000E+02  0.51100000000E-03 0.  1.
         11   -1    0    0    0    0 -0.00000000000E+00 -0.00000000000E+00 -0.45593999997E+02  0.45594000000E+02  0.51100000000E-03 0. -1.
    9900012    2    1    2    0    0 -0.86938150019E+00  0.19834386301E+00  0.77310502524E+00  0.90007806854E+02  0.90000069105E+02 0.  0.
         12    1    1    2    0    0  0.86938150019E+00 -0.19834386301E+00 -0.77310502524E+00  0.11801931456E+01  0.00000000000E+00 0. -1.
         11    1    3    3    0    0 -0.85544266271E+01 -0.38370178832E+02 -0.14714565019E+01  0.39339725762E+02  0.51100000000E-03 0. -1.
        -11    1    3    3    0    0 -0.58619160969E+01  0.15967520122E+01 -0.79390283585E+01  0.99969919903E+01  0.51100000000E-03 0.  1.
        -12    1    3    3    0    0  0.13546961224E+02  0.36971770683E+02  0.10183589886E+02  0.40671089102E+02  0.00000000000E+00 0.  1.
</event>
<event>
 7    1  0.4358868E-015  0.9000742E+02  0.7816164E-02  0.1186340E+00
        -11   -1    0    0    0    0  0.00000000000E+00  0.00000000000E+00  0.45593999997E+02  0.45594000000E+02  0.51100000000E-03 0. -1.
         11   -1    0    0    0    0 -0.00000000000E+00 -0.00000000000E+00 -0.45593999997E+02  0.45594000000E+02  0.51100000000E-03 0.  1.
    9900012    2    1    2    0    0 -0.19978406893E+00  0.11091746196E+01  0.35155788999E+00  0.90007417533E+02  0.89999674644E+02 0.  0.
         12    1    1    2    0    0  0.19978406893E+00 -0.11091746196E+01 -0.35155788999E+00  0.11805824668E+01  0.00000000000E+00 0. -1.
         11    1    3    3    0    0  0.57442914358E+01  0.75164533605E+01 -0.20598158949E+01  0.96817765416E+01  0.51100000000E-03 0. -1.
        -11    1    3    3    0    0 -0.13568581675E+02  0.19047998266E+02 -0.30239875997E+02  0.38228036141E+02  0.51100000000E-03 0.  1.
         12    1    3    3    0    0  0.76245061702E+01 -0.25455277007E+02  0.32651249782E+02  0.42097604851E+02  0.00000000000E+00 0. -1.
</event>
<event>
 7    1  0.4358868E-015  0.9000771E+02  0.7816164E-02  0.1186339E+00
        -11   -1    0    0    0    0  0.00000000000E+00  0.00000000000E+00  0.45593999997E+02  0.45594000000E+02  0.51100000000E-03 0.  1.
         11   -1    0    0    0    0 -0.00000000000E+00 -0.00000000000E+00 -0.45593999997E+02  0.45594000000E+02  0.51100000000E-03 0. -1.
    9900012    2    1    2    0    0  0.58148180359E+00  0.28447290318E+00  0.98693135470E+00  0.90007712146E+02  0.89999973146E+02 0.  0.
         12    1    1    2    0    0 -0.58148180359E+00 -0.28447290318E+00 -0.98693135470E+00  0.11802878545E+01  0.00000000000E+00 0. -1.
         11    1    3    3    0    0 -0.14131013184E+02  0.24842422424E+02 -0.20442551581E+02  0.35138716552E+02  0.51100000000E-03 0. -1.
        -11    1    3    3    0    0  0.18017336270E+01  0.59815715656E+01 -0.82643266742E+01  0.10359755697E+02  0.51100000000E-03 0.  1.
        -12    1    3    3    0    0  0.12910761361E+02 -0.30539521086E+02  0.29693809610E+02  0.44509239897E+02  0.00000000000E+00 0.  1.
</event>
<event>
 7    1  0.4358868E-015  0.9000779E+02  0.7816164E-02  0.1186339E+00
        -11   -1    0    0    0    0  0.00000000000E+00  0.00000000000E+00  0.45593999997E+02  0.45594000000E+02  0.51100000000E-03 0. -1.
         11   -1    0    0    0    0 -0.00000000000E+00 -0.00000000000E+00 -0.45593999997E+02  0.45594000000E+02  0.51100000000E-03 0.  1.
    9900012    2    1    2    0    0  0.76558142953E+00  0.25994765288E+00  0.85977572649E+00  0.90007787304E+02  0.90000049297E+02 0.  0.
         12    1    1    2    0    0 -0.76558142953E+00 -0.25994765288E+00 -0.85977572649E+00  0.11802126958E+01  0.00000000000E+00 0. -1.
         11    1    3    3    0    0  0.12552560864E+01  0.89362100527E+01 -0.10836771606E+02  0.14102025991E+02  0.51100000000E-03 0. -1.
        -11    1    3    3    0    0 -0.96046590428E+01  0.28265383801E+02  0.21288500803E+02  0.36665810552E+02  0.51100000000E-03 0.  1.
         12    1    3    3    0    0  0.91149843859E+01 -0.36941646201E+02 -0.95919534704E+01  0.39239950761E+02  0.00000000000E+00 0. -1.
</event>
<event>
 7    1  0.4358868E-015  0.9000826E+02  0.7816164E-02  0.1186338E+00
        -11   -1    0    0    0    0  0.00000000000E+00  0.00000000000E+00  0.45593999997E+02  0.45594000000E+02  0.51100000000E-03 0.  1.
         11   -1    0    0    0    0 -0.00000000000E+00 -0.00000000000E+00 -0.45593999997E+02  0.45594000000E+02  0.51100000000E-03 0. -1.
    9900012    2    1    2    0    0  0.17877466456E-01  0.10272926450E+01  0.57978070000E+00  0.90008256196E+02  0.90000524377E+02 0.  0.
         12    1    1    2    0    0 -0.17877466456E-01 -0.10272926450E+01 -0.57978070000E+00  0.11797438037E+01  0.00000000000E+00 0. -1.
         11    1    3    3    0    0  0.12445250049E+02 -0.18734306712E+02  0.76994500144E+01  0.23772673967E+02  0.51100000000E-03 0. -1.
        -11    1    3    3    0    0  0.21068801442E+02 -0.11300010142E+01  0.98261532965E+01  0.23274977667E+02  0.51100000000E-03 0.  1.
         12    1    3    3    0    0 -0.33496174025E+02  0.20891600371E+02 -0.16945822611E+02  0.42960604562E+02  0.00000000000E+00 0. -1.
</event>
<event>
 7    1  0.4358868E-015  0.9000756E+02  0.7816164E-02  0.1186339E+00
        -11   -1    0    0    0    0  0.00000000000E+00  0.00000000000E+00  0.45593999997E+02  0.45594000000E+02  0.51100000000E-03 0. -1.
         11   -1    0    0    0    0 -0.00000000000E+00 -0.00000000000E+00 -0.45593999997E+02  0.45594000000E+02  0.51100000000E-03 0.  1.
    9900012    2    1    2    0    0  0.32715434925E+00 -0.11159914653E+01  0.20242259097E+00  0.90007558632E+02  0.89999817605E+02 0.  0.
         12    1    1    2    0    0 -0.32715434925E+00  0.11159914653E+01 -0.20242259097E+00  0.11804413684E+01  0.00000000000E+00 0. -1.
         11    1    3    3    0    0 -0.25289994968E+02  0.39208107131E+01 -0.85517126844E+01  0.26983113094E+02  0.51100000000E-03 0. -1.
        -11    1    3    3    0    0  0.51316373805E+01  0.27986731923E+01  0.31140522548E+02  0.31684356056E+02  0.51100000000E-03 0.  1.
        -12    1    3    3    0    0  0.20485511937E+02 -0.78354753707E+01 -0.22386387273E+02  0.31340089482E+02  0.00000000000E+00 0.  1.
</event>
<event>
 7    1  0.4358868E-015  0.9000786E+02  0.7816164E-02  0.1186339E+00
        -11   -1    0    0    0    0  0.00000000000E+00  0.00000000000E+00  0.45593999997E+02  0.45594000000E+02  0.51100000000E-03 0.  1.
         11   -1    0    0    0    0 -0.00000000000E+00 -0.00000000000E+00 -0.45593999997E+02  0.45594000000E+02  0.51100000000E-03 0. -1.
    9900012    2    1    2    0    0  0.71069950370E+00  0.57730524904E+00  0.74454342725E+00  0.90007864393E+02  0.90000127403E+02 0.  0.
         12    1    1    2    0    0 -0.71069950370E+00 -0.57730524904E+00 -0.74454342725E+00  0.11801356067E+01  0.00000000000E+00 0. -1.
         11    1    3    3    0    0 -0.24273941468E+01  0.95138800229E+01 -0.57343726416E+01  0.11370540237E+02  0.51100000000E-03 0. -1.
        -11    1    3    3    0    0  0.32821967170E+02  0.17347342583E+02  0.11031568627E+02  0.38728637081E+02  0.51100000000E-03 0.  1.
         12    1    3    3    0    0 -0.29683873519E+02 -0.26283917356E+02 -0.45526525578E+01  0.39908687075E+02  0.00000000000E+00 0. -1.
</event>
<event>
 7    1  0.4358868E-015  0.9000753E+02  0.7816164E-02  0.1186339E+00
        -11   -1    0    0    0    0  0.00000000000E+00  0.00000000000E+00  0.45593999997E+02  0.45594000000E+02  0.51100000000E-03 0. -1.
         11   -1    0    0    0    0 -0.00000000000E+00 -0.00000000000E+00 -0.45593999997E+02  0.45594000000E+02  0.51100000000E-03 0.  1.
    9900012    2    1    2    0    0 -0.99703335534E+00 -0.39376709490E+00 -0.49435614769E+00  0.90007527197E+02  0.89999785756E+02 0.  0.
         12    1    1    2    0    0  0.99703335534E+00  0.39376709490E+00  0.49435614769E+00  0.11804728025E+01  0.00000000000E+00 0. -1.
         11    1    3    3    0    0 -0.27042939590E+02  0.22239918926E+02  0.17929171382E+02  0.39336875349E+02  0.51100000000E-03 0. -1.
        -11    1    3    3    0    0  0.46953661854E+01 -0.24693038494E+01  0.90276088216E+01  0.10470990708E+02  0.51100000000E-03 0.  1.
        -12    1    3    3    0    0  0.21350540049E+02 -0.20164382172E+02 -0.27451136352E+02  0.40199661140E+02  0.00000000000E+00 0.  1.
</event>
<event>
 7    1  0.4358868E-015  0.9000769E+02  0.7816164E-02  0.1186339E+00
        -11   -1    0    0    0    0  0.00000000000E+00  0.00000000000E+00  0.45593999997E+02  0.45594000000E+02  0.51100000000E-03 0. -1.
         11   -1    0    0    0    0 -0.00000000000E+00 -0.00000000000E+00 -0.45593999997E+02  0.45594000000E+02  0.51100000000E-03 0.  1.
    9900012    2    1    2    0    0 -0.36003532288E+00 -0.95584958420E+00  0.59148810826E+00  0.90007689853E+02  0.89999950559E+02 0.  0.
         12    1    1    2    0    0  0.36003532288E+00  0.95584958420E+00 -0.59148810826E+00  0.11803101472E+01  0.00000000000E+00 0. -1.
         11    1    3    3    0    0  0.15356090596E+01  0.89190365028E+00  0.82266131947E+01  0.84161007730E+01  0.51100000000E-03 0. -1.
        -11    1    3    3    0    0  0.11378565264E+02  0.15334030450E+01 -0.42557362330E+02  0.44078931034E+02  0.51100000000E-03 0.  1.
         12    1    3    3    0    0 -0.13274209646E+02 -0.33811562795E+01  0.34922237244E+02  0.37512658045E+02  0.00000000000E+00 0. -1.
</event>
<event>
 7    1  0.4358868E-015  0.9000771E+02  0.7816164E-02  0.1186339E+00
        -11   -1    0    0    0    0  0.00000000000E+00  0.00000000000E+00  0.45593999997E+02  0.45594000000E+02  0.51100000000E-03 0.  1.
         11   -1    0    0    0    0 -0.00000000000E+00 -0.00000000000E+00 -0.45593999997E+02  0.45594000000E+02  0.51100000000E-03 0. -1.
    9900012    2    1    2    0    0 -0.14912761802E+00  0.46947978084E+00  0.10725864638E+01  0.90007706802E+02  0.89999967732E+02 0.  0.
         12    1    1    2    0    0  0.14912761802E+00 -0.46947978084E+00 -0.10725864638E+01  0.11802931980E+01  0.00000000000E+00 0. -1.
         11    1    3    3    0    0  0.19793509552E+01  0.81091147538E+01  0.43420266556E+01  0.94089727406E+01  0.51100000000E-03 0. -1.
        -11    1    3    3    0    0  0.14389947981E+02  0.33240858102E+02 -0.44302451869E+01  0.36491811724E+02  0.51100000000E-03 0.  1.
         12    1    3    3    0    0 -0.16518426554E+02 -0.40880493075E+02  0.11608049950E+01  0.44106922337E+02  0.00000000000E+00 0. -1.
</event>
<event>
 7    1  0.4358868E-015  0.9000769E+02  0.7816164E-02  0.1186339E+00
        -11   -1    0    0    0    0  0.00000000000E+00  0.00000000000E+00  0.45593999997E+02  0.45594000000E+02  0.51100000000E-03 0. -1.
         11   -1    0    0    0    0 -0.00000000000E+00 -0.00000000000E+00 -0.45593999997E+02  0.45594000000E+02  0.51100000000E-03 0.  1.
    9900012    2    1    2    0    0  0.53841769715E+00 -0.42669680307E+00 -0.95977767696E+00  0.90007687767E+02  0.89999948445E+02 0.  0.
         12    1    1    2    0    0 -0.53841769715E+00  0.42669680307E+00  0.95977767696E+00  0.11803122331E+01  0.00000000000E+00 0. -1.
         11    1    3    3    0    0  0.12458099390E+02  0.34976187323E+02 -0.51897432352E+01  0.37489616631E+02  0.51100000000E-03 0. -1.
        -11    1    3    3    0    0  0.12909630895E+01  0.58496945655E+01 -0.54889434220E+01  0.81249007600E+01  0.51100000000E-03 0.  1.
        -12    1    3    3    0    0 -0.13210644782E+02 -0.41252578691E+02  0.97189089803E+01  0.44393170376E+02  0.00000000000E+00 0.  1.
</event>
<event>
 7    1  0.4358868E-015  0.9000773E+02  0.7816164E-02  0.1186339E+00
        -11   -1    0    0    0    0  0.00000000000E+00  0.00000000000E+00  0.45593999997E+02  0.45594000000E+02  0.51100000000E-03 0. -1.
         11   -1    0    0    0    0 -0.00000000000E+00 -0.00000000000E+00 -0.45593999997E+02  0.45594000000E+02  0.51100000000E-03 0.  1.
    9900012    2    1    2    0    0  0.88083482328E+00 -0.42962565585E+00 -0.65770760270E+00  0.90007734148E+02  0.89999995439E+02 0.  0.
         12    1    1    2    0    0 -0.88083482328E+00  0.42962565585E+00  0.65770760270E+00  0.11802658517E+01  0.00000000000E+00 0. -1.
         11    1    3    3    0    0  0.12892572866E+02  0.14269228689E+02  0.94362420082E+01  0.21421297486E+02  0.51100000000E-03 0. -1.
        -11    1    3    3    0    0 -0.86548231745E+01  0.18368627265E+02 -0.24959671338E+02  0.32176041169E+02  0.51100000000E-03 0.  1.
         12    1    3    3    0    0 -0.33569148684E+01 -0.33067481610E+02  0.14865721727E+02  0.36410395493E+02  0.00000000000E+00 0. -1.
</event>
<event>
 7    1  0.4358868E-015  0.9000755E+02  0.7816164E-02  0.1186339E+00
        -11   -1    0    0    0    0  0.00000000000E+00  0.00000000000E+00  0.45593999997E+02  0.45594000000E+02  0.51100000000E-03 0. -1.
         11   -1    0    0    0    0 -0.00000000000E+00 -0.00000000000E+00 -0.45593999997E+02  0.45594000000E+02  0.51100000000E-03 0.  1.
    9900012    2    1    2    0    0 -0.95367564933E+00  0.23245134160E+00 -0.65568430597E+00  0.90007553991E+02  0.89999812904E+02 0.  0.
         12    1    1    2    0    0  0.95367564933E+00 -0.23245134160E+00  0.65568430597E+00  0.11804460087E+01  0.00000000000E+00 0. -1.
         11    1    3    3    0    0  0.80406758787E+01  0.19792285394E+02  0.36071693136E+02  0.41923192575E+02  0.51100000000E-03 0. -1.
        -11    1    3    3    0    0 -0.58103379013E+01 -0.15577972584E+01  0.10588820229E+01  0.61080267047E+01  0.51100000000E-03 0.  1.
        -12    1    3    3    0    0 -0.31840136267E+01 -0.18002036794E+02 -0.37786259465E+02  0.41976334712E+02  0.00000000000E+00 0.  1.
</event>
<event>
 7    1  0.4358868E-015  0.9000793E+02  0.7816164E-02  0.1186339E+00
        -11   -1    0    0    0    0  0.00000000000E+00  0.00000000000E+00  0.45593999997E+02  0.45594000000E+02  0.51100000000E-03 0. -1.
         11   -1    0    0    0    0 -0.00000000000E+00 -0.00000000000E+00 -0.45593999997E+02  0.45594000000E+02  0.51100000000E-03 0.  1.
    9900012    2    1    2    0    0  0.70207919644E+00 -0.66726941756E+00 -0.67409240186E+00  0.90007930409E+02  0.90000194290E+02 0.  0.
         12    1    1    2    0    0 -0.70207919644E+00  0.66726941756E+00  0.67409240186E+00  0.11800695911E+01  0.00000000000E+00 0. -1.
         11    1    3    3    0    0  0.53115247339E+01 -0.39757720352E+01  0.69288598251E+01  0.95931307200E+01  0.51100000000E-03 0. -1.
        -11    1    3    3    0    0  0.59329460037E+01 -0.35319403876E+02 -0.16445126519E+02  0.39409419241E+02  0.51100000000E-03 0.  1.
         12    1    3    3    0    0 -0.10542391541E+02  0.38627906493E+02  0.88421742919E+01  0.41005380448E+02  0.00000000000E+00 0. -1.
</event>
<event>
 7    1  0.4358868E-015  0.9000776E+02  0.7816164E-02  0.1186339E+00
        -11   -1    0    0    0    0  0.00000000000E+00  0.00000000000E+00  0.45593999997E+02  0.45594000000E+02  0.51100000000E-03 0. -1.
         11   -1    0    0    0    0 -0.00000000000E+00 -0.00000000000E+00 -0.45593999997E+02  0.45594000000E+02  0.51100000000E-03 0.  1.
    9900012    2    1    2    0    0  0.60166412267E+00  0.27412254578E+00 -0.97765770591E+00  0.90007763805E+02  0.90000025487E+02 0.  0.
         12    1    1    2    0    0 -0.60166412267E+00 -0.27412254578E+00  0.97765770591E+00  0.11802361952E+01  0.00000000000E+00 0. -1.
         11    1    3    3    0    0 -0.41969680882E+01 -0.33187036362E+02  0.82142823718E+01  0.34445150004E+02  0.51100000000E-03 0. -1.
        -11    1    3    3    0    0  0.53161150195E+01  0.47697505416E+01  0.15908262974E+02  0.17438016809E+02  0.51100000000E-03 0.  1.
        -12    1    3    3    0    0 -0.51748280869E+00  0.28691408367E+02 -0.25100203052E+02  0.38124596991E+02  0.00000000000E+00 0.  1.
</event>
<event>
 7    1  0.4358868E-015  0.9000777E+02  0.7816164E-02  0.1186339E+00
        -11   -1    0    0    0    0  0.00000000000E+00  0.00000000000E+00  0.45593999997E+02  0.45594000000E+02  0.51100000000E-03 0.  1.
         11   -1    0    0    0    0 -0.00000000000E+00 -0.00000000000E+00 -0.45593999997E+02  0.45594000000E+02  0.51100000000E-03 0. -1.
    9900012    2    1    2    0    0  0.12341150621E+00  0.81208995019E+00  0.84748657082E+00  0.90007765288E+02  0.90000026990E+02 0.  0.
         12    1    1    2    0    0 -0.12341150621E+00 -0.81208995019E+00 -0.84748657082E+00  0.11802347117E+01  0.00000000000E+00 0. -1.
         11    1    3    3    0    0 -0.85403454120E+01 -0.31193578380E+01  0.34963767867E+01  0.97412804073E+01  0.51100000000E-03 0. -1.
        -11    1    3    3    0    0 -0.28361171102E+02  0.19319574370E+02  0.13721650595E+02  0.36957890571E+02  0.51100000000E-03 0.  1.
         12    1    3    3    0    0  0.37024928021E+02 -0.15388126582E+02 -0.16370540811E+02  0.43308594310E+02  0.00000000000E+00 0. -1.
</event>
<event>
 7    1  0.4358868E-015  0.9000771E+02  0.7816164E-02  0.1186339E+00
        -11   -1    0    0    0    0  0.00000000000E+00  0.00000000000E+00  0.45593999997E+02  0.45594000000E+02  0.51100000000E-03 0.  1.
         11   -1    0    0    0    0 -0.00000000000E+00 -0.00000000000E+00 -0.45593999997E+02  0.45594000000E+02  0.51100000000E-03 0. -1.
    9900012    2    1    2    0    0  0.82366956237E+00 -0.77706000934E-01  0.84179211481E+00  0.90007710317E+02  0.89999971293E+02 0.  0.
         12    1    1    2    0    0 -0.82366956237E+00  0.77706000934E-01 -0.84179211481E+00  0.11802896827E+01  0.00000000000E+00 0. -1.
         11    1    3    3    0    0  0.74845063944E+01  0.49930055066E+01  0.16127749231E+01  0.91405132881E+01  0.51100000000E-03 0. -1.
        -11    1    3    3    0    0 -0.19006816428E+02 -0.18609375269E+02  0.33036153894E+02  0.42414094155E+02  0.51100000000E-03 0.  1.
         12    1    3    3    0    0  0.12345979596E+02  0.13538663761E+02 -0.33807136702E+02  0.38453102874E+02  0.00000000000E+00 0. -1.
</event>
<event>
 7    1  0.4358868E-015  0.9000787E+02  0.7816164E-02  0.1186339E+00
        -11   -1    0    0    0    0  0.00000000000E+00  0.00000000000E+00  0.45593999997E+02  0.45594000000E+02  0.51100000000E-03 0.  1.
         11   -1    0    0    0    0 -0.00000000000E+00 -0.00000000000E+00 -0.45593999997E+02  0.45594000000E+02  0.51100000000E-03 0. -1.
    9900012    2    1    2    0    0 -0.92848426614E+00 -0.72520036173E+00 -0.68674720852E-01  0.90007866612E+02  0.90000129651E+02 0.  0.
         12    1    1    2    0    0  0.92848426614E+00  0.72520036173E+00  0.68674720852E-01  0.11801333884E+01  0.00000000000E+00 0. -1.
         11    1    3    3    0    0  0.39513643116E+01 -0.36587437878E+02 -0.39691334807E+00  0.36802329150E+02  0.51100000000E-03 0. -1.
        -11    1    3    3    0    0 -0.93675848102E+01 -0.54109421968E+01 -0.38423476976E+01  0.11480138358E+02  0.51100000000E-03 0.  1.
        -12    1    3    3    0    0  0.44877362325E+01  0.41273179713E+02  0.41705863248E+01  0.41725399104E+02  0.00000000000E+00 0.  1.
</event>
<event>
 7    1  0.4358868E-015  0.9000785E+02  0.7816164E-02  0.1186339E+00
        -11   -1    0    0    0    0  0.00000000000E+00  0.00000000000E+00  0.45593999997E+02  0.45594000000E+02  0.51100000000E-03 0. -1.
         11   -1    0    0    0    0 -0.00000000000E+00 -0.00000000000E+00 -0.45593999997E+02  0.45594000000E+02  0.51100000000E-03 0.  1.
    9900012    2    1    2    0    0 -0.22707065484E+00 -0.91152077814E+00 -0.71436436465E+00  0.90007852697E+02  0.90000115553E+02 0.  0.
         12    1    1    2    0    0  0.22707065484E+00  0.91152077814E+00  0.71436436465E+00  0.11801473030E+01  0.00000000000E+00 0. -1.
         11    1    3    3    0    0  0.76604703335E+01 -0.13376238743E+02 -0.87173784324E+00  0.15439122247E+02  0.51100000000E-03 0. -1.
        -11    1    3    3    0    0 -0.31629091878E+02  0.95717913778E+00 -0.23275262746E+02  0.39281719681E+02  0.51100000000E-03 0.  1.
         12    1    3    3    0    0  0.23741550890E+02  0.11507538827E+02  0.23432636225E+02  0.35287010768E+02  0.00000000000E+00 0. -1.
</event>
<event>
 7    1  0.4358868E-015  0.9000760E+02  0.7816164E-02  0.1186339E+00
        -11   -1    0    0    0    0  0.00000000000E+00  0.00000000000E+00  0.45593999997E+02  0.45594000000E+02  0.51100000000E-03 0. -1.
         11   -1    0    0    0    0 -0.00000000000E+00 -0.00000000000E+00 -0.45593999997E+02  0.45594000000E+02  0.51100000000E-03 0.  1.
    9900012    2    1    2    0    0  0.42934152164E+00  0.10970598704E+01 -0.74027316081E-01  0.90007595601E+02  0.89999855063E+02 0.  0.
         12    1    1    2    0    0 -0.42934152164E+00 -0.10970598704E+01  0.74027316081E-01  0.11804043989E+01  0.00000000000E+00 0. -1.
         11    1    3    3    0    0  0.18302548704E+02 -0.21377165901E+02 -0.80966479899E+01  0.29283480325E+02  0.51100000000E-03 0. -1.
        -11    1    3    3    0    0  0.15805876005E+02 -0.48340943798E+01 -0.49575726492E+00  0.16536020086E+02  0.51100000000E-03 0.  1.
        -12    1    3    3    0    0 -0.33679083187E+02  0.27308320151E+02  0.85183779388E+01  0.44188095190E+02  0.00000000000E+00 0.  1.
</event>
<event>
 7    1  0.4358868E-015  0.9000806E+02  0.7816164E-02  0.1186338E+00
        -11   -1    0    0    0    0  0.00000000000E+00  0.00000000000E+00  0.45593999997E+02  0.45594000000E+02  0.51100000000E-03 0.  1.
         11   -1    0    0    0    0 -0.00000000000E+00 -0.00000000000E+00 -0.45593999997E+02  0.45594000000E+02  0.51100000000E-03 0. -1.
    9900012    2    1    2    0    0  0.83083250523E+00 -0.82033875897E+00 -0.17032307343E+00  0.90008064290E+02  0.90000329938E+02 0.  0.
         12    1    1    2    0    0 -0.83083250523E+00  0.82033875897E+00  0.17032307343E+00  0.11799357103E+01  0.00000000000E+00 0. -1.
         11    1    3    3    0    0  0.17708872951E+01  0.65310995732E+01  0.71681046277E+01  0.98576380367E+01  0.51100000000E-03 0. -1.
        -11    1    3    3    0    0  0.81835286177E+01  0.33149393473E+02  0.93569193094E+01  0.35403451350E+02  0.51100000000E-03 0.  1.
         12    1    3    3    0    0 -0.91235834076E+01 -0.40500831806E+02 -0.16695347011E+02  0.44746974903E+02  0.00000000000E+00 0. -1.
</event>
<event>
 7    1  0.4358868E-015  0.9000778E+02  0.7816164E-02  0.1186339E+00
        -11   -1    0    0    0    0  0.00000000000E+00  0.00000000000E+00  0.45593999997E+02  0.45594000000E+02  0.51100000000E-03 0.  1.
         11   -1    0    0    0    0 -0.00000000000E+00 -0.00000000000E+00 -0.45593999997E+02  0.45594000000E+02  0.51100000000E-03 0. -1.
    9900012    2    1    2    0    0 -0.28209316857E+00 -0.99017857264E+00  0.57696972986E+00  0.90007777889E+02  0.90000039757E+02 0.  0.
         12    1    1    2    0    0  0.28209316857E+00  0.99017857264E+00 -0.57696972986E+00  0.11802221107E+01  0.00000000000E+00 0. -1.
         11    1    3    3    0    0 -0.69294943963E+01 -0.60467573249E+01 -0.52190576239E+01  0.10574484833E+02  0.51100000000E-03 0. -1.
        -11    1    3    3    0    0 -0.29161230917E+02  0.66362484454E+01  0.24810670483E+02  0.38858545420E+02  0.51100000000E-03 0.  1.
         12    1    3    3    0    0  0.35808632145E+02 -0.15796696931E+01 -0.19014643130E+02  0.40574747637E+02  0.00000000000E+00 0. -1.
</event>
<event>
 7    1  0.4358868E-015  0.9000767E+02  0.7816164E-02  0.1186339E+00
        -11   -1    0    0    0    0  0.00000000000E+00  0.00000000000E+00  0.45593999997E+02  0.45594000000E+02  0.51100000000E-03 0.  1.
         11   -1    0    0    0    0 -0.00000000000E+00 -0.00000000000E+00 -0.45593999997E+02  0.45594000000E+02  0.51100000000E-03 0. -1.
    9900012    2    1    2    0    0  0.79901211081E+00 -0.35526212944E+00  0.79280458946E+00  0.90007673498E+02  0.89999933988E+02 0.  0.
         12    1    1    2    0    0 -0.79901211081E+00  0.35526212944E+00 -0.79280458946E+00  0.11803265018E+01  0.00000000000E+00 0. -1.
         11    1    3    3    0    0  0.88147921345E+01  0.27612193674E+01 -0.38339461007E+02  0.39436520680E+02  0.51100000000E-03 0. -1.
        -11    1    3    3    0    0 -0.89937735840E+01 -0.89921691292E+01  0.18924964689E+01  0.12858017424E+02  0.51100000000E-03 0.  1.
        -12    1    3    3    0    0  0.97799356031E+00  0.58756876323E+01  0.37239769128E+02  0.37713135394E+02  0.00000000000E+00 0.  1.
</event>
<event>
 7    1  0.4358868E-015  0.9000777E+02  0.7816164E-02  0.1186339E+00
        -11   -1    0    0    0    0  0.00000000000E+00  0.00000000000E+00  0.45593999997E+02  0.45594000000E+02  0.51100000000E-03 0. -1.
         11   -1    0    0    0    0 -0.00000000000E+00 -0.00000000000E+00 -0.45593999997E+02  0.45594000000E+02  0.51100000000E-03 0.  1.
    9900012    2    1    2    0    0  0.11050093062E+01 -0.84794898926E-01 -0.40584048453E+00  0.90007770259E+02  0.90000032027E+02 0.  0.
         12    1    1    2    0    0 -0.11050093062E+01  0.84794898926E-01  0.40584048453E+00  0.11802297406E+01  0.00000000000E+00 0. -1.
         11    1    3    3    0    0  0.41779275224E+01 -0.11625353050E+02 -0.49691407292E+01  0.13315264615E+02  0.51100000000E-03 0. -1.
        -11    1    3    3    0    0  0.13943506514E+02 -0.21876894847E+00 -0.31875402556E+02  0.34792391728E+02  0.51100000000E-03 0.  1.
         12    1    3    3    0    0 -0.17016424730E+02  0.11759327099E+02  0.36438702801E+02  0.41900113917E+02  0.00000000000E+00 0. -1.
</event>
<event>
 7    1  0.4358868E-015  0.9000776E+02  0.7816164E-02  0.1186339E+00
        -11   -1    0    0    0    0  0.00000000000E+00  0.00000000000E+00  0.45593999997E+02  0.45594000000E+02  0.51100000000E-03 0.  1.
         11   -1    0    0    0    0 -0.00000000000E+00 -0.00000000000E+00 -0.45593999997E+02  0.45594000000E+02  0.51100000000E-03 0. -1.
    9900012    2    1    2    0    0  0.11490190149E+01  0.17343337717E+00 -0.20648376188E+00  0.90007763000E+02  0.90000024671E+02 0.  0.
         12    1    1    2    0    0 -0.11490190149E+01 -0.17343337717E+00  0.20648376188E+00  0.11802370003E+01  0.00000000000E+00 0. -1.
         11    1    3    3    0    0  0.10437131487E+01  0.35850206908E+02 -0.21198564156E+02  0.41661802590E+02  0.51100000000E-03 0. -1.
        -11    1    3    3    0    0  0.29391493707E+01 -0.49900432196E+01 -0.52898257665E+01  0.78435570539E+01  0.51100000000E-03 0.  1.
        -12    1    3    3    0    0 -0.28338435045E+01 -0.30686730311E+02  0.26281906161E+02  0.40502403356E+02  0.00000000000E+00 0.  1.
</event>
<event>
 7    1  0.4358868E-015  0.9000783E+02  0.7816164E-02  0.1186339E+00
        -11   -1    0    0    0    0  0.00000000000E+00  0.00000000000E+00  0.45593999997E+02  0.45594000000E+02  0.51100000000E-03 0.  1.
         11   -1    0    0    0    0 -0.00000000000E+00 -0.00000000000E+00 -0.45593999997E+02  0.45594000000E+02  0.51100000000E-03 0. -1.
    9900012    2    1    2    0    0 -0.30324165270E+00  0.10816675591E+00  0.11354092375E+01  0.90007826418E+02  0.90000088927E+02 0.  0.
         12    1    1    2    0    0  0.30324165270E+00 -0.10816675591E+00 -0.11354092375E+01  0.11801735820E+01  0.00000000000E+00 0. -1.
         11    1    3    3    0    0 -0.24370281352E+01 -0.67897220659E+01 -0.68454753714E+01  0.99448461619E+01  0.51100000000E-03 0. -1.
        -11    1    3    3    0    0  0.40304314850E+02  0.87328207444E+01  0.70446220526E+01  0.41836905404E+02  0.51100000000E-03 0.  1.
         12    1    3    3    0    0 -0.38170528367E+02 -0.18349319226E+01  0.93626255627E+00  0.38226074852E+02  0.00000000000E+00 0. -1.
</event>
<event>
 7    1  0.4358868E-015  0.9000764E+02  0.7816164E-02  0.1186339E+00
        -11   -1    0    0    0    0  0.00000000000E+00  0.00000000000E+00  0.45593999997E+02  0.45594000000E+02  0.51100000000E-03 0.  1.
         11   -1    0    0    0    0 -0.00000000000E+00 -0.00000000000E+00 -0.45593999997E+02  0.45594000000E+02  0.51100000000E-03 0. -1.
    9900012    2    1    2    0    0 -0.40190522585E+00  0.25385554923E+00  0.10804084242E+01  0.90007638694E+02  0.89999898724E+02 0.  0.
         12    1    1    2    0    0  0.40190522585E+00 -0.25385554923E+00 -0.10804084242E+01  0.11803613063E+01  0.00000000000E+00 0. -1.
         11    1    3    3    0    0  0.15989230680E+01 -0.37983152994E+01  0.86998557390E+01  0.96265904780E+01  0.51100000000E-03 0. -1.
        -11    1    3    3    0    0  0.31666021089E+02 -0.54570676321E+01  0.18174031092E+02  0.36916282115E+02  0.51100000000E-03 0.  1.
         12    1    3    3    0    0 -0.33666849383E+02  0.95092384807E+01 -0.25793478407E+02  0.43464766101E+02  0.00000000000E+00 0. -1.
</event>
<event>
 7    1  0.4358868E-015  0.9000761E+02  0.7816164E-02  0.1186339E+00
        -11   -1    0    0    0    0  0.00000000000E+00  0.00000000000E+00  0.45593999997E+02  0.45594000000E+02  0.51100000000E-03 0.  1.
         11   -1    0    0    0    0 -0.00000000000E+00 -0.00000000000E+00 -0.45593999997E+02  0.45594000000E+02  0.51100000000E-03 0. -1.
    9900012    2    1    2    0    0  0.10587049715E+01 -0.43317951390E+00  0.29124522897E+00  0.90007608331E+02  0.89999867961E+02 0.  0.
         12    1    1    2    0    0 -0.10587049715E+01  0.43317951390E+00 -0.29124522897E+00  0.11803916686E+01  0.00000000000E+00 0. -1.
         11    1    3    3    0    0 -0.32474940040E+02  0.16559835648E+02 -0.13253742987E+02  0.38788034118E+02  0.51100000000E-03 0. -1.
        -11    1    3    3    0    0  0.25719142672E+01 -0.26077403764E+01 -0.93978717698E+01  0.10086379278E+02  0.51100000000E-03 0.  1.
        -12    1    3    3    0    0  0.30961730745E+02 -0.14385274785E+02  0.22942859986E+02  0.41133194936E+02  0.00000000000E+00 0.  1.
</event>
<event>
 7    1  0.4358868E-015  0.9000777E+02  0.7816164E-02  0.1186339E+00
        -11   -1    0    0    0    0  0.00000000000E+00  0.00000000000E+00  0.45593999997E+02  0.45594000000E+02  0.51100000000E-03 0.  1.
         11   -1    0    0    0    0 -0.00000000000E+00 -0.00000000000E+00 -0.45593999997E+02  0.45594000000E+02  0.51100000000E-03 0. -1.
    9900012    2    1    2    0    0  0.37754213953E+00  0.10247628480E+01 -0.44750670686E+00  0.90007771541E+02  0.90000033326E+02 0.  0.
         12    1    1    2    0    0 -0.37754213953E+00 -0.10247628480E+01  0.44750670686E+00  0.11802284586E+01  0.00000000000E+00 0. -1.
         11    1    3    3    0    0  0.11479076569E+02  0.13095883199E+02  0.31463362884E+02  0.35961292522E+02  0.51100000000E-03 0. -1.
        -11    1    3    3    0    0 -0.99245028752E+00  0.98263601256E+01  0.41094892471E+01  0.10697205851E+02  0.51100000000E-03 0.  1.
        -12    1    3    3    0    0 -0.10109084142E+02 -0.21897480477E+02 -0.36020358838E+02  0.43349273168E+02  0.00000000000E+00 0.  1.
</event>
<event>
 7    1  0.4358868E-015  0.9000774E+02  0.7816164E-02  0.1186339E+00
        -11   -1    0    0    0    0  0.00000000000E+00  0.00000000000E+00  0.45593999997E+02  0.45594000000E+02  0.51100000000E-03 0. -1.
         11   -1    0    0    0    0 -0.00000000000E+00 -0.00000000000E+00 -0.45593999997E+02  0.45594000000E+02  0.51100000000E-03 0.  1.
    9900012    2    1    2    0    0  0.10851644926E+01  0.42172289664E+00  0.19385738989E+00  0.90007740340E+02  0.90000001712E+02 0.  0.
         12    1    1    2    0    0 -0.10851644926E+01 -0.42172289664E+00 -0.19385738989E+00  0.11802596601E+01  0.00000000000E+00 0. -1.
         11    1    3    3    0    0 -0.41340138234E+02  0.66995561385E+01  0.68211603657E+01  0.42431348206E+02  0.51100000000E-03 0. -1.
        -11    1    3    3    0    0  0.60922119598E+01 -0.87849633730E+01 -0.17042836484E+01  0.10825673699E+02  0.51100000000E-03 0.  1.
        -12    1    3    3    0    0  0.36333090766E+02  0.25071301311E+01 -0.49230193274E+01  0.36750718434E+02  0.00000000000E+00 0.  1.
</event>
<event>
 7    1  0.4358868E-015  0.9000770E+02  0.7816164E-02  0.1186339E+00
        -11   -1    0    0    0    0  0.00000000000E+00  0.00000000000E+00  0.45593999997E+02  0.45594000000E+02  0.51100000000E-03 0. -1.
         11   -1    0    0    0    0 -0.00000000000E+00 -0.00000000000E+00 -0.45593999997E+02  0.45594000000E+02  0.51100000000E-03 0.  1.
    9900012    2    1    2    0    0  0.86162123820E+00  0.40606964522E+00  0.69700797982E+00  0.90007701801E+02  0.89999962665E+02 0.  0.
         12    1    1    2    0    0 -0.86162123820E+00 -0.40606964522E+00 -0.69700797982E+00  0.11802981991E+01  0.00000000000E+00 0. -1.
         11    1    3    3    0    0  0.38835643582E+01 -0.70697378897E+01 -0.32010407692E+01  0.86781293041E+01  0.51100000000E-03 0. -1.
        -11    1    3    3    0    0 -0.75886023157E+01  0.15301372954E+02 -0.36302987428E+02  0.40120142022E+02  0.51100000000E-03 0.  1.
         12    1    3    3    0    0  0.45666591957E+01 -0.78255654191E+01  0.40201036177E+02  0.41209430475E+02  0.00000000000E+00 0. -1.
</event>
<event>
 7    1  0.4358868E-015  0.9000773E+02  0.7816164E-02  0.1186339E+00
        -11   -1    0    0    0    0  0.00000000000E+00  0.00000000000E+00  0.45593999997E+02  0.45594000000E+02  0.51100000000E-03 0.  1.
         11   -1    0    0    0    0 -0.00000000000E+00 -0.00000000000E+00 -0.45593999997E+02  0.45594000000E+02  0.51100000000E-03 0. -1.
    9900012    2    1    2    0    0  0.60542212400E+00  0.10125580643E+01  0.35073981486E-01  0.90007728859E+02  0.89999990080E+02 0.  0.
         12    1    1    2    0    0 -0.60542212400E+00 -0.10125580643E+01 -0.35073981486E-01  0.11802711409E+01  0.00000000000E+00 0. -1.
         11    1    3    3    0    0 -0.26676256556E+02  0.20270338935E+02 -0.53480341668E+01  0.33928023433E+02  0.51100000000E-03 0. -1.
        -11    1    3    3    0    0 -0.86961409159E+01  0.51117888098E+01 -0.52093290487E+01  0.11352989081E+02  0.51100000000E-03 0.  1.
        -12    1    3    3    0    0  0.35977819595E+02 -0.24369569681E+02  0.10592437197E+02  0.44726716345E+02  0.00000000000E+00 0.  1.
</event>
<event>
 7    1  0.4358868E-015  0.9000775E+02  0.7816164E-02  0.1186339E+00
        -11   -1    0    0    0    0  0.00000000000E+00  0.00000000000E+00  0.45593999997E+02  0.45594000000E+02  0.51100000000E-03 0. -1.
         11   -1    0    0    0    0 -0.00000000000E+00 -0.00000000000E+00 -0.45593999997E+02  0.45594000000E+02  0.51100000000E-03 0.  1.
    9900012    2    1    2    0    0 -0.11266738861E+01  0.93829044442E-01 -0.33881106914E+00  0.90007749655E+02  0.90000011151E+02 0.  0.
         12    1    1    2    0    0  0.11266738861E+01 -0.93829044442E-01  0.33881106914E+00  0.11802503446E+01  0.00000000000E+00 0. -1.
         11    1    3    3    0    0  0.12886035809E+01 -0.16019184267E+02  0.17418437681E+02  0.23699720152E+02  0.51100000000E-03 0. -1.
        -11    1    3    3    0    0 -0.10501571168E+02 -0.21125786107E+02  0.14459744450E+01  0.23636257699E+02  0.51100000000E-03 0.  1.
         12    1    3    3    0    0  0.80862937012E+01  0.37238799418E+02 -0.19203223195E+02  0.42671771805E+02  0.00000000000E+00 0. -1.
</event>
<event>
 7    1  0.4358868E-015  0.9000773E+02  0.7816164E-02  0.1186339E+00
        -11   -1    0    0    0    0  0.00000000000E+00  0.00000000000E+00  0.45593999997E+02  0.45594000000E+02  0.51100000000E-03 0. -1.
         11   -1    0    0    0    0 -0.00000000000E+00 -0.00000000000E+00 -0.45593999997E+02  0.45594000000E+02  0.51100000000E-03 0.  1.
    9900012    2    1    2    0    0  0.32507849222E+00  0.42101100997E+00 -0.10536219254E+01  0.90007726532E+02  0.89999987723E+02 0.  0.
         12    1    1    2    0    0 -0.32507849222E+00 -0.42101100997E+00  0.10536219254E+01  0.11802734676E+01  0.00000000000E+00 0. -1.
         11    1    3    3    0    0 -0.32504011051E+01  0.47240246970E+01  0.60383720437E+01  0.83272716949E+01  0.51100000000E-03 0. -1.
        -11    1    3    3    0    0  0.25176950247E+02  0.30317694838E+02  0.33734259990E+01  0.39552767884E+02  0.51100000000E-03 0.  1.
         12    1    3    3    0    0 -0.21601470649E+02 -0.34620708525E+02 -0.10465419968E+02  0.42127686954E+02  0.00000000000E+00 0. -1.
</event>
<event>
 7    1  0.4358868E-015  0.9000775E+02  0.7816164E-02  0.1186339E+00
        -11   -1    0    0    0    0  0.00000000000E+00  0.00000000000E+00  0.45593999997E+02  0.45594000000E+02  0.51100000000E-03 0.  1.
         11   -1    0    0    0    0 -0.00000000000E+00 -0.00000000000E+00 -0.45593999997E+02  0.45594000000E+02  0.51100000000E-03 0. -1.
    9900012    2    1    2    0    0  0.26095703562E+00 -0.54545591349E+00  0.10135969978E+01  0.90007745959E+02  0.90000007405E+02 0.  0.
         12    1    1    2    0    0 -0.26095703562E+00  0.54545591349E+00 -0.10135969978E+01  0.11802540413E+01  0.00000000000E+00 0. -1.
         11    1    3    3    0    0 -0.38041805574E+02 -0.11851263400E+02 -0.16024545054E+02  0.42946681594E+02  0.51100000000E-03 0. -1.
        -11    1    3    3    0    0  0.29024709665E+01  0.40838062746E+01  0.86099386551E+01  0.99615689179E+01  0.51100000000E-03 0.  1.
        -12    1    3    3    0    0  0.35400291643E+02  0.72220012122E+01  0.84282033962E+01  0.37099495447E+02  0.00000000000E+00 0.  1.
</event>
<event>
 7    1  0.4358868E-015  0.9000741E+02  0.7816164E-02  0.1186340E+00
        -11   -1    0    0    0    0  0.00000000000E+00  0.00000000000E+00  0.45593999997E+02  0.45594000000E+02  0.51100000000E-03 0. -1.
         11   -1    0    0    0    0 -0.00000000000E+00 -0.00000000000E+00 -0.45593999997E+02  0.45594000000E+02  0.51100000000E-03 0.  1.
    9900012    2    1    2    0    0  0.85657017367E+00  0.57088382665E-01 -0.81043956191E+00  0.90007413777E+02  0.89999670838E+02 0.  0.
         12    1    1    2    0    0 -0.85657017367E+00 -0.57088382665E-01  0.81043956191E+00  0.11805862228E+01  0.00000000000E+00 0. -1.
         11    1    3    3    0    0  0.33512131855E+02  0.19072736547E+02 -0.41292454966E+01  0.38779929467E+02  0.51100000000E-03 0. -1.
        -11    1    3    3    0    0  0.61858248821E+01 -0.10175653460E+01  0.55331532599E+01  0.83615581063E+01  0.51100000000E-03 0.  1.
        -12    1    3    3    0    0 -0.38841386563E+02 -0.17998082818E+02 -0.22143473251E+01  0.42865926204E+02  0.00000000000E+00 0.  1.
</event>
<event>
 7    1  0.4358868E-015  0.9000764E+02  0.7816164E-02  0.1186339E+00
        -11   -1    0    0    0    0  0.00000000000E+00  0.00000000000E+00  0.45593999997E+02  0.45594000000E+02  0.51100000000E-03 0.  1.
         11   -1    0    0    0    0 -0.00000000000E+00 -0.00000000000E+00 -0.45593999997E+02  0.45594000000E+02  0.51100000000E-03 0. -1.
    9900012    2    1    2    0    0 -0.45965623280E+00 -0.63328838635E+00  0.88369710000E+00  0.90007636244E+02  0.89999896242E+02 0.  0.
         12    1    1    2    0    0  0.45965623280E+00  0.63328838635E+00 -0.88369710000E+00  0.11803637563E+01  0.00000000000E+00 0. -1.
         11    1    3    3    0    0  0.38499044608E+01  0.65770604730E+01 -0.53188149870E+01  0.92935075160E+01  0.51100000000E-03 0. -1.
        -11    1    3    3    0    0  0.64708557182E+01  0.35607616333E+02  0.50938332945E+00  0.36194388878E+02  0.51100000000E-03 0.  1.
         12    1    3    3    0    0 -0.10780416412E+02 -0.42817965192E+02  0.56931287576E+01  0.44519739849E+02  0.00000000000E+00 0. -1.
</event>
<event>
 7    1  0.4358868E-015  0.9000783E+02  0.7816164E-02  0.1186339E+00
        -11   -1    0    0    0    0  0.00000000000E+00  0.00000000000E+00  0.45593999997E+02  0.45594000000E+02  0.51100000000E-03 0.  1.
         11   -1    0    0    0    0 -0.00000000000E+00 -0.00000000000E+00 -0.45593999997E+02  0.45594000000E+02  0.51100000000E-03 0. -1.
    9900012    2    1    2    0    0 -0.92010386526E+00 -0.22099814491E+00  0.70524950164E+00  0.90007827062E+02  0.90000089580E+02 0.  0.
         12    1    1    2    0    0  0.92010386526E+00  0.22099814491E+00 -0.70524950164E+00  0.11801729375E+01  0.00000000000E+00 0. -1.
         11    1    3    3    0    0 -0.21436354256E+02  0.19065069858E+02 -0.26524687197E+02  0.39071130054E+02  0.51100000000E-03 0. -1.
        -11    1    3    3    0    0 -0.47169106685E+01  0.56916859562E+01  0.63646282422E+01  0.97546413671E+01  0.51100000000E-03 0.  1.
        -12    1    3    3    0    0  0.25233161060E+02 -0.24977753959E+02  0.20865308456E+02  0.41182055642E+02  0.00000000000E+00 0.  1.
</event>
<event>
 7    1  0.4358868E-015  0.9000779E+02  0.7816164E-02  0.1186339E+00
        -11   -1    0    0    0    0  0.00000000000E+00  0.00000000000E+00  0.45593999997E+02  0.45594000000E+02  0.51100000000E-03 0.  1.
         11   -1    0    0    0    0 -0.00000000000E+00 -0.00000000000E+00 -0.45593999997E+02  0.45594000000E+02  0.51100000000E-03 0. -1.
    9900012    2    1    2    0    0  0.38860195673E+00 -0.10867544408E+01 -0.24666360258E+00  0.90007792549E+02  0.90000054610E+02 0.  0.
         12    1    1    2    0    0 -0.38860195673E+00  0.10867544408E+01  0.24666360258E+00  0.11802074513E+01  0.00000000000E+00 0. -1.
         11    1    3    3    0    0  0.11263249978E+02 -0.66646077892E+01  0.23981969219E+01  0.13305230016E+02  0.51100000000E-03 0. -1.
        -11    1    3    3    0    0  0.23093309461E+02  0.65696064730E+01  0.23675458641E+02  0.33719252856E+02  0.51100000000E-03 0.  1.
         12    1    3    3    0    0 -0.33967957482E+02 -0.99175312459E+00 -0.26320319166E+02  0.42983309676E+02  0.00000000000E+00 0. -1.
</event>
<event>
 7    1  0.4358868E-015  0.9000806E+02  0.7816164E-02  0.1186338E+00
        -11   -1    0    0    0    0  0.00000000000E+00  0.00000000000E+00  0.45593999997E+02  0.45594000000E+02  0.51100000000E-03 0. -1.
         11   -1    0    0    0    0 -0.00000000000E+00 -0.00000000000E+00 -0.45593999997E+02  0.45594000000E+02  0.51100000000E-03 0.  1.
    9900012    2    1    2    0    0  0.69827518874E+00  0.63125854044E+00 -0.71146768794E+00  0.90008058537E+02  0.90000324110E+02 0.  0.
         12    1    1    2    0    0 -0.69827518874E+00 -0.63125854044E+00  0.71146768794E+00  0.11799414626E+01  0.00000000000E+00 0. -1.
         11    1    3    3    0    0 -0.36792438478E+02 -0.79479029531E+01  0.33457843544E+01  0.37789508646E+02  0.51100000000E-03 0. -1.
        -11    1    3    3    0    0 -0.27810444131E+01  0.89385852870E+01 -0.72187492316E+01  0.11821288242E+02  0.51100000000E-03 0.  1.
        -12    1    3    3    0    0  0.40271758080E+02 -0.35942379350E+00  0.31614971892E+01  0.40397261650E+02  0.00000000000E+00 0.  1.
</event>
<event>
 7    1  0.4358868E-015  0.9000776E+02  0.7816164E-02  0.1186339E+00
        -11   -1    0    0    0    0  0.00000000000E+00  0.00000000000E+00  0.45593999997E+02  0.45594000000E+02  0.51100000000E-03 0.  1.
         11   -1    0    0    0    0 -0.00000000000E+00 -0.00000000000E+00 -0.45593999997E+02  0.45594000000E+02  0.51100000000E-03 0. -1.
    9900012    2    1    2    0    0  0.64231295184E+00  0.57793609191E+00  0.80398486850E+00  0.90007759464E+02  0.90000021089E+02 0.  0.
         12    1    1    2    0    0 -0.64231295184E+00 -0.57793609191E+00 -0.80398486850E+00  0.11802405362E+01  0.00000000000E+00 0. -1.
         11    1    3    3    0    0 -0.25542489195E+02 -0.26114117514E+02  0.60673575269E+01  0.37029430396E+02  0.51100000000E-03 0. -1.
        -11    1    3    3    0    0 -0.95481063830E+00 -0.48235460537E+01 -0.99754320629E+01  0.11121488434E+02  0.51100000000E-03 0.  1.
        -12    1    3    3    0    0  0.27139612785E+02  0.31515599660E+02  0.47120594045E+01  0.41856840634E+02  0.00000000000E+00 0.  1.
</event>
<event>
 7    1  0.4358868E-015  0.9000766E+02  0.7816164E-02  0.1186339E+00
        -11   -1    0    0    0    0  0.00000000000E+00  0.00000000000E+00  0.45593999997E+02  0.45594000000E+02  0.51100000000E-03 0.  1.
         11   -1    0    0    0    0 -0.00000000000E+00 -0.00000000000E+00 -0.45593999997E+02  0.45594000000E+02  0.51100000000E-03 0. -1.
    9900012    2    1    2    0    0  0.10614688611E+01 -0.44404315260E+00 -0.26326906143E+00  0.90007660615E+02  0.89999920935E+02 0.  0.
         12    1    1    2    0    0 -0.10614688611E+01  0.44404315260E+00  0.26326906143E+00  0.11803393848E+01  0.00000000000E+00 0. -1.
         11    1    3    3    0    0  0.58097221199E+00  0.38047191155E+02 -0.61360036744E+01  0.38543181302E+02  0.51100000000E-03 0. -1.
        -11    1    3    3    0    0 -0.67295204960E+01  0.40873632599E+01 -0.62347458685E-01  0.78738092428E+01  0.51100000000E-03 0.  1.
        -12    1    3    3    0    0  0.72100171452E+01 -0.42578597567E+02  0.59350820716E+01  0.43590670071E+02  0.00000000000E+00 0.  1.
</event>
<event>
 7    1  0.4358868E-015  0.9000777E+02  0.7816164E-02  0.1186339E+00
        -11   -1    0    0    0    0  0.00000000000E+00  0.00000000000E+00  0.45593999997E+02  0.45594000000E+02  0.51100000000E-03 0. -1.
         11   -1    0    0    0    0 -0.00000000000E+00 -0.00000000000E+00 -0.45593999997E+02  0.45594000000E+02  0.51100000000E-03 0.  1.
    9900012    2    1    2    0    0 -0.13184210877E+00 -0.31002543809E+00 -0.11311252200E+01  0.90007770201E+02  0.90000031968E+02 0.  0.
         12    1    1    2    0    0  0.13184210877E+00  0.31002543809E+00  0.11311252200E+01  0.11802297985E+01  0.00000000000E+00 0. -1.
         11    1    3    3    0    0 -0.86239604194E+01  0.28222780930E+02 -0.21125231307E+02  0.36292884355E+02  0.51100000000E-03 0. -1.
        -11    1    3    3    0    0 -0.32075058539E+01  0.78553140713E+01 -0.31274334681E+01  0.90429471590E+01  0.51100000000E-03 0.  1.
        -12    1    3    3    0    0  0.11699624165E+02 -0.36388120440E+02  0.23121539555E+02  0.44671938688E+02  0.00000000000E+00 0.  1.
</event>
<event>
 7    1  0.4358868E-015  0.9000769E+02  0.7816164E-02  0.1186339E+00
        -11   -1    0    0    0    0  0.00000000000E+00  0.00000000000E+00  0.45593999997E+02  0.45594000000E+02  0.51100000000E-03 0.  1.
         11   -1    0    0    0    0 -0.00000000000E+00 -0.00000000000E+00 -0.45593999997E+02  0.45594000000E+02  0.51100000000E-03 0. -1.
    9900012    2    1    2    0    0  0.59784166509E+00  0.69746939935E+00  0.74111198825E+00  0.90007692752E+02  0.89999953497E+02 0.  0.
         12    1    1    2    0    0 -0.59784166509E+00 -0.69746939935E+00 -0.74111198825E+00  0.11803072476E+01  0.00000000000E+00 0. -1.
         11    1    3    3    0    0 -0.57275178643E+01  0.47320707485E+01 -0.66897778027E+01  0.99975037767E+01  0.51100000000E-03 0. -1.
        -11    1    3    3    0    0  0.25078089552E+02 -0.27475681912E+02 -0.17385102989E+02  0.41061727659E+02  0.51100000000E-03 0.  1.
         12    1    3    3    0    0 -0.18752730023E+02  0.23441080563E+02  0.24815992780E+02  0.38948461317E+02  0.00000000000E+00 0. -1.
</event>
<event>
 7    1  0.5535088E-015  0.9000778E+02  0.7816164E-02  0.1186339E+00
        -11   -1    0    0    0    0  0.00000000000E+00  0.00000000000E+00  0.45593999997E+02  0.45594000000E+02  0.51100000000E-03 0. -1.
         11   -1    0    0    0    0 -0.00000000000E+00 -0.00000000000E+00 -0.45593999997E+02  0.45594000000E+02  0.51100000000E-03 0.  1.
    9900012    2    1    2    0    0  0.23189463833E+00  0.54976279416E+00 -0.10182802824E+01  0.90007784347E+02  0.90000046301E+02 0.  0.
         12    1    1    2    0    0 -0.23189463833E+00 -0.54976279416E+00  0.10182802824E+01  0.11802156526E+01  0.00000000000E+00 0. -1.
         11    1    3    3    0    0 -0.28996596355E+02  0.70411281822E+01  0.20185430430E+02  0.36025431131E+02  0.51100000000E-03 0. -1.
        -11    1    3    3    0    0 -0.82654022564E+01 -0.51176388145E+01  0.19208225113E+01  0.99094228327E+01  0.51100000000E-03 0.  1.
        -12    1    3    3    0    0  0.37493893250E+02 -0.13737265735E+01 -0.23124533224E+02  0.44072930383E+02  0.00000000000E+00 0.  1.
</event>
<event>
 7    1  0.4358868E-015  0.9000776E+02  0.7816164E-02  0.1186339E+00
        -11   -1    0    0    0    0  0.00000000000E+00  0.00000000000E+00  0.45593999997E+02  0.45594000000E+02  0.51100000000E-03 0. -1.
         11   -1    0    0    0    0 -0.00000000000E+00 -0.00000000000E+00 -0.45593999997E+02  0.45594000000E+02  0.51100000000E-03 0.  1.
    9900012    2    1    2    0    0  0.86176995129E+00 -0.79818249354E+00 -0.11502652826E+00  0.90007756871E+02  0.90000018461E+02 0.  0.
         12    1    1    2    0    0 -0.86176995129E+00  0.79818249354E+00  0.11502652826E+00  0.11802431292E+01  0.00000000000E+00 0. -1.
         11    1    3    3    0    0 -0.13107818349E+02 -0.15653223493E+02  0.36260572530E+02  0.41613308304E+02  0.51100000000E-03 0. -1.
        -11    1    3    3    0    0  0.87708172254E+01  0.19120663959E+01  0.47815066023E+00  0.89895417580E+01  0.51100000000E-03 0.  1.
        -12    1    3    3    0    0  0.51987710750E+01  0.12942974603E+02 -0.36853749718E+02  0.39404906808E+02  0.00000000000E+00 0.  1.
</event>
<event>
 7    1  0.4358868E-015  0.9000773E+02  0.7816164E-02  0.1186339E+00
        -11   -1    0    0    0    0  0.00000000000E+00  0.00000000000E+00  0.45593999997E+02  0.45594000000E+02  0.51100000000E-03 0. -1.
         11   -1    0    0    0    0 -0.00000000000E+00 -0.00000000000E+00 -0.45593999997E+02  0.45594000000E+02  0.51100000000E-03 0.  1.
    9900012    2    1    2    0    0  0.11594460861E+01 -0.19286712422E+00 -0.10738103185E+00  0.90007727303E+02  0.89999988503E+02 0.  0.
         12    1    1    2    0    0 -0.11594460861E+01  0.19286712422E+00  0.10738103185E+00  0.11802726974E+01  0.00000000000E+00 0. -1.
         11    1    3    3    0    0  0.18205994502E+02 -0.27456845135E+02  0.22186030854E+02  0.39718466057E+02  0.51100000000E-03 0. -1.
        -11    1    3    3    0    0 -0.55506647153E+01 -0.14778775486E+00  0.67436981570E+01  0.87355128697E+01  0.51100000000E-03 0.  1.
        -12    1    3    3    0    0 -0.11495883701E+02  0.27411765766E+02 -0.29037110043E+02  0.41553748376E+02  0.00000000000E+00 0.  1.
</event>
<event>
 7    1  0.4358868E-015  0.9000775E+02  0.7816164E-02  0.1186339E+00
        -11   -1    0    0    0    0  0.00000000000E+00  0.00000000000E+00  0.45593999997E+02  0.45594000000E+02  0.51100000000E-03 0.  1.
         11   -1    0    0    0    0 -0.00000000000E+00 -0.00000000000E+00 -0.45593999997E+02  0.45594000000E+02  0.51100000000E-03 0. -1.
    9900012    2    1    2    0    0 -0.15553270459E+00  0.23519949217E+00  0.11460700819E+01  0.90007751782E+02  0.90000013306E+02 0.  0.
         12    1    1    2    0    0  0.15553270459E+00 -0.23519949217E+00 -0.11460700819E+01  0.11802482180E+01  0.00000000000E+00 0. -1.
         11    1    3    3    0    0  0.81905190192E+01  0.15352814797E+01  0.91228787649E+01  0.12355913898E+02  0.51100000000E-03 0. -1.
        -11    1    3    3    0    0  0.31882330360E+02 -0.10179344627E+02  0.62917211031E+01  0.34054189183E+02  0.51100000000E-03 0.  1.
         12    1    3    3    0    0 -0.40228382083E+02  0.88792626393E+01 -0.14268529786E+02  0.43597648702E+02  0.00000000000E+00 0. -1.
</event>
<event>
 7    1  0.4358868E-015  0.9000786E+02  0.7816164E-02  0.1186339E+00
        -11   -1    0    0    0    0  0.00000000000E+00  0.00000000000E+00  0.45593999997E+02  0.45594000000E+02  0.51100000000E-03 0.  1.
         11   -1    0    0    0    0 -0.00000000000E+00 -0.00000000000E+00 -0.45593999997E+02  0.45594000000E+02  0.51100000000E-03 0. -1.
    9900012    2    1    2    0    0  0.11500407035E+01 -0.14102754527E+00  0.22414836725E+00  0.90007862348E+02  0.90000125330E+02 0.  0.
         12    1    1    2    0    0 -0.11500407035E+01  0.14102754527E+00 -0.22414836725E+00  0.11801376525E+01  0.00000000000E+00 0. -1.
         11    1    3    3    0    0  0.12412639392E+02  0.29699110813E+02  0.12941864199E+02  0.34692976940E+02  0.51100000000E-03 0. -1.
        -11    1    3    3    0    0 -0.37916170172E+01  0.98878846606E+01  0.43324585801E+01  0.11441888842E+02  0.51100000000E-03 0.  1.
        -12    1    3    3    0    0 -0.74709816712E+01 -0.39728023019E+02 -0.17050174412E+02  0.43872996565E+02  0.00000000000E+00 0.  1.
</event>
<event>
 7    1  0.4388679E-015  0.9000882E+02  0.7816164E-02  0.1186337E+00
        -11   -1    0    0    0    0  0.00000000000E+00  0.00000000000E+00  0.45593999997E+02  0.45594000000E+02  0.51100000000E-03 0. -1.
         11   -1    0    0    0    0 -0.00000000000E+00 -0.00000000000E+00 -0.45593999997E+02  0.45594000000E+02  0.51100000000E-03 0.  1.
    9900012    2    1    2    0    0 -0.79572739666E+00  0.86694438502E+00  0.75509770591E-01  0.90008815374E+02  0.90001090930E+02 0.  0.
         12    1    1    2    0    0  0.79572739666E+00 -0.86694438502E+00 -0.75509770591E-01  0.11791846259E+01  0.00000000000E+00 0. -1.
         11    1    3    3    0    0 -0.30130354983E+02 -0.14345634653E+02  0.25907543578E+02  0.42247323460E+02  0.51100000000E-03 0. -1.
        -11    1    3    3    0    0 -0.72957385128E+00  0.94323297499E+01 -0.47167395567E+01  0.10571128361E+02  0.51100000000E-03 0.  1.
        -12    1    3    3    0    0  0.30064201438E+02  0.57802492883E+01 -0.21115294251E+02  0.37190363553E+02  0.00000000000E+00 0.  1.
</event>
<event>
 7    1  0.4358868E-015  0.9000774E+02  0.7816164E-02  0.1186339E+00
        -11   -1    0    0    0    0  0.00000000000E+00  0.00000000000E+00  0.45593999997E+02  0.45594000000E+02  0.51100000000E-03 0.  1.
         11   -1    0    0    0    0 -0.00000000000E+00 -0.00000000000E+00 -0.45593999997E+02  0.45594000000E+02  0.51100000000E-03 0. -1.
    9900012    2    1    2    0    0 -0.42062623039E+00 -0.66995481720E+00  0.87592027663E+00  0.90007744852E+02  0.90000006284E+02 0.  0.
         12    1    1    2    0    0  0.42062623039E+00  0.66995481720E+00 -0.87592027663E+00  0.11802551478E+01  0.00000000000E+00 0. -1.
         11    1    3    3    0    0  0.28756942558E+02 -0.15748901183E+02 -0.14077627264E+02  0.35681496933E+02  0.51100000000E-03 0. -1.
        -11    1    3    3    0    0  0.90060737153E+01 -0.35560662675E+01  0.18009082000E+01  0.98487685358E+01  0.51100000000E-03 0.  1.
        -12    1    3    3    0    0 -0.38183642503E+02  0.18635012633E+02  0.13152639341E+02  0.44477479383E+02  0.00000000000E+00 0.  1.
</event>
<event>
 7    1  0.4358868E-015  0.9000778E+02  0.7816164E-02  0.1186339E+00
        -11   -1    0    0    0    0  0.00000000000E+00  0.00000000000E+00  0.45593999997E+02  0.45594000000E+02  0.51100000000E-03 0.  1.
         11   -1    0    0    0    0 -0.00000000000E+00 -0.00000000000E+00 -0.45593999997E+02  0.45594000000E+02  0.51100000000E-03 0. -1.
    9900012    2    1    2    0    0  0.82246849488E+00 -0.58722332014E+00  0.60961681152E+00  0.90007780398E+02  0.90000042299E+02 0.  0.
         12    1    1    2    0    0 -0.82246849488E+00  0.58722332014E+00 -0.60961681152E+00  0.11802196023E+01  0.00000000000E+00 0. -1.
         11    1    3    3    0    0 -0.65886257927E+01 -0.85017523469E+01  0.68492676225E+01  0.12751558729E+02  0.51100000000E-03 0. -1.
        -11    1    3    3    0    0 -0.14592976137E+01  0.40168609050E+02 -0.14619117284E+02  0.42771080100E+02  0.51100000000E-03 0.  1.
         12    1    3    3    0    0  0.88703919013E+01 -0.32254080023E+02  0.83794664725E+01  0.34485141568E+02  0.00000000000E+00 0. -1.
</event>
<event>
 7    1  0.4358868E-015  0.9000765E+02  0.7816164E-02  0.1186339E+00
        -11   -1    0    0    0    0  0.00000000000E+00  0.00000000000E+00  0.45593999997E+02  0.45594000000E+02  0.51100000000E-03 0. -1.
         11   -1    0    0    0    0 -0.00000000000E+00 -0.00000000000E+00 -0.45593999997E+02  0.45594000000E+02  0.51100000000E-03 0.  1.
    9900012    2    1    2    0    0 -0.11563339944E+01 -0.20889798922E+00  0.11169406309E+00  0.90007651645E+02  0.89999911846E+02 0.  0.
         12    1    1    2    0    0  0.11563339944E+01  0.20889798922E+00 -0.11169406309E+00  0.11803483555E+01  0.00000000000E+00 0. -1.
         11    1    3    3    0    0  0.21332887985E+02  0.77149259438E+01  0.47497877957E+01  0.23176985923E+02  0.51100000000E-03 0. -1.
        -11    1    3    3    0    0  0.68159667334E+01  0.35565543194E+01 -0.27096321880E+02  0.28165886118E+02  0.51100000000E-03 0.  1.
         12    1    3    3    0    0 -0.29305188713E+02 -0.11480378252E+02  0.22458228147E+02  0.38664779604E+02  0.00000000000E+00 0. -1.
</event>
<event>
 7    1  0.4358868E-015  0.9000760E+02  0.7816164E-02  0.1186339E+00
        -11   -1    0    0    0    0  0.00000000000E+00  0.00000000000E+00  0.45593999997E+02  0.45594000000E+02  0.51100000000E-03 0. -1.
         11   -1    0    0    0    0 -0.00000000000E+00 -0.00000000000E+00 -0.45593999997E+02  0.45594000000E+02  0.51100000000E-03 0.  1.
    9900012    2    1    2    0    0 -0.11726886932E+01 -0.10526756881E+00 -0.84086731012E-01  0.90007597268E+02  0.89999856751E+02 0.  0.
         12    1    1    2    0    0  0.11726886932E+01  0.10526756881E+00  0.84086731012E-01  0.11804027324E+01  0.00000000000E+00 0. -1.
         11    1    3    3    0    0  0.31392095646E+02  0.62125600027E+00  0.20955819371E+02  0.37749119113E+02  0.51100000000E-03 0. -1.
        -11    1    3    3    0    0  0.59185532242E+01  0.61120903417E+01 -0.58461466493E+01  0.10323001091E+02  0.51100000000E-03 0.  1.
        -12    1    3    3    0    0 -0.38483337563E+02 -0.68386139107E+01 -0.15193759453E+02  0.41935477064E+02  0.00000000000E+00 0.  1.
</event>
<event>
 7    1  0.4358868E-015  0.9000751E+02  0.7816164E-02  0.1186340E+00
        -11   -1    0    0    0    0  0.00000000000E+00  0.00000000000E+00  0.45593999997E+02  0.45594000000E+02  0.51100000000E-03 0. -1.
         11   -1    0    0    0    0 -0.00000000000E+00 -0.00000000000E+00 -0.45593999997E+02  0.45594000000E+02  0.51100000000E-03 0.  1.
    9900012    2    1    2    0    0  0.27150653771E+00 -0.33918671032E-01 -0.11483454201E+01  0.90007507103E+02  0.89999765396E+02 0.  0.
         12    1    1    2    0    0 -0.27150653771E+00  0.33918671032E-01  0.11483454201E+01  0.11804928971E+01  0.00000000000E+00 0. -1.
         11    1    3    3    0    0 -0.86770996637E+01  0.34274317147E+02  0.37363533620E+01  0.35552513430E+02  0.51100000000E-03 0. -1.
        -11    1    3    3    0    0 -0.75898416132E+01  0.66051148430E+01 -0.17663592420E+01  0.10215344489E+02  0.51100000000E-03 0.  1.
        -12    1    3    3    0    0  0.16538447815E+02 -0.40913350661E+02 -0.31183395401E+01  0.44239649184E+02  0.00000000000E+00 0.  1.
</event>
<event>
 7    1  0.4358868E-015  0.9000805E+02  0.7816164E-02  0.1186338E+00
        -11   -1    0    0    0    0  0.00000000000E+00  0.00000000000E+00  0.45593999997E+02  0.45594000000E+02  0.51100000000E-03 0.  1.
         11   -1    0    0    0    0 -0.00000000000E+00 -0.00000000000E+00 -0.45593999997E+02  0.45594000000E+02  0.51100000000E-03 0. -1.
    9900012    2    1    2    0    0  0.47684335232E+00  0.23744215722E+00  0.10528617759E+01  0.90008052425E+02  0.90000317916E+02 0.  0.
         12    1    1    2    0    0 -0.47684335232E+00 -0.23744215722E+00 -0.10528617759E+01  0.11799475751E+01  0.00000000000E+00 0. -1.
         11    1    3    3    0    0 -0.18609318085E+02  0.24076203976E+02  0.87459742951E+01  0.31661686375E+02  0.51100000000E-03 0. -1.
        -11    1    3    3    0    0 -0.11988092051E+02  0.47331908960E+01  0.56525076915E+01  0.14073673669E+02  0.51100000000E-03 0.  1.
        -12    1    3    3    0    0  0.31074253489E+02 -0.28571952715E+02 -0.13345620211E+02  0.44272692381E+02  0.00000000000E+00 0.  1.
</event>
<event>
 7    1  0.4358868E-015  0.9000780E+02  0.7816164E-02  0.1186339E+00
        -11   -1    0    0    0    0  0.00000000000E+00  0.00000000000E+00  0.45593999997E+02  0.45594000000E+02  0.51100000000E-03 0. -1.
         11   -1    0    0    0    0 -0.00000000000E+00 -0.00000000000E+00 -0.45593999997E+02  0.45594000000E+02  0.51100000000E-03 0.  1.
    9900012    2    1    2    0    0 -0.14399035167E+00 -0.25097301654E+00 -0.11441845462E+01  0.90007797072E+02  0.90000059193E+02 0.  0.
         12    1    1    2    0    0  0.14399035167E+00  0.25097301654E+00  0.11441845462E+01  0.11802029284E+01  0.00000000000E+00 0. -1.
         11    1    3    3    0    0  0.22750280635E+02  0.19690054364E+02  0.27672734417E+02  0.40878524193E+02  0.51100000000E-03 0. -1.
        -11    1    3    3    0    0 -0.95718388994E+01  0.55230317472E+01 -0.81423807196E+01  0.13726701849E+02  0.51100000000E-03 0.  1.
        -12    1    3    3    0    0 -0.13322432087E+02 -0.25464059127E+02 -0.20674538244E+02  0.35402571030E+02  0.00000000000E+00 0.  1.
</event>
<event>
 7    1  0.4358868E-015  0.9000766E+02  0.7816164E-02  0.1186339E+00
        -11   -1    0    0    0    0  0.00000000000E+00  0.00000000000E+00  0.45593999997E+02  0.45594000000E+02  0.51100000000E-03 0.  1.
         11   -1    0    0    0    0 -0.00000000000E+00 -0.00000000000E+00 -0.45593999997E+02  0.45594000000E+02  0.51100000000E-03 0. -1.
    9900012    2    1    2    0    0 -0.88232689193E+00  0.25869805758E+00  0.74011801089E+00  0.90007661024E+02  0.89999921349E+02 0.  0.
         12    1    1    2    0    0  0.88232689193E+00 -0.25869805758E+00 -0.74011801089E+00  0.11803389764E+01  0.00000000000E+00 0. -1.
         11    1    3    3    0    0  0.31738754581E+02  0.44695860698E+01 -0.14074023312E+02  0.35005769160E+02  0.51100000000E-03 0. -1.
        -11    1    3    3    0    0  0.91287293668E+01  0.45847883577E+01  0.16266762791E+01  0.10344083339E+02  0.51100000000E-03 0.  1.
        -12    1    3    3    0    0 -0.41749810840E+02 -0.87956763699E+01  0.13187465044E+02  0.44657808525E+02  0.00000000000E+00 0.  1.
</event>
<event>
 7    1  0.4358868E-015  0.9000776E+02  0.7816164E-02  0.1186339E+00
        -11   -1    0    0    0    0  0.00000000000E+00  0.00000000000E+00  0.45593999997E+02  0.45594000000E+02  0.51100000000E-03 0. -1.
         11   -1    0    0    0    0 -0.00000000000E+00 -0.00000000000E+00 -0.45593999997E+02  0.45594000000E+02  0.51100000000E-03 0.  1.
    9900012    2    1    2    0    0 -0.11657671479E+01 -0.10649795603E+00  0.15035778768E+00  0.90007761752E+02  0.90000023407E+02 0.  0.
         12    1    1    2    0    0  0.11657671479E+01  0.10649795603E+00 -0.15035778768E+00  0.11802382480E+01  0.00000000000E+00 0. -1.
         11    1    3    3    0    0 -0.52737634695E+00 -0.89394202229E+01  0.17083918268E+01  0.91164665648E+01  0.51100000000E-03 0. -1.
        -11    1    3    3    0    0 -0.26575397523E+02 -0.33812203284E+01 -0.30197558233E+02  0.40368018628E+02  0.51100000000E-03 0.  1.
         12    1    3    3    0    0  0.25937006722E+02  0.12214142595E+02  0.28639524194E+02  0.40523276559E+02  0.00000000000E+00 0. -1.
</event>
<event>
 7    1  0.4358868E-015  0.9000780E+02  0.7816164E-02  0.1186339E+00
        -11   -1    0    0    0    0  0.00000000000E+00  0.00000000000E+00  0.45593999997E+02  0.45594000000E+02  0.51100000000E-03 0.  1.
         11   -1    0    0    0    0 -0.00000000000E+00 -0.00000000000E+00 -0.45593999997E+02  0.45594000000E+02  0.51100000000E-03 0. -1.
    9900012    2    1    2    0    0  0.82646220557E+00 -0.45531094618E+00  0.70888816593E+00  0.90007800751E+02  0.90000062921E+02 0.  0.
         12    1    1    2    0    0 -0.82646220557E+00  0.45531094618E+00 -0.70888816593E+00  0.11801992487E+01  0.00000000000E+00 0. -1.
         11    1    3    3    0    0  0.20525384891E+02 -0.29438258693E+02  0.13915618736E+02  0.38490868331E+02  0.51100000000E-03 0. -1.
        -11    1    3    3    0    0  0.59171508608E+01  0.31220239235E+01  0.71658073819E+01  0.98034944476E+01  0.51100000000E-03 0.  1.
        -12    1    3    3    0    0 -0.25616073546E+02  0.25860923823E+02 -0.20372537952E+02  0.41713437973E+02  0.00000000000E+00 0.  1.
</event>
<event>
 7    1  0.4358868E-015  0.9000770E+02  0.7816164E-02  0.1186339E+00
        -11   -1    0    0    0    0  0.00000000000E+00  0.00000000000E+00  0.45593999997E+02  0.45594000000E+02  0.51100000000E-03 0. -1.
         11   -1    0    0    0    0 -0.00000000000E+00 -0.00000000000E+00 -0.45593999997E+02  0.45594000000E+02  0.51100000000E-03 0.  1.
    9900012    2    1    2    0    0  0.78012723055E+00  0.62044257437E+00 -0.63210210529E+00  0.90007703192E+02  0.89999964074E+02 0.  0.
         12    1    1    2    0    0 -0.78012723055E+00 -0.62044257437E+00  0.63210210529E+00  0.11802968082E+01  0.00000000000E+00 0. -1.
         11    1    3    3    0    0 -0.23110243427E+01  0.10019093353E+01 -0.10311616064E+02  0.10614804847E+02  0.51100000000E-03 0. -1.
        -11    1    3    3    0    0 -0.32332679229E+02  0.11032153598E+02 -0.12134360814E+02  0.36254010423E+02  0.51100000000E-03 0.  1.
         12    1    3    3    0    0  0.35423830803E+02 -0.11413620359E+02  0.21813874773E+02  0.43138887921E+02  0.00000000000E+00 0. -1.
</event>
<event>
 7    1  0.4358868E-015  0.9000773E+02  0.7816164E-02  0.1186339E+00
        -11   -1    0    0    0    0  0.00000000000E+00  0.00000000000E+00  0.45593999997E+02  0.45594000000E+02  0.51100000000E-03 0.  1.
         11   -1    0    0    0    0 -0.00000000000E+00 -0.00000000000E+00 -0.45593999997E+02  0.45594000000E+02  0.51100000000E-03 0. -1.
    9900012    2    1    2    0    0 -0.62789650939E+00 -0.21602577789E+00  0.97575853493E+00  0.90007734826E+02  0.89999996125E+02 0.  0.
         12    1    1    2    0    0  0.62789650939E+00  0.21602577789E+00 -0.97575853493E+00  0.11802651743E+01  0.00000000000E+00 0. -1.
         11    1    3    3    0    0 -0.38364163889E+01  0.64461734755E+01  0.61601410352E+01  0.97066256248E+01  0.51100000000E-03 0. -1.
        -11    1    3    3    0    0 -0.30199887255E+02 -0.76937578074E+01  0.21222208304E+02  0.37704233515E+02  0.51100000000E-03 0.  1.
         12    1    3    3    0    0  0.33408407134E+02  0.10315585541E+01 -0.26406590804E+02  0.42596875686E+02  0.00000000000E+00 0. -1.
</event>
<event>
 7    1  0.4358868E-015  0.9000776E+02  0.7816164E-02  0.1186339E+00
        -11   -1    0    0    0    0  0.00000000000E+00  0.00000000000E+00  0.45593999997E+02  0.45594000000E+02  0.51100000000E-03 0. -1.
         11   -1    0    0    0    0 -0.00000000000E+00 -0.00000000000E+00 -0.45593999997E+02  0.45594000000E+02  0.51100000000E-03 0.  1.
    9900012    2    1    2    0    0  0.67599825875E+00 -0.96224543823E+00  0.10039686069E+00  0.90007758729E+02  0.90000020344E+02 0.  0.
         12    1    1    2    0    0 -0.67599825875E+00  0.96224543823E+00 -0.10039686069E+00  0.11802412715E+01  0.00000000000E+00 0. -1.
         11    1    3    3    0    0 -0.41140811900E+01 -0.76193583513E+01 -0.83372372438E+01  0.12020391460E+02  0.51100000000E-03 0. -1.
        -11    1    3    3    0    0 -0.25801073514E+02 -0.12417590226E+02 -0.17515690728E+02  0.33566223550E+02  0.51100000000E-03 0.  1.
         12    1    3    3    0    0  0.30591152963E+02  0.19074703139E+02  0.25953324832E+02  0.44421143719E+02  0.00000000000E+00 0. -1.
</event>
<event>
 7    1  0.4358868E-015  0.9000712E+02  0.7816164E-02  0.1186340E+00
        -11   -1    0    0    0    0  0.00000000000E+00  0.00000000000E+00  0.45593999997E+02  0.45594000000E+02  0.51100000000E-03 0.  1.
         11   -1    0    0    0    0 -0.00000000000E+00 -0.00000000000E+00 -0.45593999997E+02  0.45594000000E+02  0.51100000000E-03 0. -1.
    9900012    2    1    2    0    0 -0.34861111033E+00  0.68377146470E-01  0.11261810175E+01  0.90007115237E+02  0.89999368355E+02 0.  0.
         12    1    1    2    0    0  0.34861111033E+00 -0.68377146470E-01 -0.11261810175E+01  0.11808847635E+01  0.00000000000E+00 0. -1.
         11    1    3    3    0    0  0.53635395086E+01 -0.22812814680E+01  0.75193349873E+01  0.95137899971E+01  0.51100000000E-03 0. -1.
        -11    1    3    3    0    0 -0.79538121820E+01  0.92829721759E+01  0.35720284430E+02  0.37754144417E+02  0.51100000000E-03 0.  1.
         12    1    3    3    0    0  0.22416615631E+01 -0.69333135614E+01 -0.42113438400E+02  0.42739180822E+02  0.00000000000E+00 0. -1.
</event>
<event>
 7    1  0.4358868E-015  0.9000777E+02  0.7816164E-02  0.1186339E+00
        -11   -1    0    0    0    0  0.00000000000E+00  0.00000000000E+00  0.45593999997E+02  0.45594000000E+02  0.51100000000E-03 0.  1.
         11   -1    0    0    0    0 -0.00000000000E+00 -0.00000000000E+00 -0.45593999997E+02  0.45594000000E+02  0.51100000000E-03 0. -1.
    9900012    2    1    2    0    0 -0.64143177355E+00  0.92663556476E+00  0.35051219513E+00  0.90007768248E+02  0.90000029989E+02 0.  0.
         12    1    1    2    0    0  0.64143177355E+00 -0.92663556476E+00 -0.35051219513E+00  0.11802317522E+01  0.00000000000E+00 0. -1.
         11    1    3    3    0    0  0.79136130335E+01 -0.55821930993E+01 -0.63137524890E+00  0.97048846468E+01  0.51100000000E-03 0. -1.
        -11    1    3    3    0    0  0.13514501737E+02 -0.28609730258E+02  0.16905136737E+02  0.35873974842E+02  0.51100000000E-03 0.  1.
         12    1    3    3    0    0 -0.22069546544E+02  0.35118558922E+02 -0.15923249293E+02  0.44428908759E+02  0.00000000000E+00 0. -1.
</event>
<event>
 7    1  0.4358868E-015  0.9000767E+02  0.7816164E-02  0.1186339E+00
        -11   -1    0    0    0    0  0.00000000000E+00  0.00000000000E+00  0.45593999997E+02  0.45594000000E+02  0.51100000000E-03 0.  1.
         11   -1    0    0    0    0 -0.00000000000E+00 -0.00000000000E+00 -0.45593999997E+02  0.45594000000E+02  0.51100000000E-03 0. -1.
    9900012    2    1    2    0    0 -0.44233088915E+00 -0.10552127847E+01  0.28991292802E+00  0.90007669478E+02  0.89999929915E+02 0.  0.
         12    1    1    2    0    0  0.44233088915E+00  0.10552127847E+01 -0.28991292802E+00  0.11803305225E+01  0.00000000000E+00 0. -1.
         11    1    3    3    0    0 -0.38194875427E+01  0.46089056025E+01 -0.11672436332E+02  0.13117784345E+02  0.51100000000E-03 0. -1.
        -11    1    3    3    0    0 -0.32430225549E+02 -0.49591340424E+00  0.22184253081E+02  0.39295121126E+02  0.51100000000E-03 0.  1.
         12    1    3    3    0    0  0.35807382203E+02 -0.51682049829E+01 -0.10221903821E+02  0.37594764006E+02  0.00000000000E+00 0. -1.
</event>
<event>
 7    1  0.4358868E-015  0.9000752E+02  0.7816164E-02  0.1186339E+00
        -11   -1    0    0    0    0  0.00000000000E+00  0.00000000000E+00  0.45593999997E+02  0.45594000000E+02  0.51100000000E-03 0.  1.
         11   -1    0    0    0    0 -0.00000000000E+00 -0.00000000000E+00 -0.45593999997E+02  0.45594000000E+02  0.51100000000E-03 0. -1.
    9900012    2    1    2    0    0 -0.69538196881E+00  0.71660799022E+00  0.62964863497E+00  0.90007516837E+02  0.89999775259E+02 0.  0.
         12    1    1    2    0    0  0.69538196881E+00 -0.71660799022E+00 -0.62964863497E+00  0.11804831628E+01  0.00000000000E+00 0. -1.
         11    1    3    3    0    0 -0.25737746376E-01  0.95379924246E+01  0.46051530272E+01  0.10591571960E+02  0.51100000000E-03 0. -1.
        -11    1    3    3    0    0 -0.74156244727E+01  0.19546837064E+02  0.28773511386E+02  0.35566631599E+02  0.51100000000E-03 0.  1.
         12    1    3    3    0    0  0.67459802503E+01 -0.28368221499E+02 -0.32749015778E+02  0.43849313278E+02  0.00000000000E+00 0. -1.
</event>
<event>
 7    1  0.4358868E-015  0.9000775E+02  0.7816164E-02  0.1186339E+00
        -11   -1    0    0    0    0  0.00000000000E+00  0.00000000000E+00  0.45593999997E+02  0.45594000000E+02  0.51100000000E-03 0.  1.
         11   -1    0    0    0    0 -0.00000000000E+00 -0.00000000000E+00 -0.45593999997E+02  0.45594000000E+02  0.51100000000E-03 0. -1.
    9900012    2    1    2    0    0  0.69173755797E+00  0.25861141911E+00 -0.92065921927E+00  0.90007748284E+02  0.90000009761E+02 0.  0.
         12    1    1    2    0    0 -0.69173755797E+00 -0.25861141911E+00  0.92065921927E+00  0.11802517160E+01  0.00000000000E+00 0. -1.
         11    1    3    3    0    0  0.86657124550E+01  0.59453113228E+01 -0.36321154054E+02  0.37810944594E+02  0.51100000000E-03 0. -1.
        -11    1    3    3    0    0  0.85439438306E+01 -0.10903886782E+01 -0.37973540597E+01  0.94131727789E+01  0.51100000000E-03 0.  1.
        -12    1    3    3    0    0 -0.16517918728E+02 -0.45963112255E+01  0.39197848894E+02  0.42783630911E+02  0.00000000000E+00 0.  1.
</event>
<event>
 7    1  0.4358868E-015  0.9000775E+02  0.7816164E-02  0.1186339E+00
        -11   -1    0    0    0    0  0.00000000000E+00  0.00000000000E+00  0.45593999997E+02  0.45594000000E+02  0.51100000000E-03 0.  1.
         11   -1    0    0    0    0 -0.00000000000E+00 -0.00000000000E+00 -0.45593999997E+02  0.45594000000E+02  0.51100000000E-03 0. -1.
    9900012    2    1    2    0    0  0.82959139195E+00  0.83950153432E+00  0.40162283277E-02  0.90007745437E+02  0.90000006877E+02 0.  0.
         12    1    1    2    0    0 -0.82959139195E+00 -0.83950153432E+00 -0.40162283277E-02  0.11802545631E+01  0.00000000000E+00 0. -1.
         11    1    3    3    0    0  0.32203418697E+02  0.30908953080E+01 -0.25635822146E+02  0.41277223586E+02  0.51100000000E-03 0. -1.
        -11    1    3    3    0    0  0.21529334405E+01 -0.68858441902E+01  0.71782253908E+01  0.10177273340E+02  0.51100000000E-03 0.  1.
        -12    1    3    3    0    0 -0.33526760746E+02  0.46344504165E+01  0.18461612984E+02  0.38553248511E+02  0.00000000000E+00 0.  1.
</event>
<event>
 7    1  0.4358868E-015  0.9000778E+02  0.7816164E-02  0.1186339E+00
        -11   -1    0    0    0    0  0.00000000000E+00  0.00000000000E+00  0.45593999997E+02  0.45594000000E+02  0.51100000000E-03 0. -1.
         11   -1    0    0    0    0 -0.00000000000E+00 -0.00000000000E+00 -0.45593999997E+02  0.45594000000E+02  0.51100000000E-03 0.  1.
    9900012    2    1    2    0    0 -0.66212099295E+00  0.30278750792E+00 -0.92889091946E+00  0.90007778485E+02  0.90000040361E+02 0.  0.
         12    1    1    2    0    0  0.66212099295E+00 -0.30278750792E+00  0.92889091946E+00  0.11802215150E+01  0.00000000000E+00 0. -1.
         11    1    3    3    0    0  0.61494453012E+00  0.57245740429E+01  0.67481916748E+01  0.88705690848E+01  0.51100000000E-03 0. -1.
        -11    1    3    3    0    0  0.58177706065E+01  0.16539542989E+02 -0.38691152527E+02  0.42478326489E+02  0.51100000000E-03 0.  1.
         12    1    3    3    0    0 -0.70948361295E+01 -0.21961329524E+02  0.31014069933E+02  0.38658882912E+02  0.00000000000E+00 0. -1.
</event>
<event>
 7    1  0.4358868E-015  0.9000773E+02  0.7816164E-02  0.1186339E+00
        -11   -1    0    0    0    0  0.00000000000E+00  0.00000000000E+00  0.45593999997E+02  0.45594000000E+02  0.51100000000E-03 0. -1.
         11   -1    0    0    0    0 -0.00000000000E+00 -0.00000000000E+00 -0.45593999997E+02  0.45594000000E+02  0.51100000000E-03 0.  1.
    9900012    2    1    2    0    0 -0.79876581790E+00 -0.53497390173E+00 -0.68469503199E+00  0.90007732575E+02  0.89999993845E+02 0.  0.
         12    1    1    2    0    0  0.79876581790E+00  0.53497390173E+00  0.68469503199E+00  0.11802674249E+01  0.00000000000E+00 0. -1.
         11    1    3    3    0    0 -0.93063847332E-01 -0.95371523313E+00  0.99035335045E+01  0.99497844078E+01  0.51100000000E-03 0. -1.
        -11    1    3    3    0    0  0.52371303729E+01  0.37640849084E+02  0.66988795295E+01  0.38589325486E+02  0.51100000000E-03 0.  1.
         12    1    3    3    0    0 -0.59428323434E+01 -0.37222107752E+02 -0.17287108066E+02  0.41468622681E+02  0.00000000000E+00 0. -1.
</event>
<event>
 7    1  0.4358868E-015  0.9000791E+02  0.7816164E-02  0.1186339E+00
        -11   -1    0    0    0    0  0.00000000000E+00  0.00000000000E+00  0.45593999997E+02  0.45594000000E+02  0.51100000000E-03 0. -1.
         11   -1    0    0    0    0 -0.00000000000E+00 -0.00000000000E+00 -0.45593999997E+02  0.45594000000E+02  0.51100000000E-03 0.  1.
    9900012    2    1    2    0    0 -0.10537026917E+01 -0.28384430048E+00  0.44917506102E+00  0.90007908824E+02  0.90000172420E+02 0.  0.
         12    1    1    2    0    0  0.10537026917E+01  0.28384430048E+00 -0.44917506102E+00  0.11800911765E+01  0.00000000000E+00 0. -1.
         11    1    3    3    0    0 -0.28286210467E+01 -0.61722717051E-01  0.85066571004E+01  0.89648269366E+01  0.51100000000E-03 0. -1.
        -11    1    3    3    0    0 -0.16375108509E+02 -0.11188534154E+02 -0.38870809143E+02  0.43637911028E+02  0.51100000000E-03 0.  1.
         12    1    3    3    0    0  0.18150026864E+02  0.10966412570E+02  0.30813327104E+02  0.37405170859E+02  0.00000000000E+00 0. -1.
</event>
<event>
 7    1  0.4358868E-015  0.9000809E+02  0.7816164E-02  0.1186338E+00
        -11   -1    0    0    0    0  0.00000000000E+00  0.00000000000E+00  0.45593999997E+02  0.45594000000E+02  0.51100000000E-03 0. -1.
         11   -1    0    0    0    0 -0.00000000000E+00 -0.00000000000E+00 -0.45593999997E+02  0.45594000000E+02  0.51100000000E-03 0.  1.
    9900012    2    1    2    0    0 -0.28469898352E+00  0.86678001537E+00 -0.74822101741E+00  0.90008086530E+02  0.90000352471E+02 0.  0.
         12    1    1    2    0    0  0.28469898352E+00 -0.86678001537E+00  0.74822101741E+00  0.11799134702E+01  0.00000000000E+00 0. -1.
         11    1    3    3    0    0  0.26664177781E+02  0.26599762264E+02 -0.12855709059E+02  0.39796921802E+02  0.51100000000E-03 0. -1.
        -11    1    3    3    0    0  0.34043914450E+01 -0.65670968638E+01 -0.64375776626E+01  0.98060720348E+01  0.51100000000E-03 0.  1.
        -12    1    3    3    0    0 -0.30353268209E+02 -0.19165885385E+02  0.18545065704E+02  0.40405092693E+02  0.00000000000E+00 0.  1.
</event>
<event>
 7    1  0.4358868E-015  0.9000755E+02  0.7816164E-02  0.1186339E+00
        -11   -1    0    0    0    0  0.00000000000E+00  0.00000000000E+00  0.45593999997E+02  0.45594000000E+02  0.51100000000E-03 0. -1.
         11   -1    0    0    0    0 -0.00000000000E+00 -0.00000000000E+00 -0.45593999997E+02  0.45594000000E+02  0.51100000000E-03 0.  1.
    9900012    2    1    2    0    0  0.71325883552E+00 -0.61901441006E+00 -0.70820037324E+00  0.90007548910E+02  0.89999807756E+02 0.  0.
         12    1    1    2    0    0 -0.71325883552E+00  0.61901441006E+00  0.70820037324E+00  0.11804510896E+01  0.00000000000E+00 0. -1.
         11    1    3    3    0    0  0.22023624572E+01 -0.58889410197E+00  0.13016857626E+02  0.13214983140E+02  0.51100000000E-03 0. -1.
        -11    1    3    3    0    0 -0.88492073845E+01 -0.32838112088E+02 -0.24010468781E+02  0.41631150455E+02  0.51100000000E-03 0.  1.
         12    1    3    3    0    0  0.73601037628E+01  0.32807991780E+02  0.10285410781E+02  0.35161415316E+02  0.00000000000E+00 0. -1.
</event>
<event>
 7    1  0.4358868E-015  0.9000779E+02  0.7816164E-02  0.1186339E+00
        -11   -1    0    0    0    0  0.00000000000E+00  0.00000000000E+00  0.45593999997E+02  0.45594000000E+02  0.51100000000E-03 0.  1.
         11   -1    0    0    0    0 -0.00000000000E+00 -0.00000000000E+00 -0.45593999997E+02  0.45594000000E+02  0.51100000000E-03 0. -1.
    9900012    2    1    2    0    0 -0.70582223841E+00  0.10409233236E+00  0.94014853006E+00  0.90007788365E+02  0.90000050371E+02 0.  0.
         12    1    1    2    0    0  0.70582223841E+00 -0.10409233236E+00 -0.94014853006E+00  0.11802116355E+01  0.00000000000E+00 0. -1.
         11    1    3    3    0    0  0.32466342527E+01 -0.87830361332E+01 -0.24292509349E+01  0.96738626233E+01  0.51100000000E-03 0. -1.
        -11    1    3    3    0    0  0.20118794877E+02 -0.21356521285E+02  0.22718467898E+02  0.37107892591E+02  0.51100000000E-03 0.  1.
         12    1    3    3    0    0 -0.24071251368E+02  0.30243649751E+02 -0.19349068433E+02  0.43226033150E+02  0.00000000000E+00 0. -1.
</event>
<event>
 7    1  0.4358868E-015  0.9000758E+02  0.7816164E-02  0.1186339E+00
        -11   -1    0    0    0    0  0.00000000000E+00  0.00000000000E+00  0.45593999997E+02  0.45594000000E+02  0.51100000000E-03 0. -1.
         11   -1    0    0    0    0 -0.00000000000E+00 -0.00000000000E+00 -0.45593999997E+02  0.45594000000E+02  0.51100000000E-03 0.  1.
    9900012    2    1    2    0    0  0.56441217259E+00 -0.53271250803E+00 -0.88941143885E+00  0.90007577862E+02  0.89999837089E+02 0.  0.
         12    1    1    2    0    0 -0.56441217259E+00  0.53271250803E+00  0.88941143885E+00  0.11804221382E+01  0.00000000000E+00 0. -1.
         11    1    3    3    0    0 -0.31409495507E+02  0.46672288450E+01  0.12027069981E+02  0.33955704170E+02  0.51100000000E-03 0. -1.
        -11    1    3    3    0    0 -0.83327635016E+01 -0.82398910710E+01  0.37868837774E+01  0.12315487869E+02  0.51100000000E-03 0.  1.
        -12    1    3    3    0    0  0.40306671181E+02  0.30399497180E+01 -0.16703365197E+02  0.43736385823E+02  0.00000000000E+00 0.  1.
</event>
<event>
 7    1  0.4358868E-015  0.9000770E+02  0.7816164E-02  0.1186339E+00
        -11   -1    0    0    0    0  0.00000000000E+00  0.00000000000E+00  0.45593999997E+02  0.45594000000E+02  0.51100000000E-03 0.  1.
         11   -1    0    0    0    0 -0.00000000000E+00 -0.00000000000E+00 -0.45593999997E+02  0.45594000000E+02  0.51100000000E-03 0. -1.
    9900012    2    1    2    0    0  0.91155341782E+00 -0.72374508467E+00  0.19586159628E+00  0.90007704128E+02  0.89999965022E+02 0.  0.
         12    1    1    2    0    0 -0.91155341782E+00  0.72374508467E+00 -0.19586159628E+00  0.11802958722E+01  0.00000000000E+00 0. -1.
         11    1    3    3    0    0  0.12980730561E+02 -0.11512022527E+01 -0.10106737582E+02  0.16491536536E+02  0.51100000000E-03 0. -1.
        -11    1    3    3    0    0  0.12299021056E+02  0.14385417449E+02  0.32574635898E+02  0.37673771490E+02  0.51100000000E-03 0.  1.
         12    1    3    3    0    0 -0.24368198199E+02 -0.13957960281E+02 -0.22272036720E+02  0.35842396102E+02  0.00000000000E+00 0. -1.
</event>
<event>
 7    1  0.4358868E-015  0.9000774E+02  0.7816164E-02  0.1186339E+00
        -11   -1    0    0    0    0  0.00000000000E+00  0.00000000000E+00  0.45593999997E+02  0.45594000000E+02  0.51100000000E-03 0. -1.
         11   -1    0    0    0    0 -0.00000000000E+00 -0.00000000000E+00 -0.45593999997E+02  0.45594000000E+02  0.51100000000E-03 0.  1.
    9900012    2    1    2    0    0  0.77439139564E+00 -0.53606102134E+00 -0.71132049994E+00  0.90007737188E+02  0.89999998519E+02 0.  0.
         12    1    1    2    0    0 -0.77439139564E+00  0.53606102134E+00  0.71132049994E+00  0.11802628122E+01  0.00000000000E+00 0. -1.
         11    1    3    3    0    0 -0.66551543477E+01 -0.43322459265E+01 -0.80695355967E+01  0.11321521062E+02  0.51100000000E-03 0. -1.
        -11    1    3    3    0    0 -0.25282359798E+02  0.10772081775E+02 -0.21197669347E+02  0.34707011521E+02  0.51100000000E-03 0.  1.
         12    1    3    3    0    0  0.32711905542E+02 -0.69758968695E+01  0.28555884443E+02  0.43979204604E+02  0.00000000000E+00 0. -1.
</event>
<event>
 7    1  0.4358868E-015  0.9000774E+02  0.7816164E-02  0.1186339E+00
        -11   -1    0    0    0    0  0.00000000000E+00  0.00000000000E+00  0.45593999997E+02  0.45594000000E+02  0.51100000000E-03 0. -1.
         11   -1    0    0    0    0 -0.00000000000E+00 -0.00000000000E+00 -0.45593999997E+02  0.45594000000E+02  0.51100000000E-03 0.  1.
    9900012    2    1    2    0    0  0.33805232661E+00 -0.10827924770E+01 -0.32601332305E+00  0.90007744261E+02  0.90000005685E+02 0.  0.
         12    1    1    2    0    0 -0.33805232661E+00  0.10827924770E+01  0.32601332305E+00  0.11802557395E+01  0.00000000000E+00 0. -1.
         11    1    3    3    0    0 -0.33708795312E+01 -0.96070474249E+01 -0.15454662757E+01  0.10297895674E+02  0.51100000000E-03 0. -1.
        -11    1    3    3    0    0 -0.97016069800E+01  0.75279486125E+01 -0.37110507780E+02  0.39089397235E+02  0.51100000000E-03 0.  1.
         12    1    3    3    0    0  0.13410538838E+02  0.99630633542E+00  0.38329960732E+02  0.40620451351E+02  0.00000000000E+00 0. -1.
</event>
<event>
 7    1  0.4358868E-015  0.9000769E+02  0.7816164E-02  0.1186339E+00
        -11   -1    0    0    0    0  0.00000000000E+00  0.00000000000E+00  0.45593999997E+02  0.45594000000E+02  0.51100000000E-03 0.  1.
         11   -1    0    0    0    0 -0.00000000000E+00 -0.00000000000E+00 -0.45593999997E+02  0.45594000000E+02  0.51100000000E-03 0. -1.
    9900012    2    1    2    0    0  0.39395292282E-01 -0.11054155894E+01  0.41185902226E+00  0.90007693485E+02  0.89999954239E+02 0.  0.
         12    1    1    2    0    0 -0.39395292282E-01  0.11054155894E+01 -0.41185902226E+00  0.11803065146E+01  0.00000000000E+00 0. -1.
         11    1    3    3    0    0 -0.62037254723E+01 -0.22611314229E+02  0.28913080972E+02  0.37225313866E+02  0.51100000000E-03 0. -1.
        -11    1    3    3    0    0 -0.10153575083E+02 -0.86868946663E+00  0.31781025818E+01  0.10674738621E+02  0.51100000000E-03 0.  1.
        -12    1    3    3    0    0  0.16396695847E+02  0.22374588106E+02 -0.31679324531E+02  0.42107640998E+02  0.00000000000E+00 0.  1.
</event>
<event>
 7    1  0.4358868E-015  0.9000769E+02  0.7816164E-02  0.1186339E+00
        -11   -1    0    0    0    0  0.00000000000E+00  0.00000000000E+00  0.45593999997E+02  0.45594000000E+02  0.51100000000E-03 0.  1.
         11   -1    0    0    0    0 -0.00000000000E+00 -0.00000000000E+00 -0.45593999997E+02  0.45594000000E+02  0.51100000000E-03 0. -1.
    9900012    2    1    2    0    0 -0.12328636933E+00 -0.11666143476E+01  0.13019126939E+00  0.90007687189E+02  0.89999947860E+02 0.  0.
         12    1    1    2    0    0  0.12328636933E+00  0.11666143476E+01 -0.13019126939E+00  0.11803128109E+01  0.00000000000E+00 0. -1.
         11    1    3    3    0    0 -0.11525777214E+02 -0.89091575206E+01 -0.85156861550E+00  0.14592525398E+02  0.51100000000E-03 0. -1.
        -11    1    3    3    0    0  0.21736470385E+02  0.15117267293E+02  0.32215716726E+02  0.41699620138E+02  0.51100000000E-03 0.  1.
         12    1    3    3    0    0 -0.10333979540E+02 -0.73747241198E+01 -0.31233956842E+02  0.33715541653E+02  0.00000000000E+00 0. -1.
</event>
<event>
 7    1  0.4358868E-015  0.9000771E+02  0.7816164E-02  0.1186339E+00
        -11   -1    0    0    0    0  0.00000000000E+00  0.00000000000E+00  0.45593999997E+02  0.45594000000E+02  0.51100000000E-03 0.  1.
         11   -1    0    0    0    0 -0.00000000000E+00 -0.00000000000E+00 -0.45593999997E+02  0.45594000000E+02  0.51100000000E-03 0. -1.
    9900012    2    1    2    0    0 -0.89748360901E+00 -0.14472774951E+00  0.75277406296E+00  0.90007706926E+02  0.89999967858E+02 0.  0.
         12    1    1    2    0    0  0.89748360901E+00  0.14472774951E+00 -0.75277406296E+00  0.11802930737E+01  0.00000000000E+00 0. -1.
         11    1    3    3    0    0  0.63630741112E+01 -0.48742185011E+01  0.39653618192E+01  0.89426401448E+01  0.51100000000E-03 0. -1.
        -11    1    3    3    0    0 -0.15964510995E+02 -0.33388341215E+02 -0.15437642177E+02  0.40099473022E+02  0.51100000000E-03 0.  1.
         12    1    3    3    0    0  0.87039532749E+01  0.38117831967E+02  0.12225054421E+02  0.40965593759E+02  0.00000000000E+00 0. -1.
</event>
<event>
 7    1  0.4358868E-015  0.9000768E+02  0.7816164E-02  0.1186339E+00
        -11   -1    0    0    0    0  0.00000000000E+00  0.00000000000E+00  0.45593999997E+02  0.45594000000E+02  0.51100000000E-03 0. -1.
         11   -1    0    0    0    0 -0.00000000000E+00 -0.00000000000E+00 -0.45593999997E+02  0.45594000000E+02  0.51100000000E-03 0.  1.
    9900012    2    1    2    0    0 -0.66021697707E+00  0.63728632099E+00 -0.74239184449E+00  0.90007675484E+02  0.89999936001E+02 0.  0.
         12    1    1    2    0    0  0.66021697707E+00 -0.63728632099E+00  0.74239184449E+00  0.11803245158E+01  0.00000000000E+00 0. -1.
         11    1    3    3    0    0 -0.66530708419E+00 -0.73571258351E+01  0.58602688972E+01  0.94293523573E+01  0.51100000000E-03 0. -1.
        -11    1    3    3    0    0 -0.14902403670E+02 -0.32430394606E+02  0.47928751609E+01  0.36010884217E+02  0.51100000000E-03 0.  1.
         12    1    3    3    0    0  0.14907493778E+02  0.40424806763E+02 -0.11395535903E+02  0.44567438910E+02  0.00000000000E+00 0. -1.
</event>
<event>
 7    1  0.4358868E-015  0.9000758E+02  0.7816164E-02  0.1186339E+00
        -11   -1    0    0    0    0  0.00000000000E+00  0.00000000000E+00  0.45593999997E+02  0.45594000000E+02  0.51100000000E-03 0. -1.
         11   -1    0    0    0    0 -0.00000000000E+00 -0.00000000000E+00 -0.45593999997E+02  0.45594000000E+02  0.51100000000E-03 0.  1.
    9900012    2    1    2    0    0 -0.90175239291E+00 -0.74176625741E+00  0.17326138060E+00  0.90007578861E+02  0.89999838102E+02 0.  0.
         12    1    1    2    0    0  0.90175239291E+00  0.74176625741E+00 -0.17326138060E+00  0.11804211387E+01  0.00000000000E+00 0. -1.
         11    1    3    3    0    0 -0.57825185823E+01  0.59936301707E+01 -0.76338682722E+01  0.11297657670E+02  0.51100000000E-03 0. -1.
        -11    1    3    3    0    0  0.12143492557E+02  0.33147777903E+02 -0.61533882586E+01  0.35834393796E+02  0.51100000000E-03 0.  1.
         12    1    3    3    0    0 -0.72627263676E+01 -0.39883174331E+02  0.13960517911E+02  0.42875527395E+02  0.00000000000E+00 0. -1.
</event>
<event>
 7    1  0.5044181E-015  0.9000846E+02  0.7816164E-02  0.1186338E+00
        -11   -1    0    0    0    0  0.00000000000E+00  0.00000000000E+00  0.45593999997E+02  0.45594000000E+02  0.51100000000E-03 0.  1.
         11   -1    0    0    0    0 -0.00000000000E+00 -0.00000000000E+00 -0.45593999997E+02  0.45594000000E+02  0.51100000000E-03 0. -1.
    9900012    2    1    2    0    0  0.84264293952E+00  0.68852783963E+00  0.45519994382E+00  0.90008455724E+02  0.90000726537E+02 0.  0.
         12    1    1    2    0    0 -0.84264293952E+00 -0.68852783963E+00 -0.45519994382E+00  0.11795442757E+01  0.00000000000E+00 0. -1.
         11    1    3    3    0    0  0.19900608064E+02 -0.11987884370E+00 -0.33377479270E+02  0.38860065555E+02  0.51100000000E-03 0. -1.
        -11    1    3    3    0    0 -0.15931945118E+01  0.96930887813E+01 -0.22599334672E+01  0.10079758847E+02  0.51100000000E-03 0.  1.
        -12    1    3    3    0    0 -0.17464770613E+02 -0.88846820980E+01  0.36092612681E+02  0.41068631322E+02  0.00000000000E+00 0.  1.
</event>
<event>
 7    1  0.4358868E-015  0.9000771E+02  0.7816164E-02  0.1186339E+00
        -11   -1    0    0    0    0  0.00000000000E+00  0.00000000000E+00  0.45593999997E+02  0.45594000000E+02  0.51100000000E-03 0. -1.
         11   -1    0    0    0    0 -0.00000000000E+00 -0.00000000000E+00 -0.45593999997E+02  0.45594000000E+02  0.51100000000E-03 0.  1.
    9900012    2    1    2    0    0 -0.51984269741E+00 -0.10530736327E+01 -0.11778899516E+00  0.90007714122E+02  0.89999975149E+02 0.  0.
         12    1    1    2    0    0  0.51984269741E+00  0.10530736327E+01  0.11778899516E+00  0.11802858778E+01  0.00000000000E+00 0. -1.
         11    1    3    3    0    0  0.23572782164E+02 -0.12132439035E+02  0.30995923242E+02  0.40787490653E+02  0.51100000000E-03 0. -1.
        -11    1    3    3    0    0 -0.11369470790E+02  0.18455113060E+02 -0.11011294496E+02  0.24312644258E+02  0.51100000000E-03 0.  1.
        -12    1    3    3    0    0 -0.12723154072E+02 -0.73757476581E+01 -0.20102417742E+02  0.24907579210E+02  0.00000000000E+00 0.  1.
</event>
<event>
 7    1  0.4358868E-015  0.9000775E+02  0.7816164E-02  0.1186339E+00
        -11   -1    0    0    0    0  0.00000000000E+00  0.00000000000E+00  0.45593999997E+02  0.45594000000E+02  0.51100000000E-03 0.  1.
         11   -1    0    0    0    0 -0.00000000000E+00 -0.00000000000E+00 -0.45593999997E+02  0.45594000000E+02  0.51100000000E-03 0. -1.
    9900012    2    1    2    0    0  0.86889933391E+00  0.72025747255E+00  0.34529126904E+00  0.90007753017E+02  0.90000014557E+02 0.  0.
         12    1    1    2    0    0 -0.86889933391E+00 -0.72025747255E+00 -0.34529126904E+00  0.11802469825E+01  0.00000000000E+00 0. -1.
         11    1    3    3    0    0  0.16469853322E+02 -0.18384216387E+00 -0.35907534402E+02  0.39504947709E+02  0.51100000000E-03 0. -1.
        -11    1    3    3    0    0  0.82316269325E+01 -0.18386105338E+01  0.19726093156E+01  0.86620643281E+01  0.51100000000E-03 0.  1.
        -12    1    3    3    0    0 -0.23832580921E+02  0.27427101702E+01  0.34280216356E+02  0.41840740980E+02  0.00000000000E+00 0.  1.
</event>
<event>
 7    1  0.4358868E-015  0.9000771E+02  0.7816164E-02  0.1186339E+00
        -11   -1    0    0    0    0  0.00000000000E+00  0.00000000000E+00  0.45593999997E+02  0.45594000000E+02  0.51100000000E-03 0.  1.
         11   -1    0    0    0    0 -0.00000000000E+00 -0.00000000000E+00 -0.45593999997E+02  0.45594000000E+02  0.51100000000E-03 0. -1.
    9900012    2    1    2    0    0  0.90034061898E+00  0.43211074569E+00  0.62909335401E+00  0.90007707081E+02  0.89999968014E+02 0.  0.
         12    1    1    2    0    0 -0.90034061898E+00 -0.43211074569E+00 -0.62909335401E+00  0.11802929191E+01  0.00000000000E+00 0. -1.
         11    1    3    3    0    0 -0.15959980824E+01  0.45388958310E+00  0.10787142733E+02  0.10914012746E+02  0.51100000000E-03 0. -1.
        -11    1    3    3    0    0  0.60080401618E+01 -0.34833771074E+02  0.12404070764E+02  0.37461301707E+02  0.51100000000E-03 0.  1.
         12    1    3    3    0    0 -0.35117014604E+01  0.34811992236E+02 -0.22562120142E+02  0.41632392628E+02  0.00000000000E+00 0. -1.
</event>
<event>
 7    1  0.4358868E-015  0.9000805E+02  0.7816164E-02  0.1186338E+00
        -11   -1    0    0    0    0  0.00000000000E+00  0.00000000000E+00  0.45593999997E+02  0.45594000000E+02  0.51100000000E-03 0. -1.
         11   -1    0    0    0    0 -0.00000000000E+00 -0.00000000000E+00 -0.45593999997E+02  0.45594000000E+02  0.51100000000E-03 0.  1.
    9900012    2    1    2    0    0 -0.11187029773E+01 -0.37063901430E+00 -0.58343546940E-01  0.90008053561E+02  0.90000319067E+02 0.  0.
         12    1    1    2    0    0  0.11187029773E+01  0.37063901430E+00  0.58343546940E-01  0.11799464394E+01  0.00000000000E+00 0. -1.
         11    1    3    3    0    0 -0.12336284491E+01 -0.98163815642E+01 -0.36416883117E+00  0.99002931958E+01  0.51100000000E-03 0. -1.
        -11    1    3    3    0    0 -0.38078455319E+02 -0.19740657857E+01 -0.89880399026E+01  0.39174616230E+02  0.51100000000E-03 0.  1.
         12    1    3    3    0    0  0.38193380791E+02  0.11419808336E+02  0.92938651868E+01  0.40933144135E+02  0.00000000000E+00 0. -1.
</event>
<event>
 7    1  0.4358868E-015  0.9000770E+02  0.7816164E-02  0.1186339E+00
        -11   -1    0    0    0    0  0.00000000000E+00  0.00000000000E+00  0.45593999997E+02  0.45594000000E+02  0.51100000000E-03 0. -1.
         11   -1    0    0    0    0 -0.00000000000E+00 -0.00000000000E+00 -0.45593999997E+02  0.45594000000E+02  0.51100000000E-03 0.  1.
    9900012    2    1    2    0    0 -0.48137043921E+00 -0.10618061492E+01  0.18430565754E+00  0.90007695644E+02  0.89999956426E+02 0.  0.
         12    1    1    2    0    0  0.48137043921E+00  0.10618061492E+01 -0.18430565754E+00  0.11803043564E+01  0.00000000000E+00 0. -1.
         11    1    3    3    0    0  0.33723398075E+01  0.76721489850E+01 -0.38349388917E+01  0.92163605826E+01  0.51100000000E-03 0. -1.
        -11    1    3    3    0    0 -0.34846315032E+02 -0.11003901013E+02 -0.19869290042E+02  0.41594953971E+02  0.51100000000E-03 0.  1.
         12    1    3    3    0    0  0.30992604785E+02  0.22699458790E+01  0.23888534591E+02  0.39196381090E+02  0.00000000000E+00 0. -1.
</event>
<event>
 7    1  0.4358868E-015  0.9000780E+02  0.7816164E-02  0.1186339E+00
        -11   -1    0    0    0    0  0.00000000000E+00  0.00000000000E+00  0.45593999997E+02  0.45594000000E+02  0.51100000000E-03 0. -1.
         11   -1    0    0    0    0 -0.00000000000E+00 -0.00000000000E+00 -0.45593999997E+02  0.45594000000E+02  0.51100000000E-03 0.  1.
    9900012    2    1    2    0    0  0.97803237697E+00 -0.38862274648E-01  0.65940761126E+00  0.90007798320E+02  0.90000060458E+02 0.  0.
         12    1    1    2    0    0 -0.97803237697E+00  0.38862274648E-01 -0.65940761126E+00  0.11802016796E+01  0.00000000000E+00 0. -1.
         11    1    3    3    0    0 -0.15814831271E+02 -0.28678502995E+02 -0.11308207312E+02  0.34647380493E+02  0.51100000000E-03 0. -1.
        -11    1    3    3    0    0  0.16952384300E+01 -0.70591403788E+01 -0.87832497784E+01  0.11395208342E+02  0.51100000000E-03 0.  1.
        -12    1    3    3    0    0  0.15097625218E+02  0.35698781100E+02  0.20750864702E+02  0.43965209485E+02  0.00000000000E+00 0.  1.
</event>
<event>
 7    1  0.4358868E-015  0.9000777E+02  0.7816164E-02  0.1186339E+00
        -11   -1    0    0    0    0  0.00000000000E+00  0.00000000000E+00  0.45593999997E+02  0.45594000000E+02  0.51100000000E-03 0. -1.
         11   -1    0    0    0    0 -0.00000000000E+00 -0.00000000000E+00 -0.45593999997E+02  0.45594000000E+02  0.51100000000E-03 0.  1.
    9900012    2    1    2    0    0 -0.40088895037E+00 -0.10823736707E+01  0.24637496330E+00  0.90007768948E+02  0.90000030698E+02 0.  0.
         12    1    1    2    0    0  0.40088895037E+00  0.10823736707E+01 -0.24637496330E+00  0.11802310520E+01  0.00000000000E+00 0. -1.
         11    1    3    3    0    0 -0.12486184162E+01  0.34110815375E+01  0.86880831871E+01  0.94168633277E+01  0.51100000000E-03 0. -1.
        -11    1    3    3    0    0 -0.79679226404E+01  0.33039932397E+02 -0.21108489807E+02  0.40008664888E+02  0.51100000000E-03 0.  1.
         12    1    3    3    0    0  0.88156521062E+01 -0.37533387605E+02  0.12666781583E+02  0.40582240732E+02  0.00000000000E+00 0. -1.
</event>
<event>
 7    1  0.4358868E-015  0.9000772E+02  0.7816164E-02  0.1186339E+00
        -11   -1    0    0    0    0  0.00000000000E+00  0.00000000000E+00  0.45593999997E+02  0.45594000000E+02  0.51100000000E-03 0. -1.
         11   -1    0    0    0    0 -0.00000000000E+00 -0.00000000000E+00 -0.45593999997E+02  0.45594000000E+02  0.51100000000E-03 0.  1.
    9900012    2    1    2    0    0  0.34315100789E+00  0.10336450725E+01 -0.45484313329E+00  0.90007721632E+02  0.89999982758E+02 0.  0.
         12    1    1    2    0    0 -0.34315100789E+00 -0.10336450725E+01  0.45484313329E+00  0.11802783680E+01  0.00000000000E+00 0. -1.
         11    1    3    3    0    0 -0.28502165676E+02 -0.78497507966E+01 -0.56494380776E+00  0.29568753737E+02  0.51100000000E-03 0. -1.
        -11    1    3    3    0    0  0.13873961383E+02 -0.21746392225E+02  0.40794320742E+01  0.26115783457E+02  0.51100000000E-03 0.  1.
        -12    1    3    3    0    0  0.14971355301E+02  0.30629788094E+02 -0.39693313997E+01  0.34323184438E+02  0.00000000000E+00 0.  1.
</event>
<event>
 7    1  0.4358868E-015  0.9000775E+02  0.7816164E-02  0.1186339E+00
        -11   -1    0    0    0    0  0.00000000000E+00  0.00000000000E+00  0.45593999997E+02  0.45594000000E+02  0.51100000000E-03 0.  1.
         11   -1    0    0    0    0 -0.00000000000E+00 -0.00000000000E+00 -0.45593999997E+02  0.45594000000E+02  0.51100000000E-03 0. -1.
    9900012    2    1    2    0    0 -0.16484479574E+00  0.38158093268E+00  0.11046273837E+01  0.90007754487E+02  0.90000016046E+02 0.  0.
         12    1    1    2    0    0  0.16484479574E+00 -0.38158093268E+00 -0.11046273837E+01  0.11802455133E+01  0.00000000000E+00 0. -1.
         11    1    3    3    0    0  0.84734083854E+01  0.48766764128E+01 -0.19173364872E+01  0.99627707976E+01  0.51100000000E-03 0. -1.
        -11    1    3    3    0    0  0.33526758904E+02 -0.11681657112E+02  0.95768983057E+01  0.36772566635E+02  0.51100000000E-03 0.  1.
         12    1    3    3    0    0 -0.42165012085E+02  0.71865616318E+01 -0.65549344349E+01  0.43272417054E+02  0.00000000000E+00 0. -1.
</event>
<event>
 7    1  0.4358868E-015  0.9000754E+02  0.7816164E-02  0.1186339E+00
        -11   -1    0    0    0    0  0.00000000000E+00  0.00000000000E+00  0.45593999997E+02  0.45594000000E+02  0.51100000000E-03 0.  1.
         11   -1    0    0    0    0 -0.00000000000E+00 -0.00000000000E+00 -0.45593999997E+02  0.45594000000E+02  0.51100000000E-03 0. -1.
    9900012    2    1    2    0    0  0.11591580821E+01 -0.90008840737E-01 -0.20431572026E+00  0.90007536547E+02  0.89999795229E+02 0.  0.
         12    1    1    2    0    0 -0.11591580821E+01  0.90008840737E-01  0.20431572026E+00  0.11804634532E+01  0.00000000000E+00 0. -1.
         11    1    3    3    0    0 -0.57590946820E+01  0.36330219229E+01 -0.59408023909E+01  0.90365454216E+01  0.51100000000E-03 0. -1.
        -11    1    3    3    0    0  0.48840984681E+01  0.38079660853E+02  0.73451636943E+01  0.39087931878E+02  0.51100000000E-03 0.  1.
         12    1    3    3    0    0  0.20341542960E+01 -0.41802691617E+02 -0.16086770237E+01  0.41883059247E+02  0.00000000000E+00 0. -1.
</event>
<event>
 7    1  0.4358868E-015  0.9000801E+02  0.7816164E-02  0.1186339E+00
        -11   -1    0    0    0    0  0.00000000000E+00  0.00000000000E+00  0.45593999997E+02  0.45594000000E+02  0.51100000000E-03 0.  1.
         11   -1    0    0    0    0 -0.00000000000E+00 -0.00000000000E+00 -0.45593999997E+02  0.45594000000E+02  0.51100000000E-03 0. -1.
    9900012    2    1    2    0    0 -0.32169932579E+00 -0.31925182274E+00  0.10894828095E+01  0.90008006367E+02  0.90000271250E+02 0.  0.
         12    1    1    2    0    0  0.32169932579E+00  0.31925182274E+00 -0.10894828095E+01  0.11799936333E+01  0.00000000000E+00 0. -1.
         11    1    3    3    0    0 -0.82956373852E+01  0.33169078260E+01  0.41962329965E+01  0.98705546336E+01  0.51100000000E-03 0. -1.
        -11    1    3    3    0    0  0.22337724174E+01  0.23446263157E+02  0.29250080195E+02  0.37553750637E+02  0.51100000000E-03 0.  1.
         12    1    3    3    0    0  0.57401656420E+01 -0.27082422805E+02 -0.32356830382E+02  0.42583701096E+02  0.00000000000E+00 0. -1.
</event>
<event>
 7    1  0.4358868E-015  0.9000767E+02  0.7816164E-02  0.1186339E+00
        -11   -1    0    0    0    0  0.00000000000E+00  0.00000000000E+00  0.45593999997E+02  0.45594000000E+02  0.51100000000E-03 0.  1.
         11   -1    0    0    0    0 -0.00000000000E+00 -0.00000000000E+00 -0.45593999997E+02  0.45594000000E+02  0.51100000000E-03 0. -1.
    9900012    2    1    2    0    0 -0.59089152809E+00 -0.10186894021E+01 -0.79381476041E-01  0.90007668557E+02  0.89999928982E+02 0.  0.
         12    1    1    2    0    0  0.59089152809E+00  0.10186894021E+01  0.79381476041E-01  0.11803314427E+01  0.00000000000E+00 0. -1.
         11    1    3    3    0    0 -0.21784060986E+01  0.18213832879E+01  0.82630985839E+01  0.87373730996E+01  0.51100000000E-03 0. -1.
        -11    1    3    3    0    0  0.62080597640E+01  0.14656339725E+02  0.32726090142E+02  0.36391555015E+02  0.51100000000E-03 0.  1.
         12    1    3    3    0    0 -0.46205451935E+01 -0.17496412415E+02 -0.41068570202E+02  0.44878740443E+02  0.00000000000E+00 0. -1.
</event>
<event>
 7    1  0.4358868E-015  0.9000752E+02  0.7816164E-02  0.1186339E+00
        -11   -1    0    0    0    0  0.00000000000E+00  0.00000000000E+00  0.45593999997E+02  0.45594000000E+02  0.51100000000E-03 0.  1.
         11   -1    0    0    0    0 -0.00000000000E+00 -0.00000000000E+00 -0.45593999997E+02  0.45594000000E+02  0.51100000000E-03 0. -1.
    9900012    2    1    2    0    0  0.93938181761E+00 -0.19645829409E+00  0.68737734855E+00  0.90007524808E+02  0.89999783335E+02 0.  0.
         12    1    1    2    0    0 -0.93938181761E+00  0.19645829409E+00 -0.68737734855E+00  0.11804751924E+01  0.00000000000E+00 0. -1.
         11    1    3    3    0    0 -0.75281772720E+01  0.14658613616E+01 -0.61266488069E+01  0.98162125300E+01  0.51100000000E-03 0. -1.
        -11    1    3    3    0    0  0.51498564539E+01  0.27532304936E+02 -0.24527200071E+02  0.37230798812E+02  0.51100000000E-03 0.  1.
         12    1    3    3    0    0  0.33177026357E+01 -0.29194624592E+02  0.31341226227E+02  0.42960513466E+02  0.00000000000E+00 0. -1.
</event>
<event>
 7    1  0.4358868E-015  0.9000779E+02  0.7816164E-02  0.1186339E+00
        -11   -1    0    0    0    0  0.00000000000E+00  0.00000000000E+00  0.45593999997E+02  0.45594000000E+02  0.51100000000E-03 0. -1.
         11   -1    0    0    0    0 -0.00000000000E+00 -0.00000000000E+00 -0.45593999997E+02  0.45594000000E+02  0.51100000000E-03 0.  1.
    9900012    2    1    2    0    0 -0.96581390596E+00 -0.14884117487E+00 -0.66177876439E+00  0.90007787591E+02  0.90000049588E+02 0.  0.
         12    1    1    2    0    0  0.96581390596E+00  0.14884117487E+00  0.66177876439E+00  0.11802124085E+01  0.00000000000E+00 0. -1.
         11    1    3    3    0    0 -0.95975049208E+00  0.12749003192E+02  0.50659367183E+01  0.13752160503E+02  0.51100000000E-03 0. -1.
        -11    1    3    3    0    0  0.25938808736E+02 -0.26668481346E+01 -0.29669419799E+02  0.39499472769E+02  0.51100000000E-03 0.  1.
         12    1    3    3    0    0 -0.25944872150E+02 -0.10230996233E+02  0.23941704316E+02  0.36756154319E+02  0.00000000000E+00 0. -1.
</event>
<event>
 7    1  0.4358868E-015  0.9000772E+02  0.7816164E-02  0.1186339E+00
        -11   -1    0    0    0    0  0.00000000000E+00  0.00000000000E+00  0.45593999997E+02  0.45594000000E+02  0.51100000000E-03 0. -1.
         11   -1    0    0    0    0 -0.00000000000E+00 -0.00000000000E+00 -0.45593999997E+02  0.45594000000E+02  0.51100000000E-03 0.  1.
    9900012    2    1    2    0    0 -0.10634129056E+01  0.34106544818E+00  0.38194930473E+00  0.90007721254E+02  0.89999982374E+02 0.  0.
         12    1    1    2    0    0  0.10634129056E+01 -0.34106544818E+00 -0.38194930473E+00  0.11802787463E+01  0.00000000000E+00 0. -1.
         11    1    3    3    0    0 -0.34292574380E+01  0.98768198615E+00  0.88302697204E+01  0.95241265152E+01  0.51100000000E-03 0. -1.
        -11    1    3    3    0    0 -0.16443798406E+02 -0.29029227001E+02 -0.25886792086E+02  0.42228195925E+02  0.51100000000E-03 0.  1.
         12    1    3    3    0    0  0.18809642939E+02  0.28382610463E+02  0.17438471670E+02  0.38255398814E+02  0.00000000000E+00 0. -1.
</event>
<event>
 7    1  0.4358868E-015  0.9000786E+02  0.7816164E-02  0.1186339E+00
        -11   -1    0    0    0    0  0.00000000000E+00  0.00000000000E+00  0.45593999997E+02  0.45594000000E+02  0.51100000000E-03 0. -1.
         11   -1    0    0    0    0 -0.00000000000E+00 -0.00000000000E+00 -0.45593999997E+02  0.45594000000E+02  0.51100000000E-03 0.  1.
    9900012    2    1    2    0    0 -0.11777996866E+00  0.11317471775E+00 -0.11687859376E+01  0.90007855430E+02  0.90000118322E+02 0.  0.
         12    1    1    2    0    0  0.11777996866E+00 -0.11317471775E+00  0.11687859376E+01  0.11801445698E+01  0.00000000000E+00 0. -1.
         11    1    3    3    0    0  0.56443890781E+01 -0.83537216997E+01  0.35711692638E+01  0.10695655402E+02  0.51100000000E-03 0. -1.
        -11    1    3    3    0    0  0.13247548797E+02 -0.31681490359E+02 -0.60642784473E+01  0.34871046068E+02  0.51100000000E-03 0.  1.
         12    1    3    3    0    0 -0.19009717844E+02  0.40148386777E+02  0.13243232459E+01  0.44441153961E+02  0.00000000000E+00 0. -1.
</event>
<event>
 7    1  0.4358868E-015  0.9000780E+02  0.7816164E-02  0.1186339E+00
        -11   -1    0    0    0    0  0.00000000000E+00  0.00000000000E+00  0.45593999997E+02  0.45594000000E+02  0.51100000000E-03 0. -1.
         11   -1    0    0    0    0 -0.00000000000E+00 -0.00000000000E+00 -0.45593999997E+02  0.45594000000E+02  0.51100000000E-03 0.  1.
    9900012    2    1    2    0    0  0.55095259760E+00 -0.32846706287E+00 -0.99067734368E+00  0.90007796214E+02  0.90000058324E+02 0.  0.
         12    1    1    2    0    0 -0.55095259760E+00  0.32846706287E+00  0.99067734368E+00  0.11802037856E+01  0.00000000000E+00 0. -1.
         11    1    3    3    0    0  0.93492103548E+01 -0.14540327892E+01 -0.32274675326E+01  0.99969241543E+01  0.51100000000E-03 0. -1.
        -11    1    3    3    0    0  0.21935549507E+02  0.24799725140E+00 -0.28879605832E+02  0.36266533721E+02  0.51100000000E-03 0.  1.
         12    1    3    3    0    0 -0.30733807265E+02  0.87756847497E+00  0.31116396021E+02  0.43744338339E+02  0.00000000000E+00 0. -1.
</event>
<event>
 7    1  0.4358868E-015  0.9000777E+02  0.7816164E-02  0.1186339E+00
        -11   -1    0    0    0    0  0.00000000000E+00  0.00000000000E+00  0.45593999997E+02  0.45594000000E+02  0.51100000000E-03 0. -1.
         11   -1    0    0    0    0 -0.00000000000E+00 -0.00000000000E+00 -0.45593999997E+02  0.45594000000E+02  0.51100000000E-03 0.  1.
    9900012    2    1    2    0    0 -0.36372141730E+00 -0.29979441595E+00 -0.10820207009E+01  0.90007771735E+02  0.90000033522E+02 0.  0.
         12    1    1    2    0    0  0.36372141730E+00  0.29979441595E+00  0.10820207009E+01  0.11802282654E+01  0.00000000000E+00 0. -1.
         11    1    3    3    0    0 -0.20461796757E+02 -0.17179798524E+02  0.27136148942E+02  0.38081507106E+02  0.51100000000E-03 0. -1.
        -11    1    3    3    0    0  0.21054500089E+01  0.14281968649E+00  0.79357693567E+01  0.82115621381E+01  0.51100000000E-03 0.  1.
        -12    1    3    3    0    0  0.17992625330E+02  0.16737184422E+02 -0.36153938999E+02  0.43714702490E+02  0.00000000000E+00 0.  1.
</event>
<event>
 7    1  0.4358868E-015  0.9000773E+02  0.7816164E-02  0.1186339E+00
        -11   -1    0    0    0    0  0.00000000000E+00  0.00000000000E+00  0.45593999997E+02  0.45594000000E+02  0.51100000000E-03 0.  1.
         11   -1    0    0    0    0 -0.00000000000E+00 -0.00000000000E+00 -0.45593999997E+02  0.45594000000E+02  0.51100000000E-03 0. -1.
    9900012    2    1    2    0    0 -0.20272490999E+00  0.15518569919E+00  0.11523304086E+01  0.90007726574E+02  0.89999987764E+02 0.  0.
         12    1    1    2    0    0  0.20272490999E+00 -0.15518569919E+00 -0.11523304086E+01  0.11802734264E+01  0.00000000000E+00 0. -1.
         11    1    3    3    0    0 -0.22595219271E+02  0.71523629420E+01 -0.32996739273E+02  0.40626161922E+02  0.51100000000E-03 0. -1.
        -11    1    3    3    0    0  0.38087334266E+01 -0.90665669100E+01 -0.67259821285E+00  0.98570520169E+01  0.51100000000E-03 0.  1.
        -12    1    3    3    0    0  0.18583760935E+02  0.20693896672E+01  0.34821667894E+02  0.39524512635E+02  0.00000000000E+00 0.  1.
</event>
<event>
 7    1  0.4358868E-015  0.9000767E+02  0.7816164E-02  0.1186339E+00
        -11   -1    0    0    0    0  0.00000000000E+00  0.00000000000E+00  0.45593999997E+02  0.45594000000E+02  0.51100000000E-03 0. -1.
         11   -1    0    0    0    0 -0.00000000000E+00 -0.00000000000E+00 -0.45593999997E+02  0.45594000000E+02  0.51100000000E-03 0.  1.
    9900012    2    1    2    0    0  0.10971116705E+01  0.41208083354E+00  0.14041427983E+00  0.90007669199E+02  0.89999929632E+02 0.  0.
         12    1    1    2    0    0 -0.10971116705E+01 -0.41208083354E+00 -0.14041427983E+00  0.11803308014E+01  0.00000000000E+00 0. -1.
         11    1    3    3    0    0 -0.75594894220E+01  0.10079552946E+02 -0.12321468389E+01  0.12659441299E+02  0.51100000000E-03 0. -1.
        -11    1    3    3    0    0 -0.32958890954E+02 -0.56619468649E+01 -0.82565656818E+01  0.34445856243E+02  0.51100000000E-03 0.  1.
         12    1    3    3    0    0  0.41615492046E+02 -0.40055252477E+01  0.96291268005E+01  0.42902371656E+02  0.00000000000E+00 0. -1.
</event>
<event>
 7    1  0.4358868E-015  0.9000774E+02  0.7816164E-02  0.1186339E+00
        -11   -1    0    0    0    0  0.00000000000E+00  0.00000000000E+00  0.45593999997E+02  0.45594000000E+02  0.51100000000E-03 0. -1.
         11   -1    0    0    0    0 -0.00000000000E+00 -0.00000000000E+00 -0.45593999997E+02  0.45594000000E+02  0.51100000000E-03 0.  1.
    9900012    2    1    2    0    0 -0.27765633976E+00 -0.99157468361E+00 -0.57680242018E+00  0.90007739678E+02  0.90000001042E+02 0.  0.
         12    1    1    2    0    0  0.27765633976E+00  0.99157468361E+00  0.57680242018E+00  0.11802603222E+01  0.00000000000E+00 0. -1.
         11    1    3    3    0    0  0.36518342147E+02  0.48892677600E+01  0.82571460812E+01  0.37758107925E+02  0.51100000000E-03 0. -1.
        -11    1    3    3    0    0  0.52108721338E+01  0.58008489487E+01 -0.25151662301E+01  0.81932349134E+01  0.51100000000E-03 0.  1.
        -12    1    3    3    0    0 -0.42006870620E+02 -0.11681691392E+02 -0.63187822713E+01  0.44056396840E+02  0.00000000000E+00 0.  1.
</event>
<event>
 7    1  0.4358868E-015  0.9000778E+02  0.7816164E-02  0.1186339E+00
        -11   -1    0    0    0    0  0.00000000000E+00  0.00000000000E+00  0.45593999997E+02  0.45594000000E+02  0.51100000000E-03 0. -1.
         11   -1    0    0    0    0 -0.00000000000E+00 -0.00000000000E+00 -0.45593999997E+02  0.45594000000E+02  0.51100000000E-03 0.  1.
    9900012    2    1    2    0    0 -0.70763448771E+00  0.58179157259E+00  0.74410064193E+00  0.90007782322E+02  0.90000044249E+02 0.  0.
         12    1    1    2    0    0  0.70763448771E+00 -0.58179157259E+00 -0.74410064193E+00  0.11802176780E+01  0.00000000000E+00 0. -1.
         11    1    3    3    0    0 -0.28350930808E+02  0.10457570385E+02  0.25278947742E+02  0.39397477778E+02  0.51100000000E-03 0. -1.
        -11    1    3    3    0    0 -0.68216879857E+01  0.20931259642E+01 -0.74770652140E+01  0.10335526486E+02  0.51100000000E-03 0.  1.
        -12    1    3    3    0    0  0.34464984306E+02 -0.11968904777E+02 -0.17057781886E+02  0.40274778058E+02  0.00000000000E+00 0.  1.
</event>
<event>
 7    1  0.4358868E-015  0.9000769E+02  0.7816164E-02  0.1186339E+00
        -11   -1    0    0    0    0  0.00000000000E+00  0.00000000000E+00  0.45593999997E+02  0.45594000000E+02  0.51100000000E-03 0. -1.
         11   -1    0    0    0    0 -0.00000000000E+00 -0.00000000000E+00 -0.45593999997E+02  0.45594000000E+02  0.51100000000E-03 0.  1.
    9900012    2    1    2    0    0 -0.66107739576E+00 -0.93059645803E+00 -0.30014737077E+00  0.90007694304E+02  0.89999955069E+02 0.  0.
         12    1    1    2    0    0  0.66107739576E+00  0.93059645803E+00  0.30014737077E+00  0.11803056956E+01  0.00000000000E+00 0. -1.
         11    1    3    3    0    0  0.99740969606E+01  0.33079579580E+02  0.55318425117E+01  0.34990605557E+02  0.51100000000E-03 0. -1.
        -11    1    3    3    0    0  0.84806410287E+01  0.57820121522E+01  0.11289898397E+01  0.10326061936E+02  0.51100000000E-03 0.  1.
        -12    1    3    3    0    0 -0.19115815385E+02 -0.39792188190E+02 -0.69609797222E+01  0.44691026812E+02  0.00000000000E+00 0.  1.
</event>
<event>
 7    1  0.4358868E-015  0.9000774E+02  0.7816164E-02  0.1186339E+00
        -11   -1    0    0    0    0  0.00000000000E+00  0.00000000000E+00  0.45593999997E+02  0.45594000000E+02  0.51100000000E-03 0.  1.
         11   -1    0    0    0    0 -0.00000000000E+00 -0.00000000000E+00 -0.45593999997E+02  0.45594000000E+02  0.51100000000E-03 0. -1.
    9900012    2    1    2    0    0 -0.50878799086E+00  0.64348322449E+00  0.84857282228E+00  0.90007740827E+02  0.90000002206E+02 0.  0.
         12    1    1    2    0    0  0.50878799086E+00 -0.64348322449E+00 -0.84857282228E+00  0.11802591726E+01  0.00000000000E+00 0. -1.
         11    1    3    3    0    0  0.31625209011E+01 -0.71768490029E+01 -0.48711169056E+01  0.92323604907E+01  0.51100000000E-03 0. -1.
        -11    1    3    3    0    0 -0.22821973161E+02 -0.22925195625E+02  0.23926141021E+02  0.40235149780E+02  0.51100000000E-03 0.  1.
         12    1    3    3    0    0  0.19150664269E+02  0.30745527853E+02 -0.18206451293E+02  0.40540230556E+02  0.00000000000E+00 0. -1.
</event>
<event>
 7    1  0.4358868E-015  0.9000771E+02  0.7816164E-02  0.1186339E+00
        -11   -1    0    0    0    0  0.00000000000E+00  0.00000000000E+00  0.45593999997E+02  0.45594000000E+02  0.51100000000E-03 0. -1.
         11   -1    0    0    0    0 -0.00000000000E+00 -0.00000000000E+00 -0.45593999997E+02  0.45594000000E+02  0.51100000000E-03 0.  1.
    9900012    2    1    2    0    0  0.97633196647E+00 -0.40209484900E+00 -0.52743062754E+00  0.90007708746E+02  0.89999969702E+02 0.  0.
         12    1    1    2    0    0 -0.97633196647E+00  0.40209484900E+00  0.52743062754E+00  0.11802912536E+01  0.00000000000E+00 0. -1.
         11    1    3    3    0    0  0.11290958547E+02  0.33353186841E+02  0.81771240719E+01  0.36149497586E+02  0.51100000000E-03 0. -1.
        -11    1    3    3    0    0  0.88060170331E+01  0.48291666695E+01 -0.78612746163E+00  0.10073965622E+02  0.51100000000E-03 0.  1.
        -12    1    3    3    0    0 -0.19120643614E+02 -0.38584448360E+02 -0.79184272378E+01  0.43784245538E+02  0.00000000000E+00 0.  1.
</event>
<event>
 7    1  0.4358868E-015  0.9000781E+02  0.7816164E-02  0.1186339E+00
        -11   -1    0    0    0    0  0.00000000000E+00  0.00000000000E+00  0.45593999997E+02  0.45594000000E+02  0.51100000000E-03 0.  1.
         11   -1    0    0    0    0 -0.00000000000E+00 -0.00000000000E+00 -0.45593999997E+02  0.45594000000E+02  0.51100000000E-03 0. -1.
    9900012    2    1    2    0    0 -0.22664822956E+00 -0.28826861746E+00  0.11217740844E+01  0.90007811323E+02  0.90000073633E+02 0.  0.
         12    1    1    2    0    0  0.22664822956E+00  0.28826861746E+00 -0.11217740844E+01  0.11801886765E+01  0.00000000000E+00 0. -1.
         11    1    3    3    0    0 -0.46768097649E+01 -0.11544431027E+02  0.11260046084E+02  0.16790922410E+02  0.51100000000E-03 0. -1.
        -11    1    3    3    0    0 -0.66792513382E+00 -0.28248362287E+02  0.81161644753E+01  0.29398779259E+02  0.51100000000E-03 0.  1.
         12    1    3    3    0    0  0.51180866692E+01  0.39504524697E+02 -0.18254436475E+02  0.43818109654E+02  0.00000000000E+00 0. -1.
</event>
<event>
 7    1  0.4358868E-015  0.9000779E+02  0.7816164E-02  0.1186339E+00
        -11   -1    0    0    0    0  0.00000000000E+00  0.00000000000E+00  0.45593999997E+02  0.45594000000E+02  0.51100000000E-03 0.  1.
         11   -1    0    0    0    0 -0.00000000000E+00 -0.00000000000E+00 -0.45593999997E+02  0.45594000000E+02  0.51100000000E-03 0. -1.
    9900012    2    1    2    0    0  0.98851890679E+00 -0.63575104282E+00 -0.10742176559E+00  0.90007793046E+02  0.90000055115E+02 0.  0.
         12    1    1    2    0    0 -0.98851890679E+00  0.63575104282E+00  0.10742176559E+00  0.11802069536E+01  0.00000000000E+00 0. -1.
         11    1    3    3    0    0 -0.28224659603E+02 -0.19467121487E+02 -0.19302661878E+02  0.39347083558E+02  0.51100000000E-03 0. -1.
        -11    1    3    3    0    0  0.22764949136E+01  0.35745862512E+01 -0.82592966791E+01  0.92831071228E+01  0.51100000000E-03 0.  1.
        -12    1    3    3    0    0  0.26936683596E+02  0.15256784193E+02  0.27454536791E+02  0.41377602365E+02  0.00000000000E+00 0.  1.
</event>
<event>
 7    1  0.4358868E-015  0.9000758E+02  0.7816164E-02  0.1186339E+00
        -11   -1    0    0    0    0  0.00000000000E+00  0.00000000000E+00  0.45593999997E+02  0.45594000000E+02  0.51100000000E-03 0. -1.
         11   -1    0    0    0    0 -0.00000000000E+00 -0.00000000000E+00 -0.45593999997E+02  0.45594000000E+02  0.51100000000E-03 0.  1.
    9900012    2    1    2    0    0  0.39673735241E+00 -0.10677933686E+01 -0.30954652046E+00  0.90007575393E+02  0.89999834588E+02 0.  0.
         12    1    1    2    0    0 -0.39673735241E+00  0.10677933686E+01  0.30954652046E+00  0.11804246071E+01  0.00000000000E+00 0. -1.
         11    1    3    3    0    0  0.27467872455E+01 -0.20371316459E+01 -0.61698841157E+01  0.70542338901E+01  0.51100000000E-03 0. -1.
        -11    1    3    3    0    0 -0.97785564594E+01 -0.17119863676E+02 -0.33575019072E+02  0.38935739426E+02  0.51100000000E-03 0.  1.
         12    1    3    3    0    0  0.74285065663E+01  0.18089201953E+02  0.39435356667E+02  0.44017602077E+02  0.00000000000E+00 0. -1.
</event>
<event>
 7    1  0.4358868E-015  0.9000773E+02  0.7816164E-02  0.1186339E+00
        -11   -1    0    0    0    0  0.00000000000E+00  0.00000000000E+00  0.45593999997E+02  0.45594000000E+02  0.51100000000E-03 0.  1.
         11   -1    0    0    0    0 -0.00000000000E+00 -0.00000000000E+00 -0.45593999997E+02  0.45594000000E+02  0.51100000000E-03 0. -1.
    9900012    2    1    2    0    0  0.11079099929E+01 -0.35702157140E+00 -0.19520759165E+00  0.90007730980E+02  0.89999992229E+02 0.  0.
         12    1    1    2    0    0 -0.11079099929E+01  0.35702157140E+00  0.19520759165E+00  0.11802690196E+01  0.00000000000E+00 0. -1.
         11    1    3    3    0    0  0.30859412736E+02 -0.97388327889E+00 -0.20947087873E+02  0.37309948990E+02  0.51100000000E-03 0. -1.
        -11    1    3    3    0    0  0.92819273050E+01 -0.89216815280E+00  0.30446208736E+01  0.98091719851E+01  0.51100000000E-03 0.  1.
        -12    1    3    3    0    0 -0.39033430048E+02  0.15090298603E+01  0.17707259407E+02  0.42888610005E+02  0.00000000000E+00 0.  1.
</event>
<event>
 7    1  0.4358868E-015  0.9000751E+02  0.7816164E-02  0.1186339E+00
        -11   -1    0    0    0    0  0.00000000000E+00  0.00000000000E+00  0.45593999997E+02  0.45594000000E+02  0.51100000000E-03 0. -1.
         11   -1    0    0    0    0 -0.00000000000E+00 -0.00000000000E+00 -0.45593999997E+02  0.45594000000E+02  0.51100000000E-03 0.  1.
    9900012    2    1    2    0    0  0.61676368336E+00  0.56784609028E+00 -0.83108581462E+00  0.90007512705E+02  0.89999771072E+02 0.  0.
         12    1    1    2    0    0 -0.61676368336E+00 -0.56784609028E+00  0.83108581462E+00  0.11804872954E+01  0.00000000000E+00 0. -1.
         11    1    3    3    0    0  0.24251163132E+02  0.19879443648E+02  0.13674367778E+02  0.34209640855E+02  0.51100000000E-03 0. -1.
        -11    1    3    3    0    0 -0.18528625662E+02  0.11492961855E+02 -0.11417432752E+01  0.21833499928E+02  0.51100000000E-03 0.  1.
        -12    1    3    3    0    0 -0.51057737865E+01 -0.30804559413E+02 -0.13363710318E+02  0.33964371922E+02  0.00000000000E+00 0.  1.
</event>
<event>
 7    1  0.4358868E-015  0.9000775E+02  0.7816164E-02  0.1186339E+00
        -11   -1    0    0    0    0  0.00000000000E+00  0.00000000000E+00  0.45593999997E+02  0.45594000000E+02  0.51100000000E-03 0.  1.
         11   -1    0    0    0    0 -0.00000000000E+00 -0.00000000000E+00 -0.45593999997E+02  0.45594000000E+02  0.51100000000E-03 0. -1.
    9900012    2    1    2    0    0 -0.30225360735E+00  0.22207758262E+00  0.11190662044E+01  0.90007752202E+02  0.90000013731E+02 0.  0.
         12    1    1    2    0    0  0.30225360735E+00 -0.22207758262E+00 -0.11190662044E+01  0.11802477984E+01  0.00000000000E+00 0. -1.
         11    1    3    3    0    0  0.33239754450E+01  0.48504638516E+01  0.84660455217E+01  0.10307751422E+02  0.51100000000E-03 0. -1.
        -11    1    3    3    0    0  0.21375032145E+02 -0.27562005241E+02  0.16144359294E+02  0.38434313697E+02  0.51100000000E-03 0.  1.
         12    1    3    3    0    0 -0.25001261198E+02  0.22933618972E+02 -0.23491338611E+02  0.41265687082E+02  0.00000000000E+00 0. -1.
</event>
<event>
 7    1  0.4358868E-015  0.9000816E+02  0.7816164E-02  0.1186338E+00
        -11   -1    0    0    0    0  0.00000000000E+00  0.00000000000E+00  0.45593999997E+02  0.45594000000E+02  0.51100000000E-03 0. -1.
         11   -1    0    0    0    0 -0.00000000000E+00 -0.00000000000E+00 -0.45593999997E+02  0.45594000000E+02  0.51100000000E-03 0.  1.
    9900012    2    1    2    0    0  0.11076422157E+01 -0.31492540983E+00 -0.25684361190E+00  0.90008161904E+02  0.90000428840E+02 0.  0.
         12    1    1    2    0    0 -0.11076422157E+01  0.31492540983E+00  0.25684361190E+00  0.11798380960E+01  0.00000000000E+00 0. -1.
         11    1    3    3    0    0 -0.21823633919E+02 -0.44749789745E+01  0.13515145993E+02  0.26056776580E+02  0.51100000000E-03 0. -1.
        -11    1    3    3    0    0 -0.12456167671E+01 -0.12838779982E+02 -0.28239183460E+02  0.31045729422E+02  0.51100000000E-03 0.  1.
        -12    1    3    3    0    0  0.24176892901E+02  0.16998833547E+02  0.14467193855E+02  0.32905655902E+02  0.00000000000E+00 0.  1.
</event>
<event>
 7    1  0.4358868E-015  0.9000797E+02  0.7816164E-02  0.1186339E+00
        -11   -1    0    0    0    0  0.00000000000E+00  0.00000000000E+00  0.45593999997E+02  0.45594000000E+02  0.51100000000E-03 0.  1.
         11   -1    0    0    0    0 -0.00000000000E+00 -0.00000000000E+00 -0.45593999997E+02  0.45594000000E+02  0.51100000000E-03 0. -1.
    9900012    2    1    2    0    0 -0.11693906781E+01  0.15803723656E+00 -0.50507211604E-02  0.90007967867E+02  0.90000232242E+02 0.  0.
         12    1    1    2    0    0  0.11693906781E+01 -0.15803723656E+00  0.50507211604E-02  0.11800321334E+01  0.00000000000E+00 0. -1.
         11    1    3    3    0    0  0.58765369102E+01 -0.27670959714E+02 -0.28254775044E+02  0.39981846013E+02  0.51100000000E-03 0. -1.
        -11    1    3    3    0    0  0.69229620441E+01  0.40698630891E+01 -0.28034718840E+01  0.85059181687E+01  0.51100000000E-03 0.  1.
        -12    1    3    3    0    0 -0.13968889632E+02  0.23759133861E+02  0.31053196207E+02  0.41520203685E+02  0.00000000000E+00 0.  1.
</event>
<event>
 7    1  0.4358868E-015  0.9000764E+02  0.7816164E-02  0.1186339E+00
        -11   -1    0    0    0    0  0.00000000000E+00  0.00000000000E+00  0.45593999997E+02  0.45594000000E+02  0.51100000000E-03 0.  1.
         11   -1    0    0    0    0 -0.00000000000E+00 -0.00000000000E+00 -0.45593999997E+02  0.45594000000E+02  0.51100000000E-03 0. -1.
    9900012    2    1    2    0    0 -0.73384959567E+00  0.91036983328E+00  0.16102987742E+00  0.90007644510E+02  0.89999904617E+02 0.  0.
         12    1    1    2    0    0  0.73384959567E+00 -0.91036983328E+00 -0.16102987742E+00  0.11803554904E+01  0.00000000000E+00 0. -1.
         11    1    3    3    0    0  0.15507301866E+02 -0.33689533334E+02  0.16840894580E+02  0.40731766447E+02  0.51100000000E-03 0. -1.
        -11    1    3    3    0    0 -0.68746486160E+01 -0.19170148818E+01  0.16976274338E+01  0.73360533542E+01  0.51100000000E-03 0.  1.
        -12    1    3    3    0    0 -0.93665028456E+01  0.36516918049E+02 -0.18377492136E+02  0.41939824708E+02  0.00000000000E+00 0.  1.
</event>
<event>
 7    1  0.4358868E-015  0.9000745E+02  0.7816164E-02  0.1186340E+00
        -11   -1    0    0    0    0  0.00000000000E+00  0.00000000000E+00  0.45593999997E+02  0.45594000000E+02  0.51100000000E-03 0.  1.
         11   -1    0    0    0    0 -0.00000000000E+00 -0.00000000000E+00 -0.45593999997E+02  0.45594000000E+02  0.51100000000E-03 0. -1.
    9900012    2    1    2    0    0 -0.50654147929E+00  0.38542264188E+00  0.99426642818E+00  0.90007449021E+02  0.89999706548E+02 0.  0.
         12    1    1    2    0    0  0.50654147929E+00 -0.38542264188E+00 -0.99426642818E+00  0.11805509787E+01  0.00000000000E+00 0. -1.
         11    1    3    3    0    0 -0.99507316128E+01 -0.62165588804E+00  0.21396877888E+01  0.10197145668E+02  0.51100000000E-03 0. -1.
        -11    1    3    3    0    0 -0.18468108761E+01  0.32260322397E+02  0.22195519792E+02  0.39201788361E+02  0.51100000000E-03 0.  1.
         12    1    3    3    0    0  0.11291001010E+02 -0.31253243867E+02 -0.23340941153E+02  0.40608514993E+02  0.00000000000E+00 0. -1.
</event>
<event>
 7    1  0.4358868E-015  0.9000785E+02  0.7816164E-02  0.1186339E+00
        -11   -1    0    0    0    0  0.00000000000E+00  0.00000000000E+00  0.45593999997E+02  0.45594000000E+02  0.51100000000E-03 0.  1.
         11   -1    0    0    0    0 -0.00000000000E+00 -0.00000000000E+00 -0.45593999997E+02  0.45594000000E+02  0.51100000000E-03 0. -1.
    9900012    2    1    2    0    0 -0.77861468962E+00  0.22510934948E+00  0.85781568191E+00  0.90007846282E+02  0.90000109053E+02 0.  0.
         12    1    1    2    0    0  0.77861468962E+00 -0.22510934948E+00 -0.85781568191E+00  0.11801537181E+01  0.00000000000E+00 0. -1.
         11    1    3    3    0    0 -0.74090291732E+01  0.30350426781E+01  0.96550995787E+00  0.80645773037E+01  0.51100000000E-03 0. -1.
        -11    1    3    3    0    0 -0.20145014831E+02  0.31721695906E+02  0.51613039496E+01  0.37930550647E+02  0.51100000000E-03 0.  1.
         12    1    3    3    0    0  0.26775429314E+02 -0.34531629235E+02 -0.52689982256E+01  0.44012718331E+02  0.00000000000E+00 0. -1.
</event>
<event>
 7    1  0.4358868E-015  0.9000773E+02  0.7816164E-02  0.1186339E+00
        -11   -1    0    0    0    0  0.00000000000E+00  0.00000000000E+00  0.45593999997E+02  0.45594000000E+02  0.51100000000E-03 0.  1.
         11   -1    0    0    0    0 -0.00000000000E+00 -0.00000000000E+00 -0.45593999997E+02  0.45594000000E+02  0.51100000000E-03 0. -1.
    9900012    2    1    2    0    0  0.82647101510E+00 -0.67452045742E-01  0.83989426532E+00  0.90007734566E+02  0.89999995862E+02 0.  0.
         12    1    1    2    0    0 -0.82647101510E+00  0.67452045742E-01 -0.83989426532E+00  0.11802654338E+01  0.00000000000E+00 0. -1.
         11    1    3    3    0    0 -0.10631114959E+02  0.54522038130E+01  0.95045519162E+00  0.11985428529E+02  0.51100000000E-03 0. -1.
        -11    1    3    3    0    0 -0.19709744675E+02 -0.20221495473E+02 -0.23195959372E+02  0.36543610190E+02  0.51100000000E-03 0.  1.
         12    1    3    3    0    0  0.31167330649E+02  0.14701839614E+02  0.23085398445E+02  0.41478695847E+02  0.00000000000E+00 0. -1.
</event>
<event>
 7    1  0.4358868E-015  0.9000776E+02  0.7816164E-02  0.1186339E+00
        -11   -1    0    0    0    0  0.00000000000E+00  0.00000000000E+00  0.45593999997E+02  0.45594000000E+02  0.51100000000E-03 0.  1.
         11   -1    0    0    0    0 -0.00000000000E+00 -0.00000000000E+00 -0.45593999997E+02  0.45594000000E+02  0.51100000000E-03 0. -1.
    9900012    2    1    2    0    0  0.23880712252E+00 -0.11416408486E+01 -0.18054520399E+00  0.90007758821E+02  0.90000020438E+02 0.  0.
         12    1    1    2    0    0 -0.23880712252E+00  0.11416408486E+01  0.18054520399E+00  0.11802411786E+01  0.00000000000E+00 0. -1.
         11    1    3    3    0    0 -0.16252181310E+02 -0.14389488186E+02  0.15081651415E+02  0.26431931016E+02  0.51100000000E-03 0. -1.
        -11    1    3    3    0    0  0.10672858278E+02  0.22514635414E+02  0.16565072567E+02  0.29920232972E+02  0.51100000000E-03 0.  1.
         12    1    3    3    0    0  0.58181301549E+01 -0.92667880770E+01 -0.31827269186E+02  0.33655594833E+02  0.00000000000E+00 0. -1.
</event>
<event>
 7    1  0.4358868E-015  0.9000811E+02  0.7816164E-02  0.1186338E+00
        -11   -1    0    0    0    0  0.00000000000E+00  0.00000000000E+00  0.45593999997E+02  0.45594000000E+02  0.51100000000E-03 0.  1.
         11   -1    0    0    0    0 -0.00000000000E+00 -0.00000000000E+00 -0.45593999997E+02  0.45594000000E+02  0.51100000000E-03 0. -1.
    9900012    2    1    2    0    0  0.10420922473E+01 -0.27160463986E+00 -0.48208755747E+00  0.90008112825E+02  0.90000379114E+02 0.  0.
         12    1    1    2    0    0 -0.10420922473E+01  0.27160463986E+00  0.48208755747E+00  0.11798871749E+01  0.00000000000E+00 0. -1.
         11    1    3    3    0    0 -0.50347075012E+01  0.18788348181E+02 -0.29099719521E+02  0.35002056846E+02  0.51100000000E-03 0. -1.
        -11    1    3    3    0    0  0.71058264929E+01  0.54966325928E+01 -0.72370319953E+01  0.11536046653E+02  0.51100000000E-03 0.  1.
        -12    1    3    3    0    0 -0.10290267444E+01 -0.24556585414E+02  0.35854663959E+02  0.43470009326E+02  0.00000000000E+00 0.  1.
</event>
<event>
 7    1  0.4358868E-015  0.9000768E+02  0.7816164E-02  0.1186339E+00
        -11   -1    0    0    0    0  0.00000000000E+00  0.00000000000E+00  0.45593999997E+02  0.45594000000E+02  0.51100000000E-03 0. -1.
         11   -1    0    0    0    0 -0.00000000000E+00 -0.00000000000E+00 -0.45593999997E+02  0.45594000000E+02  0.51100000000E-03 0.  1.
    9900012    2    1    2    0    0 -0.92287600176E+00  0.50688879986E+00 -0.53339511573E+00  0.90007683636E+02  0.89999944260E+02 0.  0.
         12    1    1    2    0    0  0.92287600176E+00 -0.50688879986E+00  0.53339511573E+00  0.11803163642E+01  0.00000000000E+00 0. -1.
         11    1    3    3    0    0  0.12567045164E+02  0.25944175248E+02 -0.77240604015E+01  0.29844462849E+02  0.51100000000E-03 0. -1.
        -11    1    3    3    0    0  0.19062269940E+02 -0.18256543082E+02  0.34584154932E+01  0.26620145352E+02  0.51100000000E-03 0.  1.
         12    1    3    3    0    0 -0.32552191106E+02 -0.71807433653E+01  0.37322497925E+01  0.33543075434E+02  0.00000000000E+00 0. -1.
</event>
<event>
 7    1  0.4358868E-015  0.9000744E+02  0.7816164E-02  0.1186340E+00
        -11   -1    0    0    0    0  0.00000000000E+00  0.00000000000E+00  0.45593999997E+02  0.45594000000E+02  0.51100000000E-03 0.  1.
         11   -1    0    0    0    0 -0.00000000000E+00 -0.00000000000E+00 -0.45593999997E+02  0.45594000000E+02  0.51100000000E-03 0. -1.
    9900012    2    1    2    0    0 -0.11578277305E+01 -0.22078327793E+00 -0.66498419401E-01  0.90007435580E+02  0.89999692929E+02 0.  0.
         12    1    1    2    0    0  0.11578277305E+01  0.22078327793E+00  0.66498419401E-01  0.11805644197E+01  0.00000000000E+00 0. -1.
         11    1    3    3    0    0  0.23874916927E+02 -0.33069370142E+00 -0.35306408026E+02  0.42622335278E+02  0.51100000000E-03 0. -1.
        -11    1    3    3    0    0 -0.84980331478E+01 -0.34705241526E+01  0.10509992965E+01  0.92393563119E+01  0.51100000000E-03 0.  1.
        -12    1    3    3    0    0 -0.16534711509E+02  0.35804345761E+01  0.34188910310E+02  0.38145743991E+02  0.00000000000E+00 0.  1.
</event>
<event>
 7    1  0.4358868E-015  0.9000775E+02  0.7816164E-02  0.1186339E+00
        -11   -1    0    0    0    0  0.00000000000E+00  0.00000000000E+00  0.45593999997E+02  0.45594000000E+02  0.51100000000E-03 0.  1.
         11   -1    0    0    0    0 -0.00000000000E+00 -0.00000000000E+00 -0.45593999997E+02  0.45594000000E+02  0.51100000000E-03 0. -1.
    9900012    2    1    2    0    0  0.11863668226E+00 -0.11555694467E+01 -0.20876458955E+00  0.90007746611E+02  0.90000008066E+02 0.  0.
         12    1    1    2    0    0 -0.11863668226E+00  0.11555694467E+01  0.20876458955E+00  0.11802533891E+01  0.00000000000E+00 0. -1.
         11    1    3    3    0    0 -0.10356692402E+02  0.12904894560E+02  0.13812725528E+02  0.21554321327E+02  0.51100000000E-03 0. -1.
        -11    1    3    3    0    0 -0.20652186512E+00  0.17069561938E+01  0.24985913643E+02  0.25045004124E+02  0.51100000000E-03 0.  1.
         12    1    3    3    0    0  0.10681850949E+02 -0.15767420200E+02 -0.39007403760E+02  0.43408421160E+02  0.00000000000E+00 0. -1.
</event>
<event>
 7    1  0.4358868E-015  0.9000811E+02  0.7816164E-02  0.1186338E+00
        -11   -1    0    0    0    0  0.00000000000E+00  0.00000000000E+00  0.45593999997E+02  0.45594000000E+02  0.51100000000E-03 0. -1.
         11   -1    0    0    0    0 -0.00000000000E+00 -0.00000000000E+00 -0.45593999997E+02  0.45594000000E+02  0.51100000000E-03 0.  1.
    9900012    2    1    2    0    0  0.77530062148E+00  0.55979144510E+00 -0.69114200751E+00  0.90008112382E+02  0.90000378665E+02 0.  0.
         12    1    1    2    0    0 -0.77530062148E+00 -0.55979144510E+00  0.69114200751E+00  0.11798876176E+01  0.00000000000E+00 0. -1.
         11    1    3    3    0    0 -0.22306352730E+02  0.25248511154E+02  0.18548430527E+02  0.38459133673E+02  0.51100000000E-03 0. -1.
        -11    1    3    3    0    0  0.39174629967E+01 -0.21034484203E+01  0.93678486498E+01  0.10369551590E+02  0.51100000000E-03 0.  1.
        -12    1    3    3    0    0  0.19164190355E+02 -0.22585271288E+02 -0.28607421184E+02  0.41179427120E+02  0.00000000000E+00 0.  1.
</event>
<event>
 7    1  0.4358868E-015  0.9000786E+02  0.7816164E-02  0.1186339E+00
        -11   -1    0    0    0    0  0.00000000000E+00  0.00000000000E+00  0.45593999997E+02  0.45594000000E+02  0.51100000000E-03 0.  1.
         11   -1    0    0    0    0 -0.00000000000E+00 -0.00000000000E+00 -0.45593999997E+02  0.45594000000E+02  0.51100000000E-03 0. -1.
    9900012    2    1    2    0    0  0.60221080136E+00 -0.89003059025E+00  0.48777632173E+00  0.90007856771E+02  0.90000119680E+02 0.  0.
         12    1    1    2    0    0 -0.60221080136E+00  0.89003059025E+00 -0.48777632173E+00  0.11801432290E+01  0.00000000000E+00 0. -1.
         11    1    3    3    0    0 -0.14214534291E+01  0.21069850804E+02 -0.26591900338E+02  0.33957153983E+02  0.51100000000E-03 0. -1.
        -11    1    3    3    0    0  0.38836618140E+01 -0.18100906539E+02 -0.83885591224E+01  0.20324703467E+02  0.51100000000E-03 0.  1.
        -12    1    3    3    0    0 -0.18599975836E+01 -0.38589748560E+01  0.35468235782E+02  0.35725999321E+02  0.00000000000E+00 0.  1.
</event>
<event>
 7    1  0.4358868E-015  0.9000740E+02  0.7816164E-02  0.1186340E+00
        -11   -1    0    0    0    0  0.00000000000E+00  0.00000000000E+00  0.45593999997E+02  0.45594000000E+02  0.51100000000E-03 0.  1.
         11   -1    0    0    0    0 -0.00000000000E+00 -0.00000000000E+00 -0.45593999997E+02  0.45594000000E+02  0.51100000000E-03 0. -1.
    9900012    2    1    2    0    0 -0.11679327021E+01  0.28368350216E-02  0.17246878710E+00  0.90007398320E+02  0.89999655177E+02 0.  0.
         12    1    1    2    0    0  0.11679327021E+01 -0.28368350216E-02 -0.17246878710E+00  0.11806016800E+01  0.00000000000E+00 0. -1.
         11    1    3    3    0    0 -0.36710536890E+02  0.55110360090E+01 -0.19538975328E+02  0.41950048793E+02  0.51100000000E-03 0. -1.
        -11    1    3    3    0    0  0.23371978961E+01 -0.96045295114E+01  0.16027518164E+01  0.10013905072E+02  0.51100000000E-03 0.  1.
        -12    1    3    3    0    0  0.33205406291E+02  0.40963303374E+01  0.18108692299E+02  0.38043444455E+02  0.00000000000E+00 0.  1.
</event>
<event>
 7    1  0.4358868E-015  0.9000773E+02  0.7816164E-02  0.1186339E+00
        -11   -1    0    0    0    0  0.00000000000E+00  0.00000000000E+00  0.45593999997E+02  0.45594000000E+02  0.51100000000E-03 0.  1.
         11   -1    0    0    0    0 -0.00000000000E+00 -0.00000000000E+00 -0.45593999997E+02  0.45594000000E+02  0.51100000000E-03 0. -1.
    9900012    2    1    2    0    0  0.40210280880E-01 -0.46769575846E+00  0.10829013813E+01  0.90007732407E+02  0.89999993675E+02 0.  0.
         12    1    1    2    0    0 -0.40210280880E-01  0.46769575846E+00 -0.10829013813E+01  0.11802675928E+01  0.00000000000E+00 0. -1.
         11    1    3    3    0    0 -0.20239281575E+01 -0.23459011030E+02 -0.25952607281E+02  0.35042250337E+02  0.51100000000E-03 0. -1.
        -11    1    3    3    0    0 -0.57730882555E+00 -0.48869623252E+01 -0.84397382911E+01  0.97695889847E+01  0.51100000000E-03 0.  1.
        -12    1    3    3    0    0  0.26414472639E+01  0.27878277597E+02  0.35475246953E+02  0.45195893086E+02  0.00000000000E+00 0.  1.
</event>
<event>
 7    1  0.4358868E-015  0.9000785E+02  0.7816164E-02  0.1186339E+00
        -11   -1    0    0    0    0  0.00000000000E+00  0.00000000000E+00  0.45593999997E+02  0.45594000000E+02  0.51100000000E-03 0.  1.
         11   -1    0    0    0    0 -0.00000000000E+00 -0.00000000000E+00 -0.45593999997E+02  0.45594000000E+02  0.51100000000E-03 0. -1.
    9900012    2    1    2    0    0  0.97734496231E+00  0.15186545591E+00 -0.64380440833E+00  0.90007851531E+02  0.90000114371E+02 0.  0.
         12    1    1    2    0    0 -0.97734496231E+00 -0.15186545591E+00  0.64380440833E+00  0.11801484687E+01  0.00000000000E+00 0. -1.
         11    1    3    3    0    0  0.11072330312E+02  0.91794589717E+00  0.19919069769E+01  0.11287462818E+02  0.51100000000E-03 0. -1.
        -11    1    3    3    0    0  0.25853283452E+02  0.22162451260E+02  0.75574280262E+01  0.34880957982E+02  0.51100000000E-03 0.  1.
         12    1    3    3    0    0 -0.35948268801E+02 -0.22928531701E+02 -0.10193139411E+02  0.43839430731E+02  0.00000000000E+00 0. -1.
</event>
<event>
 7    1  0.4358868E-015  0.9000777E+02  0.7816164E-02  0.1186339E+00
        -11   -1    0    0    0    0  0.00000000000E+00  0.00000000000E+00  0.45593999997E+02  0.45594000000E+02  0.51100000000E-03 0.  1.
         11   -1    0    0    0    0 -0.00000000000E+00 -0.00000000000E+00 -0.45593999997E+02  0.45594000000E+02  0.51100000000E-03 0. -1.
    9900012    2    1    2    0    0  0.11241483469E+01 -0.32249622250E+00 -0.15884536722E+00  0.90007769018E+02  0.90000030769E+02 0.  0.
         12    1    1    2    0    0 -0.11241483469E+01  0.32249622250E+00  0.15884536722E+00  0.11802309817E+01  0.00000000000E+00 0. -1.
         11    1    3    3    0    0 -0.83898843445E+01  0.27261866995E+02  0.24015665514E+02  0.37287420690E+02  0.51100000000E-03 0. -1.
        -11    1    3    3    0    0  0.30819593699E+01 -0.17421517175E+01  0.92964449718E+01  0.99477362017E+01  0.51100000000E-03 0.  1.
        -12    1    3    3    0    0  0.64320733215E+01 -0.25842211500E+02 -0.33470955853E+02  0.42772612127E+02  0.00000000000E+00 0.  1.
</event>
<event>
 7    1  0.4358868E-015  0.9000782E+02  0.7816164E-02  0.1186339E+00
        -11   -1    0    0    0    0  0.00000000000E+00  0.00000000000E+00  0.45593999997E+02  0.45594000000E+02  0.51100000000E-03 0. -1.
         11   -1    0    0    0    0 -0.00000000000E+00 -0.00000000000E+00 -0.45593999997E+02  0.45594000000E+02  0.51100000000E-03 0.  1.
    9900012    2    1    2    0    0 -0.17797553031E+00 -0.14161551405E+00 -0.11580574646E+01  0.90007818940E+02  0.90000081350E+02 0.  0.
         12    1    1    2    0    0  0.17797553031E+00  0.14161551405E+00  0.11580574646E+01  0.11801810601E+01  0.00000000000E+00 0. -1.
         11    1    3    3    0    0 -0.25701757067E+01 -0.75885209090E+01 -0.85706090282E+01  0.11732296967E+02  0.51100000000E-03 0. -1.
        -11    1    3    3    0    0  0.61150391892E+01  0.27327802710E+02 -0.26651607935E+02  0.38658902093E+02  0.51100000000E-03 0.  1.
         12    1    3    3    0    0 -0.37228390129E+01 -0.19880897315E+02  0.34064159499E+02  0.39616619880E+02  0.00000000000E+00 0. -1.
</event>
<event>
 7    1  0.4358868E-015  0.9000779E+02  0.7816164E-02  0.1186339E+00
        -11   -1    0    0    0    0  0.00000000000E+00  0.00000000000E+00  0.45593999997E+02  0.45594000000E+02  0.51100000000E-03 0. -1.
         11   -1    0    0    0    0 -0.00000000000E+00 -0.00000000000E+00 -0.45593999997E+02  0.45594000000E+02  0.51100000000E-03 0.  1.
    9900012    2    1    2    0    0 -0.68271436266E+00  0.76295639437E+00 -0.58711201638E+00  0.90007787358E+02  0.90000049351E+02 0.  0.
         12    1    1    2    0    0  0.68271436266E+00 -0.76295639437E+00  0.58711201638E+00  0.11802126421E+01  0.00000000000E+00 0. -1.
         11    1    3    3    0    0  0.36590880393E+02 -0.63484484011E+01 -0.25343576034E+00  0.37138383850E+02  0.51100000000E-03 0. -1.
        -11    1    3    3    0    0  0.31718362772E+01 -0.46544825154E+01 -0.82703152145E+01  0.10006141457E+02  0.51100000000E-03 0.  1.
        -12    1    3    3    0    0 -0.40445431033E+02  0.11765887311E+02  0.79366389585E+01  0.42863262051E+02  0.00000000000E+00 0.  1.
</event>
<event>
 7    1  0.4358868E-015  0.9000792E+02  0.7816164E-02  0.1186339E+00
        -11   -1    0    0    0    0  0.00000000000E+00  0.00000000000E+00  0.45593999997E+02  0.45594000000E+02  0.51100000000E-03 0.  1.
         11   -1    0    0    0    0 -0.00000000000E+00 -0.00000000000E+00 -0.45593999997E+02  0.45594000000E+02  0.51100000000E-03 0. -1.
    9900012    2    1    2    0    0 -0.87879493755E+00  0.57006350777E+00  0.54345284131E+00  0.90007917827E+02  0.90000181542E+02 0.  0.
         12    1    1    2    0    0  0.87879493755E+00 -0.57006350777E+00 -0.54345284131E+00  0.11800821734E+01  0.00000000000E+00 0. -1.
         11    1    3    3    0    0 -0.21286871286E+01  0.95533340293E+01  0.52228456696E+01  0.11093945066E+02  0.51100000000E-03 0. -1.
        -11    1    3    3    0    0 -0.24044982008E+02  0.23429580485E+02 -0.14615179567E+02  0.36615705312E+02  0.51100000000E-03 0.  1.
         12    1    3    3    0    0  0.25294874199E+02 -0.32412851006E+02  0.99357867387E+01  0.42298267449E+02  0.00000000000E+00 0. -1.
</event>
<event>
 7    1  0.4358868E-015  0.9000773E+02  0.7816164E-02  0.1186339E+00
        -11   -1    0    0    0    0  0.00000000000E+00  0.00000000000E+00  0.45593999997E+02  0.45594000000E+02  0.51100000000E-03 0. -1.
         11   -1    0    0    0    0 -0.00000000000E+00 -0.00000000000E+00 -0.45593999997E+02  0.45594000000E+02  0.51100000000E-03 0.  1.
    9900012    2    1    2    0    0  0.99308134131E+00 -0.15321416377E+00 -0.61916027200E+00  0.90007726908E+02  0.89999988103E+02 0.  0.
         12    1    1    2    0    0 -0.99308134131E+00  0.15321416377E+00  0.61916027200E+00  0.11802730925E+01  0.00000000000E+00 0. -1.
         11    1    3    3    0    0 -0.49051887639E+01 -0.13247022303E+01  0.34898236609E+02  0.35266168370E+02  0.51100000000E-03 0. -1.
        -11    1    3    3    0    0 -0.10841434280E+02 -0.42571801124E+01  0.33131754975E+01  0.12109393540E+02  0.51100000000E-03 0.  1.
        -12    1    3    3    0    0  0.16739704386E+02  0.54286681789E+01 -0.38830572379E+02  0.42632164998E+02  0.00000000000E+00 0.  1.
</event>
<event>
 7    1  0.4358868E-015  0.9000770E+02  0.7816164E-02  0.1186339E+00
        -11   -1    0    0    0    0  0.00000000000E+00  0.00000000000E+00  0.45593999997E+02  0.45594000000E+02  0.51100000000E-03 0. -1.
         11   -1    0    0    0    0 -0.00000000000E+00 -0.00000000000E+00 -0.45593999997E+02  0.45594000000E+02  0.51100000000E-03 0.  1.
    9900012    2    1    2    0    0  0.51750849811E+00 -0.76211043901E+00 -0.73788866785E+00  0.90007700439E+02  0.89999961285E+02 0.  0.
         12    1    1    2    0    0 -0.51750849811E+00  0.76211043901E+00  0.73788866785E+00  0.11802995607E+01  0.00000000000E+00 0. -1.
         11    1    3    3    0    0  0.88133405640E+01 -0.17442846099E+02  0.15138662320E+02  0.24720577441E+02  0.51100000000E-03 0. -1.
        -11    1    3    3    0    0 -0.15562724805E+02  0.11890719785E+01  0.20100076546E+02  0.25448484688E+02  0.51100000000E-03 0.  1.
         12    1    3    3    0    0  0.72668927390E+01  0.15491663682E+02 -0.35976627533E+02  0.39838638310E+02  0.00000000000E+00 0. -1.
</event>
<event>
 7    1  0.4358868E-015  0.9000769E+02  0.7816164E-02  0.1186339E+00
        -11   -1    0    0    0    0  0.00000000000E+00  0.00000000000E+00  0.45593999997E+02  0.45594000000E+02  0.51100000000E-03 0.  1.
         11   -1    0    0    0    0 -0.00000000000E+00 -0.00000000000E+00 -0.45593999997E+02  0.45594000000E+02  0.51100000000E-03 0. -1.
    9900012    2    1    2    0    0 -0.94136211219E+00  0.69086911702E+00  0.17223054244E+00  0.90007692361E+02  0.89999953100E+02 0.  0.
         12    1    1    2    0    0  0.94136211219E+00 -0.69086911702E+00 -0.17223054244E+00  0.11803076391E+01  0.00000000000E+00 0. -1.
         11    1    3    3    0    0 -0.85925102823E+01 -0.13977367538E+02 -0.13804682424E+01  0.16465227878E+02  0.51100000000E-03 0. -1.
        -11    1    3    3    0    0 -0.52223513442E+01  0.26517903724E+02  0.29853070959E+02  0.40270063539E+02  0.51100000000E-03 0.  1.
         12    1    3    3    0    0  0.12873499514E+02 -0.11849667069E+02 -0.28300372175E+02  0.33272400944E+02  0.00000000000E+00 0. -1.
</event>
<event>
 7    1  0.4358868E-015  0.9000663E+02  0.7816164E-02  0.1186341E+00
        -11   -1    0    0    0    0  0.00000000000E+00  0.00000000000E+00  0.45593999997E+02  0.45594000000E+02  0.51100000000E-03 0. -1.
         11   -1    0    0    0    0 -0.00000000000E+00 -0.00000000000E+00 -0.45593999997E+02  0.45594000000E+02  0.51100000000E-03 0.  1.
    9900012    2    1    2    0    0  0.97663329577E+00  0.64212281465E+00  0.17174852980E+00  0.90006631361E+02  0.89998878088E+02 0.  0.
         12    1    1    2    0    0 -0.97663329577E+00 -0.64212281465E+00 -0.17174852980E+00  0.11813686389E+01  0.00000000000E+00 0. -1.
         11    1    3    3    0    0  0.35516775638E+02  0.11632750557E+02 -0.81521690252E+01  0.38252060041E+02  0.51100000000E-03 0. -1.
        -11    1    3    3    0    0  0.11389678257E+01  0.95793087722E+01 -0.40667381123E+00  0.96553502324E+01  0.51100000000E-03 0.  1.
        -12    1    3    3    0    0 -0.35679110168E+02 -0.20569936515E+02  0.87305913662E+01  0.42099221088E+02  0.00000000000E+00 0.  1.
</event>
<event>
 7    1  0.4358868E-015  0.9000772E+02  0.7816164E-02  0.1186339E+00
        -11   -1    0    0    0    0  0.00000000000E+00  0.00000000000E+00  0.45593999997E+02  0.45594000000E+02  0.51100000000E-03 0.  1.
         11   -1    0    0    0    0 -0.00000000000E+00 -0.00000000000E+00 -0.45593999997E+02  0.45594000000E+02  0.51100000000E-03 0. -1.
    9900012    2    1    2    0    0 -0.28340119923E+00  0.81980746147E+00  0.80040605560E+00  0.90007724453E+02  0.89999985616E+02 0.  0.
         12    1    1    2    0    0  0.28340119923E+00 -0.81980746147E+00 -0.80040605560E+00  0.11802755473E+01  0.00000000000E+00 0. -1.
         11    1    3    3    0    0 -0.40640685950E+01  0.14811891693E+01 -0.95067054506E+01  0.10444521228E+02  0.51100000000E-03 0. -1.
        -11    1    3    3    0    0  0.28516312326E+02 -0.29276680056E+02  0.81734407257E+01  0.41678641980E+02  0.51100000000E-03 0.  1.
         12    1    3    3    0    0 -0.24735644931E+02  0.28615298348E+02  0.21336707805E+01  0.37884561244E+02  0.00000000000E+00 0. -1.
</event>
<event>
 7    1  0.4358868E-015  0.9000775E+02  0.7816164E-02  0.1186339E+00
        -11   -1    0    0    0    0  0.00000000000E+00  0.00000000000E+00  0.45593999997E+02  0.45594000000E+02  0.51100000000E-03 0.  1.
         11   -1    0    0    0    0 -0.00000000000E+00 -0.00000000000E+00 -0.45593999997E+02  0.45594000000E+02  0.51100000000E-03 0. -1.
    9900012    2    1    2    0    0 -0.45027001101E-01  0.74768696525E-02  0.11793661366E+01  0.90007750951E+02  0.90000012463E+02 0.  0.
         12    1    1    2    0    0  0.45027001101E-01 -0.74768696525E-02 -0.11793661366E+01  0.11802490494E+01  0.00000000000E+00 0. -1.
         11    1    3    3    0    0 -0.70048214248E+00  0.23864722756E+02 -0.29383540434E+02  0.37860376598E+02  0.51100000000E-03 0. -1.
        -11    1    3    3    0    0 -0.47948647365E+01  0.16032713856E+01 -0.56267379340E+01  0.75644819397E+01  0.51100000000E-03 0.  1.
        -12    1    3    3    0    0  0.54503198779E+01 -0.25460517272E+02  0.36189644504E+02  0.44582892413E+02  0.00000000000E+00 0.  1.
</event>
<event>
 7    1  0.4358868E-015  0.9000773E+02  0.7816164E-02  0.1186339E+00
        -11   -1    0    0    0    0  0.00000000000E+00  0.00000000000E+00  0.45593999997E+02  0.45594000000E+02  0.51100000000E-03 0. -1.
         11   -1    0    0    0    0 -0.00000000000E+00 -0.00000000000E+00 -0.45593999997E+02  0.45594000000E+02  0.51100000000E-03 0.  1.
    9900012    2    1    2    0    0 -0.92957596315E+00 -0.72433831586E+00 -0.65221612829E-01  0.90007732519E+02  0.89999993789E+02 0.  0.
         12    1    1    2    0    0  0.92957596315E+00  0.72433831586E+00  0.65221612829E-01  0.11802674806E+01  0.00000000000E+00 0. -1.
         11    1    3    3    0    0 -0.17562764194E+02  0.18725799376E+02  0.23596225785E+00  0.25674149000E+02  0.51100000000E-03 0. -1.
        -11    1    3    3    0    0  0.61797393028E+01  0.15068079030E+02 -0.17902052026E+02  0.24201645615E+02  0.51100000000E-03 0.  1.
         12    1    3    3    0    0  0.10453448928E+02 -0.34518216722E+02  0.17600868155E+02  0.40131937904E+02  0.00000000000E+00 0. -1.
</event>
<event>
 7    1  0.4358868E-015  0.9000768E+02  0.7816164E-02  0.1186339E+00
        -11   -1    0    0    0    0  0.00000000000E+00  0.00000000000E+00  0.45593999997E+02  0.45594000000E+02  0.51100000000E-03 0.  1.
         11   -1    0    0    0    0 -0.00000000000E+00 -0.00000000000E+00 -0.45593999997E+02  0.45594000000E+02  0.51100000000E-03 0. -1.
    9900012    2    1    2    0    0  0.30126487948E+00  0.98582682746E+00  0.57493265016E+00  0.90007676903E+02  0.89999937438E+02 0.  0.
         12    1    1    2    0    0 -0.30126487948E+00 -0.98582682746E+00 -0.57493265016E+00  0.11803230971E+01  0.00000000000E+00 0. -1.
         11    1    3    3    0    0 -0.14744851158E+01 -0.60619210421E+01 -0.69479501425E+01  0.93378265416E+01  0.51100000000E-03 0. -1.
        -11    1    3    3    0    0 -0.28127139993E+02  0.18486419861E+00  0.31132278984E+02  0.41956989572E+02  0.51100000000E-03 0.  1.
         12    1    3    3    0    0  0.29902889988E+02  0.68628836710E+01 -0.23609396192E+02  0.38712860789E+02  0.00000000000E+00 0. -1.
</event>
<event>
 7    1  0.4358868E-015  0.9000773E+02  0.7816164E-02  0.1186339E+00
        -11   -1    0    0    0    0  0.00000000000E+00  0.00000000000E+00  0.45593999997E+02  0.45594000000E+02  0.51100000000E-03 0. -1.
         11   -1    0    0    0    0 -0.00000000000E+00 -0.00000000000E+00 -0.45593999997E+02  0.45594000000E+02  0.51100000000E-03 0.  1.
    9900012    2    1    2    0    0 -0.89104718086E+00 -0.49903348157E+00 -0.59163242072E+00  0.90007733752E+02  0.89999995038E+02 0.  0.
         12    1    1    2    0    0  0.89104718086E+00  0.49903348157E+00  0.59163242072E+00  0.11802662477E+01  0.00000000000E+00 0. -1.
         11    1    3    3    0    0 -0.23245274820E+02  0.21583989198E+02  0.77784463975E+01  0.32660612667E+02  0.51100000000E-03 0. -1.
        -11    1    3    3    0    0 -0.13169806899E+02  0.54386896156E+00 -0.76142886999E+01  0.15222253443E+02  0.51100000000E-03 0.  1.
        -12    1    3    3    0    0  0.35524034538E+02 -0.22626891641E+02 -0.75579011831E+00  0.42124867643E+02  0.00000000000E+00 0.  1.
</event>
<event>
 7    1  0.4358868E-015  0.9000779E+02  0.7816164E-02  0.1186339E+00
        -11   -1    0    0    0    0  0.00000000000E+00  0.00000000000E+00  0.45593999997E+02  0.45594000000E+02  0.51100000000E-03 0. -1.
         11   -1    0    0    0    0 -0.00000000000E+00 -0.00000000000E+00 -0.45593999997E+02  0.45594000000E+02  0.51100000000E-03 0.  1.
    9900012    2    1    2    0    0 -0.21411332574E+00 -0.25844934093E+00 -0.11314867766E+01  0.90007786924E+02  0.90000048912E+02 0.  0.
         12    1    1    2    0    0  0.21411332574E+00  0.25844934093E+00  0.11314867766E+01  0.11802130756E+01  0.00000000000E+00 0. -1.
         11    1    3    3    0    0  0.31862949715E+00  0.10753564631E+02  0.17313067870E+02  0.20383400020E+02  0.51100000000E-03 0. -1.
        -11    1    3    3    0    0 -0.92736445031E+01 -0.26872131020E+02  0.14589220247E+02  0.31952421749E+02  0.51100000000E-03 0.  1.
        -12    1    3    3    0    0  0.87409016802E+01  0.15860117048E+02 -0.33033774894E+02  0.37671965156E+02  0.00000000000E+00 0.  1.
</event>
<event>
 7    1  0.4358868E-015  0.9000778E+02  0.7816164E-02  0.1186339E+00
        -11   -1    0    0    0    0  0.00000000000E+00  0.00000000000E+00  0.45593999997E+02  0.45594000000E+02  0.51100000000E-03 0. -1.
         11   -1    0    0    0    0 -0.00000000000E+00 -0.00000000000E+00 -0.45593999997E+02  0.45594000000E+02  0.51100000000E-03 0.  1.
    9900012    2    1    2    0    0  0.10439805822E+01  0.54911841715E+00 -0.38650033956E-01  0.90007779547E+02  0.90000041437E+02 0.  0.
         12    1    1    2    0    0 -0.10439805822E+01 -0.54911841715E+00  0.38650033956E-01  0.11802204527E+01  0.00000000000E+00 0. -1.
         11    1    3    3    0    0 -0.69251909769E+01  0.10070766142E+01 -0.61554193928E+01  0.93199603828E+01  0.51100000000E-03 0. -1.
        -11    1    3    3    0    0 -0.16823301925E+02  0.25479458806E+02 -0.19831571164E+02  0.36407657488E+02  0.51100000000E-03 0.  1.
         12    1    3    3    0    0  0.24792473484E+02 -0.25937417003E+02  0.25948340522E+02  0.44280161677E+02  0.00000000000E+00 0. -1.
</event>
<event>
 7    1  0.4358868E-015  0.9000772E+02  0.7816164E-02  0.1186339E+00
        -11   -1    0    0    0    0  0.00000000000E+00  0.00000000000E+00  0.45593999997E+02  0.45594000000E+02  0.51100000000E-03 0. -1.
         11   -1    0    0    0    0 -0.00000000000E+00 -0.00000000000E+00 -0.45593999997E+02  0.45594000000E+02  0.51100000000E-03 0.  1.
    9900012    2    1    2    0    0 -0.44536119141E+00 -0.71925091244E+00 -0.82304352573E+00  0.90007716512E+02  0.89999977570E+02 0.  0.
         12    1    1    2    0    0  0.44536119141E+00  0.71925091244E+00  0.82304352573E+00  0.11802834876E+01  0.00000000000E+00 0. -1.
         11    1    3    3    0    0 -0.97182069326E+00 -0.38795654106E+02  0.21317695843E+00  0.38808409625E+02  0.51100000000E-03 0. -1.
        -11    1    3    3    0    0  0.59328785767E+00 -0.38093901860E+01 -0.78662858941E+01  0.87602453219E+01  0.51100000000E-03 0.  1.
        -12    1    3    3    0    0 -0.66828355824E-01  0.41885793379E+02  0.68300654100E+01  0.42439061565E+02  0.00000000000E+00 0.  1.
</event>
<event>
 7    1  0.4358868E-015  0.9000777E+02  0.7816164E-02  0.1186339E+00
        -11   -1    0    0    0    0  0.00000000000E+00  0.00000000000E+00  0.45593999997E+02  0.45594000000E+02  0.51100000000E-03 0.  1.
         11   -1    0    0    0    0 -0.00000000000E+00 -0.00000000000E+00 -0.45593999997E+02  0.45594000000E+02  0.51100000000E-03 0. -1.
    9900012    2    1    2    0    0  0.88809306523E+00  0.65398979111E+00  0.42016035082E+00  0.90007768387E+02  0.90000030130E+02 0.  0.
         12    1    1    2    0    0 -0.88809306523E+00 -0.65398979111E+00 -0.42016035082E+00  0.11802316128E+01  0.00000000000E+00 0. -1.
         11    1    3    3    0    0  0.16698995000E+02  0.30487447361E+02  0.14531770950E+02  0.37676428278E+02  0.51100000000E-03 0. -1.
        -11    1    3    3    0    0  0.85830503890E+00  0.77795742890E+01 -0.71583879259E+01  0.10606647992E+02  0.51100000000E-03 0.  1.
        -12    1    3    3    0    0 -0.16669206974E+02 -0.37613031859E+02 -0.69532226731E+01  0.41724692117E+02  0.00000000000E+00 0.  1.
</event>
<event>
 7    1  0.4358868E-015  0.9000768E+02  0.7816164E-02  0.1186339E+00
        -11   -1    0    0    0    0  0.00000000000E+00  0.00000000000E+00  0.45593999997E+02  0.45594000000E+02  0.51100000000E-03 0. -1.
         11   -1    0    0    0    0 -0.00000000000E+00 -0.00000000000E+00 -0.45593999997E+02  0.45594000000E+02  0.51100000000E-03 0.  1.
    9900012    2    1    2    0    0  0.21121120897E+00 -0.89594390399E+00 -0.73880003531E+00  0.90007681761E+02  0.89999942360E+02 0.  0.
         12    1    1    2    0    0 -0.21121120897E+00  0.89594390399E+00  0.73880003531E+00  0.11803182393E+01  0.00000000000E+00 0. -1.
         11    1    3    3    0    0  0.66971215256E+01  0.13084364306E+02 -0.27616884365E+01  0.14955900150E+02  0.51100000000E-03 0. -1.
        -11    1    3    3    0    0  0.73143431820E+01 -0.22117317498E+02 -0.30747085675E+02  0.38575362957E+02  0.51100000000E-03 0.  1.
         12    1    3    3    0    0 -0.13800253499E+02  0.81370092883E+01  0.32769974077E+02  0.36476418653E+02  0.00000000000E+00 0. -1.
</event>
<event>
 7    1  0.4358868E-015  0.9000761E+02  0.7816164E-02  0.1186339E+00
        -11   -1    0    0    0    0  0.00000000000E+00  0.00000000000E+00  0.45593999997E+02  0.45594000000E+02  0.51100000000E-03 0.  1.
         11   -1    0    0    0    0 -0.00000000000E+00 -0.00000000000E+00 -0.45593999997E+02  0.45594000000E+02  0.51100000000E-03 0. -1.
    9900012    2    1    2    0    0 -0.86236572453E+00  0.67260231775E+00  0.44413527330E+00  0.90007608259E+02  0.89999867888E+02 0.  0.
         12    1    1    2    0    0  0.86236572453E+00 -0.67260231775E+00 -0.44413527330E+00  0.11803917408E+01  0.00000000000E+00 0. -1.
         11    1    3    3    0    0  0.42869026628E+01 -0.26430487508E+02  0.19870230909E+02  0.33343279398E+02  0.51100000000E-03 0. -1.
        -11    1    3    3    0    0  0.26748274176E+00 -0.32399019947E+01  0.12126868423E+02  0.12555056749E+02  0.51100000000E-03 0.  1.
        -12    1    3    3    0    0 -0.54167511291E+01  0.30342991821E+02 -0.31552964059E+02  0.44109272113E+02  0.00000000000E+00 0.  1.
</event>
<event>
 7    1  0.4358868E-015  0.9000770E+02  0.7816164E-02  0.1186339E+00
        -11   -1    0    0    0    0  0.00000000000E+00  0.00000000000E+00  0.45593999997E+02  0.45594000000E+02  0.51100000000E-03 0.  1.
         11   -1    0    0    0    0 -0.00000000000E+00 -0.00000000000E+00 -0.45593999997E+02  0.45594000000E+02  0.51100000000E-03 0. -1.
    9900012    2    1    2    0    0  0.91290321197E+00 -0.44104125069E+00  0.60432446358E+00  0.90007695922E+02  0.89999956708E+02 0.  0.
         12    1    1    2    0    0 -0.91290321197E+00  0.44104125069E+00 -0.60432446358E+00  0.11803040780E+01  0.00000000000E+00 0. -1.
         11    1    3    3    0    0  0.11296964894E+02 -0.22813206889E+02 -0.11654585404E+02  0.27998092534E+02  0.51100000000E-03 0. -1.
        -11    1    3    3    0    0  0.74748829516E+01 -0.14125986790E+02  0.14131234837E+02  0.21333287984E+02  0.51100000000E-03 0.  1.
        -12    1    3    3    0    0 -0.17858944633E+02  0.36498152428E+02 -0.18723249690E+01  0.40676315404E+02  0.00000000000E+00 0.  1.
</event>
<event>
 7    1  0.4358868E-015  0.9000777E+02  0.7816164E-02  0.1186339E+00
        -11   -1    0    0    0    0  0.00000000000E+00  0.00000000000E+00  0.45593999997E+02  0.45594000000E+02  0.51100000000E-03 0. -1.
         11   -1    0    0    0    0 -0.00000000000E+00 -0.00000000000E+00 -0.45593999997E+02  0.45594000000E+02  0.51100000000E-03 0.  1.
    9900012    2    1    2    0    0  0.38861310472E+00  0.13805758803E+00 -0.11058354331E+01  0.90007766105E+02  0.90000027817E+02 0.  0.
         12    1    1    2    0    0 -0.38861310472E+00 -0.13805758803E+00  0.11058354331E+01  0.11802338954E+01  0.00000000000E+00 0. -1.
         11    1    3    3    0    0  0.12623994987E+01 -0.38720248967E+01  0.91643892768E+01  0.10028572200E+02  0.51100000000E-03 0. -1.
        -11    1    3    3    0    0  0.64109688857E+01 -0.36707322777E+02  0.38492357162E+00  0.37264946450E+02  0.51100000000E-03 0.  1.
         12    1    3    3    0    0 -0.72847552797E+01  0.40717405262E+02 -0.10655148281E+02  0.42714247455E+02  0.00000000000E+00 0. -1.
</event>
<event>
 7    1  0.4358868E-015  0.9000774E+02  0.7816164E-02  0.1186339E+00
        -11   -1    0    0    0    0  0.00000000000E+00  0.00000000000E+00  0.45593999997E+02  0.45594000000E+02  0.51100000000E-03 0.  1.
         11   -1    0    0    0    0 -0.00000000000E+00 -0.00000000000E+00 -0.45593999997E+02  0.45594000000E+02  0.51100000000E-03 0. -1.
    9900012    2    1    2    0    0 -0.75518145267E+00  0.47094101301E+00  0.77520316399E+00  0.90007735449E+02  0.89999996757E+02 0.  0.
         12    1    1    2    0    0  0.75518145267E+00 -0.47094101301E+00 -0.77520316399E+00  0.11802645507E+01  0.00000000000E+00 0. -1.
         11    1    3    3    0    0 -0.13621434782E+01  0.36796922106E+01 -0.76365921150E+01  0.85856338736E+01  0.51100000000E-03 0. -1.
        -11    1    3    3    0    0  0.21489002769E+02  0.32732964151E+02  0.73541755027E+01  0.39841035123E+02  0.51100000000E-03 0.  1.
         12    1    3    3    0    0 -0.20882040743E+02 -0.35941715348E+02  0.10576197763E+01  0.41581066453E+02  0.00000000000E+00 0. -1.
</event>
<event>
 7    1  0.4358868E-015  0.9000755E+02  0.7816164E-02  0.1186339E+00
        -11   -1    0    0    0    0  0.00000000000E+00  0.00000000000E+00  0.45593999997E+02  0.45594000000E+02  0.51100000000E-03 0. -1.
         11   -1    0    0    0    0 -0.00000000000E+00 -0.00000000000E+00 -0.45593999997E+02  0.45594000000E+02  0.51100000000E-03 0.  1.
    9900012    2    1    2    0    0  0.10596858215E+01 -0.43598497662E+00  0.28361265414E+00  0.90007553865E+02  0.89999812776E+02 0.  0.
         12    1    1    2    0    0 -0.10596858215E+01  0.43598497662E+00 -0.28361265414E+00  0.11804461350E+01  0.00000000000E+00 0. -1.
         11    1    3    3    0    0 -0.55739945443E+01 -0.60100599773E+01 -0.82080537330E+01  0.11600102692E+02  0.51100000000E-03 0. -1.
        -11    1    3    3    0    0  0.34631762358E+02  0.22614460153E+02 -0.73407117862E+01  0.42007842384E+02  0.51100000000E-03 0.  1.
         12    1    3    3    0    0 -0.27998081992E+02 -0.17040385152E+02  0.15832378173E+02  0.36399608789E+02  0.00000000000E+00 0. -1.
</event>
<event>
 7    1  0.4358868E-015  0.9000820E+02  0.7816164E-02  0.1186338E+00
        -11   -1    0    0    0    0  0.00000000000E+00  0.00000000000E+00  0.45593999997E+02  0.45594000000E+02  0.51100000000E-03 0.  1.
         11   -1    0    0    0    0 -0.00000000000E+00 -0.00000000000E+00 -0.45593999997E+02  0.45594000000E+02  0.51100000000E-03 0. -1.
    9900012    2    1    2    0    0  0.24841002530E+00  0.51358189145E+00  0.10326884814E+01  0.90008203662E+02  0.90000471149E+02 0.  0.
         12    1    1    2    0    0 -0.24841002530E+00 -0.51358189145E+00 -0.10326884814E+01  0.11797963382E+01  0.00000000000E+00 0. -1.
         11    1    3    3    0    0 -0.47165401412E+01  0.74344061635E+01  0.28004180686E+01  0.92389657174E+01  0.51100000000E-03 0. -1.
        -11    1    3    3    0    0 -0.37597637903E+02  0.17690560017E+00 -0.10685864888E+01  0.37613236351E+02  0.51100000000E-03 0.  1.
         12    1    3    3    0    0  0.42562588069E+02 -0.70977298722E+01 -0.69914309842E+00  0.43156001594E+02  0.00000000000E+00 0. -1.
</event>
<event>
 7    1  0.4358868E-015  0.9000775E+02  0.7816164E-02  0.1186339E+00
        -11   -1    0    0    0    0  0.00000000000E+00  0.00000000000E+00  0.45593999997E+02  0.45594000000E+02  0.51100000000E-03 0. -1.
         11   -1    0    0    0    0 -0.00000000000E+00 -0.00000000000E+00 -0.45593999997E+02  0.45594000000E+02  0.51100000000E-03 0.  1.
    9900012    2    1    2    0    0  0.43636649490E+00  0.10518904006E+01  0.31001908810E+00  0.90007745380E+02  0.90000006819E+02 0.  0.
         12    1    1    2    0    0 -0.43636649490E+00 -0.10518904006E+01 -0.31001908810E+00  0.11802546198E+01  0.00000000000E+00 0. -1.
         11    1    3    3    0    0 -0.23852884092E+02  0.30954552812E+02  0.12885305392E+01  0.39099932615E+02  0.51100000000E-03 0. -1.
        -11    1    3    3    0    0  0.53439011012E+01  0.64697749626E+01 -0.48878907133E+01  0.97111658894E+01  0.51100000000E-03 0.  1.
        -12    1    3    3    0    0  0.18945349485E+02 -0.36372437374E+02  0.39093792622E+01  0.41196646876E+02  0.00000000000E+00 0.  1.
</event>
<event>
 7    1  0.4358868E-015  0.9000777E+02  0.7816164E-02  0.1186339E+00
        -11   -1    0    0    0    0  0.00000000000E+00  0.00000000000E+00  0.45593999997E+02  0.45594000000E+02  0.51100000000E-03 0.  1.
         11   -1    0    0    0    0 -0.00000000000E+00 -0.00000000000E+00 -0.45593999997E+02  0.45594000000E+02  0.51100000000E-03 0. -1.
    9900012    2    1    2    0    0 -0.72217981467E+00 -0.87200285161E+00 -0.33317680836E+00  0.90007771444E+02  0.90000033227E+02 0.  0.
         12    1    1    2    0    0  0.72217981467E+00  0.87200285161E+00  0.33317680836E+00  0.11802285556E+01  0.00000000000E+00 0. -1.
         11    1    3    3    0    0 -0.91664017286E+00 -0.20142726318E+02 -0.32805098478E+02  0.38506416857E+02  0.51100000000E-03 0. -1.
        -11    1    3    3    0    0  0.52268537000E+01  0.10905920730E+01 -0.63755537900E+01  0.83160734160E+01  0.51100000000E-03 0.  1.
        -12    1    3    3    0    0 -0.50323933418E+01  0.18180131394E+02  0.38847475460E+02  0.43185281171E+02  0.00000000000E+00 0.  1.
</event>
<event>
 7    1  0.4358868E-015  0.9000773E+02  0.7816164E-02  0.1186339E+00
        -11   -1    0    0    0    0  0.00000000000E+00  0.00000000000E+00  0.45593999997E+02  0.45594000000E+02  0.51100000000E-03 0.  1.
         11   -1    0    0    0    0 -0.00000000000E+00 -0.00000000000E+00 -0.45593999997E+02  0.45594000000E+02  0.51100000000E-03 0. -1.
    9900012    2    1    2    0    0 -0.51952091432E+00  0.12346272068E+00  0.10525673364E+01  0.90007727565E+02  0.89999988769E+02 0.  0.
         12    1    1    2    0    0  0.51952091432E+00 -0.12346272068E+00 -0.10525673364E+01  0.11802724353E+01  0.00000000000E+00 0. -1.
         11    1    3    3    0    0  0.79683295193E+01  0.11577827679E+01 -0.38236450863E+01  0.89137533213E+01  0.51100000000E-03 0. -1.
        -11    1    3    3    0    0 -0.16715192762E+01  0.29818140082E+02  0.28779109122E+02  0.41474722142E+02  0.51100000000E-03 0.  1.
         12    1    3    3    0    0 -0.68163311573E+01 -0.30852460129E+02 -0.23902896699E+02  0.39619252101E+02  0.00000000000E+00 0. -1.
</event>
<event>
 7    1  0.4358868E-015  0.9000777E+02  0.7816164E-02  0.1186339E+00
        -11   -1    0    0    0    0  0.00000000000E+00  0.00000000000E+00  0.45593999997E+02  0.45594000000E+02  0.51100000000E-03 0. -1.
         11   -1    0    0    0    0 -0.00000000000E+00 -0.00000000000E+00 -0.45593999997E+02  0.45594000000E+02  0.51100000000E-03 0.  1.
    9900012    2    1    2    0    0  0.10433574786E+01  0.54870207008E+00  0.57273481023E-01  0.90007767378E+02  0.90000029108E+02 0.  0.
         12    1    1    2    0    0 -0.10433574786E+01 -0.54870207008E+00 -0.57273481023E-01  0.11802326218E+01  0.00000000000E+00 0. -1.
         11    1    3    3    0    0  0.24416280364E+02  0.10523599280E+02  0.28765866955E+02  0.39171111684E+02  0.51100000000E-03 0. -1.
        -11    1    3    3    0    0 -0.33037413872E+01  0.96641210878E+00  0.73656443236E+01  0.81302752770E+01  0.51100000000E-03 0.  1.
        -12    1    3    3    0    0 -0.20069181498E+02 -0.10941309319E+02 -0.36074237798E+02  0.42706380417E+02  0.00000000000E+00 0.  1.
</event>
<event>
 7    1  0.4358868E-015  0.9000775E+02  0.7816164E-02  0.1186339E+00
        -11   -1    0    0    0    0  0.00000000000E+00  0.00000000000E+00  0.45593999997E+02  0.45594000000E+02  0.51100000000E-03 0. -1.
         11   -1    0    0    0    0 -0.00000000000E+00 -0.00000000000E+00 -0.45593999997E+02  0.45594000000E+02  0.51100000000E-03 0.  1.
    9900012    2    1    2    0    0 -0.70467897052E-01 -0.11556784516E+01  0.22898318595E+00  0.90007749303E+02  0.90000010794E+02 0.  0.
         12    1    1    2    0    0  0.70467897052E-01  0.11556784516E+01 -0.22898318595E+00  0.11802506969E+01  0.00000000000E+00 0. -1.
         11    1    3    3    0    0  0.16014949526E+02 -0.19261105354E+02  0.24256007724E+02  0.34868649224E+02  0.51100000000E-03 0. -1.
        -11    1    3    3    0    0  0.13528883817E+02  0.38402115907E+00 -0.13357444752E+02  0.19015769775E+02  0.51100000000E-03 0.  1.
        -12    1    3    3    0    0 -0.29614301240E+02  0.17721405743E+02 -0.10669579785E+02  0.36123330304E+02  0.00000000000E+00 0.  1.
</event>
<event>
 7    1  0.4358868E-015  0.9000803E+02  0.7816164E-02  0.1186338E+00
        -11   -1    0    0    0    0  0.00000000000E+00  0.00000000000E+00  0.45593999997E+02  0.45594000000E+02  0.51100000000E-03 0.  1.
         11   -1    0    0    0    0 -0.00000000000E+00 -0.00000000000E+00 -0.45593999997E+02  0.45594000000E+02  0.51100000000E-03 0. -1.
    9900012    2    1    2    0    0  0.44134760848E+00 -0.68933830679E+00 -0.84991012786E+00  0.90008032950E+02  0.90000298185E+02 0.  0.
         12    1    1    2    0    0 -0.44134760848E+00  0.68933830679E+00  0.84991012786E+00  0.11799670496E+01  0.00000000000E+00 0. -1.
         11    1    3    3    0    0  0.31063516568E+02 -0.48038107213E+01 -0.27781045765E+02  0.41950031741E+02  0.51100000000E-03 0. -1.
        -11    1    3    3    0    0 -0.45399400883E+01  0.70905656675E+01 -0.23409763302E+01  0.87388413380E+01  0.51100000000E-03 0.  1.
        -12    1    3    3    0    0 -0.26082228872E+02 -0.29760932530E+01  0.29272111967E+02  0.39319159871E+02  0.00000000000E+00 0.  1.
</event>
<event>
 7    1  0.4358868E-015  0.9000770E+02  0.7816164E-02  0.1186339E+00
        -11   -1    0    0    0    0  0.00000000000E+00  0.00000000000E+00  0.45593999997E+02  0.45594000000E+02  0.51100000000E-03 0. -1.
         11   -1    0    0    0    0 -0.00000000000E+00 -0.00000000000E+00 -0.45593999997E+02  0.45594000000E+02  0.51100000000E-03 0.  1.
    9900012    2    1    2    0    0  0.19725459889E-01 -0.11795272848E+01 -0.38000160324E-01  0.90007695920E+02  0.89999956706E+02 0.  0.
         12    1    1    2    0    0 -0.19725459889E-01  0.11795272848E+01  0.38000160324E-01  0.11803040801E+01  0.00000000000E+00 0. -1.
         11    1    3    3    0    0 -0.14377077821E+02 -0.15063690638E+02  0.36991150272E+02  0.42449503425E+02  0.51100000000E-03 0. -1.
        -11    1    3    3    0    0  0.16697967394E+01 -0.59566823974E+01 -0.92178744615E+01  0.11101328577E+02  0.51100000000E-03 0.  1.
        -12    1    3    3    0    0  0.12727006542E+02  0.19840845751E+02 -0.27811275970E+02  0.36456863918E+02  0.00000000000E+00 0.  1.
</event>
<event>
 7    1  0.4358868E-015  0.9000776E+02  0.7816164E-02  0.1186339E+00
        -11   -1    0    0    0    0  0.00000000000E+00  0.00000000000E+00  0.45593999997E+02  0.45594000000E+02  0.51100000000E-03 0.  1.
         11   -1    0    0    0    0 -0.00000000000E+00 -0.00000000000E+00 -0.45593999997E+02  0.45594000000E+02  0.51100000000E-03 0. -1.
    9900012    2    1    2    0    0  0.29673462919E+00 -0.85818947503E+00  0.75393590369E+00  0.90007762752E+02  0.90000024420E+02 0.  0.
         12    1    1    2    0    0 -0.29673462919E+00  0.85818947503E+00 -0.75393590369E+00  0.11802372482E+01  0.00000000000E+00 0. -1.
         11    1    3    3    0    0 -0.80455974486E+01  0.30501955706E+02 -0.22163224149E+02  0.38552684020E+02  0.51100000000E-03 0. -1.
        -11    1    3    3    0    0 -0.39903043265E+01  0.56158167131E+01  0.52404271688E+01  0.86557497160E+01  0.51100000000E-03 0.  1.
        -12    1    3    3    0    0  0.12332636404E+02 -0.36975961894E+02  0.17676732884E+02  0.42799329015E+02  0.00000000000E+00 0.  1.
</event>
<event>
 7    1  0.4358868E-015  0.9000787E+02  0.7816164E-02  0.1186339E+00
        -11   -1    0    0    0    0  0.00000000000E+00  0.00000000000E+00  0.45593999997E+02  0.45594000000E+02  0.51100000000E-03 0. -1.
         11   -1    0    0    0    0 -0.00000000000E+00 -0.00000000000E+00 -0.45593999997E+02  0.45594000000E+02  0.51100000000E-03 0.  1.
    9900012    2    1    2    0    0  0.86082591214E+00  0.45924114122E+00  0.66391379274E+00  0.90007870685E+02  0.90000133778E+02 0.  0.
         12    1    1    2    0    0 -0.86082591214E+00 -0.45924114122E+00 -0.66391379274E+00  0.11801293154E+01  0.00000000000E+00 0. -1.
         11    1    3    3    0    0 -0.52918472584E+01 -0.96636368373E+01  0.57552583493E+01  0.12430306644E+02  0.51100000000E-03 0. -1.
        -11    1    3    3    0    0 -0.28913624968E+02  0.22452846902E+02 -0.14269156402E+02  0.39290416993E+02  0.51100000000E-03 0.  1.
         12    1    3    3    0    0  0.35066298138E+02 -0.12329968924E+02  0.91778118456E+01  0.38287147048E+02  0.00000000000E+00 0. -1.
</event>
<event>
 7    1  0.4358868E-015  0.9000770E+02  0.7816164E-02  0.1186339E+00
        -11   -1    0    0    0    0  0.00000000000E+00  0.00000000000E+00  0.45593999997E+02  0.45594000000E+02  0.51100000000E-03 0. -1.
         11   -1    0    0    0    0 -0.00000000000E+00 -0.00000000000E+00 -0.45593999997E+02  0.45594000000E+02  0.51100000000E-03 0.  1.
    9900012    2    1    2    0    0 -0.27083085784E+00  0.25611852676E+00 -0.11198895083E+01  0.90007704035E+02  0.89999964929E+02 0.  0.
         12    1    1    2    0    0  0.27083085784E+00 -0.25611852676E+00  0.11198895083E+01  0.11802959646E+01  0.00000000000E+00 0. -1.
         11    1    3    3    0    0 -0.16281187142E+02  0.30415320087E+02 -0.13051643900E+02  0.36885148224E+02  0.51100000000E-03 0. -1.
        -11    1    3    3    0    0  0.24781935265E+01  0.53252743994E+01 -0.82411242774E+01  0.10120084990E+02  0.51100000000E-03 0.  1.
        -12    1    3    3    0    0  0.13532162757E+02 -0.35484475959E+02  0.20172878669E+02  0.43002470822E+02  0.00000000000E+00 0.  1.
</event>
<event>
 7    1  0.4358868E-015  0.9000772E+02  0.7816164E-02  0.1186339E+00
        -11   -1    0    0    0    0  0.00000000000E+00  0.00000000000E+00  0.45593999997E+02  0.45594000000E+02  0.51100000000E-03 0.  1.
         11   -1    0    0    0    0 -0.00000000000E+00 -0.00000000000E+00 -0.45593999997E+02  0.45594000000E+02  0.51100000000E-03 0. -1.
    9900012    2    1    2    0    0  0.21985156839E+00  0.67697532504E+00  0.94150525768E+00  0.90007719333E+02  0.89999980428E+02 0.  0.
         12    1    1    2    0    0 -0.21985156839E+00 -0.67697532504E+00 -0.94150525768E+00  0.11802806671E+01  0.00000000000E+00 0. -1.
         11    1    3    3    0    0  0.49381835846E+01  0.39029992800E+01 -0.41913677010E+02  0.42383668804E+02  0.51100000000E-03 0. -1.
        -11    1    3    3    0    0  0.58117268852E+01  0.34585041065E+01  0.73314731719E+01  0.99743630962E+01  0.51100000000E-03 0.  1.
        -12    1    3    3    0    0 -0.10530058901E+02 -0.66845280615E+01  0.35523709096E+02  0.37649687433E+02  0.00000000000E+00 0.  1.
</event>
<event>
 7    1  0.4358868E-015  0.9000724E+02  0.7816164E-02  0.1186340E+00
        -11   -1    0    0    0    0  0.00000000000E+00  0.00000000000E+00  0.45593999997E+02  0.45594000000E+02  0.51100000000E-03 0.  1.
         11   -1    0    0    0    0 -0.00000000000E+00 -0.00000000000E+00 -0.45593999997E+02  0.45594000000E+02  0.51100000000E-03 0. -1.
    9900012    2    1    2    0    0  0.10773922602E+01 -0.41908404432E-01 -0.48131403599E+00  0.90007240245E+02  0.89999495015E+02 0.  0.
         12    1    1    2    0    0 -0.10773922602E+01  0.41908404432E-01  0.48131403599E+00  0.11807597546E+01  0.00000000000E+00 0. -1.
         11    1    3    3    0    0 -0.36689398237E+01 -0.72857245318E+01  0.38640414576E+01  0.90262793015E+01  0.51100000000E-03 0. -1.
        -11    1    3    3    0    0  0.42085123525E+02 -0.19993023840E+01 -0.55482031191E+01  0.42496322079E+02  0.51100000000E-03 0.  1.
         12    1    3    3    0    0 -0.37338791441E+02  0.92431185114E+01  0.12028476256E+01  0.38484638864E+02  0.00000000000E+00 0. -1.
</event>
<event>
 7    1  0.4358868E-015  0.9000802E+02  0.7816164E-02  0.1186338E+00
        -11   -1    0    0    0    0  0.00000000000E+00  0.00000000000E+00  0.45593999997E+02  0.45594000000E+02  0.51100000000E-03 0.  1.
         11   -1    0    0    0    0 -0.00000000000E+00 -0.00000000000E+00 -0.45593999997E+02  0.45594000000E+02  0.51100000000E-03 0. -1.
    9900012    2    1    2    0    0  0.61810379361E+00 -0.64098246854E+00  0.77423018255E+00  0.90008024068E+02  0.90000289185E+02 0.  0.
         12    1    1    2    0    0 -0.61810379361E+00  0.64098246854E+00 -0.77423018255E+00  0.11799759321E+01  0.00000000000E+00 0. -1.
         11    1    3    3    0    0 -0.28991532940E+01  0.51608139122E+01 -0.54479335375E+01  0.80448163528E+01  0.51100000000E-03 0. -1.
        -11    1    3    3    0    0  0.25331222093E+02  0.16731999052E+02 -0.23778338719E+02  0.38562157584E+02  0.51100000000E-03 0.  1.
         12    1    3    3    0    0 -0.21813965006E+02 -0.22533795433E+02  0.30000502439E+02  0.43401050131E+02  0.00000000000E+00 0. -1.
</event>
<event>
 7    1  0.4358868E-015  0.9000768E+02  0.7816164E-02  0.1186339E+00
        -11   -1    0    0    0    0  0.00000000000E+00  0.00000000000E+00  0.45593999997E+02  0.45594000000E+02  0.51100000000E-03 0.  1.
         11   -1    0    0    0    0 -0.00000000000E+00 -0.00000000000E+00 -0.45593999997E+02  0.45594000000E+02  0.51100000000E-03 0. -1.
    9900012    2    1    2    0    0 -0.46024939842E+00 -0.81467234488E+00 -0.71947577429E+00  0.90007675499E+02  0.89999936015E+02 0.  0.
         12    1    1    2    0    0  0.46024939842E+00  0.81467234488E+00  0.71947577429E+00  0.11803245012E+01  0.00000000000E+00 0. -1.
         11    1    3    3    0    0  0.47293791229E+01 -0.94287934525E+01 -0.18706322550E+01  0.10713003227E+02  0.51100000000E-03 0. -1.
        -11    1    3    3    0    0  0.24899965466E+02 -0.10086000717E+02  0.24911387156E+02  0.36637588635E+02  0.51100000000E-03 0.  1.
         12    1    3    3    0    0 -0.30089593987E+02  0.18700121825E+02 -0.23760230676E+02  0.42657083636E+02  0.00000000000E+00 0. -1.
</event>
<event>
 7    1  0.4358868E-015  0.9000770E+02  0.7816164E-02  0.1186339E+00
        -11   -1    0    0    0    0  0.00000000000E+00  0.00000000000E+00  0.45593999997E+02  0.45594000000E+02  0.51100000000E-03 0. -1.
         11   -1    0    0    0    0 -0.00000000000E+00 -0.00000000000E+00 -0.45593999997E+02  0.45594000000E+02  0.51100000000E-03 0.  1.
    9900012    2    1    2    0    0 -0.29425707106E+00  0.10966026523E+01  0.32246262946E+00  0.90007700568E+02  0.89999961416E+02 0.  0.
         12    1    1    2    0    0  0.29425707106E+00 -0.10966026523E+01 -0.32246262946E+00  0.11802994316E+01  0.00000000000E+00 0. -1.
         11    1    3    3    0    0 -0.20974139862E+01  0.93078625326E+01 -0.79864892345E+00  0.95746170012E+01  0.51100000000E-03 0. -1.
        -11    1    3    3    0    0 -0.33410653948E+02 -0.70374933390E+01 -0.19787162748E+02  0.39463019647E+02  0.51100000000E-03 0.  1.
         12    1    3    3    0    0  0.35213810863E+02 -0.11737665413E+01  0.20908274301E+02  0.40970063921E+02  0.00000000000E+00 0. -1.
</event>
<event>
 7    1  0.4358868E-015  0.9000769E+02  0.7816164E-02  0.1186339E+00
        -11   -1    0    0    0    0  0.00000000000E+00  0.00000000000E+00  0.45593999997E+02  0.45594000000E+02  0.51100000000E-03 0. -1.
         11   -1    0    0    0    0 -0.00000000000E+00 -0.00000000000E+00 -0.45593999997E+02  0.45594000000E+02  0.51100000000E-03 0.  1.
    9900012    2    1    2    0    0  0.80162733009E-01 -0.10420803616E+01 -0.54843781421E+00  0.90007685813E+02  0.89999946466E+02 0.  0.
         12    1    1    2    0    0 -0.80162733009E-01  0.10420803616E+01  0.54843781421E+00  0.11803141869E+01  0.00000000000E+00 0. -1.
         11    1    3    3    0    0 -0.37887364553E+02  0.13714657437E+02  0.28878387813E+00  0.40294262839E+02  0.51100000000E-03 0. -1.
        -11    1    3    3    0    0  0.11556765731E+01 -0.21430604632E+01  0.92082875174E+01  0.95247496426E+01  0.51100000000E-03 0.  1.
        -12    1    3    3    0    0  0.36811850713E+02 -0.12613677335E+02 -0.10045509210E+02  0.40188673331E+02  0.00000000000E+00 0.  1.
</event>
<event>
 7    1  0.4358868E-015  0.9000758E+02  0.7816164E-02  0.1186339E+00
        -11   -1    0    0    0    0  0.00000000000E+00  0.00000000000E+00  0.45593999997E+02  0.45594000000E+02  0.51100000000E-03 0. -1.
         11   -1    0    0    0    0 -0.00000000000E+00 -0.00000000000E+00 -0.45593999997E+02  0.45594000000E+02  0.51100000000E-03 0.  1.
    9900012    2    1    2    0    0 -0.62840370248E+00  0.96733132666E+00 -0.25053818820E+00  0.90007580374E+02  0.89999839635E+02 0.  0.
         12    1    1    2    0    0  0.62840370248E+00 -0.96733132666E+00  0.25053818820E+00  0.11804196256E+01  0.00000000000E+00 0. -1.
         11    1    3    3    0    0 -0.37713533495E+01  0.47987518510E+01  0.69640698692E+01  0.92600969120E+01  0.51100000000E-03 0. -1.
        -11    1    3    3    0    0  0.11628684314E+02  0.24792189750E+02 -0.31876544248E+02  0.42023720027E+02  0.51100000000E-03 0.  1.
         12    1    3    3    0    0 -0.84857346671E+01 -0.28623610274E+02  0.24661936190E+02  0.38723763436E+02  0.00000000000E+00 0. -1.
</event>
<event>
 7    1  0.4358868E-015  0.9000766E+02  0.7816164E-02  0.1186339E+00
        -11   -1    0    0    0    0  0.00000000000E+00  0.00000000000E+00  0.45593999997E+02  0.45594000000E+02  0.51100000000E-03 0.  1.
         11   -1    0    0    0    0 -0.00000000000E+00 -0.00000000000E+00 -0.45593999997E+02  0.45594000000E+02  0.51100000000E-03 0. -1.
    9900012    2    1    2    0    0 -0.26912962991E+00 -0.65423248843E+00  0.94485880798E+00  0.90007657222E+02  0.89999917497E+02 0.  0.
         12    1    1    2    0    0  0.26912962991E+00  0.65423248843E+00 -0.94485880798E+00  0.11803427780E+01  0.00000000000E+00 0. -1.
         11    1    3    3    0    0 -0.15599940943E+00  0.50013403966E+01  0.80448549853E+01  0.94740399817E+01  0.51100000000E-03 0. -1.
        -11    1    3    3    0    0  0.18310015828E+01 -0.28904338860E+02  0.26748090587E+02  0.39424278333E+02  0.51100000000E-03 0.  1.
         12    1    3    3    0    0 -0.19441318033E+01  0.23248765975E+02 -0.33848086765E+02  0.41109338908E+02  0.00000000000E+00 0. -1.
</event>
<event>
 7    1  0.4358868E-015  0.9000757E+02  0.7816164E-02  0.1186339E+00
        -11   -1    0    0    0    0  0.00000000000E+00  0.00000000000E+00  0.45593999997E+02  0.45594000000E+02  0.51100000000E-03 0.  1.
         11   -1    0    0    0    0 -0.00000000000E+00 -0.00000000000E+00 -0.45593999997E+02  0.45594000000E+02  0.51100000000E-03 0. -1.
    9900012    2    1    2    0    0  0.25069473664E+00 -0.11460319678E+01 -0.13107055987E+00  0.90007569310E+02  0.89999828425E+02 0.  0.
         12    1    1    2    0    0 -0.25069473664E+00  0.11460319678E+01  0.13107055987E+00  0.11804306900E+01  0.00000000000E+00 0. -1.
         11    1    3    3    0    0 -0.50168450432E+01  0.44650857362E+01  0.62646606098E+01  0.91843180278E+01  0.51100000000E-03 0. -1.
        -11    1    3    3    0    0  0.28772576696E+02  0.15074627379E+02  0.21446421285E+02  0.38923701603E+02  0.51100000000E-03 0.  1.
         12    1    3    3    0    0 -0.23505036916E+02 -0.20685745082E+02 -0.27842152454E+02  0.41899549679E+02  0.00000000000E+00 0. -1.
</event>
<event>
 7    1  0.5451052E-015  0.9000775E+02  0.7816164E-02  0.1186339E+00
        -11   -1    0    0    0    0  0.00000000000E+00  0.00000000000E+00  0.45593999997E+02  0.45594000000E+02  0.51100000000E-03 0.  1.
         11   -1    0    0    0    0 -0.00000000000E+00 -0.00000000000E+00 -0.45593999997E+02  0.45594000000E+02  0.51100000000E-03 0. -1.
    9900012    2    1    2    0    0 -0.38267422070E+00 -0.21861771490E+00  0.10948785272E+01  0.90007749072E+02  0.90000010559E+02 0.  0.
         12    1    1    2    0    0  0.38267422070E+00  0.21861771490E+00 -0.10948785272E+01  0.11802509283E+01  0.00000000000E+00 0. -1.
         11    1    3    3    0    0  0.28152703300E+02 -0.29657190776E+01 -0.22523044851E+02  0.36175374806E+02  0.51100000000E-03 0. -1.
        -11    1    3    3    0    0  0.42828014108E+01 -0.59113130480E+01 -0.54783050263E+01  0.91267648210E+01  0.51100000000E-03 0.  1.
        -12    1    3    3    0    0 -0.32818178931E+02  0.86584144107E+01  0.29096228405E+02  0.44705609445E+02  0.00000000000E+00 0.  1.
</event>
<event>
 7    1  0.4358868E-015  0.9000776E+02  0.7816164E-02  0.1186339E+00
        -11   -1    0    0    0    0  0.00000000000E+00  0.00000000000E+00  0.45593999997E+02  0.45594000000E+02  0.51100000000E-03 0. -1.
         11   -1    0    0    0    0 -0.00000000000E+00 -0.00000000000E+00 -0.45593999997E+02  0.45594000000E+02  0.51100000000E-03 0.  1.
    9900012    2    1    2    0    0  0.28207017554E+00 -0.10654117269E+01  0.42225996762E+00  0.90007758833E+02  0.90000020450E+02 0.  0.
         12    1    1    2    0    0 -0.28207017554E+00  0.10654117269E+01 -0.42225996762E+00  0.11802411669E+01  0.00000000000E+00 0. -1.
         11    1    3    3    0    0 -0.12177040078E+02 -0.49054125696E+01  0.37371797192E+02  0.39610536517E+02  0.51100000000E-03 0. -1.
        -11    1    3    3    0    0  0.85576360572E+01  0.48939285085E+01  0.29526834027E+01  0.10290870258E+02  0.51100000000E-03 0.  1.
        -12    1    3    3    0    0  0.39014741960E+01 -0.10539276657E+01 -0.39902220627E+02  0.40106352058E+02  0.00000000000E+00 0.  1.
</event>
<event>
 7    1  0.1037979E-014  0.9000891E+02  0.7816164E-02  0.1186337E+00
        -11   -1    0    0    0    0  0.00000000000E+00  0.00000000000E+00  0.45593999997E+02  0.45594000000E+02  0.51100000000E-03 0. -1.
         11   -1    0    0    0    0 -0.00000000000E+00 -0.00000000000E+00 -0.45593999997E+02  0.45594000000E+02  0.51100000000E-03 0.  1.
    9900012    2    1    2    0    0 -0.58399814816E+00 -0.19457214978E+00 -0.10056559248E+01  0.90008908826E+02  0.90001185614E+02 0.  0.
         12    1    1    2    0    0  0.58399814816E+00  0.19457214978E+00  0.10056559248E+01  0.11790911744E+01  0.00000000000E+00 0. -1.
         11    1    3    3    0    0 -0.37116955464E+02  0.11542532342E+01  0.13757662040E+02  0.39601438718E+02  0.51100000000E-03 0. -1.
        -11    1    3    3    0    0 -0.23090654127E+01  0.74937444486E+01 -0.52952928670E+01  0.94619298110E+01  0.51100000000E-03 0.  1.
        -12    1    3    3    0    0  0.38842022729E+02 -0.88425698326E+01 -0.94680250975E+01  0.40945540296E+02  0.00000000000E+00 0.  1.
</event>
<event>
 7    1  0.4358868E-015  0.9000768E+02  0.7816164E-02  0.1186339E+00
        -11   -1    0    0    0    0  0.00000000000E+00  0.00000000000E+00  0.45593999997E+02  0.45594000000E+02  0.51100000000E-03 0. -1.
         11   -1    0    0    0    0 -0.00000000000E+00 -0.00000000000E+00 -0.45593999997E+02  0.45594000000E+02  0.51100000000E-03 0.  1.
    9900012    2    1    2    0    0 -0.40543765889E+00 -0.10937622779E+01  0.18017712002E+00  0.90007678260E+02  0.89999938813E+02 0.  0.
         12    1    1    2    0    0  0.40543765889E+00  0.10937622779E+01 -0.18017712002E+00  0.11803217402E+01  0.00000000000E+00 0. -1.
         11    1    3    3    0    0 -0.21156946037E+02 -0.58540447230E+01 -0.11097559911E+02  0.24597602351E+02  0.51100000000E-03 0. -1.
        -11    1    3    3    0    0 -0.21186232229E+02 -0.39583010547E+01  0.49085365440E+01  0.22104712496E+02  0.51100000000E-03 0.  1.
        -12    1    3    3    0    0  0.41937740606E+02  0.87185834997E+01  0.63692004866E+01  0.43305363412E+02  0.00000000000E+00 0.  1.
</event>
<event>
 7    1  0.4358868E-015  0.9000764E+02  0.7816164E-02  0.1186339E+00
        -11   -1    0    0    0    0  0.00000000000E+00  0.00000000000E+00  0.45593999997E+02  0.45594000000E+02  0.51100000000E-03 0.  1.
         11   -1    0    0    0    0 -0.00000000000E+00 -0.00000000000E+00 -0.45593999997E+02  0.45594000000E+02  0.51100000000E-03 0. -1.
    9900012    2    1    2    0    0 -0.46029988010E+00  0.93552515764E+00  0.55331318357E+00  0.90007644639E+02  0.89999904748E+02 0.  0.
         12    1    1    2    0    0  0.46029988010E+00 -0.93552515764E+00 -0.55331318357E+00  0.11803553615E+01  0.00000000000E+00 0. -1.
         11    1    3    3    0    0 -0.63736641845E+01 -0.29896397932E+02 -0.28179165084E+02  0.41575035172E+02  0.51100000000E-03 0. -1.
        -11    1    3    3    0    0  0.76016312964E+01 -0.49146582358E+00  0.58497151652E+01  0.96044523424E+01  0.51100000000E-03 0.  1.
        -12    1    3    3    0    0 -0.16882669920E+01  0.31323388914E+02  0.22882763102E+02  0.38828157124E+02  0.00000000000E+00 0.  1.
</event>
<event>
 7    1  0.4358868E-015  0.9000772E+02  0.7816164E-02  0.1186339E+00
        -11   -1    0    0    0    0  0.00000000000E+00  0.00000000000E+00  0.45593999997E+02  0.45594000000E+02  0.51100000000E-03 0.  1.
         11   -1    0    0    0    0 -0.00000000000E+00 -0.00000000000E+00 -0.45593999997E+02  0.45594000000E+02  0.51100000000E-03 0. -1.
    9900012    2    1    2    0    0 -0.67480784459E+00  0.96707119316E+00  0.49718693690E-01  0.90007718564E+02  0.89999979649E+02 0.  0.
         12    1    1    2    0    0  0.67480784459E+00 -0.96707119316E+00 -0.49718693690E-01  0.11802814360E+01  0.00000000000E+00 0. -1.
         11    1    3    3    0    0 -0.17922478432E+02 -0.21717726081E+02  0.26156311903E+02  0.38432115632E+02  0.51100000000E-03 0. -1.
        -11    1    3    3    0    0  0.16480130105E+00  0.14316497601E+02  0.49562092955E+01  0.15151015605E+02  0.51100000000E-03 0.  1.
        -12    1    3    3    0    0  0.17082869286E+02  0.83682996729E+01 -0.31062802505E+02  0.36424587327E+02  0.00000000000E+00 0.  1.
</event>
<event>
 7    1  0.4358868E-015  0.9000767E+02  0.7816164E-02  0.1186339E+00
        -11   -1    0    0    0    0  0.00000000000E+00  0.00000000000E+00  0.45593999997E+02  0.45594000000E+02  0.51100000000E-03 0.  1.
         11   -1    0    0    0    0 -0.00000000000E+00 -0.00000000000E+00 -0.45593999997E+02  0.45594000000E+02  0.51100000000E-03 0. -1.
    9900012    2    1    2    0    0 -0.33604032913E+00 -0.99885534723E+00  0.53154060144E+00  0.90007673554E+02  0.89999934045E+02 0.  0.
         12    1    1    2    0    0  0.33604032913E+00  0.99885534723E+00 -0.53154060144E+00  0.11803264457E+01  0.00000000000E+00 0. -1.
         11    1    3    3    0    0  0.31255837153E+02 -0.25037553502E+02  0.61298843089E+01  0.40513971952E+02  0.51100000000E-03 0. -1.
        -11    1    3    3    0    0 -0.49692088574E+01 -0.11232370048E+01  0.87719506419E+01  0.10144053251E+02  0.51100000000E-03 0.  1.
        -12    1    3    3    0    0 -0.26622668624E+02  0.25161935159E+02 -0.14370294349E+02  0.39349648351E+02  0.00000000000E+00 0.  1.
</event>
<event>
 7    1  0.4358868E-015  0.9000754E+02  0.7816164E-02  0.1186339E+00
        -11   -1    0    0    0    0  0.00000000000E+00  0.00000000000E+00  0.45593999997E+02  0.45594000000E+02  0.51100000000E-03 0.  1.
         11   -1    0    0    0    0 -0.00000000000E+00 -0.00000000000E+00 -0.45593999997E+02  0.45594000000E+02  0.51100000000E-03 0. -1.
    9900012    2    1    2    0    0 -0.20578223885E+00  0.42813612855E+00  0.10806626366E+01  0.90007543051E+02  0.89999801819E+02 0.  0.
         12    1    1    2    0    0  0.20578223885E+00 -0.42813612855E+00 -0.10806626366E+01  0.11804569491E+01  0.00000000000E+00 0. -1.
         11    1    3    3    0    0 -0.80713696385E+00 -0.79904852779E+01 -0.32123314460E+01  0.86497629236E+01  0.51100000000E-03 0. -1.
        -11    1    3    3    0    0 -0.24310284671E+02 -0.25861901282E+02 -0.95875680447E+01  0.36766143937E+02  0.51100000000E-03 0.  1.
         12    1    3    3    0    0  0.24911639396E+02  0.34280522688E+02  0.13880562127E+02  0.44591636191E+02  0.00000000000E+00 0. -1.
</event>
<event>
 7    1  0.4358868E-015  0.9000772E+02  0.7816164E-02  0.1186339E+00
        -11   -1    0    0    0    0  0.00000000000E+00  0.00000000000E+00  0.45593999997E+02  0.45594000000E+02  0.51100000000E-03 0. -1.
         11   -1    0    0    0    0 -0.00000000000E+00 -0.00000000000E+00 -0.45593999997E+02  0.45594000000E+02  0.51100000000E-03 0.  1.
    9900012    2    1    2    0    0  0.10049636943E+01  0.25455917509E+00  0.56419819655E+00  0.90007715286E+02  0.89999976328E+02 0.  0.
         12    1    1    2    0    0 -0.10049636943E+01 -0.25455917509E+00 -0.56419819655E+00  0.11802847137E+01  0.00000000000E+00 0. -1.
         11    1    3    3    0    0 -0.31452133070E+01 -0.52830603397E+01  0.73118878962E+01  0.95533658030E+01  0.51100000000E-03 0. -1.
        -11    1    3    3    0    0 -0.19351447851E+02  0.21404735891E+02 -0.31568499694E+02  0.42769281332E+02  0.51100000000E-03 0.  1.
         12    1    3    3    0    0  0.23501624852E+02 -0.15867116376E+02  0.24820809994E+02  0.37685068151E+02  0.00000000000E+00 0. -1.
</event>
<event>
 7    1  0.4358868E-015  0.9000800E+02  0.7816164E-02  0.1186339E+00
        -11   -1    0    0    0    0  0.00000000000E+00  0.00000000000E+00  0.45593999997E+02  0.45594000000E+02  0.51100000000E-03 0.  1.
         11   -1    0    0    0    0 -0.00000000000E+00 -0.00000000000E+00 -0.45593999997E+02  0.45594000000E+02  0.51100000000E-03 0. -1.
    9900012    2    1    2    0    0  0.11626195193E+01  0.54913194897E-01 -0.19416866455E+00  0.90007999544E+02  0.90000264338E+02 0.  0.
         12    1    1    2    0    0 -0.11626195193E+01 -0.54913194897E-01  0.19416866455E+00  0.11800004559E+01  0.00000000000E+00 0. -1.
         11    1    3    3    0    0 -0.65757857984E+01 -0.20689569633E+01 -0.51714742091E+01  0.86177542050E+01  0.51100000000E-03 0. -1.
        -11    1    3    3    0    0 -0.14327149048E+02  0.23497430850E+02  0.30767344397E+02  0.41279849054E+02  0.51100000000E-03 0.  1.
         12    1    3    3    0    0  0.22065554366E+02 -0.21373560692E+02 -0.25790038853E+02  0.40110396285E+02  0.00000000000E+00 0. -1.
</event>
<event>
 7    1  0.4358868E-015  0.9000759E+02  0.7816164E-02  0.1186339E+00
        -11   -1    0    0    0    0  0.00000000000E+00  0.00000000000E+00  0.45593999997E+02  0.45594000000E+02  0.51100000000E-03 0.  1.
         11   -1    0    0    0    0 -0.00000000000E+00 -0.00000000000E+00 -0.45593999997E+02  0.45594000000E+02  0.51100000000E-03 0. -1.
    9900012    2    1    2    0    0  0.48917654207E+00 -0.34499241023E+00  0.10173810149E+01  0.90007585843E+02  0.89999845176E+02 0.  0.
         12    1    1    2    0    0 -0.48917654207E+00  0.34499241023E+00 -0.10173810149E+01  0.11804141569E+01  0.00000000000E+00 0. -1.
         11    1    3    3    0    0 -0.14597829126E+02  0.24484938528E+02 -0.15491654424E+02  0.32443800440E+02  0.51100000000E-03 0. -1.
        -11    1    3    3    0    0  0.13208324336E+02  0.20559146944E+01 -0.12263080312E+02  0.18140279931E+02  0.51100000000E-03 0.  1.
        -12    1    3    3    0    0  0.18786813328E+01 -0.26885845633E+02  0.28772115750E+02  0.39423505472E+02  0.00000000000E+00 0.  1.
</event>
<event>
 7    1  0.4358868E-015  0.9000768E+02  0.7816164E-02  0.1186339E+00
        -11   -1    0    0    0    0  0.00000000000E+00  0.00000000000E+00  0.45593999997E+02  0.45594000000E+02  0.51100000000E-03 0.  1.
         11   -1    0    0    0    0 -0.00000000000E+00 -0.00000000000E+00 -0.45593999997E+02  0.45594000000E+02  0.51100000000E-03 0. -1.
    9900012    2    1    2    0    0  0.11309106632E+00 -0.71542722774E+00  0.93194705889E+00  0.90007681811E+02  0.89999942411E+02 0.  0.
         12    1    1    2    0    0 -0.11309106632E+00  0.71542722774E+00 -0.93194705889E+00  0.11803181893E+01  0.00000000000E+00 0. -1.
         11    1    3    3    0    0  0.37585420616E+01 -0.84371904758E+01  0.36644161407E+01  0.99368389072E+01  0.51100000000E-03 0. -1.
        -11    1    3    3    0    0 -0.14214501918E+02  0.20179959146E+02  0.32748562700E+02  0.41009159648E+02  0.51100000000E-03 0.  1.
         12    1    3    3    0    0  0.10569050923E+02 -0.12458195898E+02 -0.35481031782E+02  0.39061683255E+02  0.00000000000E+00 0. -1.
</event>
<event>
 7    1  0.4358868E-015  0.9000791E+02  0.7816164E-02  0.1186339E+00
        -11   -1    0    0    0    0  0.00000000000E+00  0.00000000000E+00  0.45593999997E+02  0.45594000000E+02  0.51100000000E-03 0. -1.
         11   -1    0    0    0    0 -0.00000000000E+00 -0.00000000000E+00 -0.45593999997E+02  0.45594000000E+02  0.51100000000E-03 0.  1.
    9900012    2    1    2    0    0 -0.70839743362E+00 -0.94168140775E+00  0.63370508067E-01  0.90007912453E+02  0.90000176097E+02 0.  0.
         12    1    1    2    0    0  0.70839743362E+00  0.94168140775E+00 -0.63370508067E-01  0.11800875472E+01  0.00000000000E+00 0. -1.
         11    1    3    3    0    0 -0.31396384903E+02 -0.21601524783E+01  0.17379373930E+02  0.35950547732E+02  0.51100000000E-03 0. -1.
        -11    1    3    3    0    0 -0.89694261081E+01  0.11257767689E+01  0.29665502595E+01  0.95141157626E+01  0.51100000000E-03 0.  1.
        -12    1    3    3    0    0  0.39657413578E+02  0.92694301612E-01 -0.20282553682E+02  0.44543248959E+02  0.00000000000E+00 0.  1.
</event>
<event>
 7    1  0.4358868E-015  0.9000767E+02  0.7816164E-02  0.1186339E+00
        -11   -1    0    0    0    0  0.00000000000E+00  0.00000000000E+00  0.45593999997E+02  0.45594000000E+02  0.51100000000E-03 0.  1.
         11   -1    0    0    0    0 -0.00000000000E+00 -0.00000000000E+00 -0.45593999997E+02  0.45594000000E+02  0.51100000000E-03 0. -1.
    9900012    2    1    2    0    0 -0.10717421868E+01  0.43754370794E+00 -0.23043682523E+00  0.90007670833E+02  0.89999931288E+02 0.  0.
         12    1    1    2    0    0  0.10717421868E+01 -0.43754370794E+00  0.23043682523E+00  0.11803291667E+01  0.00000000000E+00 0. -1.
         11    1    3    3    0    0  0.92798794173E+01  0.51500151290E+00  0.37204432904E+01  0.10011148141E+02  0.51100000000E-03 0. -1.
        -11    1    3    3    0    0  0.52086349935E+01 -0.84220126606E+01  0.35457059522E+02  0.36813900173E+02  0.51100000000E-03 0.  1.
         12    1    3    3    0    0 -0.15560256598E+02  0.83445548556E+01 -0.39407939638E+02  0.43182622519E+02  0.00000000000E+00 0. -1.
</event>
<event>
 7    1  0.4358868E-015  0.9000773E+02  0.7816164E-02  0.1186339E+00
        -11   -1    0    0    0    0  0.00000000000E+00  0.00000000000E+00  0.45593999997E+02  0.45594000000E+02  0.51100000000E-03 0.  1.
         11   -1    0    0    0    0 -0.00000000000E+00 -0.00000000000E+00 -0.45593999997E+02  0.45594000000E+02  0.51100000000E-03 0. -1.
    9900012    2    1    2    0    0  0.10403487928E+01  0.54927252056E+00  0.94948018895E-01  0.90007728405E+02  0.89999989620E+02 0.  0.
         12    1    1    2    0    0 -0.10403487928E+01 -0.54927252056E+00 -0.94948018895E-01  0.11802715954E+01  0.00000000000E+00 0. -1.
         11    1    3    3    0    0  0.12285399213E+01 -0.10030783249E+02 -0.20357197882E+01  0.10308737956E+02  0.51100000000E-03 0. -1.
        -11    1    3    3    0    0  0.10890432223E+02 -0.16028764515E+02  0.32494090806E+02  0.37833698517E+02  0.51100000000E-03 0.  1.
         12    1    3    3    0    0 -0.11078623351E+02  0.26608820285E+02 -0.30363422999E+02  0.41865291932E+02  0.00000000000E+00 0. -1.
</event>
<event>
 7    1  0.4358868E-015  0.9000779E+02  0.7816164E-02  0.1186339E+00
        -11   -1    0    0    0    0  0.00000000000E+00  0.00000000000E+00  0.45593999997E+02  0.45594000000E+02  0.51100000000E-03 0.  1.
         11   -1    0    0    0    0 -0.00000000000E+00 -0.00000000000E+00 -0.45593999997E+02  0.45594000000E+02  0.51100000000E-03 0. -1.
    9900012    2    1    2    0    0 -0.33571636202E-01 -0.49207767513E+00  0.10722069248E+01  0.90007790195E+02  0.90000052226E+02 0.  0.
         12    1    1    2    0    0  0.33571636202E-01  0.49207767513E+00 -0.10722069248E+01  0.11802098045E+01  0.00000000000E+00 0. -1.
         11    1    3    3    0    0  0.11677644206E+02 -0.19768463201E+02 -0.21605682930E+02  0.31527211210E+02  0.51100000000E-03 0. -1.
        -11    1    3    3    0    0  0.57284226392E+01 -0.84282171826E+01 -0.85018836906E+01  0.13271461764E+02  0.51100000000E-03 0.  1.
        -12    1    3    3    0    0 -0.17439638481E+02  0.27704602708E+02  0.31179773546E+02  0.45209117221E+02  0.00000000000E+00 0.  1.
</event>
<event>
 7    1  0.4358868E-015  0.9000783E+02  0.7816164E-02  0.1186339E+00
        -11   -1    0    0    0    0  0.00000000000E+00  0.00000000000E+00  0.45593999997E+02  0.45594000000E+02  0.51100000000E-03 0.  1.
         11   -1    0    0    0    0 -0.00000000000E+00 -0.00000000000E+00 -0.45593999997E+02  0.45594000000E+02  0.51100000000E-03 0. -1.
    9900012    2    1    2    0    0 -0.99096489101E+00  0.46919022826E+00  0.43664512400E+00  0.90007826348E+02  0.90000088855E+02 0.  0.
         12    1    1    2    0    0  0.99096489101E+00 -0.46919022826E+00 -0.43664512400E+00  0.11801736524E+01  0.00000000000E+00 0. -1.
         11    1    3    3    0    0  0.34844476243E+00 -0.39206736792E+02 -0.93394368506E+01  0.40305268943E+02  0.51100000000E-03 0. -1.
        -11    1    3    3    0    0  0.60916566694E+01  0.14687387530E+01 -0.50535576408E+01  0.80500881729E+01  0.51100000000E-03 0.  1.
        -12    1    3    3    0    0 -0.74310663228E+01  0.38207188267E+02  0.14829639615E+02  0.41652469232E+02  0.00000000000E+00 0.  1.
</event>
<event>
 7    1  0.4358868E-015  0.9000758E+02  0.7816164E-02  0.1186339E+00
        -11   -1    0    0    0    0  0.00000000000E+00  0.00000000000E+00  0.45593999997E+02  0.45594000000E+02  0.51100000000E-03 0. -1.
         11   -1    0    0    0    0 -0.00000000000E+00 -0.00000000000E+00 -0.45593999997E+02  0.45594000000E+02  0.51100000000E-03 0.  1.
    9900012    2    1    2    0    0 -0.96068660564E+00  0.57847175836E+00  0.36855310697E+00  0.90007584937E+02  0.89999844258E+02 0.  0.
         12    1    1    2    0    0  0.96068660564E+00 -0.57847175836E+00 -0.36855310697E+00  0.11804150635E+01  0.00000000000E+00 0. -1.
         11    1    3    3    0    0 -0.37288893338E+02 -0.43137841088E+01 -0.17847439774E+02  0.41564424770E+02  0.51100000000E-03 0. -1.
        -11    1    3    3    0    0  0.31520717475E+01 -0.84665489402E+01  0.24711700564E+01  0.93661458972E+01  0.51100000000E-03 0.  1.
        -12    1    3    3    0    0  0.33176134985E+02  0.13358804807E+02  0.15744822825E+02  0.39077014269E+02  0.00000000000E+00 0.  1.
</event>
<event>
 7    1  0.4358868E-015  0.9000776E+02  0.7816164E-02  0.1186339E+00
        -11   -1    0    0    0    0  0.00000000000E+00  0.00000000000E+00  0.45593999997E+02  0.45594000000E+02  0.51100000000E-03 0. -1.
         11   -1    0    0    0    0 -0.00000000000E+00 -0.00000000000E+00 -0.45593999997E+02  0.45594000000E+02  0.51100000000E-03 0.  1.
    9900012    2    1    2    0    0 -0.86921790207E+00  0.39107523748E-01 -0.79743694726E+00  0.90007756447E+02  0.90000018032E+02 0.  0.
         12    1    1    2    0    0  0.86921790207E+00 -0.39107523748E-01  0.79743694726E+00  0.11802435531E+01  0.00000000000E+00 0. -1.
         11    1    3    3    0    0 -0.10409203304E+02  0.37189467253E+01 -0.47502066181E+00  0.11063802378E+02  0.51100000000E-03 0. -1.
        -11    1    3    3    0    0 -0.25436352108E+02 -0.13223418250E+02 -0.22500342437E+02  0.36443548247E+02  0.51100000000E-03 0.  1.
         12    1    3    3    0    0  0.34976337510E+02  0.95435790486E+01  0.22177926151E+02  0.42500405822E+02  0.00000000000E+00 0. -1.
</event>
<event>
 7    1  0.4358868E-015  0.9000770E+02  0.7816164E-02  0.1186339E+00
        -11   -1    0    0    0    0  0.00000000000E+00  0.00000000000E+00  0.45593999997E+02  0.45594000000E+02  0.51100000000E-03 0.  1.
         11   -1    0    0    0    0 -0.00000000000E+00 -0.00000000000E+00 -0.45593999997E+02  0.45594000000E+02  0.51100000000E-03 0. -1.
    9900012    2    1    2    0    0  0.22942951780E+00  0.66626774107E+00  0.94686781562E+00  0.90007699502E+02  0.89999960335E+02 0.  0.
         12    1    1    2    0    0 -0.22942951780E+00 -0.66626774107E+00 -0.94686781562E+00  0.11803004985E+01  0.00000000000E+00 0. -1.
         11    1    3    3    0    0 -0.73204599883E+00  0.10695965226E+01 -0.91873497037E+01  0.92783254365E+01  0.51100000000E-03 0. -1.
        -11    1    3    3    0    0  0.27965034965E+01 -0.37787295986E+02 -0.86288743537E+01  0.38860746810E+02  0.51100000000E-03 0.  1.
         12    1    3    3    0    0 -0.18350279799E+01  0.37383967204E+02  0.18763091873E+02  0.41868627255E+02  0.00000000000E+00 0. -1.
</event>
<event>
 7    1  0.4358868E-015  0.9000879E+02  0.7816164E-02  0.1186337E+00
        -11   -1    0    0    0    0  0.00000000000E+00  0.00000000000E+00  0.45593999997E+02  0.45594000000E+02  0.51100000000E-03 0. -1.
         11   -1    0    0    0    0 -0.00000000000E+00 -0.00000000000E+00 -0.45593999997E+02  0.45594000000E+02  0.51100000000E-03 0.  1.
    9900012    2    1    2    0    0 -0.44037901836E+00  0.42657620547E+00 -0.10072897445E+01  0.90008791126E+02  0.90001066363E+02 0.  0.
         12    1    1    2    0    0  0.44037901836E+00 -0.42657620547E+00  0.10072897445E+01  0.11792088739E+01  0.00000000000E+00 0. -1.
         11    1    3    3    0    0 -0.97853077341E+01 -0.31620947032E+01  0.19527349357E+01  0.10467294987E+02  0.51100000000E-03 0. -1.
        -11    1    3    3    0    0 -0.16553450307E+02 -0.21463602022E+02  0.22659687990E+02  0.35329370061E+02  0.51100000000E-03 0.  1.
         12    1    3    3    0    0  0.25898379023E+02  0.25052272931E+02 -0.25619712670E+02  0.44212126078E+02  0.00000000000E+00 0. -1.
</event>
<event>
 7    1  0.4358868E-015  0.9000781E+02  0.7816164E-02  0.1186339E+00
        -11   -1    0    0    0    0  0.00000000000E+00  0.00000000000E+00  0.45593999997E+02  0.45594000000E+02  0.51100000000E-03 0. -1.
         11   -1    0    0    0    0 -0.00000000000E+00 -0.00000000000E+00 -0.45593999997E+02  0.45594000000E+02  0.51100000000E-03 0.  1.
    9900012    2    1    2    0    0  0.45486320836E+00  0.83834822276E+00 -0.69506634371E+00  0.90007811243E+02  0.90000073551E+02 0.  0.
         12    1    1    2    0    0 -0.45486320836E+00 -0.83834822276E+00  0.69506634371E+00  0.11801887574E+01  0.00000000000E+00 0. -1.
         11    1    3    3    0    0 -0.11267521007E+02  0.57738748161E+01 -0.38244640658E+01  0.13225777318E+02  0.51100000000E-03 0. -1.
        -11    1    3    3    0    0 -0.12957748872E+02 -0.21063679023E+02 -0.25615756885E+02  0.35605460689E+02  0.51100000000E-03 0.  1.
         12    1    3    3    0    0  0.24680133087E+02  0.16128152430E+02  0.28745154607E+02  0.41176573235E+02  0.00000000000E+00 0. -1.
</event>
<event>
 7    1  0.4358868E-015  0.9000779E+02  0.7816164E-02  0.1186339E+00
        -11   -1    0    0    0    0  0.00000000000E+00  0.00000000000E+00  0.45593999997E+02  0.45594000000E+02  0.51100000000E-03 0. -1.
         11   -1    0    0    0    0 -0.00000000000E+00 -0.00000000000E+00 -0.45593999997E+02  0.45594000000E+02  0.51100000000E-03 0.  1.
    9900012    2    1    2    0    0  0.27792794232E+00 -0.90279205085E+00 -0.70755131497E+00  0.90007785489E+02  0.90000047458E+02 0.  0.
         12    1    1    2    0    0 -0.27792794232E+00  0.90279205085E+00  0.70755131497E+00  0.11802145108E+01  0.00000000000E+00 0. -1.
         11    1    3    3    0    0 -0.70605381179E+01  0.11492204710E+02  0.12440334931E+02  0.18348948227E+02  0.51100000000E-03 0. -1.
        -11    1    3    3    0    0 -0.11254183170E+02  0.22992409142E+02  0.74887643329E+01  0.26671878607E+02  0.51100000000E-03 0.  1.
         12    1    3    3    0    0  0.18592649230E+02 -0.35387405902E+02 -0.20636650579E+02  0.44986958654E+02  0.00000000000E+00 0. -1.
</event>
<event>
 7    1  0.4358868E-015  0.9000779E+02  0.7816164E-02  0.1186339E+00
        -11   -1    0    0    0    0  0.00000000000E+00  0.00000000000E+00  0.45593999997E+02  0.45594000000E+02  0.51100000000E-03 0. -1.
         11   -1    0    0    0    0 -0.00000000000E+00 -0.00000000000E+00 -0.45593999997E+02  0.45594000000E+02  0.51100000000E-03 0.  1.
    9900012    2    1    2    0    0 -0.70540657506E+00  0.16926609076E+00 -0.93094026823E+00  0.90007788481E+02  0.90000050489E+02 0.  0.
         12    1    1    2    0    0  0.70540657506E+00 -0.16926609076E+00  0.93094026823E+00  0.11802115186E+01  0.00000000000E+00 0. -1.
         11    1    3    3    0    0 -0.52789053868E+01 -0.68874706681E+01  0.36008018585E+01  0.93952045519E+01  0.51100000000E-03 0. -1.
        -11    1    3    3    0    0 -0.21359300878E+02 -0.58553828556E+00 -0.34292956919E+02  0.40405067549E+02  0.51100000000E-03 0.  1.
         12    1    3    3    0    0  0.25932799690E+02  0.76422750444E+01  0.29761214793E+02  0.40207516381E+02  0.00000000000E+00 0. -1.
</event>
<event>
 7    1  0.4712074E-015  0.9000789E+02  0.7816164E-02  0.1186339E+00
        -11   -1    0    0    0    0  0.00000000000E+00  0.00000000000E+00  0.45593999997E+02  0.45594000000E+02  0.51100000000E-03 0.  1.
         11   -1    0    0    0    0 -0.00000000000E+00 -0.00000000000E+00 -0.45593999997E+02  0.45594000000E+02  0.51100000000E-03 0. -1.
    9900012    2    1    2    0    0  0.35488054501E+00  0.62308594452E+00 -0.93727393994E+00  0.90007890372E+02  0.90000153725E+02 0.  0.
         12    1    1    2    0    0 -0.35488054501E+00 -0.62308594452E+00  0.93727393994E+00  0.11801096279E+01  0.00000000000E+00 0. -1.
         11    1    3    3    0    0  0.34771145036E+02  0.15612510338E+02  0.24037746957E+01  0.38191113353E+02  0.51100000000E-03 0. -1.
        -11    1    3    3    0    0 -0.11222513887E+01  0.92382305516E+01  0.37523439706E+01  0.10034163515E+02  0.51100000000E-03 0.  1.
        -12    1    3    3    0    0 -0.33294013102E+02 -0.24227654945E+02 -0.70933926062E+01  0.41782613504E+02  0.00000000000E+00 0.  1.
</event>
<event>
 7    1  0.4358868E-015  0.9000769E+02  0.7816164E-02  0.1186339E+00
        -11   -1    0    0    0    0  0.00000000000E+00  0.00000000000E+00  0.45593999997E+02  0.45594000000E+02  0.51100000000E-03 0. -1.
         11   -1    0    0    0    0 -0.00000000000E+00 -0.00000000000E+00 -0.45593999997E+02  0.45594000000E+02  0.51100000000E-03 0.  1.
    9900012    2    1    2    0    0 -0.70244507838E+00 -0.94625321715E+00 -0.65710244660E-01  0.90007685603E+02  0.89999946253E+02 0.  0.
         12    1    1    2    0    0  0.70244507838E+00  0.94625321715E+00  0.65710244660E-01  0.11803143968E+01  0.00000000000E+00 0. -1.
         11    1    3    3    0    0  0.36329775900E+02  0.18655327405E+02 -0.22775679346E+01  0.40903070466E+02  0.51100000000E-03 0. -1.
        -11    1    3    3    0    0 -0.29093019326E+00 -0.60784389454E+01  0.74337894696E+01  0.96069394986E+01  0.51100000000E-03 0.  1.
        -12    1    3    3    0    0 -0.36741290785E+02 -0.13523141677E+02 -0.52219317797E+01  0.39497675639E+02  0.00000000000E+00 0.  1.
</event>
<event>
 7    1  0.4358868E-015  0.9000713E+02  0.7816164E-02  0.1186340E+00
        -11   -1    0    0    0    0  0.00000000000E+00  0.00000000000E+00  0.45593999997E+02  0.45594000000E+02  0.51100000000E-03 0. -1.
         11   -1    0    0    0    0 -0.00000000000E+00 -0.00000000000E+00 -0.45593999997E+02  0.45594000000E+02  0.51100000000E-03 0.  1.
    9900012    2    1    2    0    0  0.26410948694E+00 -0.11020744308E+01 -0.33187818022E+00  0.90007125325E+02  0.89999378577E+02 0.  0.
         12    1    1    2    0    0 -0.26410948694E+00  0.11020744308E+01  0.33187818022E+00  0.11808746752E+01  0.00000000000E+00 0. -1.
         11    1    3    3    0    0  0.49288071440E+01  0.29467824216E+00  0.77317664555E+01  0.91738861947E+01  0.51100000000E-03 0. -1.
        -11    1    3    3    0    0 -0.23663737131E+02 -0.34708170806E+02 -0.24840904105E+01  0.42080877856E+02  0.51100000000E-03 0.  1.
         12    1    3    3    0    0  0.18999039473E+02  0.33311418133E+02 -0.55795542252E+01  0.38752361274E+02  0.00000000000E+00 0. -1.
</event>
<event>
 7    1  0.4358868E-015  0.9000795E+02  0.7816164E-02  0.1186339E+00
        -11   -1    0    0    0    0  0.00000000000E+00  0.00000000000E+00  0.45593999997E+02  0.45594000000E+02  0.51100000000E-03 0.  1.
         11   -1    0    0    0    0 -0.00000000000E+00 -0.00000000000E+00 -0.45593999997E+02  0.45594000000E+02  0.51100000000E-03 0. -1.
    9900012    2    1    2    0    0 -0.30395344864E+00 -0.10955763616E+01  0.31599442783E+00  0.90007945873E+02  0.90000209959E+02 0.  0.
         12    1    1    2    0    0  0.30395344864E+00  0.10955763616E+01 -0.31599442783E+00  0.11800541265E+01  0.00000000000E+00 0. -1.
         11    1    3    3    0    0  0.24758144266E+01 -0.65376867801E+01  0.61183756154E+01  0.92900767457E+01  0.51100000000E-03 0. -1.
        -11    1    3    3    0    0  0.26840856415E+02 -0.90044897744E+01  0.23365845781E+02  0.36707971321E+02  0.51100000000E-03 0.  1.
         12    1    3    3    0    0 -0.29620624290E+02  0.14446600193E+02 -0.29168226968E+02  0.44009897807E+02  0.00000000000E+00 0. -1.
</event>
<event>
 7    1  0.4612274E-015  0.9000819E+02  0.7816164E-02  0.1186338E+00
        -11   -1    0    0    0    0  0.00000000000E+00  0.00000000000E+00  0.45593999997E+02  0.45594000000E+02  0.51100000000E-03 0. -1.
         11   -1    0    0    0    0 -0.00000000000E+00 -0.00000000000E+00 -0.45593999997E+02  0.45594000000E+02  0.51100000000E-03 0.  1.
    9900012    2    1    2    0    0 -0.65666355608E+00 -0.96492943167E+00 -0.17219572725E+00  0.90008191879E+02  0.90000459211E+02 0.  0.
         12    1    1    2    0    0  0.65666355608E+00  0.96492943167E+00  0.17219572725E+00  0.11798081210E+01  0.00000000000E+00 0. -1.
         11    1    3    3    0    0 -0.32615758677E+02 -0.19616983577E+02  0.10142426779E+02  0.39388863654E+02  0.51100000000E-03 0. -1.
        -11    1    3    3    0    0 -0.25730629614E+01 -0.25294725895E+01 -0.94323277808E+01  0.10098895594E+02  0.51100000000E-03 0.  1.
        -12    1    3    3    0    0  0.34532158082E+02  0.21181526735E+02 -0.88229472574E+00  0.40520432631E+02  0.00000000000E+00 0.  1.
</event>
<event>
 7    1  0.4358868E-015  0.9000766E+02  0.7816164E-02  0.1186339E+00
        -11   -1    0    0    0    0  0.00000000000E+00  0.00000000000E+00  0.45593999997E+02  0.45594000000E+02  0.51100000000E-03 0.  1.
         11   -1    0    0    0    0 -0.00000000000E+00 -0.00000000000E+00 -0.45593999997E+02  0.45594000000E+02  0.51100000000E-03 0. -1.
    9900012    2    1    2    0    0  0.88149934154E+00  0.55154056159E+00  0.55853113452E+00  0.90007663138E+02  0.89999923491E+02 0.  0.
         12    1    1    2    0    0 -0.88149934154E+00 -0.55154056159E+00 -0.55853113452E+00  0.11803368623E+01  0.00000000000E+00 0. -1.
         11    1    3    3    0    0  0.27290744256E+02  0.28585537407E+02  0.26544149738E+01  0.39610145039E+02  0.51100000000E-03 0. -1.
        -11    1    3    3    0    0 -0.39891142658E+01  0.61305662940E+01  0.50838296660E+01  0.89074238725E+01  0.51100000000E-03 0.  1.
        -12    1    3    3    0    0 -0.22420130649E+02 -0.34164563140E+02 -0.71797135053E+01  0.41490094226E+02  0.00000000000E+00 0.  1.
</event>
<event>
 7    1  0.4358868E-015  0.9000770E+02  0.7816164E-02  0.1186339E+00
        -11   -1    0    0    0    0  0.00000000000E+00  0.00000000000E+00  0.45593999997E+02  0.45594000000E+02  0.51100000000E-03 0. -1.
         11   -1    0    0    0    0 -0.00000000000E+00 -0.00000000000E+00 -0.45593999997E+02  0.45594000000E+02  0.51100000000E-03 0.  1.
    9900012    2    1    2    0    0 -0.46805000884E+00 -0.14955878621E+00 -0.10731630035E+01  0.90007696025E+02  0.89999956813E+02 0.  0.
         12    1    1    2    0    0  0.46805000884E+00  0.14955878621E+00  0.10731630035E+01  0.11803039750E+01  0.00000000000E+00 0. -1.
         11    1    3    3    0    0  0.47564867490E+01  0.36415201305E+01 -0.51743372327E+01  0.79157186100E+01  0.51100000000E-03 0. -1.
        -11    1    3    3    0    0 -0.65998342748E+01 -0.16142983457E+02 -0.36057747457E+02  0.40053899676E+02  0.51100000000E-03 0.  1.
         12    1    3    3    0    0  0.13752975170E+01  0.12351904540E+02  0.40158921686E+02  0.42038077739E+02  0.00000000000E+00 0. -1.
</event>
<event>
 7    1  0.4358868E-015  0.9000771E+02  0.7816164E-02  0.1186339E+00
        -11   -1    0    0    0    0  0.00000000000E+00  0.00000000000E+00  0.45593999997E+02  0.45594000000E+02  0.51100000000E-03 0. -1.
         11   -1    0    0    0    0 -0.00000000000E+00 -0.00000000000E+00 -0.45593999997E+02  0.45594000000E+02  0.51100000000E-03 0.  1.
    9900012    2    1    2    0    0 -0.12356063480E+00  0.26328091938E+00 -0.11438996399E+01  0.90007707469E+02  0.89999968407E+02 0.  0.
         12    1    1    2    0    0  0.12356063480E+00 -0.26328091938E+00  0.11438996399E+01  0.11802925312E+01  0.00000000000E+00 0. -1.
         11    1    3    3    0    0  0.56572552041E+01  0.91866323899E+01  0.83298684090E-01  0.10789146864E+02  0.51100000000E-03 0. -1.
        -11    1    3    3    0    0 -0.18290995823E+02  0.24929912461E+02 -0.21653495063E+02  0.37748310058E+02  0.51100000000E-03 0.  1.
         12    1    3    3    0    0  0.12510179985E+02 -0.33853263931E+02  0.20426296739E+02  0.41470250548E+02  0.00000000000E+00 0. -1.
</event>
<event>
 7    1  0.4358868E-015  0.9000762E+02  0.7816164E-02  0.1186339E+00
        -11   -1    0    0    0    0  0.00000000000E+00  0.00000000000E+00  0.45593999997E+02  0.45594000000E+02  0.51100000000E-03 0. -1.
         11   -1    0    0    0    0 -0.00000000000E+00 -0.00000000000E+00 -0.45593999997E+02  0.45594000000E+02  0.51100000000E-03 0.  1.
    9900012    2    1    2    0    0 -0.67998595385E+00  0.51729396114E+00 -0.81444915689E+00  0.90007618126E+02  0.89999877885E+02 0.  0.
         12    1    1    2    0    0  0.67998595385E+00 -0.51729396114E+00  0.81444915689E+00  0.11803818742E+01  0.00000000000E+00 0. -1.
         11    1    3    3    0    0  0.26754136668E+02 -0.19601121716E+01  0.25124414177E+02  0.36754075373E+02  0.51100000000E-03 0. -1.
        -11    1    3    3    0    0  0.18701247300E+01  0.10725184015E+02  0.29560238523E+01  0.11281179723E+02  0.51100000000E-03 0.  1.
        -12    1    3    3    0    0 -0.29304247352E+02 -0.82477778822E+01 -0.28894887186E+02  0.41972363030E+02  0.00000000000E+00 0.  1.
</event>
<event>
 7    1  0.4358868E-015  0.9000789E+02  0.7816164E-02  0.1186339E+00
        -11   -1    0    0    0    0  0.00000000000E+00  0.00000000000E+00  0.45593999997E+02  0.45594000000E+02  0.51100000000E-03 0.  1.
         11   -1    0    0    0    0 -0.00000000000E+00 -0.00000000000E+00 -0.45593999997E+02  0.45594000000E+02  0.51100000000E-03 0. -1.
    9900012    2    1    2    0    0 -0.90255081651E+00  0.73737613041E+00  0.18527915569E+00  0.90007894115E+02  0.90000157517E+02 0.  0.
         12    1    1    2    0    0  0.90255081651E+00 -0.73737613041E+00 -0.18527915569E+00  0.11801058849E+01  0.00000000000E+00 0. -1.
         11    1    3    3    0    0  0.63368346326E+01  0.31120877580E+01  0.39077879323E+01  0.80691616764E+01  0.51100000000E-03 0. -1.
        -11    1    3    3    0    0 -0.30383756017E+02 -0.10047854033E+02  0.27589323048E+02  0.42252843063E+02  0.51100000000E-03 0.  1.
         12    1    3    3    0    0  0.23144370568E+02  0.76731424058E+01 -0.31311831824E+02  0.39685889376E+02  0.00000000000E+00 0. -1.
</event>
<event>
 7    1  0.4358868E-015  0.9000793E+02  0.7816164E-02  0.1186339E+00
        -11   -1    0    0    0    0  0.00000000000E+00  0.00000000000E+00  0.45593999997E+02  0.45594000000E+02  0.51100000000E-03 0. -1.
         11   -1    0    0    0    0 -0.00000000000E+00 -0.00000000000E+00 -0.45593999997E+02  0.45594000000E+02  0.51100000000E-03 0.  1.
    9900012    2    1    2    0    0  0.11604751948E+01  0.19339590568E+00 -0.92012789183E-01  0.90007927541E+02  0.90000191385E+02 0.  0.
         12    1    1    2    0    0 -0.11604751948E+01 -0.19339590568E+00  0.92012789183E-01  0.11800724585E+01  0.00000000000E+00 0. -1.
         11    1    3    3    0    0  0.11609519754E+02  0.24460090589E+01 -0.15525324280E+01  0.11965544970E+02  0.51100000000E-03 0. -1.
        -11    1    3    3    0    0  0.30365355898E+02  0.63638461122E+01  0.14626453557E+02  0.34299949273E+02  0.51100000000E-03 0.  1.
         12    1    3    3    0    0 -0.40814400457E+02 -0.86164592655E+01 -0.13165933918E+02  0.43742433299E+02  0.00000000000E+00 0. -1.
</event>
<event>
 7    1  0.4358868E-015  0.9000775E+02  0.7816164E-02  0.1186339E+00
        -11   -1    0    0    0    0  0.00000000000E+00  0.00000000000E+00  0.45593999997E+02  0.45594000000E+02  0.51100000000E-03 0.  1.
         11   -1    0    0    0    0 -0.00000000000E+00 -0.00000000000E+00 -0.45593999997E+02  0.45594000000E+02  0.51100000000E-03 0. -1.
    9900012    2    1    2    0    0 -0.17495423304E+00  0.65205594379E+00  0.96809303049E+00  0.90007750004E+02  0.90000011504E+02 0.  0.
         12    1    1    2    0    0  0.17495423304E+00 -0.65205594379E+00 -0.96809303049E+00  0.11802499961E+01  0.00000000000E+00 0. -1.
         11    1    3    3    0    0 -0.82271051211E+01  0.34196328089E+01  0.49349021826E+01  0.10184910752E+02  0.51100000000E-03 0. -1.
        -11    1    3    3    0    0  0.58027876100E+01 -0.41008001828E+02 -0.22762915154E+01  0.41479031585E+02  0.51100000000E-03 0.  1.
         12    1    3    3    0    0  0.22493632780E+01  0.38240424962E+02 -0.16905176367E+01  0.38343807666E+02  0.00000000000E+00 0. -1.
</event>
<event>
 7    1  0.4482865E-015  0.9000772E+02  0.7816164E-02  0.1186339E+00
        -11   -1    0    0    0    0  0.00000000000E+00  0.00000000000E+00  0.45593999997E+02  0.45594000000E+02  0.51100000000E-03 0. -1.
         11   -1    0    0    0    0 -0.00000000000E+00 -0.00000000000E+00 -0.45593999997E+02  0.45594000000E+02  0.51100000000E-03 0.  1.
    9900012    2    1    2    0    0 -0.67310968187E+00 -0.84561257844E+00  0.47426096535E+00  0.90007720059E+02  0.89999981163E+02 0.  0.
         12    1    1    2    0    0  0.67310968187E+00  0.84561257844E+00 -0.47426096535E+00  0.11802799413E+01  0.00000000000E+00 0. -1.
         11    1    3    3    0    0  0.15821344103E+02 -0.99623911655E+01 -0.36454445790E+02  0.40969388390E+02  0.51100000000E-03 0. -1.
        -11    1    3    3    0    0 -0.83750835487E+01  0.40900010690E+01 -0.15004728942E+01  0.94404211961E+01  0.51100000000E-03 0.  1.
        -12    1    3    3    0    0 -0.81193702367E+01  0.50267775180E+01  0.38429179649E+02  0.39597910472E+02  0.00000000000E+00 0.  1.
</event>
<event>
 7    1  0.4358868E-015  0.9000773E+02  0.7816164E-02  0.1186339E+00
        -11   -1    0    0    0    0  0.00000000000E+00  0.00000000000E+00  0.45593999997E+02  0.45594000000E+02  0.51100000000E-03 0.  1.
         11   -1    0    0    0    0 -0.00000000000E+00 -0.00000000000E+00 -0.45593999997E+02  0.45594000000E+02  0.51100000000E-03 0. -1.
    9900012    2    1    2    0    0 -0.78756886311E+00 -0.66647258096E+00  0.57322249380E+00  0.90007731199E+02  0.89999992451E+02 0.  0.
         12    1    1    2    0    0  0.78756886311E+00  0.66647258096E+00 -0.57322249380E+00  0.11802688010E+01  0.00000000000E+00 0. -1.
         11    1    3    3    0    0 -0.26935145602E+02  0.23247740188E+01  0.27335033382E+02  0.38446205185E+02  0.51100000000E-03 0. -1.
        -11    1    3    3    0    0 -0.56288130477E+01 -0.86505580708E+01 -0.12022259970E+01  0.10390430158E+02  0.51100000000E-03 0.  1.
        -12    1    3    3    0    0  0.31776389786E+02  0.56593114710E+01 -0.25559584891E+02  0.41171095856E+02  0.00000000000E+00 0.  1.
</event>
<event>
 7    1  0.4358868E-015  0.9000768E+02  0.7816164E-02  0.1186339E+00
        -11   -1    0    0    0    0  0.00000000000E+00  0.00000000000E+00  0.45593999997E+02  0.45594000000E+02  0.51100000000E-03 0. -1.
         11   -1    0    0    0    0 -0.00000000000E+00 -0.00000000000E+00 -0.45593999997E+02  0.45594000000E+02  0.51100000000E-03 0.  1.
    9900012    2    1    2    0    0 -0.62328125991E+00  0.94666737206E+00  0.32939448158E+00  0.90007678278E+02  0.89999938832E+02 0.  0.
         12    1    1    2    0    0  0.62328125991E+00 -0.94666737206E+00 -0.32939448158E+00  0.11803217217E+01  0.00000000000E+00 0. -1.
         11    1    3    3    0    0 -0.78092111333E+01  0.51152800817E+01  0.36256283440E+01  0.10014741634E+02  0.51100000000E-03 0. -1.
        -11    1    3    3    0    0  0.22205435552E+02 -0.31415036480E+02  0.17814270187E+02  0.42394977387E+02  0.51100000000E-03 0.  1.
         12    1    3    3    0    0 -0.15019505679E+02  0.27246423770E+02 -0.21110504050E+02  0.37597959258E+02  0.00000000000E+00 0. -1.
</event>
<event>
 7    1  0.4358868E-015  0.9000782E+02  0.7816164E-02  0.1186339E+00
        -11   -1    0    0    0    0  0.00000000000E+00  0.00000000000E+00  0.45593999997E+02  0.45594000000E+02  0.51100000000E-03 0.  1.
         11   -1    0    0    0    0 -0.00000000000E+00 -0.00000000000E+00 -0.45593999997E+02  0.45594000000E+02  0.51100000000E-03 0. -1.
    9900012    2    1    2    0    0 -0.52246937236E+00  0.10494479666E+01  0.13602063424E+00  0.90007823364E+02  0.90000085832E+02 0.  0.
         12    1    1    2    0    0  0.52246937236E+00 -0.10494479666E+01 -0.13602063424E+00  0.11801766361E+01  0.00000000000E+00 0. -1.
         11    1    3    3    0    0  0.94343372831E+01  0.35737642688E+02 -0.12241959980E+01  0.36982218443E+02  0.51100000000E-03 0. -1.
        -11    1    3    3    0    0 -0.26184074070E+01  0.44416462471E+01 -0.10319351831E+02  0.11535740167E+02  0.51100000000E-03 0.  1.
        -12    1    3    3    0    0 -0.73383992484E+01 -0.39129840969E+02  0.11679568463E+02  0.41489864753E+02  0.00000000000E+00 0.  1.
</event>
<event>
 7    1  0.4358868E-015  0.9000780E+02  0.7816164E-02  0.1186339E+00
        -11   -1    0    0    0    0  0.00000000000E+00  0.00000000000E+00  0.45593999997E+02  0.45594000000E+02  0.51100000000E-03 0. -1.
         11   -1    0    0    0    0 -0.00000000000E+00 -0.00000000000E+00 -0.45593999997E+02  0.45594000000E+02  0.51100000000E-03 0.  1.
    9900012    2    1    2    0    0 -0.18853841810E+00  0.25571777033E+00 -0.11366348562E+01  0.90007797852E+02  0.90000059984E+02 0.  0.
         12    1    1    2    0    0  0.18853841810E+00 -0.25571777033E+00  0.11366348562E+01  0.11802021477E+01  0.00000000000E+00 0. -1.
         11    1    3    3    0    0  0.81462675179E+01  0.15538700598E+01  0.40694627789E+01  0.92377873003E+01  0.51100000000E-03 0. -1.
        -11    1    3    3    0    0  0.13599543332E+02 -0.33823661322E+02 -0.16399267614E+02  0.39974036856E+02  0.51100000000E-03 0.  1.
         12    1    3    3    0    0 -0.21934349268E+02  0.32525509033E+02  0.11193169978E+02  0.40795973696E+02  0.00000000000E+00 0. -1.
</event>
<event>
 7    1  0.4358868E-015  0.9000782E+02  0.7816164E-02  0.1186339E+00
        -11   -1    0    0    0    0  0.00000000000E+00  0.00000000000E+00  0.45593999997E+02  0.45594000000E+02  0.51100000000E-03 0. -1.
         11   -1    0    0    0    0 -0.00000000000E+00 -0.00000000000E+00 -0.45593999997E+02  0.45594000000E+02  0.51100000000E-03 0.  1.
    9900012    2    1    2    0    0  0.21712888572E+00 -0.10182872652E+01  0.55568206488E+00  0.90007815072E+02  0.90000077431E+02 0.  0.
         12    1    1    2    0    0 -0.21712888572E+00  0.10182872652E+01 -0.55568206488E+00  0.11801849282E+01  0.00000000000E+00 0. -1.
         11    1    3    3    0    0 -0.20911621551E+02  0.11259359329E+02 -0.13030445220E+02  0.27089879869E+02  0.51100000000E-03 0. -1.
        -11    1    3    3    0    0  0.25712067384E+02  0.10013785655E+02 -0.10736755799E+02  0.29608516303E+02  0.51100000000E-03 0.  1.
        -12    1    3    3    0    0 -0.45833169474E+01 -0.22291432249E+02  0.24322883085E+02  0.33309418901E+02  0.00000000000E+00 0.  1.
</event>
<event>
 7    1  0.4358868E-015  0.9000774E+02  0.7816164E-02  0.1186339E+00
        -11   -1    0    0    0    0  0.00000000000E+00  0.00000000000E+00  0.45593999997E+02  0.45594000000E+02  0.51100000000E-03 0.  1.
         11   -1    0    0    0    0 -0.00000000000E+00 -0.00000000000E+00 -0.45593999997E+02  0.45594000000E+02  0.51100000000E-03 0. -1.
    9900012    2    1    2    0    0  0.34303738697E+00  0.10268176728E+01  0.47009582106E+00  0.90007737630E+02  0.89999998966E+02 0.  0.
         12    1    1    2    0    0 -0.34303738697E+00 -0.10268176728E+01 -0.47009582106E+00  0.11802623704E+01  0.00000000000E+00 0. -1.
         11    1    3    3    0    0 -0.12105565095E+01 -0.25686652450E+02 -0.11066591365E+02  0.27995339002E+02  0.51100000000E-03 0. -1.
        -11    1    3    3    0    0  0.71776930832E+01 -0.16163510853E+02  0.33289063501E+01  0.17996110103E+02  0.51100000000E-03 0.  1.
        -12    1    3    3    0    0 -0.56240991867E+01  0.42876980975E+02  0.82077808360E+01  0.44016288525E+02  0.00000000000E+00 0.  1.
</event>
<event>
 7    1  0.4358868E-015  0.9000772E+02  0.7816164E-02  0.1186339E+00
        -11   -1    0    0    0    0  0.00000000000E+00  0.00000000000E+00  0.45593999997E+02  0.45594000000E+02  0.51100000000E-03 0.  1.
         11   -1    0    0    0    0 -0.00000000000E+00 -0.00000000000E+00 -0.45593999997E+02  0.45594000000E+02  0.51100000000E-03 0. -1.
    9900012    2    1    2    0    0 -0.47204096396E+00 -0.10531541808E+01 -0.24718189589E+00  0.90007722367E+02  0.89999983503E+02 0.  0.
         12    1    1    2    0    0  0.47204096396E+00  0.10531541808E+01  0.24718189589E+00  0.11802776325E+01  0.00000000000E+00 0. -1.
         11    1    3    3    0    0 -0.20854765614E+01 -0.13840978020E+02 -0.37294166936E+02  0.39834366730E+02  0.51100000000E-03 0. -1.
        -11    1    3    3    0    0 -0.92922576534E+01 -0.30288749257E+00 -0.10820766614E+00  0.92978224489E+01  0.51100000000E-03 0.  1.
        -12    1    3    3    0    0  0.10905693251E+02  0.13090711332E+02  0.37155192706E+02  0.40875533189E+02  0.00000000000E+00 0.  1.
</event>
<event>
 7    1  0.4358868E-015  0.9000828E+02  0.7816164E-02  0.1186338E+00
        -11   -1    0    0    0    0  0.00000000000E+00  0.00000000000E+00  0.45593999997E+02  0.45594000000E+02  0.51100000000E-03 0.  1.
         11   -1    0    0    0    0 -0.00000000000E+00 -0.00000000000E+00 -0.45593999997E+02  0.45594000000E+02  0.51100000000E-03 0. -1.
    9900012    2    1    2    0    0 -0.61337271394E+00 -0.22747966903E+00  0.98171095269E+00  0.90008284153E+02  0.90000552702E+02 0.  0.
         12    1    1    2    0    0  0.61337271394E+00  0.22747966903E+00 -0.98171095269E+00  0.11797158474E+01  0.00000000000E+00 0. -1.
         11    1    3    3    0    0 -0.38747894110E+01  0.53948171511E+01  0.57421133489E+01  0.87800860500E+01  0.51100000000E-03 0. -1.
        -11    1    3    3    0    0 -0.53220969760E+01 -0.10719837852E+02  0.36689933159E+02  0.38592626696E+02  0.51100000000E-03 0.  1.
         12    1    3    3    0    0  0.85835136731E+01  0.50975410320E+01 -0.41450335555E+02  0.42635571407E+02  0.00000000000E+00 0. -1.
</event>
<event>
 7    1  0.4358868E-015  0.9000740E+02  0.7816164E-02  0.1186340E+00
        -11   -1    0    0    0    0  0.00000000000E+00  0.00000000000E+00  0.45593999997E+02  0.45594000000E+02  0.51100000000E-03 0.  1.
         11   -1    0    0    0    0 -0.00000000000E+00 -0.00000000000E+00 -0.45593999997E+02  0.45594000000E+02  0.51100000000E-03 0. -1.
    9900012    2    1    2    0    0 -0.97638649794E+00  0.65007320596E+00 -0.13376873061E+00  0.90007398526E+02  0.89999655386E+02 0.  0.
         12    1    1    2    0    0  0.97638649794E+00 -0.65007320596E+00  0.13376873061E+00  0.11806014737E+01  0.00000000000E+00 0. -1.
         11    1    3    3    0    0  0.77581693043E+01 -0.28140962631E+02  0.27010721784E+02  0.39770366610E+02  0.51100000000E-03 0. -1.
        -11    1    3    3    0    0  0.84390582209E+01  0.24189741398E+01 -0.15858621497E+00  0.87803353805E+01  0.51100000000E-03 0.  1.
        -12    1    3    3    0    0 -0.17173614023E+02  0.26372061697E+02 -0.26985904300E+02  0.41456696536E+02  0.00000000000E+00 0.  1.
</event>
<event>
 7    1  0.4358868E-015  0.9000772E+02  0.7816164E-02  0.1186339E+00
        -11   -1    0    0    0    0  0.00000000000E+00  0.00000000000E+00  0.45593999997E+02  0.45594000000E+02  0.51100000000E-03 0.  1.
         11   -1    0    0    0    0 -0.00000000000E+00 -0.00000000000E+00 -0.45593999997E+02  0.45594000000E+02  0.51100000000E-03 0. -1.
    9900012    2    1    2    0    0 -0.48420798342E+00 -0.78081787074E+00  0.74089684106E+00  0.90007719505E+02  0.89999980602E+02 0.  0.
         12    1    1    2    0    0  0.48420798342E+00  0.78081787074E+00 -0.74089684106E+00  0.11802804953E+01  0.00000000000E+00 0. -1.
         11    1    3    3    0    0 -0.37718920234E+01 -0.27501280194E+01 -0.78700139538E+01  0.91502728623E+01  0.51100000000E-03 0. -1.
        -11    1    3    3    0    0  0.18269481491E+01 -0.32403379083E+02 -0.18227927553E+02  0.37223299943E+02  0.51100000000E-03 0.  1.
         12    1    3    3    0    0  0.14607358909E+01  0.34372689231E+02  0.26838838347E+02  0.43634146699E+02  0.00000000000E+00 0. -1.
</event>
<event>
 7    1  0.4358868E-015  0.9000780E+02  0.7816164E-02  0.1186339E+00
        -11   -1    0    0    0    0  0.00000000000E+00  0.00000000000E+00  0.45593999997E+02  0.45594000000E+02  0.51100000000E-03 0. -1.
         11   -1    0    0    0    0 -0.00000000000E+00 -0.00000000000E+00 -0.45593999997E+02  0.45594000000E+02  0.51100000000E-03 0.  1.
    9900012    2    1    2    0    0  0.22758834783E+00  0.11101013213E+01 -0.32977735521E+00  0.90007798956E+02  0.90000061102E+02 0.  0.
         12    1    1    2    0    0 -0.22758834783E+00 -0.11101013213E+01  0.32977735521E+00  0.11802010437E+01  0.00000000000E+00 0. -1.
         11    1    3    3    0    0 -0.17612795993E+02 -0.25101729599E+02 -0.18708155195E+02  0.35920780652E+02  0.51100000000E-03 0. -1.
        -11    1    3    3    0    0 -0.24977736431E+01 -0.24928909433E+01 -0.88977301971E+01  0.95719894144E+01  0.51100000000E-03 0.  1.
        -12    1    3    3    0    0  0.20338157984E+02  0.28704721864E+02  0.27276108036E+02  0.44515028890E+02  0.00000000000E+00 0.  1.
</event>
<event>
 7    1  0.4358868E-015  0.9000742E+02  0.7816164E-02  0.1186340E+00
        -11   -1    0    0    0    0  0.00000000000E+00  0.00000000000E+00  0.45593999997E+02  0.45594000000E+02  0.51100000000E-03 0.  1.
         11   -1    0    0    0    0 -0.00000000000E+00 -0.00000000000E+00 -0.45593999997E+02  0.45594000000E+02  0.51100000000E-03 0. -1.
    9900012    2    1    2    0    0 -0.38137336348E+00  0.35533189230E+00  0.10592797360E+01  0.90007415418E+02  0.89999672501E+02 0.  0.
         12    1    1    2    0    0  0.38137336348E+00 -0.35533189230E+00 -0.10592797360E+01  0.11805845820E+01  0.00000000000E+00 0. -1.
         11    1    3    3    0    0  0.66665516069E+01  0.30499685833E+02 -0.55598558110E+01  0.31710971968E+02  0.51100000000E-03 0. -1.
        -11    1    3    3    0    0  0.16028575402E+02  0.32151716391E+01 -0.29691248024E+01  0.16615301997E+02  0.51100000000E-03 0.  1.
        -12    1    3    3    0    0 -0.23076500372E+02 -0.33359525580E+02  0.95882603494E+01  0.41681141454E+02  0.00000000000E+00 0.  1.
</event>
<event>
 7    1  0.4358868E-015  0.9000773E+02  0.7816164E-02  0.1186339E+00
        -11   -1    0    0    0    0  0.00000000000E+00  0.00000000000E+00  0.45593999997E+02  0.45594000000E+02  0.51100000000E-03 0.  1.
         11   -1    0    0    0    0 -0.00000000000E+00 -0.00000000000E+00 -0.45593999997E+02  0.45594000000E+02  0.51100000000E-03 0. -1.
    9900012    2    1    2    0    0  0.75012616493E+00 -0.51808147088E+00  0.74963230176E+00  0.90007726192E+02  0.89999987378E+02 0.  0.
         12    1    1    2    0    0 -0.75012616493E+00  0.51808147088E+00 -0.74963230176E+00  0.11802738079E+01  0.00000000000E+00 0. -1.
         11    1    3    3    0    0 -0.32517393837E+01  0.72429758354E+01  0.24075838019E+01  0.82964430931E+01  0.51100000000E-03 0. -1.
        -11    1    3    3    0    0 -0.50138674152E+01  0.18229543720E+01  0.38801201016E+02  0.39166251156E+02  0.51100000000E-03 0.  1.
         12    1    3    3    0    0  0.90157329638E+01 -0.95840116784E+01 -0.40459152516E+02  0.42545031943E+02  0.00000000000E+00 0. -1.
</event>
<event>
 7    1  0.4358868E-015  0.9000782E+02  0.7816164E-02  0.1186339E+00
        -11   -1    0    0    0    0  0.00000000000E+00  0.00000000000E+00  0.45593999997E+02  0.45594000000E+02  0.51100000000E-03 0.  1.
         11   -1    0    0    0    0 -0.00000000000E+00 -0.00000000000E+00 -0.45593999997E+02  0.45594000000E+02  0.51100000000E-03 0. -1.
    9900012    2    1    2    0    0 -0.97362176092E+00 -0.66262617641E+00  0.76178167216E-01  0.90007823786E+02  0.90000086260E+02 0.  0.
         12    1    1    2    0    0  0.97362176092E+00  0.66262617641E+00 -0.76178167216E-01  0.11801762140E+01  0.00000000000E+00 0. -1.
         11    1    3    3    0    0  0.33632300976E+02  0.35211429993E+01 -0.12471397287E+02  0.36042556340E+02  0.51100000000E-03 0. -1.
        -11    1    3    3    0    0  0.51444348706E+01 -0.18115970622E+01 -0.75864807216E+01  0.93435423718E+01  0.51100000000E-03 0.  1.
        -12    1    3    3    0    0 -0.39750357608E+02 -0.23721721136E+01  0.20134056176E+02  0.44621725074E+02  0.00000000000E+00 0.  1.
</event>
<event>
 7    1  0.4358868E-015  0.9000779E+02  0.7816164E-02  0.1186339E+00
        -11   -1    0    0    0    0  0.00000000000E+00  0.00000000000E+00  0.45593999997E+02  0.45594000000E+02  0.51100000000E-03 0.  1.
         11   -1    0    0    0    0 -0.00000000000E+00 -0.00000000000E+00 -0.45593999997E+02  0.45594000000E+02  0.51100000000E-03 0. -1.
    9900012    2    1    2    0    0  0.65473274328E+00  0.69308438925E+00 -0.69560011499E+00  0.90007787962E+02  0.90000049963E+02 0.  0.
         12    1    1    2    0    0 -0.65473274328E+00 -0.69308438925E+00  0.69560011499E+00  0.11802120385E+01  0.00000000000E+00 0. -1.
         11    1    3    3    0    0 -0.13407053947E+02  0.29070154562E+02 -0.18718600086E+02  0.37083810096E+02  0.51100000000E-03 0. -1.
        -11    1    3    3    0    0 -0.85137161836E+01  0.42045311731E+01  0.29033983207E+00  0.94997759510E+01  0.51100000000E-03 0.  1.
        -12    1    3    3    0    0  0.22575502874E+02 -0.32581601346E+02  0.17732660139E+02  0.43424201914E+02  0.00000000000E+00 0.  1.
</event>
<event>
 7    1  0.4358868E-015  0.9000757E+02  0.7816164E-02  0.1186339E+00
        -11   -1    0    0    0    0  0.00000000000E+00  0.00000000000E+00  0.45593999997E+02  0.45594000000E+02  0.51100000000E-03 0.  1.
         11   -1    0    0    0    0 -0.00000000000E+00 -0.00000000000E+00 -0.45593999997E+02  0.45594000000E+02  0.51100000000E-03 0. -1.
    9900012    2    1    2    0    0  0.56807204541E+00 -0.28797768246E+00  0.99387578177E+00  0.90007565307E+02  0.89999824369E+02 0.  0.
         12    1    1    2    0    0 -0.56807204541E+00  0.28797768246E+00 -0.99387578177E+00  0.11804346928E+01  0.00000000000E+00 0. -1.
         11    1    3    3    0    0 -0.14408816122E+02 -0.14052752139E+01 -0.14158100239E+01  0.14546246895E+02  0.51100000000E-03 0. -1.
        -11    1    3    3    0    0  0.87540509990E+01  0.29231036246E+02 -0.22077320640E+02  0.37662912472E+02  0.51100000000E-03 0.  1.
         12    1    3    3    0    0  0.62228371680E+01 -0.28113738715E+02  0.24487006446E+02  0.37798405940E+02  0.00000000000E+00 0. -1.
</event>
<event>
 7    1  0.4358868E-015  0.9000775E+02  0.7816164E-02  0.1186339E+00
        -11   -1    0    0    0    0  0.00000000000E+00  0.00000000000E+00  0.45593999997E+02  0.45594000000E+02  0.51100000000E-03 0.  1.
         11   -1    0    0    0    0 -0.00000000000E+00 -0.00000000000E+00 -0.45593999997E+02  0.45594000000E+02  0.51100000000E-03 0. -1.
    9900012    2    1    2    0    0 -0.58435029715E+00 -0.53198538007E+00  0.87665559774E+00  0.90007746319E+02  0.90000007770E+02 0.  0.
         12    1    1    2    0    0  0.58435029715E+00  0.53198538007E+00 -0.87665559774E+00  0.11802536810E+01  0.00000000000E+00 0. -1.
         11    1    3    3    0    0  0.40649482844E+01  0.32235564853E+01 -0.57795085285E+01  0.77664560811E+01  0.51100000000E-03 0. -1.
        -11    1    3    3    0    0  0.34587082896E+02 -0.19337653498E+02  0.55221641111E+01  0.40008817063E+02  0.51100000000E-03 0.  1.
         12    1    3    3    0    0 -0.39236381478E+02  0.15582111633E+02  0.11340000151E+01  0.42232473175E+02  0.00000000000E+00 0. -1.
</event>
<event>
 7    1  0.4358868E-015  0.9000773E+02  0.7816164E-02  0.1186339E+00
        -11   -1    0    0    0    0  0.00000000000E+00  0.00000000000E+00  0.45593999997E+02  0.45594000000E+02  0.51100000000E-03 0.  1.
         11   -1    0    0    0    0 -0.00000000000E+00 -0.00000000000E+00 -0.45593999997E+02  0.45594000000E+02  0.51100000000E-03 0. -1.
    9900012    2    1    2    0    0 -0.39608967706E+00 -0.65418113826E+00  0.89900383689E+00  0.90007725501E+02  0.89999986678E+02 0.  0.
         12    1    1    2    0    0  0.39608967706E+00  0.65418113826E+00 -0.89900383689E+00  0.11802744989E+01  0.00000000000E+00 0. -1.
         11    1    3    3    0    0  0.32980262177E+02 -0.53400717172E+01  0.18874316786E+02  0.38372566941E+02  0.51100000000E-03 0. -1.
        -11    1    3    3    0    0 -0.16179777783E+01 -0.11417296641E+01  0.92135212891E+01  0.94239255899E+01  0.51100000000E-03 0.  1.
        -12    1    3    3    0    0 -0.31758374076E+02  0.58276202431E+01 -0.27188834238E+02  0.42211232970E+02  0.00000000000E+00 0.  1.
</event>
<event>
 7    1  0.4358868E-015  0.9000770E+02  0.7816164E-02  0.1186339E+00
        -11   -1    0    0    0    0  0.00000000000E+00  0.00000000000E+00  0.45593999997E+02  0.45594000000E+02  0.51100000000E-03 0. -1.
         11   -1    0    0    0    0 -0.00000000000E+00 -0.00000000000E+00 -0.45593999997E+02  0.45594000000E+02  0.51100000000E-03 0.  1.
    9900012    2    1    2    0    0  0.31546780741E+00  0.36534979591E+00 -0.10770857952E+01  0.90007697403E+02  0.89999958208E+02 0.  0.
         12    1    1    2    0    0 -0.31546780741E+00 -0.36534979591E+00  0.10770857952E+01  0.11803025972E+01  0.00000000000E+00 0. -1.
         11    1    3    3    0    0  0.26607465159E+01 -0.47197917935E+01  0.64441183230E+01  0.84191845103E+01  0.51100000000E-03 0. -1.
        -11    1    3    3    0    0  0.10494558415E+02 -0.32921309251E+02 -0.19558261025E+02  0.39704835143E+02  0.51100000000E-03 0.  1.
         12    1    3    3    0    0 -0.12839837124E+02  0.38006450840E+02  0.12037056907E+02  0.41883677750E+02  0.00000000000E+00 0. -1.
</event>
<event>
 7    1  0.4358868E-015  0.9000766E+02  0.7816164E-02  0.1186339E+00
        -11   -1    0    0    0    0  0.00000000000E+00  0.00000000000E+00  0.45593999997E+02  0.45594000000E+02  0.51100000000E-03 0.  1.
         11   -1    0    0    0    0 -0.00000000000E+00 -0.00000000000E+00 -0.45593999997E+02  0.45594000000E+02  0.51100000000E-03 0. -1.
    9900012    2    1    2    0    0 -0.31850155266E+00  0.94284731627E+00  0.63466335580E+00  0.90007660271E+02  0.89999920586E+02 0.  0.
         12    1    1    2    0    0  0.31850155266E+00 -0.94284731627E+00 -0.63466335580E+00  0.11803397291E+01  0.00000000000E+00 0. -1.
         11    1    3    3    0    0  0.11593326372E+02 -0.12587497223E+02  0.35907948001E+02  0.39777267787E+02  0.51100000000E-03 0. -1.
        -11    1    3    3    0    0  0.40412291710E+01  0.74944889984E+01  0.24247763046E+01  0.88531598285E+01  0.51100000000E-03 0.  1.
        -12    1    3    3    0    0 -0.15953057096E+02  0.60358555406E+01 -0.37698060950E+02  0.41377232655E+02  0.00000000000E+00 0.  1.
</event>
<event>
 7    1  0.4358868E-015  0.9000776E+02  0.7816164E-02  0.1186339E+00
        -11   -1    0    0    0    0  0.00000000000E+00  0.00000000000E+00  0.45593999997E+02  0.45594000000E+02  0.51100000000E-03 0.  1.
         11   -1    0    0    0    0 -0.00000000000E+00 -0.00000000000E+00 -0.45593999997E+02  0.45594000000E+02  0.51100000000E-03 0. -1.
    9900012    2    1    2    0    0  0.83947311595E+00  0.52271210398E+00  0.64423079107E+00  0.90007755801E+02  0.90000017378E+02 0.  0.
         12    1    1    2    0    0 -0.83947311595E+00 -0.52271210398E+00 -0.64423079107E+00  0.11802441986E+01  0.00000000000E+00 0. -1.
         11    1    3    3    0    0  0.35291094120E+01  0.19551026130E+02 -0.28499155518E+02  0.34740453386E+02  0.51100000000E-03 0. -1.
        -11    1    3    3    0    0  0.33853563931E+01  0.13471158316E+02  0.82039087328E+01  0.16131858636E+02  0.51100000000E-03 0.  1.
        -12    1    3    3    0    0 -0.60749926891E+01 -0.32499472342E+02  0.20939477576E+02  0.39135443780E+02  0.00000000000E+00 0.  1.
</event>
<event>
 7    1  0.4358868E-015  0.9000756E+02  0.7816164E-02  0.1186339E+00
        -11   -1    0    0    0    0  0.00000000000E+00  0.00000000000E+00  0.45593999997E+02  0.45594000000E+02  0.51100000000E-03 0.  1.
         11   -1    0    0    0    0 -0.00000000000E+00 -0.00000000000E+00 -0.45593999997E+02  0.45594000000E+02  0.51100000000E-03 0. -1.
    9900012    2    1    2    0    0  0.11231657849E+01  0.18739286586E+00 -0.31114372894E+00  0.90007564535E+02  0.89999823587E+02 0.  0.
         12    1    1    2    0    0 -0.11231657849E+01 -0.18739286586E+00  0.31114372894E+00  0.11804354648E+01  0.00000000000E+00 0. -1.
         11    1    3    3    0    0 -0.21321259125E+02 -0.27443155044E+02  0.56614890754E+01  0.35210443170E+02  0.51100000000E-03 0. -1.
        -11    1    3    3    0    0 -0.33179182432E+01 -0.44001163305E+01  0.94122199071E+01  0.10906855139E+02  0.51100000000E-03 0.  1.
        -12    1    3    3    0    0  0.25762343153E+02  0.32030664240E+02 -0.15384852711E+02  0.43890266226E+02  0.00000000000E+00 0.  1.
</event>
<event>
 7    1  0.4358868E-015  0.9000775E+02  0.7816164E-02  0.1186339E+00
        -11   -1    0    0    0    0  0.00000000000E+00  0.00000000000E+00  0.45593999997E+02  0.45594000000E+02  0.51100000000E-03 0.  1.
         11   -1    0    0    0    0 -0.00000000000E+00 -0.00000000000E+00 -0.45593999997E+02  0.45594000000E+02  0.51100000000E-03 0. -1.
    9900012    2    1    2    0    0 -0.10080908261E+01 -0.48886188354E+00  0.37116307685E+00  0.90007747872E+02  0.90000009344E+02 0.  0.
         12    1    1    2    0    0  0.10080908261E+01  0.48886188354E+00 -0.37116307685E+00  0.11802521275E+01  0.00000000000E+00 0. -1.
         11    1    3    3    0    0 -0.14248541339E+02  0.29701364337E+02  0.25149027577E+02  0.41444729002E+02  0.51100000000E-03 0. -1.
        -11    1    3    3    0    0 -0.42985360254E+01 -0.15166712713E+02 -0.16018101590E+01  0.15845263725E+02  0.51100000000E-03 0.  1.
        -12    1    3    3    0    0  0.17538986538E+02 -0.15023513508E+02 -0.23176054341E+02  0.32717755145E+02  0.00000000000E+00 0.  1.
</event>
<event>
 7    1  0.4358868E-015  0.9000765E+02  0.7816164E-02  0.1186339E+00
        -11   -1    0    0    0    0  0.00000000000E+00  0.00000000000E+00  0.45593999997E+02  0.45594000000E+02  0.51100000000E-03 0.  1.
         11   -1    0    0    0    0 -0.00000000000E+00 -0.00000000000E+00 -0.45593999997E+02  0.45594000000E+02  0.51100000000E-03 0. -1.
    9900012    2    1    2    0    0  0.11754916013E+01 -0.35811269549E-01  0.10085194854E+00  0.90007646635E+02  0.89999906770E+02 0.  0.
         12    1    1    2    0    0 -0.11754916013E+01  0.35811269549E-01 -0.10085194854E+00  0.11803533655E+01  0.00000000000E+00 0. -1.
         11    1    3    3    0    0 -0.76196064252E+01  0.91667095410E+01  0.98614706462E+01  0.15470474118E+02  0.51100000000E-03 0. -1.
        -11    1    3    3    0    0  0.32028636702E+02  0.13806047908E+01  0.18045462892E+02  0.36788291205E+02  0.51100000000E-03 0.  1.
         12    1    3    3    0    0 -0.23233538675E+02 -0.10583125601E+02 -0.27806081589E+02  0.37748881311E+02  0.00000000000E+00 0. -1.
</event>
<event>
 7    1  0.4358868E-015  0.9000776E+02  0.7816164E-02  0.1186339E+00
        -11   -1    0    0    0    0  0.00000000000E+00  0.00000000000E+00  0.45593999997E+02  0.45594000000E+02  0.51100000000E-03 0.  1.
         11   -1    0    0    0    0 -0.00000000000E+00 -0.00000000000E+00 -0.45593999997E+02  0.45594000000E+02  0.51100000000E-03 0. -1.
    9900012    2    1    2    0    0  0.15815474608E+00 -0.11473862369E+01 -0.22684418373E+00  0.90007760031E+02  0.90000021664E+02 0.  0.
         12    1    1    2    0    0 -0.15815474608E+00  0.11473862369E+01  0.22684418373E+00  0.11802399688E+01  0.00000000000E+00 0. -1.
         11    1    3    3    0    0  0.59875818184E+00  0.52584727486E+01 -0.83566418180E+01  0.98915878272E+01  0.51100000000E-03 0. -1.
        -11    1    3    3    0    0 -0.39523091500E+02  0.12729755954E+01  0.41263134502E+00  0.39545739259E+02  0.51100000000E-03 0.  1.
         12    1    3    3    0    0  0.39082488065E+02 -0.76788345809E+01  0.77171662892E+01  0.40570432945E+02  0.00000000000E+00 0. -1.
</event>
<event>
 7    1  0.4358868E-015  0.9000771E+02  0.7816164E-02  0.1186339E+00
        -11   -1    0    0    0    0  0.00000000000E+00  0.00000000000E+00  0.45593999997E+02  0.45594000000E+02  0.51100000000E-03 0. -1.
         11   -1    0    0    0    0 -0.00000000000E+00 -0.00000000000E+00 -0.45593999997E+02  0.45594000000E+02  0.51100000000E-03 0.  1.
    9900012    2    1    2    0    0 -0.69737329312E+00 -0.23590387376E+00 -0.92254803096E+00  0.90007714010E+02  0.89999975035E+02 0.  0.
         12    1    1    2    0    0  0.69737329312E+00  0.23590387376E+00  0.92254803096E+00  0.11802859895E+01  0.00000000000E+00 0. -1.
         11    1    3    3    0    0  0.78655935435E+01 -0.10405054249E+01  0.34246278091E+02  0.35153346593E+02  0.51100000000E-03 0. -1.
        -11    1    3    3    0    0 -0.22124406460E+01 -0.88462870725E+01  0.67676053239E+01  0.11355710927E+02  0.51100000000E-03 0.  1.
        -12    1    3    3    0    0 -0.63505261906E+01  0.96508886237E+01 -0.41936431445E+02  0.43498656491E+02  0.00000000000E+00 0.  1.
</event>
<event>
 7    1  0.4358868E-015  0.9000773E+02  0.7816164E-02  0.1186339E+00
        -11   -1    0    0    0    0  0.00000000000E+00  0.00000000000E+00  0.45593999997E+02  0.45594000000E+02  0.51100000000E-03 0.  1.
         11   -1    0    0    0    0 -0.00000000000E+00 -0.00000000000E+00 -0.45593999997E+02  0.45594000000E+02  0.51100000000E-03 0. -1.
    9900012    2    1    2    0    0 -0.42395856520E+00 -0.80833597913E+00  0.74825500297E+00  0.90007731611E+02  0.89999992868E+02 0.  0.
         12    1    1    2    0    0  0.42395856520E+00  0.80833597913E+00 -0.74825500297E+00  0.11802683888E+01  0.00000000000E+00 0. -1.
         11    1    3    3    0    0  0.35384590184E+01  0.69506076779E+01 -0.56866186416E+01  0.96524230716E+01  0.51100000000E-03 0. -1.
        -11    1    3    3    0    0 -0.17339052511E+02  0.32953170776E+02  0.24464677093E+01  0.37316744374E+02  0.51100000000E-03 0.  1.
         12    1    3    3    0    0  0.13376634927E+02 -0.40712114433E+02  0.39884059353E+01  0.43038564166E+02  0.00000000000E+00 0. -1.
</event>
<event>
 7    1  0.4358868E-015  0.9000771E+02  0.7816164E-02  0.1186339E+00
        -11   -1    0    0    0    0  0.00000000000E+00  0.00000000000E+00  0.45593999997E+02  0.45594000000E+02  0.51100000000E-03 0. -1.
         11   -1    0    0    0    0 -0.00000000000E+00 -0.00000000000E+00 -0.45593999997E+02  0.45594000000E+02  0.51100000000E-03 0.  1.
    9900012    2    1    2    0    0 -0.74389341317E+00  0.90363715097E+00  0.15210637349E+00  0.90007714501E+02  0.89999975532E+02 0.  0.
         12    1    1    2    0    0  0.74389341317E+00 -0.90363715097E+00 -0.15210637349E+00  0.11802854992E+01  0.00000000000E+00 0. -1.
         11    1    3    3    0    0 -0.19368035042E+02  0.22402427110E+02  0.27431700011E+02  0.40366913278E+02  0.51100000000E-03 0. -1.
        -11    1    3    3    0    0  0.94559230089E+01  0.48728664515E+01 -0.45076500866E-01  0.10637731880E+02  0.51100000000E-03 0.  1.
        -12    1    3    3    0    0  0.91682186205E+01 -0.26371656410E+02 -0.27234517137E+02  0.39003069343E+02  0.00000000000E+00 0.  1.
</event>
<event>
 7    1  0.4358868E-015  0.9000767E+02  0.7816164E-02  0.1186339E+00
        -11   -1    0    0    0    0  0.00000000000E+00  0.00000000000E+00  0.45593999997E+02  0.45594000000E+02  0.51100000000E-03 0.  1.
         11   -1    0    0    0    0 -0.00000000000E+00 -0.00000000000E+00 -0.45593999997E+02  0.45594000000E+02  0.51100000000E-03 0. -1.
    9900012    2    1    2    0    0  0.96151529760E+00 -0.23733209306E+00 -0.64213339433E+00  0.90007672297E+02  0.89999932771E+02 0.  0.
         12    1    1    2    0    0 -0.96151529760E+00  0.23733209306E+00  0.64213339433E+00  0.11803277028E+01  0.00000000000E+00 0. -1.
         11    1    3    3    0    0 -0.21154148394E+02  0.55988531107E+01 -0.23163549501E+02  0.31865265983E+02  0.51100000000E-03 0. -1.
        -11    1    3    3    0    0  0.78282414464E+01 -0.17389769330E+02 -0.94374884233E+01  0.21277961121E+02  0.51100000000E-03 0.  1.
        -12    1    3    3    0    0  0.14287422245E+02  0.11553584126E+02  0.31958904530E+02  0.36864445192E+02  0.00000000000E+00 0.  1.
</event>
<event>
 7    1  0.4358868E-015  0.9000773E+02  0.7816164E-02  0.1186339E+00
        -11   -1    0    0    0    0  0.00000000000E+00  0.00000000000E+00  0.45593999997E+02  0.45594000000E+02  0.51100000000E-03 0. -1.
         11   -1    0    0    0    0 -0.00000000000E+00 -0.00000000000E+00 -0.45593999997E+02  0.45594000000E+02  0.51100000000E-03 0.  1.
    9900012    2    1    2    0    0  0.11714874130E+01 -0.13936489294E+00 -0.35001815527E-01  0.90007732886E+02  0.89999994161E+02 0.  0.
         12    1    1    2    0    0 -0.11714874130E+01  0.13936489294E+00  0.35001815527E-01  0.11802671135E+01  0.00000000000E+00 0. -1.
         11    1    3    3    0    0 -0.63530222212E+01 -0.22197836477E+02  0.68344189416E+01  0.24079329686E+02  0.51100000000E-03 0. -1.
        -11    1    3    3    0    0 -0.18054613842E+02  0.32975322348E+02 -0.62484512182E+01  0.38110157541E+02  0.51100000000E-03 0.  1.
         12    1    3    3    0    0  0.25579123476E+02 -0.10916850764E+02 -0.62096953887E+00  0.27818245659E+02  0.00000000000E+00 0. -1.
</event>
<event>
 7    1  0.4358868E-015  0.9000773E+02  0.7816164E-02  0.1186339E+00
        -11   -1    0    0    0    0  0.00000000000E+00  0.00000000000E+00  0.45593999997E+02  0.45594000000E+02  0.51100000000E-03 0. -1.
         11   -1    0    0    0    0 -0.00000000000E+00 -0.00000000000E+00 -0.45593999997E+02  0.45594000000E+02  0.51100000000E-03 0.  1.
    9900012    2    1    2    0    0  0.76215486303E+00  0.55411888982E+00 -0.71070626134E+00  0.90007732586E+02  0.89999993856E+02 0.  0.
         12    1    1    2    0    0 -0.76215486303E+00 -0.55411888982E+00  0.71070626134E+00  0.11802674143E+01  0.00000000000E+00 0. -1.
         11    1    3    3    0    0  0.29652391560E+01  0.25116495194E+02  0.26930138392E+02  0.36944056736E+02  0.51100000000E-03 0. -1.
        -11    1    3    3    0    0 -0.42655890814E+01  0.71929719006E+01  0.30031093864E+01  0.88855366311E+01  0.51100000000E-03 0.  1.
        -12    1    3    3    0    0  0.20625047884E+01 -0.31755348205E+02 -0.30643954039E+02  0.44178139218E+02  0.00000000000E+00 0.  1.
</event>
<event>
 7    1  0.4358868E-015  0.9000786E+02  0.7816164E-02  0.1186339E+00
        -11   -1    0    0    0    0  0.00000000000E+00  0.00000000000E+00  0.45593999997E+02  0.45594000000E+02  0.51100000000E-03 0.  1.
         11   -1    0    0    0    0 -0.00000000000E+00 -0.00000000000E+00 -0.45593999997E+02  0.45594000000E+02  0.51100000000E-03 0. -1.
    9900012    2    1    2    0    0  0.53056880119E+00 -0.60961614444E+00  0.85999076303E+00  0.90007864750E+02  0.90000127764E+02 0.  0.
         12    1    1    2    0    0 -0.53056880119E+00  0.60961614444E+00 -0.85999076303E+00  0.11801352502E+01  0.00000000000E+00 0. -1.
         11    1    3    3    0    0  0.55557424922E+01 -0.39918795522E+02 -0.71002345657E+01  0.40924196287E+02  0.51100000000E-03 0. -1.
        -11    1    3    3    0    0  0.20122356444E+01  0.14224051368E+01 -0.72486872585E+01  0.76560953426E+01  0.51100000000E-03 0.  1.
        -12    1    3    3    0    0 -0.70374093354E+01  0.37886774241E+02  0.15208912587E+02  0.41427573120E+02  0.00000000000E+00 0.  1.
</event>
<event>
 7    1  0.4358868E-015  0.9000774E+02  0.7816164E-02  0.1186339E+00
        -11   -1    0    0    0    0  0.00000000000E+00  0.00000000000E+00  0.45593999997E+02  0.45594000000E+02  0.51100000000E-03 0.  1.
         11   -1    0    0    0    0 -0.00000000000E+00 -0.00000000000E+00 -0.45593999997E+02  0.45594000000E+02  0.51100000000E-03 0. -1.
    9900012    2    1    2    0    0 -0.85835698337E+00 -0.26200398000E+00  0.76654116797E+00  0.90007742334E+02  0.90000003733E+02 0.  0.
         12    1    1    2    0    0  0.85835698337E+00  0.26200398000E+00 -0.76654116797E+00  0.11802576662E+01  0.00000000000E+00 0. -1.
         11    1    3    3    0    0  0.88545476515E+01  0.22793827759E+01 -0.18370969259E+01  0.93259597537E+01  0.51100000000E-03 0. -1.
        -11    1    3    3    0    0  0.11156185076E+02  0.26694325823E+02  0.25096996638E+02  0.38300218499E+02  0.51100000000E-03 0.  1.
         12    1    3    3    0    0 -0.20869089711E+02 -0.29235712579E+02 -0.22493358544E+02  0.42381564081E+02  0.00000000000E+00 0. -1.
</event>
<event>
 7    1  0.6714055E-015  0.9000766E+02  0.7816164E-02  0.1186339E+00
        -11   -1    0    0    0    0  0.00000000000E+00  0.00000000000E+00  0.45593999997E+02  0.45594000000E+02  0.51100000000E-03 0. -1.
         11   -1    0    0    0    0 -0.00000000000E+00 -0.00000000000E+00 -0.45593999997E+02  0.45594000000E+02  0.51100000000E-03 0.  1.
    9900012    2    1    2    0    0  0.89313838929E-01  0.21239380177E+00 -0.11576280893E+01  0.90007664928E+02  0.89999925305E+02 0.  0.
         12    1    1    2    0    0 -0.89313838929E-01 -0.21239380177E+00  0.11576280893E+01  0.11803350720E+01  0.00000000000E+00 0. -1.
         11    1    3    3    0    0 -0.66142487108E+01  0.22680362851E+02  0.28556520247E+02  0.37062406748E+02  0.51100000000E-03 0. -1.
        -11    1    3    3    0    0  0.40320323278E+01  0.81473719698E+01  0.14175281846E+01  0.92003446197E+01  0.51100000000E-03 0.  1.
        -12    1    3    3    0    0  0.26715302219E+01 -0.30615341019E+02 -0.31131676520E+02  0.43744913561E+02  0.00000000000E+00 0.  1.
</event>
<event>
 7    1  0.4358868E-015  0.9000772E+02  0.7816164E-02  0.1186339E+00
        -11   -1    0    0    0    0  0.00000000000E+00  0.00000000000E+00  0.45593999997E+02  0.45594000000E+02  0.51100000000E-03 0.  1.
         11   -1    0    0    0    0 -0.00000000000E+00 -0.00000000000E+00 -0.45593999997E+02  0.45594000000E+02  0.51100000000E-03 0. -1.
    9900012    2    1    2    0    0  0.27053434877E+00 -0.10285857599E+01  0.51174088703E+00  0.90007721967E+02  0.89999983097E+02 0.  0.
         12    1    1    2    0    0 -0.27053434877E+00  0.10285857599E+01 -0.51174088703E+00  0.11802780328E+01  0.00000000000E+00 0. -1.
         11    1    3    3    0    0  0.64124858176E+01 -0.56009907160E+01 -0.48598618507E+01  0.98035365471E+01  0.51100000000E-03 0. -1.
        -11    1    3    3    0    0 -0.18285473027E+02  0.82882127194E+01  0.39215713652E+02  0.44055932534E+02  0.51100000000E-03 0.  1.
         12    1    3    3    0    0  0.12143521558E+02 -0.37158077633E+01 -0.33844110914E+02  0.36148252887E+02  0.00000000000E+00 0. -1.
</event>
<event>
 7    1  0.4358868E-015  0.9000790E+02  0.7816164E-02  0.1186339E+00
        -11   -1    0    0    0    0  0.00000000000E+00  0.00000000000E+00  0.45593999997E+02  0.45594000000E+02  0.51100000000E-03 0.  1.
         11   -1    0    0    0    0 -0.00000000000E+00 -0.00000000000E+00 -0.45593999997E+02  0.45594000000E+02  0.51100000000E-03 0. -1.
    9900012    2    1    2    0    0 -0.66401209349E+00 -0.75979682342E+00  0.61191441978E+00  0.90007897237E+02  0.90000160681E+02 0.  0.
         12    1    1    2    0    0  0.66401209349E+00  0.75979682342E+00 -0.61191441978E+00  0.11801027626E+01  0.00000000000E+00 0. -1.
         11    1    3    3    0    0  0.14991744239E+02  0.30629658566E+02  0.11816654204E+02  0.36091019604E+02  0.51100000000E-03 0. -1.
        -11    1    3    3    0    0  0.31439921899E+01  0.82037290717E+01 -0.32716006864E+01  0.93749255402E+01  0.51100000000E-03 0.  1.
        -12    1    3    3    0    0 -0.18799748523E+02 -0.39593184461E+02 -0.79331390977E+01  0.44541952093E+02  0.00000000000E+00 0.  1.
</event>
<event>
 7    1  0.4358868E-015  0.9000779E+02  0.7816164E-02  0.1186339E+00
        -11   -1    0    0    0    0  0.00000000000E+00  0.00000000000E+00  0.45593999997E+02  0.45594000000E+02  0.51100000000E-03 0.  1.
         11   -1    0    0    0    0 -0.00000000000E+00 -0.00000000000E+00 -0.45593999997E+02  0.45594000000E+02  0.51100000000E-03 0. -1.
    9900012    2    1    2    0    0  0.94078945758E+00  0.43705353063E+00  0.56284142396E+00  0.90007791942E+02  0.90000053995E+02 0.  0.
         12    1    1    2    0    0 -0.94078945758E+00 -0.43705353063E+00 -0.56284142396E+00  0.11802080582E+01  0.00000000000E+00 0. -1.
         11    1    3    3    0    0  0.60771175104E+01  0.49488879521E+01  0.21108865573E+02  0.22516817165E+02  0.51100000000E-03 0. -1.
        -11    1    3    3    0    0 -0.28350276745E+01 -0.15614293266E+02  0.19918770791E+02  0.25467645478E+02  0.51100000000E-03 0.  1.
         12    1    3    3    0    0 -0.23013003783E+01  0.11102458844E+02 -0.40464794940E+02  0.42023329299E+02  0.00000000000E+00 0. -1.
</event>
<event>
 7    1  0.4358868E-015  0.9000683E+02  0.7816164E-02  0.1186341E+00
        -11   -1    0    0    0    0  0.00000000000E+00  0.00000000000E+00  0.45593999997E+02  0.45594000000E+02  0.51100000000E-03 0.  1.
         11   -1    0    0    0    0 -0.00000000000E+00 -0.00000000000E+00 -0.45593999997E+02  0.45594000000E+02  0.51100000000E-03 0. -1.
    9900012    2    1    2    0    0  0.53912041809E+00  0.86937474682E+00  0.59050840582E+00  0.90006829626E+02  0.89999078972E+02 0.  0.
         12    1    1    2    0    0 -0.53912041809E+00 -0.86937474682E+00 -0.59050840582E+00  0.11811703742E+01  0.00000000000E+00 0. -1.
         11    1    3    3    0    0  0.20693115755E+01 -0.71817058222E+01  0.56801289449E+01  0.93873752458E+01  0.51100000000E-03 0. -1.
        -11    1    3    3    0    0  0.13237743942E+02 -0.37388869487E+01  0.34286896169E+02  0.36943313190E+02  0.51100000000E-03 0.  1.
         12    1    3    3    0    0 -0.14767935100E+02  0.11789967518E+02 -0.39376516708E+02  0.43676141190E+02  0.00000000000E+00 0. -1.
</event>
<event>
 7    1  0.4358868E-015  0.9000780E+02  0.7816164E-02  0.1186339E+00
        -11   -1    0    0    0    0  0.00000000000E+00  0.00000000000E+00  0.45593999997E+02  0.45594000000E+02  0.51100000000E-03 0.  1.
         11   -1    0    0    0    0 -0.00000000000E+00 -0.00000000000E+00 -0.45593999997E+02  0.45594000000E+02  0.51100000000E-03 0. -1.
    9900012    2    1    2    0    0  0.86653701708E+00 -0.72266428064E+00  0.34603089052E+00  0.90007801948E+02  0.90000064134E+02 0.  0.
         12    1    1    2    0    0 -0.86653701708E+00  0.72266428064E+00 -0.34603089052E+00  0.11801980519E+01  0.00000000000E+00 0. -1.
         11    1    3    3    0    0  0.31137420260E+02 -0.38185136713E+01 -0.20357578458E+02  0.37397205618E+02  0.51100000000E-03 0. -1.
        -11    1    3    3    0    0  0.48642708703E+01  0.42899638402E+01 -0.57075731094E+01  0.86395203518E+01  0.51100000000E-03 0.  1.
        -12    1    3    3    0    0 -0.35135154113E+02 -0.11941144495E+01  0.26411182458E+02  0.43971075978E+02  0.00000000000E+00 0.  1.
</event>
<event>
 7    1  0.4358868E-015  0.9000772E+02  0.7816164E-02  0.1186339E+00
        -11   -1    0    0    0    0  0.00000000000E+00  0.00000000000E+00  0.45593999997E+02  0.45594000000E+02  0.51100000000E-03 0. -1.
         11   -1    0    0    0    0 -0.00000000000E+00 -0.00000000000E+00 -0.45593999997E+02  0.45594000000E+02  0.51100000000E-03 0.  1.
    9900012    2    1    2    0    0  0.91240649198E+00  0.54874514737E+00 -0.50936348732E+00  0.90007721217E+02  0.89999982337E+02 0.  0.
         12    1    1    2    0    0 -0.91240649198E+00 -0.54874514737E+00  0.50936348732E+00  0.11802787830E+01  0.00000000000E+00 0. -1.
         11    1    3    3    0    0 -0.60055580934E+01 -0.17715875535E+01  0.57743425884E+01  0.85175279901E+01  0.51100000000E-03 0. -1.
        -11    1    3    3    0    0 -0.30033239730E+02  0.91435682927E+01 -0.24413183201E+02  0.39769383250E+02  0.51100000000E-03 0.  1.
         12    1    3    3    0    0  0.36951204316E+02 -0.68232355919E+01  0.18129477125E+02  0.41720809977E+02  0.00000000000E+00 0. -1.
</event>
<event>
 7    1  0.4358868E-015  0.9000719E+02  0.7816164E-02  0.1186340E+00
        -11   -1    0    0    0    0  0.00000000000E+00  0.00000000000E+00  0.45593999997E+02  0.45594000000E+02  0.51100000000E-03 0.  1.
         11   -1    0    0    0    0 -0.00000000000E+00 -0.00000000000E+00 -0.45593999997E+02  0.45594000000E+02  0.51100000000E-03 0. -1.
    9900012    2    1    2    0    0  0.29520522427E+00  0.10460067246E+01  0.46156789772E+00  0.90007186248E+02  0.89999440305E+02 0.  0.
         12    1    1    2    0    0 -0.29520522427E+00 -0.10460067246E+01 -0.46156789772E+00  0.11808137518E+01  0.00000000000E+00 0. -1.
         11    1    3    3    0    0 -0.57862400121E+01  0.35019618792E+02 -0.55785408636E+01  0.35930132093E+02  0.51100000000E-03 0. -1.
        -11    1    3    3    0    0  0.30287555983E+01  0.95148489973E+01  0.27529990417E+01  0.10357833552E+02  0.51100000000E-03 0.  1.
        -12    1    3    3    0    0  0.30526896381E+01 -0.43488461065E+02  0.32871097197E+01  0.43719220603E+02  0.00000000000E+00 0.  1.
</event>
<event>
 7    1  0.4358868E-015  0.9000762E+02  0.7816164E-02  0.1186339E+00
        -11   -1    0    0    0    0  0.00000000000E+00  0.00000000000E+00  0.45593999997E+02  0.45594000000E+02  0.51100000000E-03 0. -1.
         11   -1    0    0    0    0 -0.00000000000E+00 -0.00000000000E+00 -0.45593999997E+02  0.45594000000E+02  0.51100000000E-03 0.  1.
    9900012    2    1    2    0    0 -0.33153659421E+00 -0.18324694647E+00 -0.11179414852E+01  0.90007623314E+02  0.89999883142E+02 0.  0.
         12    1    1    2    0    0  0.33153659421E+00  0.18324694647E+00  0.11179414852E+01  0.11803766861E+01  0.00000000000E+00 0. -1.
         11    1    3    3    0    0  0.73427293067E+01  0.22920869828E+01  0.58146857287E+01  0.96426089204E+01  0.51100000000E-03 0. -1.
        -11    1    3    3    0    0  0.23436400737E+02 -0.30313688337E+02 -0.35296242603E+01  0.38479121973E+02  0.51100000000E-03 0.  1.
         12    1    3    3    0    0 -0.31110666638E+02  0.27838354408E+02 -0.34030029536E+01  0.41885892421E+02  0.00000000000E+00 0. -1.
</event>
<event>
 7    1  0.4358868E-015  0.9000776E+02  0.7816164E-02  0.1186339E+00
        -11   -1    0    0    0    0  0.00000000000E+00  0.00000000000E+00  0.45593999997E+02  0.45594000000E+02  0.51100000000E-03 0. -1.
         11   -1    0    0    0    0 -0.00000000000E+00 -0.00000000000E+00 -0.45593999997E+02  0.45594000000E+02  0.51100000000E-03 0.  1.
    9900012    2    1    2    0    0  0.72352836970E+00  0.24928453721E+00 -0.89851168121E+00  0.90007763022E+02  0.90000024694E+02 0.  0.
         12    1    1    2    0    0 -0.72352836970E+00 -0.24928453721E+00  0.89851168121E+00  0.11802369777E+01  0.00000000000E+00 0. -1.
         11    1    3    3    0    0 -0.23920516088E+01 -0.32447104403E+01  0.90841006053E+01  0.99383570477E+01  0.51100000000E-03 0. -1.
        -11    1    3    3    0    0  0.40018348137E+02 -0.65534221821E+01 -0.37410342231E-01  0.40551410946E+02  0.51100000000E-03 0.  1.
         12    1    3    3    0    0 -0.36902768159E+02  0.10047417160E+02 -0.99452019442E+01  0.39517995028E+02  0.00000000000E+00 0. -1.
</event>
<event>
 7    1  0.4358868E-015  0.9000773E+02  0.7816164E-02  0.1186339E+00
        -11   -1    0    0    0    0  0.00000000000E+00  0.00000000000E+00  0.45593999997E+02  0.45594000000E+02  0.51100000000E-03 0. -1.
         11   -1    0    0    0    0 -0.00000000000E+00 -0.00000000000E+00 -0.45593999997E+02  0.45594000000E+02  0.51100000000E-03 0.  1.
    9900012    2    1    2    0    0 -0.19655683246E+00  0.11312505783E+01 -0.27324955652E+00  0.90007734022E+02  0.89999995311E+02 0.  0.
         12    1    1    2    0    0  0.19655683246E+00 -0.11312505783E+01  0.27324955652E+00  0.11802659783E+01  0.00000000000E+00 0. -1.
         11    1    3    3    0    0  0.50765901403E+01 -0.37422987275E+01  0.76957096814E+01  0.99499002498E+01  0.51100000000E-03 0. -1.
        -11    1    3    3    0    0  0.51721291277E+01 -0.18369530145E+02 -0.36876729794E+02  0.41522087592E+02  0.51100000000E-03 0.  1.
         12    1    3    3    0    0 -0.10445276100E+02  0.23243079450E+02  0.28907770556E+02  0.38535746180E+02  0.00000000000E+00 0. -1.
</event>
<event>
 7    1  0.4358868E-015  0.9000785E+02  0.7816164E-02  0.1186339E+00
        -11   -1    0    0    0    0  0.00000000000E+00  0.00000000000E+00  0.45593999997E+02  0.45594000000E+02  0.51100000000E-03 0.  1.
         11   -1    0    0    0    0 -0.00000000000E+00 -0.00000000000E+00 -0.45593999997E+02  0.45594000000E+02  0.51100000000E-03 0. -1.
    9900012    2    1    2    0    0 -0.24337503817E+00  0.92452275432E+00  0.69193206274E+00  0.90007854368E+02  0.90000117246E+02 0.  0.
         12    1    1    2    0    0  0.24337503817E+00 -0.92452275432E+00 -0.69193206274E+00  0.11801456317E+01  0.00000000000E+00 0. -1.
         11    1    3    3    0    0  0.74066238443E+01  0.36382763898E+02 -0.10684977041E+01  0.37144384141E+02  0.51100000000E-03 0. -1.
        -11    1    3    3    0    0  0.61807841370E+01  0.47529189504E+01  0.64008282095E+01  0.10087761552E+02  0.51100000000E-03 0.  1.
        -12    1    3    3    0    0 -0.13830783019E+02 -0.40211160094E+02 -0.46403984427E+01  0.42775708676E+02  0.00000000000E+00 0.  1.
</event>
<event>
 7    1  0.4358868E-015  0.9000772E+02  0.7816164E-02  0.1186339E+00
        -11   -1    0    0    0    0  0.00000000000E+00  0.00000000000E+00  0.45593999997E+02  0.45594000000E+02  0.51100000000E-03 0.  1.
         11   -1    0    0    0    0 -0.00000000000E+00 -0.00000000000E+00 -0.45593999997E+02  0.45594000000E+02  0.51100000000E-03 0. -1.
    9900012    2    1    2    0    0 -0.55953777898E+00 -0.81099980665E+00 -0.64980548506E+00  0.90007724447E+02  0.89999985610E+02 0.  0.
         12    1    1    2    0    0  0.55953777898E+00  0.81099980665E+00  0.64980548506E+00  0.11802755530E+01  0.00000000000E+00 0. -1.
         11    1    3    3    0    0  0.40071473375E+01  0.26813207494E+01 -0.83898282258E+01  0.96765659541E+01  0.51100000000E-03 0. -1.
        -11    1    3    3    0    0  0.21267341168E+02  0.30381823324E+02  0.31063444777E+00  0.37087079730E+02  0.51100000000E-03 0.  1.
         12    1    3    3    0    0 -0.25834026284E+02 -0.33874143880E+02  0.74293882929E+01  0.43244078763E+02  0.00000000000E+00 0. -1.
</event>
<event>
 7    1  0.4358868E-015  0.9000775E+02  0.7816164E-02  0.1186339E+00
        -11   -1    0    0    0    0  0.00000000000E+00  0.00000000000E+00  0.45593999997E+02  0.45594000000E+02  0.51100000000E-03 0.  1.
         11   -1    0    0    0    0 -0.00000000000E+00 -0.00000000000E+00 -0.45593999997E+02  0.45594000000E+02  0.51100000000E-03 0. -1.
    9900012    2    1    2    0    0 -0.29202467303E+00  0.11004117227E+01 -0.31114577444E+00  0.90007747458E+02  0.90000008925E+02 0.  0.
         12    1    1    2    0    0  0.29202467303E+00 -0.11004117227E+01  0.31114577444E+00  0.11802525417E+01  0.00000000000E+00 0. -1.
         11    1    3    3    0    0 -0.74707876901E+01  0.50423272257E+01 -0.27656221689E+00  0.90174397409E+01  0.51100000000E-03 0. -1.
        -11    1    3    3    0    0 -0.68816627102E+01 -0.62474331987E+01  0.38656992593E+02  0.39758656665E+02  0.51100000000E-03 0.  1.
         12    1    3    3    0    0  0.14060425727E+02  0.23055176958E+01 -0.38691576151E+02  0.41231651052E+02  0.00000000000E+00 0. -1.
</event>
<event>
 7    1  0.4358868E-015  0.9000816E+02  0.7816164E-02  0.1186338E+00
        -11   -1    0    0    0    0  0.00000000000E+00  0.00000000000E+00  0.45593999997E+02  0.45594000000E+02  0.51100000000E-03 0.  1.
         11   -1    0    0    0    0 -0.00000000000E+00 -0.00000000000E+00 -0.45593999997E+02  0.45594000000E+02  0.51100000000E-03 0. -1.
    9900012    2    1    2    0    0  0.51852736121E+00  0.18025809795E+00  0.10443488535E+01  0.90008157581E+02  0.90000424460E+02 0.  0.
         12    1    1    2    0    0 -0.51852736121E+00 -0.18025809795E+00 -0.10443488535E+01  0.11798424192E+01  0.00000000000E+00 0. -1.
         11    1    3    3    0    0 -0.37613229947E+02 -0.10306294625E+02 -0.11163261257E+02  0.40565911528E+02  0.51100000000E-03 0. -1.
        -11    1    3    3    0    0 -0.14107474841E+00 -0.29959334330E+01  0.81230041191E+01  0.86590250837E+01  0.51100000000E-03 0.  1.
        -12    1    3    3    0    0  0.38272832056E+02  0.13482486156E+02  0.40846059911E+01  0.40783220970E+02  0.00000000000E+00 0.  1.
</event>
<event>
 7    1  0.4358868E-015  0.9000770E+02  0.7816164E-02  0.1186339E+00
        -11   -1    0    0    0    0  0.00000000000E+00  0.00000000000E+00  0.45593999997E+02  0.45594000000E+02  0.51100000000E-03 0. -1.
         11   -1    0    0    0    0 -0.00000000000E+00 -0.00000000000E+00 -0.45593999997E+02  0.45594000000E+02  0.51100000000E-03 0.  1.
    9900012    2    1    2    0    0  0.91188438365E-01  0.71564727371E+00 -0.93415289175E+00  0.90007700048E+02  0.89999960889E+02 0.  0.
         12    1    1    2    0    0 -0.91188438365E-01 -0.71564727371E+00  0.93415289175E+00  0.11802999521E+01  0.00000000000E+00 0. -1.
         11    1    3    3    0    0  0.21936988987E+00  0.80693722227E+01  0.98260693089E+01  0.12716702778E+02  0.51100000000E-03 0. -1.
        -11    1    3    3    0    0 -0.10486259298E+02  0.66275275479E+01 -0.40762402451E+02  0.42608205891E+02  0.51100000000E-03 0.  1.
         12    1    3    3    0    0  0.10358077846E+02 -0.13981252497E+02  0.30002180250E+02  0.34682791379E+02  0.00000000000E+00 0. -1.
</event>
<event>
 7    1  0.4358868E-015  0.9000770E+02  0.7816164E-02  0.1186339E+00
        -11   -1    0    0    0    0  0.00000000000E+00  0.00000000000E+00  0.45593999997E+02  0.45594000000E+02  0.51100000000E-03 0.  1.
         11   -1    0    0    0    0 -0.00000000000E+00 -0.00000000000E+00 -0.45593999997E+02  0.45594000000E+02  0.51100000000E-03 0. -1.
    9900012    2    1    2    0    0  0.94076681118E+00  0.47916545499E+00  0.52770546628E+00  0.90007697164E+02  0.89999957966E+02 0.  0.
         12    1    1    2    0    0 -0.94076681118E+00 -0.47916545499E+00 -0.52770546628E+00  0.11803028363E+01  0.00000000000E+00 0. -1.
         11    1    3    3    0    0 -0.19169347160E+02  0.12812587245E+02 -0.31921893469E+02  0.39378084582E+02  0.51100000000E-03 0. -1.
        -11    1    3    3    0    0  0.23277388747E+01  0.76229991358E+01 -0.75153605724E+00  0.80058285517E+01  0.51100000000E-03 0.  1.
        -12    1    3    3    0    0  0.17782375097E+02 -0.19956420925E+02  0.33201134992E+02  0.42623784030E+02  0.00000000000E+00 0.  1.
</event>
<event>
 7    1  0.4358868E-015  0.9000773E+02  0.7816164E-02  0.1186339E+00
        -11   -1    0    0    0    0  0.00000000000E+00  0.00000000000E+00  0.45593999997E+02  0.45594000000E+02  0.51100000000E-03 0.  1.
         11   -1    0    0    0    0 -0.00000000000E+00 -0.00000000000E+00 -0.45593999997E+02  0.45594000000E+02  0.51100000000E-03 0. -1.
    9900012    2    1    2    0    0  0.25808039368E-01 -0.11762488939E+01 -0.93904481523E-01  0.90007726486E+02  0.89999987676E+02 0.  0.
         12    1    1    2    0    0 -0.25808039368E-01  0.11762488939E+01  0.93904481523E-01  0.11802735136E+01  0.00000000000E+00 0. -1.
         11    1    3    3    0    0 -0.45630813888E+01  0.22470851811E+02 -0.30372984461E+02  0.38056262010E+02  0.51100000000E-03 0. -1.
        -11    1    3    3    0    0 -0.19989230277E+01 -0.56258717117E+01 -0.74956910845E+01  0.95828759192E+01  0.51100000000E-03 0.  1.
        -12    1    3    3    0    0  0.65878124558E+01 -0.18021228994E+02  0.37774771064E+02  0.42368588557E+02  0.00000000000E+00 0.  1.
</event>
<event>
 7    1  0.4358868E-015  0.9000775E+02  0.7816164E-02  0.1186339E+00
        -11   -1    0    0    0    0  0.00000000000E+00  0.00000000000E+00  0.45593999997E+02  0.45594000000E+02  0.51100000000E-03 0.  1.
         11   -1    0    0    0    0 -0.00000000000E+00 -0.00000000000E+00 -0.45593999997E+02  0.45594000000E+02  0.51100000000E-03 0. -1.
    9900012    2    1    2    0    0  0.82401694069E+00  0.40313255127E+00  0.74261260431E+00  0.90007748649E+02  0.90000010131E+02 0.  0.
         12    1    1    2    0    0 -0.82401694069E+00 -0.40313255127E+00 -0.74261260431E+00  0.11802513514E+01  0.00000000000E+00 0. -1.
         11    1    3    3    0    0 -0.22848979041E+02  0.12976176870E+01 -0.32517181072E+02  0.39763384162E+02  0.51100000000E-03 0. -1.
        -11    1    3    3    0    0  0.18777462643E+02 -0.11492662997E+02  0.99185979169E+01  0.24146490242E+02  0.51100000000E-03 0.  1.
        -12    1    3    3    0    0  0.48955333386E+01  0.10598177862E+02  0.23341195759E+02  0.26097874245E+02  0.00000000000E+00 0.  1.
</event>
<event>
 7    1  0.4872876E-015  0.9000770E+02  0.7816164E-02  0.1186339E+00
        -11   -1    0    0    0    0  0.00000000000E+00  0.00000000000E+00  0.45593999997E+02  0.45594000000E+02  0.51100000000E-03 0.  1.
         11   -1    0    0    0    0 -0.00000000000E+00 -0.00000000000E+00 -0.45593999997E+02  0.45594000000E+02  0.51100000000E-03 0. -1.
    9900012    2    1    2    0    0  0.65588447997E+00  0.33487112833E+00  0.92237747301E+00  0.90007702018E+02  0.89999962885E+02 0.  0.
         12    1    1    2    0    0 -0.65588447997E+00 -0.33487112833E+00 -0.92237747301E+00  0.11802979820E+01  0.00000000000E+00 0. -1.
         11    1    3    3    0    0  0.31441925024E+01 -0.33390439119E+02 -0.13891332559E+02  0.36301191325E+02  0.51100000000E-03 0. -1.
        -11    1    3    3    0    0 -0.46215273217E+01 -0.72766723237E+01 -0.27526074867E+01  0.90490509518E+01  0.51100000000E-03 0.  1.
        -12    1    3    3    0    0  0.21332192993E+01  0.41001982571E+02  0.17566317519E+02  0.44657459741E+02  0.00000000000E+00 0.  1.
</event>
<event>
 7    1  0.4358868E-015  0.9000767E+02  0.7816164E-02  0.1186339E+00
        -11   -1    0    0    0    0  0.00000000000E+00  0.00000000000E+00  0.45593999997E+02  0.45594000000E+02  0.51100000000E-03 0.  1.
         11   -1    0    0    0    0 -0.00000000000E+00 -0.00000000000E+00 -0.45593999997E+02  0.45594000000E+02  0.51100000000E-03 0. -1.
    9900012    2    1    2    0    0  0.95185436823E+00 -0.68035936061E+00 -0.15576288530E+00  0.90007670523E+02  0.89999930974E+02 0.  0.
         12    1    1    2    0    0 -0.95185436823E+00  0.68035936061E+00  0.15576288530E+00  0.11803294770E+01  0.00000000000E+00 0. -1.
         11    1    3    3    0    0  0.60470580878E+01  0.36722625255E+02 -0.14727615403E+02  0.40025251690E+02  0.51100000000E-03 0. -1.
        -11    1    3    3    0    0 -0.77298708187E+01 -0.24146025858E+01 -0.52808625759E+01  0.96679221309E+01  0.51100000000E-03 0.  1.
        -12    1    3    3    0    0  0.26346670991E+01 -0.34988382029E+02  0.19852715094E+02  0.40314496702E+02  0.00000000000E+00 0.  1.
</event>
<event>
 7    1  0.4358868E-015  0.9000768E+02  0.7816164E-02  0.1186339E+00
        -11   -1    0    0    0    0  0.00000000000E+00  0.00000000000E+00  0.45593999997E+02  0.45594000000E+02  0.51100000000E-03 0. -1.
         11   -1    0    0    0    0 -0.00000000000E+00 -0.00000000000E+00 -0.45593999997E+02  0.45594000000E+02  0.51100000000E-03 0.  1.
    9900012    2    1    2    0    0  0.39758679124E+00 -0.39770233160E+00 -0.10377386557E+01  0.90007684822E+02  0.89999945462E+02 0.  0.
         12    1    1    2    0    0 -0.39758679124E+00  0.39770233160E+00  0.10377386557E+01  0.11803151777E+01  0.00000000000E+00 0. -1.
         11    1    3    3    0    0 -0.11001368585E+02 -0.34762847460E+02 -0.60178627051E+01  0.36955383182E+02  0.51100000000E-03 0. -1.
        -11    1    3    3    0    0 -0.73622741099E+01 -0.36843261183E+01 -0.47812109566E+01  0.95203633065E+01  0.51100000000E-03 0.  1.
        -12    1    3    3    0    0  0.18761229486E+02  0.38049471247E+02  0.97613350060E+01  0.43531938334E+02  0.00000000000E+00 0.  1.
</event>
<event>
 7    1  0.4358868E-015  0.9000766E+02  0.7816164E-02  0.1186339E+00
        -11   -1    0    0    0    0  0.00000000000E+00  0.00000000000E+00  0.45593999997E+02  0.45594000000E+02  0.51100000000E-03 0. -1.
         11   -1    0    0    0    0 -0.00000000000E+00 -0.00000000000E+00 -0.45593999997E+02  0.45594000000E+02  0.51100000000E-03 0.  1.
    9900012    2    1    2    0    0 -0.68903880790E+00 -0.85343656741E+00  0.43597733052E+00  0.90007659081E+02  0.89999919380E+02 0.  0.
         12    1    1    2    0    0  0.68903880790E+00  0.85343656741E+00 -0.43597733052E+00  0.11803409194E+01  0.00000000000E+00 0. -1.
         11    1    3    3    0    0  0.15033005948E+02 -0.35526934925E+02 -0.10405787142E+01  0.38590635876E+02  0.51100000000E-03 0. -1.
        -11    1    3    3    0    0 -0.67892936630E+01 -0.55117262354E+01  0.50462676496E+01  0.10096457398E+02  0.51100000000E-03 0.  1.
        -12    1    3    3    0    0 -0.89327510928E+01  0.40185224593E+02 -0.35697116049E+01  0.41320565807E+02  0.00000000000E+00 0.  1.
</event>
<event>
 7    1  0.4358868E-015  0.9000784E+02  0.7816164E-02  0.1186339E+00
        -11   -1    0    0    0    0  0.00000000000E+00  0.00000000000E+00  0.45593999997E+02  0.45594000000E+02  0.51100000000E-03 0. -1.
         11   -1    0    0    0    0 -0.00000000000E+00 -0.00000000000E+00 -0.45593999997E+02  0.45594000000E+02  0.51100000000E-03 0.  1.
    9900012    2    1    2    0    0 -0.62840735226E+00 -0.72960001631E+00  0.68232064811E+00  0.90007841769E+02  0.90000104480E+02 0.  0.
         12    1    1    2    0    0  0.62840735226E+00  0.72960001631E+00 -0.68232064811E+00  0.11801582313E+01  0.00000000000E+00 0. -1.
         11    1    3    3    0    0 -0.70923200716E+01  0.66946778807E+01 -0.64481071705E+00  0.97742261610E+01  0.51100000000E-03 0. -1.
        -11    1    3    3    0    0  0.92825028679E+00 -0.15261528631E+01 -0.39031493623E+02  0.39072346818E+02  0.51100000000E-03 0.  1.
         12    1    3    3    0    0  0.55356624325E+01 -0.58981250339E+01  0.40358624988E+02  0.41161268790E+02  0.00000000000E+00 0. -1.
</event>
<event>
 7    1  0.4358868E-015  0.9000776E+02  0.7816164E-02  0.1186339E+00
        -11   -1    0    0    0    0  0.00000000000E+00  0.00000000000E+00  0.45593999997E+02  0.45594000000E+02  0.51100000000E-03 0.  1.
         11   -1    0    0    0    0 -0.00000000000E+00 -0.00000000000E+00 -0.45593999997E+02  0.45594000000E+02  0.51100000000E-03 0. -1.
    9900012    2    1    2    0    0  0.32287748064E+00 -0.56762283701E+00  0.98311822251E+00  0.90007759774E+02  0.90000021403E+02 0.  0.
         12    1    1    2    0    0 -0.32287748064E+00  0.56762283701E+00 -0.98311822251E+00  0.11802402264E+01  0.00000000000E+00 0. -1.
         11    1    3    3    0    0  0.33581996096E+02  0.15521997720E+02  0.91506530945E+01  0.38110593374E+02  0.51100000000E-03 0. -1.
        -11    1    3    3    0    0 -0.22089256902E+00  0.91737450396E+01 -0.42800406238E+01  0.10125469845E+02  0.51100000000E-03 0.  1.
        -12    1    3    3    0    0 -0.33038226046E+02 -0.25263365596E+02 -0.38874942483E+01  0.41771696555E+02  0.00000000000E+00 0.  1.
</event>
<event>
 7    1  0.4358868E-015  0.9000769E+02  0.7816164E-02  0.1186339E+00
        -11   -1    0    0    0    0  0.00000000000E+00  0.00000000000E+00  0.45593999997E+02  0.45594000000E+02  0.51100000000E-03 0.  1.
         11   -1    0    0    0    0 -0.00000000000E+00 -0.00000000000E+00 -0.45593999997E+02  0.45594000000E+02  0.51100000000E-03 0. -1.
    9900012    2    1    2    0    0 -0.10540647182E+01 -0.39781792056E+00  0.35187328989E+00  0.90007692269E+02  0.89999953007E+02 0.  0.
         12    1    1    2    0    0  0.10540647182E+01  0.39781792056E+00 -0.35187328989E+00  0.11803077312E+01  0.00000000000E+00 0. -1.
         11    1    3    3    0    0 -0.70116528221E+01  0.54581125100E+01 -0.16183484659E+01  0.90317949206E+01  0.51100000000E-03 0. -1.
        -11    1    3    3    0    0 -0.37241063322E+02 -0.39910234265E+01 -0.23112697976E+01  0.37525551744E+02  0.51100000000E-03 0.  1.
         12    1    3    3    0    0  0.43198651426E+02 -0.18649070040E+01  0.42814915534E+01  0.43450345604E+02  0.00000000000E+00 0. -1.
</event>
<event>
 7    1  0.4358868E-015  0.9000774E+02  0.7816164E-02  0.1186339E+00
        -11   -1    0    0    0    0  0.00000000000E+00  0.00000000000E+00  0.45593999997E+02  0.45594000000E+02  0.51100000000E-03 0. -1.
         11   -1    0    0    0    0 -0.00000000000E+00 -0.00000000000E+00 -0.45593999997E+02  0.45594000000E+02  0.51100000000E-03 0.  1.
    9900012    2    1    2    0    0  0.10020812821E+01  0.50970862324E+00 -0.35921338924E+00  0.90007744081E+02  0.90000005502E+02 0.  0.
         12    1    1    2    0    0 -0.10020812821E+01 -0.50970862324E+00  0.35921338924E+00  0.11802559195E+01  0.00000000000E+00 0. -1.
         11    1    3    3    0    0 -0.46078107468E+01  0.84402125398E+01  0.40123683305E+01  0.10419606877E+02  0.51100000000E-03 0. -1.
        -11    1    3    3    0    0 -0.20643551691E+02  0.19604716351E+02 -0.23582308948E+02  0.36967910750E+02  0.51100000000E-03 0.  1.
         12    1    3    3    0    0  0.26253443720E+02 -0.27535220268E+02  0.19210727228E+02  0.42620226454E+02  0.00000000000E+00 0. -1.
</event>
<event>
 7    1  0.6420716E-015  0.9000772E+02  0.7816164E-02  0.1186339E+00
        -11   -1    0    0    0    0  0.00000000000E+00  0.00000000000E+00  0.45593999997E+02  0.45594000000E+02  0.51100000000E-03 0. -1.
         11   -1    0    0    0    0 -0.00000000000E+00 -0.00000000000E+00 -0.45593999997E+02  0.45594000000E+02  0.51100000000E-03 0.  1.
    9900012    2    1    2    0    0 -0.19399538699E+00 -0.56511151474E+00 -0.10178816128E+01  0.90007716893E+02  0.89999977956E+02 0.  0.
         12    1    1    2    0    0  0.19399538699E+00  0.56511151474E+00  0.10178816128E+01  0.11802831067E+01  0.00000000000E+00 0. -1.
         11    1    3    3    0    0 -0.26043725609E+02 -0.60116373518E+00  0.30183517364E+02  0.39870813412E+02  0.51100000000E-03 0. -1.
        -11    1    3    3    0    0  0.61771553958E+01  0.67357349504E+01  0.34189447536E+01  0.97578971912E+01  0.51100000000E-03 0.  1.
        -12    1    3    3    0    0  0.19672574826E+02 -0.66996827300E+01 -0.34620343730E+02  0.40379006290E+02  0.00000000000E+00 0.  1.
</event>
<event>
 7    1  0.4358868E-015  0.9000766E+02  0.7816164E-02  0.1186339E+00
        -11   -1    0    0    0    0  0.00000000000E+00  0.00000000000E+00  0.45593999997E+02  0.45594000000E+02  0.51100000000E-03 0.  1.
         11   -1    0    0    0    0 -0.00000000000E+00 -0.00000000000E+00 -0.45593999997E+02  0.45594000000E+02  0.51100000000E-03 0. -1.
    9900012    2    1    2    0    0  0.88046987327E-01 -0.19878526727E+00  0.11601457691E+01  0.90007658499E+02  0.89999918791E+02 0.  0.
         12    1    1    2    0    0 -0.88046987327E-01  0.19878526727E+00 -0.11601457691E+01  0.11803415015E+01  0.00000000000E+00 0. -1.
         11    1    3    3    0    0  0.45735460495E+01  0.32817340050E+02  0.13005477792E+02  0.35595471401E+02  0.51100000000E-03 0. -1.
        -11    1    3    3    0    0 -0.19154572730E+01  0.68304417168E+01  0.72573816030E+01  0.10148571259E+02  0.51100000000E-03 0.  1.
        -12    1    3    3    0    0 -0.25700417892E+01 -0.39846567034E+02 -0.19102713626E+02  0.44263615838E+02  0.00000000000E+00 0.  1.
</event>
<event>
 7    1  0.4358868E-015  0.9000779E+02  0.7816164E-02  0.1186339E+00
        -11   -1    0    0    0    0  0.00000000000E+00  0.00000000000E+00  0.45593999997E+02  0.45594000000E+02  0.51100000000E-03 0.  1.
         11   -1    0    0    0    0 -0.00000000000E+00 -0.00000000000E+00 -0.45593999997E+02  0.45594000000E+02  0.51100000000E-03 0. -1.
    9900012    2    1    2    0    0  0.84663913411E-01  0.52851472920E-01  0.11759823360E+01  0.90007789972E+02  0.90000051999E+02 0.  0.
         12    1    1    2    0    0 -0.84663913411E-01 -0.52851472920E-01 -0.11759823360E+01  0.11802100283E+01  0.00000000000E+00 0. -1.
         11    1    3    3    0    0 -0.10940877565E+01 -0.24571701634E+01  0.11572935185E+02  0.11881394796E+02  0.51100000000E-03 0. -1.
        -11    1    3    3    0    0 -0.97592993763E+01  0.36821516848E+02  0.59893624362E+01  0.38560867339E+02  0.51100000000E-03 0.  1.
         12    1    3    3    0    0  0.10938051046E+02 -0.34311495212E+02 -0.16386315286E+02  0.39565527837E+02  0.00000000000E+00 0. -1.
</event>
<event>
 7    1  0.4358868E-015  0.9000778E+02  0.7816164E-02  0.1186339E+00
        -11   -1    0    0    0    0  0.00000000000E+00  0.00000000000E+00  0.45593999997E+02  0.45594000000E+02  0.51100000000E-03 0.  1.
         11   -1    0    0    0    0 -0.00000000000E+00 -0.00000000000E+00 -0.45593999997E+02  0.45594000000E+02  0.51100000000E-03 0. -1.
    9900012    2    1    2    0    0  0.85753448757E+00  0.12281909861E+00  0.80154568877E+00  0.90007777386E+02  0.90000039247E+02 0.  0.
         12    1    1    2    0    0 -0.85753448757E+00 -0.12281909861E+00 -0.80154568877E+00  0.11802226144E+01  0.00000000000E+00 0. -1.
         11    1    3    3    0    0 -0.26216580072E+01  0.70799471580E+01 -0.98479250023E+01  0.12408882689E+02  0.51100000000E-03 0. -1.
        -11    1    3    3    0    0  0.35319768130E+02  0.52870053442E+01  0.21640661253E+02  0.41758312537E+02  0.51100000000E-03 0.  1.
         12    1    3    3    0    0 -0.31840575635E+02 -0.12244133404E+02 -0.10991190562E+02  0.35840582160E+02  0.00000000000E+00 0. -1.
</event>
<event>
 7    1  0.4358868E-015  0.9000772E+02  0.7816164E-02  0.1186339E+00
        -11   -1    0    0    0    0  0.00000000000E+00  0.00000000000E+00  0.45593999997E+02  0.45594000000E+02  0.51100000000E-03 0.  1.
         11   -1    0    0    0    0 -0.00000000000E+00 -0.00000000000E+00 -0.45593999997E+02  0.45594000000E+02  0.51100000000E-03 0. -1.
    9900012    2    1    2    0    0 -0.11106786924E+01  0.18220580051E+00  0.35532690697E+00  0.90007718965E+02  0.89999980055E+02 0.  0.
         12    1    1    2    0    0  0.11106786924E+01 -0.18220580051E+00 -0.35532690697E+00  0.11802810353E+01  0.00000000000E+00 0. -1.
         11    1    3    3    0    0 -0.30605694393E+00  0.56677804099E+00  0.10097009653E+02  0.10117534897E+02  0.51100000000E-03 0. -1.
        -11    1    3    3    0    0 -0.10023343567E+02 -0.23596312372E+02  0.25851822481E+02  0.36408379525E+02  0.51100000000E-03 0.  1.
         12    1    3    3    0    0  0.92187218181E+01  0.23211740131E+02 -0.35593505227E+02  0.43481804542E+02  0.00000000000E+00 0. -1.
</event>
<event>
 7    1  0.4358868E-015  0.9000776E+02  0.7816164E-02  0.1186339E+00
        -11   -1    0    0    0    0  0.00000000000E+00  0.00000000000E+00  0.45593999997E+02  0.45594000000E+02  0.51100000000E-03 0.  1.
         11   -1    0    0    0    0 -0.00000000000E+00 -0.00000000000E+00 -0.45593999997E+02  0.45594000000E+02  0.51100000000E-03 0. -1.
    9900012    2    1    2    0    0  0.50946796698E+00 -0.33135909552E+00  0.10117413098E+01  0.90007755560E+02  0.90000017134E+02 0.  0.
         12    1    1    2    0    0 -0.50946796698E+00  0.33135909552E+00 -0.10117413098E+01  0.11802444398E+01  0.00000000000E+00 0. -1.
         11    1    3    3    0    0  0.10957342240E+01  0.88398012277E+01  0.18759065999E+01  0.91028426916E+01  0.51100000000E-03 0. -1.
        -11    1    3    3    0    0 -0.27681227036E+02 -0.26599942821E+02  0.19228315187E+02  0.42936411046E+02  0.51100000000E-03 0.  1.
         12    1    3    3    0    0  0.27094960779E+02  0.17428782498E+02 -0.20092480477E+02  0.37968501823E+02  0.00000000000E+00 0. -1.
</event>
<event>
 7    1  0.4358868E-015  0.9000775E+02  0.7816164E-02  0.1186339E+00
        -11   -1    0    0    0    0  0.00000000000E+00  0.00000000000E+00  0.45593999997E+02  0.45594000000E+02  0.51100000000E-03 0. -1.
         11   -1    0    0    0    0 -0.00000000000E+00 -0.00000000000E+00 -0.45593999997E+02  0.45594000000E+02  0.51100000000E-03 0.  1.
    9900012    2    1    2    0    0 -0.44198560952E+00  0.83419507320E+00 -0.70835192050E+00  0.90007747848E+02  0.90000009320E+02 0.  0.
         12    1    1    2    0    0  0.44198560952E+00 -0.83419507320E+00  0.70835192050E+00  0.11802521521E+01  0.00000000000E+00 0. -1.
         11    1    3    3    0    0 -0.22419847068E+02  0.32956043208E+02  0.95086986042E+00  0.39870471282E+02  0.51100000000E-03 0. -1.
        -11    1    3    3    0    0 -0.67905223822E+01 -0.83242266070E+00 -0.33111281369E+01  0.76005060036E+01  0.51100000000E-03 0.  1.
        -12    1    3    3    0    0  0.28768383841E+02 -0.31289425474E+02  0.16519063560E+01  0.42536770563E+02  0.00000000000E+00 0.  1.
</event>
<event>
 7    1  0.4358868E-015  0.9000771E+02  0.7816164E-02  0.1186339E+00
        -11   -1    0    0    0    0  0.00000000000E+00  0.00000000000E+00  0.45593999997E+02  0.45594000000E+02  0.51100000000E-03 0. -1.
         11   -1    0    0    0    0 -0.00000000000E+00 -0.00000000000E+00 -0.45593999997E+02  0.45594000000E+02  0.51100000000E-03 0.  1.
    9900012    2    1    2    0    0 -0.36398541810E+00 -0.68917271894E+00 -0.88636540024E+00  0.90007708492E+02  0.89999969444E+02 0.  0.
         12    1    1    2    0    0  0.36398541810E+00  0.68917271894E+00  0.88636540024E+00  0.11802915080E+01  0.00000000000E+00 0. -1.
         11    1    3    3    0    0 -0.27221827271E+01 -0.73564920298E+01  0.56704319693E+01  0.96789489493E+01  0.51100000000E-03 0. -1.
        -11    1    3    3    0    0  0.57281985749E+01 -0.35121345913E+02  0.69993420861E+01  0.36267230216E+02  0.51100000000E-03 0.  1.
         12    1    3    3    0    0 -0.33700012659E+01  0.41788665223E+02 -0.13556139456E+02  0.44061529327E+02  0.00000000000E+00 0. -1.
</event>
<event>
 7    1  0.4358868E-015  0.9000844E+02  0.7816164E-02  0.1186338E+00
        -11   -1    0    0    0    0  0.00000000000E+00  0.00000000000E+00  0.45593999997E+02  0.45594000000E+02  0.51100000000E-03 0.  1.
         11   -1    0    0    0    0 -0.00000000000E+00 -0.00000000000E+00 -0.45593999997E+02  0.45594000000E+02  0.51100000000E-03 0. -1.
    9900012    2    1    2    0    0 -0.11046127768E+01  0.72689923943E-01  0.40732408558E+00  0.90008438165E+02  0.90000708746E+02 0.  0.
         12    1    1    2    0    0  0.11046127768E+01 -0.72689923943E-01 -0.40732408558E+00  0.11795618350E+01  0.00000000000E+00 0. -1.
         11    1    3    3    0    0 -0.21999185373E+02  0.27157203350E+02 -0.17400828843E+02  0.39041858249E+02  0.51100000000E-03 0. -1.
        -11    1    3    3    0    0  0.19840943175E+01 -0.27752679577E+01 -0.93196005098E+01  0.99243990459E+01  0.51100000000E-03 0.  1.
        -12    1    3    3    0    0  0.18910478279E+02 -0.24309245468E+02  0.27127753438E+02  0.41042180870E+02  0.00000000000E+00 0.  1.
</event>
<event>
 7    1  0.4358868E-015  0.9000759E+02  0.7816164E-02  0.1186339E+00
        -11   -1    0    0    0    0  0.00000000000E+00  0.00000000000E+00  0.45593999997E+02  0.45594000000E+02  0.51100000000E-03 0.  1.
         11   -1    0    0    0    0 -0.00000000000E+00 -0.00000000000E+00 -0.45593999997E+02  0.45594000000E+02  0.51100000000E-03 0. -1.
    9900012    2    1    2    0    0 -0.89510720581E+00 -0.41199665211E+00 -0.64993555240E+00  0.90007587202E+02  0.89999846553E+02 0.  0.
         12    1    1    2    0    0  0.89510720581E+00  0.41199665211E+00  0.64993555240E+00  0.11804127979E+01  0.00000000000E+00 0. -1.
         11    1    3    3    0    0 -0.57532385016E+01  0.31066654120E+02 -0.40206132657E+01  0.31849679477E+02  0.51100000000E-03 0. -1.
        -11    1    3    3    0    0  0.72847608533E+01  0.11730697193E+02 -0.37260556786E+01  0.14302464421E+02  0.51100000000E-03 0.  1.
        -12    1    3    3    0    0 -0.24266295575E+01 -0.43209347965E+02  0.70967333919E+01  0.43855443305E+02  0.00000000000E+00 0.  1.
</event>
<event>
 7    1  0.4358868E-015  0.9000778E+02  0.7816164E-02  0.1186339E+00
        -11   -1    0    0    0    0  0.00000000000E+00  0.00000000000E+00  0.45593999997E+02  0.45594000000E+02  0.51100000000E-03 0.  1.
         11   -1    0    0    0    0 -0.00000000000E+00 -0.00000000000E+00 -0.45593999997E+02  0.45594000000E+02  0.51100000000E-03 0. -1.
    9900012    2    1    2    0    0 -0.13758230683E+00  0.78031380840E+00  0.87469402802E+00  0.90007784692E+02  0.90000046650E+02 0.  0.
         12    1    1    2    0    0  0.13758230683E+00 -0.78031380840E+00 -0.87469402802E+00  0.11802153081E+01  0.00000000000E+00 0. -1.
         11    1    3    3    0    0 -0.11562956029E+02 -0.34084620479E+01 -0.47683978127E+01  0.12963687115E+02  0.51100000000E-03 0. -1.
        -11    1    3    3    0    0 -0.30960218391E+02  0.22278871461E+01  0.13573739859E+02  0.33878385705E+02  0.51100000000E-03 0.  1.
         12    1    3    3    0    0  0.42385592114E+02  0.19608887103E+01 -0.79306480186E+01  0.43165711871E+02  0.00000000000E+00 0. -1.
</event>
<event>
 7    1  0.4358868E-015  0.9000773E+02  0.7816164E-02  0.1186339E+00
        -11   -1    0    0    0    0  0.00000000000E+00  0.00000000000E+00  0.45593999997E+02  0.45594000000E+02  0.51100000000E-03 0. -1.
         11   -1    0    0    0    0 -0.00000000000E+00 -0.00000000000E+00 -0.45593999997E+02  0.45594000000E+02  0.51100000000E-03 0.  1.
    9900012    2    1    2    0    0  0.14992068520E+00  0.10996615970E+01 -0.40162203255E+00  0.90007732193E+02  0.89999993458E+02 0.  0.
         12    1    1    2    0    0 -0.14992068520E+00 -0.10996615970E+01  0.40162203255E+00  0.11802678072E+01  0.00000000000E+00 0. -1.
         11    1    3    3    0    0  0.20183547394E+02  0.14066817550E+02  0.29072079306E+02  0.38084599733E+02  0.51100000000E-03 0. -1.
        -11    1    3    3    0    0  0.12038674718E+01  0.76423301023E+01  0.27138623885E+01  0.81987532959E+01  0.51100000000E-03 0.  1.
        -12    1    3    3    0    0 -0.21237494181E+02 -0.20609486055E+02 -0.32187563727E+02  0.43724379164E+02  0.00000000000E+00 0.  1.
</event>
<event>
 7    1  0.4358868E-015  0.9000770E+02  0.7816164E-02  0.1186339E+00
        -11   -1    0    0    0    0  0.00000000000E+00  0.00000000000E+00  0.45593999997E+02  0.45594000000E+02  0.51100000000E-03 0. -1.
         11   -1    0    0    0    0 -0.00000000000E+00 -0.00000000000E+00 -0.45593999997E+02  0.45594000000E+02  0.51100000000E-03 0.  1.
    9900012    2    1    2    0    0  0.50217267120E+00  0.10647369885E+01  0.85200071399E-01  0.90007702877E+02  0.89999963755E+02 0.  0.
         12    1    1    2    0    0 -0.50217267120E+00 -0.10647369885E+01 -0.85200071399E-01  0.11802971230E+01  0.00000000000E+00 0. -1.
         11    1    3    3    0    0 -0.27109023178E+02  0.21246014911E+02  0.10753255653E+02  0.36082194982E+02  0.51100000000E-03 0. -1.
        -11    1    3    3    0    0 -0.24443117283E+01  0.99768311529E+01 -0.16527367229E+01  0.10404006854E+02  0.51100000000E-03 0.  1.
        -12    1    3    3    0    0  0.30055507578E+02 -0.30158109076E+02 -0.90153188585E+01  0.43521501042E+02  0.00000000000E+00 0.  1.
</event>
<event>
 7    1  0.4358868E-015  0.9000763E+02  0.7816164E-02  0.1186339E+00
        -11   -1    0    0    0    0  0.00000000000E+00  0.00000000000E+00  0.45593999997E+02  0.45594000000E+02  0.51100000000E-03 0.  1.
         11   -1    0    0    0    0 -0.00000000000E+00 -0.00000000000E+00 -0.45593999997E+02  0.45594000000E+02  0.51100000000E-03 0. -1.
    9900012    2    1    2    0    0 -0.51022976878E+00 -0.53251518801E+00  0.92160872026E+00  0.90007631636E+02  0.89999891573E+02 0.  0.
         12    1    1    2    0    0  0.51022976878E+00  0.53251518801E+00 -0.92160872026E+00  0.11803683644E+01  0.00000000000E+00 0. -1.
         11    1    3    3    0    0 -0.12181586014E+02 -0.19273605719E+02 -0.31900420433E+02  0.39210964529E+02  0.51100000000E-03 0. -1.
        -11    1    3    3    0    0 -0.87159406340E+01 -0.23019908419E+01  0.46203538637E+01  0.10129879222E+02  0.51100000000E-03 0.  1.
        -12    1    3    3    0    0  0.20387296880E+02  0.21043081373E+02  0.28201675289E+02  0.40666787885E+02  0.00000000000E+00 0.  1.
</event>
<event>
 7    1  0.4358868E-015  0.9000773E+02  0.7816164E-02  0.1186339E+00
        -11   -1    0    0    0    0  0.00000000000E+00  0.00000000000E+00  0.45593999997E+02  0.45594000000E+02  0.51100000000E-03 0. -1.
         11   -1    0    0    0    0 -0.00000000000E+00 -0.00000000000E+00 -0.45593999997E+02  0.45594000000E+02  0.51100000000E-03 0.  1.
    9900012    2    1    2    0    0  0.11496846849E+01  0.24118082486E+00  0.11438062647E+00  0.90007734779E+02  0.89999996078E+02 0.  0.
         12    1    1    2    0    0 -0.11496846849E+01 -0.24118082486E+00 -0.11438062647E+00  0.11802652214E+01  0.00000000000E+00 0. -1.
         11    1    3    3    0    0 -0.14328726171E+02  0.79972765151E+01  0.76328383052E+01  0.18097763569E+02  0.51100000000E-03 0. -1.
        -11    1    3    3    0    0  0.29766466757E+02  0.21227243579E+02 -0.13639627319E+02  0.39021504928E+02  0.51100000000E-03 0.  1.
         12    1    3    3    0    0 -0.14288055901E+02 -0.28983339269E+02  0.61211696401E+01  0.32888466282E+02  0.00000000000E+00 0. -1.
</event>
