<event>
 8    1  0.5829710E-012  0.9118800E+02  0.7816164E-02  0.1184000E+00
        -11   -1    0    0    0    0  0.00000000000E+00  0.00000000000E+00  0.45593999997E+02  0.45594000000E+02  0.51100000000E-03 0. -1.
         11   -1    0    0    0    0 -0.00000000000E+00 -0.00000000000E+00 -0.45593999997E+02  0.45594000000E+02  0.51100000000E-03 0.  1.
         23    2    1    2    0    0  0.00000000000E+00  0.00000000000E+00  0.00000000000E+00  0.91188000000E+02  0.91188000000E+02 0.  0.
    9900012    2    3    3    0    0 -0.24834773456E+02  0.28170488055E+02 -0.15582814384E+02  0.50528850058E+02  0.29999970237E+02 0.  0.
         12    1    3    3    0    0  0.24834773456E+02 -0.28170488055E+02  0.15582814384E+02  0.40659149942E+02  0.00000000000E+00 0. -1.
         11    1    4    4    0    0 -0.74129939755E+01  0.19706982190E+02  0.18305778210E+01  0.21134536714E+02  0.51100000000E-03 0. -1.
        -11    1    4    4    0    0 -0.28280401257E+01  0.14937083320E+00  0.21897880330E+01  0.35798455957E+01  0.51100000000E-03 0.  1.
        -12    1    4    4    0    0 -0.14593739355E+02  0.83141350318E+01 -0.19603180238E+02  0.25814467748E+02  0.00000000000E+00 0.  1.
</event>
<event>
 8    1  0.5829710E-012  0.9118800E+02  0.7816164E-02  0.1184000E+00
        -11   -1    0    0    0    0  0.00000000000E+00  0.00000000000E+00  0.45593999997E+02  0.45594000000E+02  0.51100000000E-03 0. -1.
         11   -1    0    0    0    0 -0.00000000000E+00 -0.00000000000E+00 -0.45593999997E+02  0.45594000000E+02  0.51100000000E-03 0.  1.
         23    2    1    2    0    0  0.88817841970E-15  0.17763568394E-14  0.00000000000E+00  0.91188000000E+02  0.91188000000E+02 0.  0.
    9900012    2    3    3    0    0 -0.57474008257E+01 -0.97409755803E+01  0.39054407866E+02  0.50528855945E+02  0.29999988131E+02 0.  0.
        -12    1    3    3    0    0  0.57474008257E+01  0.97409755803E+01 -0.39054407866E+02  0.40659144055E+02  0.00000000000E+00 0.  1.
         11    1    4    4    0    0 -0.49508532545E+01 -0.43254436831E+00  0.21780702488E+02  0.22340479935E+02  0.51100000000E-03 0. -1.
        -11    1    4    4    0    0 -0.29236185683E+01 -0.64548913980E+01  0.21514837367E+02  0.22651741559E+02  0.51100000000E-03 0.  1.
        -12    1    4    4    0    0  0.21270709971E+01 -0.28535398139E+01 -0.42411319890E+01  0.55366344510E+01  0.00000000000E+00 0.  1.
</event>
<event>
 8    1  0.5829710E-012  0.9118800E+02  0.7816164E-02  0.1184000E+00
        -11   -1    0    0    0    0  0.00000000000E+00  0.00000000000E+00  0.45593999997E+02  0.45594000000E+02  0.51100000000E-03 0. -1.
         11   -1    0    0    0    0 -0.00000000000E+00 -0.00000000000E+00 -0.45593999997E+02  0.45594000000E+02  0.51100000000E-03 0.  1.
         23    2    1    2    0    0  0.00000000000E+00  0.00000000000E+00  0.00000000000E+00  0.91188000000E+02  0.91188000000E+02 0.  0.
    9900012    2    3    3    0    0 -0.35927084917E+02  0.90529838043E+01  0.16746740599E+02  0.50528864900E+02  0.30000015349E+02 0.  0.
        -12    1    3    3    0    0  0.35927084917E+02 -0.90529838043E+01 -0.16746740599E+02  0.40659135100E+02  0.00000000000E+00 0.  1.
         11    1    4    4    0    0 -0.43675695513E+01  0.59417469640E+01  0.33341790829E+01  0.80930075490E+01  0.51100000000E-03 0. -1.
        -11    1    4    4    0    0 -0.22811399534E+02  0.13614521924E+02  0.81319948325E+01  0.27782089485E+02  0.51100000000E-03 0.  1.
        -12    1    4    4    0    0 -0.87481158322E+01 -0.10503285084E+02  0.52805666839E+01  0.14653767866E+02  0.00000000000E+00 0.  1.
</event>
<event>
 8    1  0.5829710E-012  0.9118800E+02  0.7816164E-02  0.1184000E+00
        -11   -1    0    0    0    0  0.00000000000E+00  0.00000000000E+00  0.45593999997E+02  0.45594000000E+02  0.51100000000E-03 0. -1.
         11   -1    0    0    0    0 -0.00000000000E+00 -0.00000000000E+00 -0.45593999997E+02  0.45594000000E+02  0.51100000000E-03 0.  1.
         23    2    1    2    0    0  0.00000000000E+00  0.00000000000E+00  0.00000000000E+00  0.91188000000E+02  0.91188000000E+02 0.  0.
    9900012    2    3    3    0    0  0.49219260310E+01  0.24029950949E+02  0.32426871432E+02  0.50528857248E+02  0.29999992090E+02 0.  0.
        -12    1    3    3    0    0 -0.49219260310E+01 -0.24029950949E+02 -0.32426871432E+02  0.40659142752E+02  0.00000000000E+00 0.  1.
         11    1    4    4    0    0 -0.68945987169E+01  0.29697194845E+01  0.79014506036E+01  0.10898974593E+02  0.51100000000E-03 0. -1.
        -11    1    4    4    0    0 -0.17053920176E+01  0.18993352347E+01  0.13457847068E+02  0.13697791217E+02  0.51100000000E-03 0.  1.
         12    1    4    4    0    0  0.13521916765E+02  0.19160896230E+02  0.11067573761E+02  0.25932091437E+02  0.00000000000E+00 0. -1.
</event>
<event>
 8    1  0.5829710E-012  0.9118800E+02  0.7816164E-02  0.1184000E+00
        -11   -1    0    0    0    0  0.00000000000E+00  0.00000000000E+00  0.45593999997E+02  0.45594000000E+02  0.51100000000E-03 0. -1.
         11   -1    0    0    0    0 -0.00000000000E+00 -0.00000000000E+00 -0.45593999997E+02  0.45594000000E+02  0.51100000000E-03 0.  1.
         23    2    1    2    0    0  0.00000000000E+00 -0.66613381478E-15 -0.71054273576E-14  0.91188000000E+02  0.91188000000E+02 0.  0.
    9900012    2    3    3    0    0  0.31792432930E+02  0.87520277985E+00  0.25330564202E+02  0.50528901949E+02  0.30000127964E+02 0.  0.
        -12    1    3    3    0    0 -0.31792432930E+02 -0.87520277985E+00 -0.25330564202E+02  0.40659098051E+02  0.00000000000E+00 0.  1.
         11    1    4    4    0    0  0.20409350853E+02 -0.35707052041E+01  0.10812240534E+01  0.20747544038E+02  0.51100000000E-03 0. -1.
        -11    1    4    4    0    0  0.16248915829E+00  0.58517090531E+01  0.66218638084E+01  0.88384377650E+01  0.51100000000E-03 0.  1.
        -12    1    4    4    0    0  0.11220592919E+02 -0.14058010691E+01  0.17627476341E+02  0.20942920146E+02  0.00000000000E+00 0.  1.
</event>
<event>
 8    1  0.5829710E-012  0.9118800E+02  0.7816164E-02  0.1184000E+00
        -11   -1    0    0    0    0  0.00000000000E+00  0.00000000000E+00  0.45593999997E+02  0.45594000000E+02  0.51100000000E-03 0. -1.
         11   -1    0    0    0    0 -0.00000000000E+00 -0.00000000000E+00 -0.45593999997E+02  0.45594000000E+02  0.51100000000E-03 0.  1.
         23    2    1    2    0    0  0.00000000000E+00  0.00000000000E+00 -0.88817841970E-15  0.91188000000E+02  0.91188000000E+02 0.  0.
    9900012    2    3    3    0    0 -0.36576523364E+01  0.39891343899E+02  0.69618930117E+01  0.50528859663E+02  0.29999999430E+02 0.  0.
        -12    1    3    3    0    0  0.36576523364E+01 -0.39891343899E+02 -0.69618930117E+01  0.40659140337E+02  0.00000000000E+00 0.  1.
         11    1    4    4    0    0 -0.14235711574E+01  0.13012261329E+02 -0.85717239916E+01  0.15646723369E+02  0.51100000000E-03 0. -1.
        -11    1    4    4    0    0  0.18500055198E+01 -0.60345733595E+00 -0.13516745608E+01  0.23693259714E+01  0.51100000000E-03 0.  1.
         12    1    4    4    0    0 -0.40840866987E+01  0.27482539906E+02  0.16885291564E+02  0.32512810322E+02  0.00000000000E+00 0. -1.
</event>
<event>
 8    1  0.5829710E-012  0.9118800E+02  0.7816164E-02  0.1184000E+00
        -11   -1    0    0    0    0  0.00000000000E+00  0.00000000000E+00  0.45593999997E+02  0.45594000000E+02  0.51100000000E-03 0. -1.
         11   -1    0    0    0    0 -0.00000000000E+00 -0.00000000000E+00 -0.45593999997E+02  0.45594000000E+02  0.51100000000E-03 0.  1.
         23    2    1    2    0    0 -0.83266726847E-16  0.00000000000E+00  0.00000000000E+00  0.91188000000E+02  0.91188000000E+02 0.  0.
    9900012    2    3    3    0    0  0.23001065875E+00  0.37892973767E+02 -0.14738943084E+02  0.50528845938E+02  0.29999957713E+02 0.  0.
         12    1    3    3    0    0 -0.23001065875E+00 -0.37892973767E+02  0.14738943084E+02  0.40659154062E+02  0.00000000000E+00 0. -1.
         11    1    4    4    0    0  0.25283780380E+01  0.66286623125E+01 -0.22576655578E+01  0.74450596766E+01  0.51100000000E-03 0.  1.
        -11    1    4    4    0    0 -0.27616175578E+01  0.35998598720E+02 -0.90583605425E+01  0.37223373535E+02  0.51100000000E-03 0. -1.
         12    1    4    4    0    0  0.46325017858E+00 -0.47342872657E+01 -0.34229169839E+01  0.58604127262E+01  0.00000000000E+00 0. -1.
</event>
<event>
 8    1  0.5829710E-012  0.9118800E+02  0.7816164E-02  0.1184000E+00
        -11   -1    0    0    0    0  0.00000000000E+00  0.00000000000E+00  0.45593999997E+02  0.45594000000E+02  0.51100000000E-03 0. -1.
         11   -1    0    0    0    0 -0.00000000000E+00 -0.00000000000E+00 -0.45593999997E+02  0.45594000000E+02  0.51100000000E-03 0.  1.
         23    2    1    2    0    0  0.00000000000E+00  0.00000000000E+00  0.00000000000E+00  0.91188000000E+02  0.91188000000E+02 0.  0.
    9900012    2    3    3    0    0 -0.20481582025E+02 -0.24328261168E+02  0.25333846990E+02  0.50528889127E+02  0.30000088990E+02 0.  0.
        -12    1    3    3    0    0  0.20481582025E+02  0.24328261168E+02 -0.25333846990E+02  0.40659110873E+02  0.00000000000E+00 0.  1.
         11    1    4    4    0    0 -0.57266609372E+01 -0.13545464520E+02  0.16751954385E+02  0.22291303922E+02  0.51100000000E-03 0. -1.
        -11    1    4    4    0    0  0.49012883026E+01 -0.12638475396E+01  0.15484929148E+01  0.52931812927E+01  0.51100000000E-03 0.  1.
        -12    1    4    4    0    0 -0.19656209390E+02 -0.95189491084E+01  0.70333996900E+01  0.22944403913E+02  0.00000000000E+00 0.  1.
</event>
<event>
 8    1  0.5829710E-012  0.9118800E+02  0.7816164E-02  0.1184000E+00
        -11   -1    0    0    0    0  0.00000000000E+00  0.00000000000E+00  0.45593999997E+02  0.45594000000E+02  0.51100000000E-03 0. -1.
         11   -1    0    0    0    0 -0.00000000000E+00 -0.00000000000E+00 -0.45593999997E+02  0.45594000000E+02  0.51100000000E-03 0.  1.
         23    2    1    2    0    0  0.00000000000E+00 -0.35527136788E-14 -0.35527136788E-14  0.91188000000E+02  0.91188000000E+02 0.  0.
    9900012    2    3    3    0    0  0.16201689457E+02  0.19635446536E+02  0.31703631189E+02  0.50528859176E+02  0.29999997952E+02 0.  0.
        -12    1    3    3    0    0 -0.16201689457E+02 -0.19635446536E+02 -0.31703631189E+02  0.40659140824E+02  0.00000000000E+00 0.  1.
         11    1    4    4    0    0  0.87744314691E+01  0.45611461428E+01  0.40177050354E+01  0.10674111474E+02  0.51100000000E-03 0.  1.
        -11    1    4    4    0    0  0.43397102675E+01  0.14845355251E+02  0.40110651580E+01  0.15978307223E+02  0.51100000000E-03 0. -1.
         12    1    4    4    0    0  0.30875477205E+01  0.22894514205E+00  0.23674860996E+02  0.23876440480E+02  0.00000000000E+00 0. -1.
</event>
<event>
 8    1  0.5829710E-012  0.9118800E+02  0.7816164E-02  0.1184000E+00
        -11   -1    0    0    0    0  0.00000000000E+00  0.00000000000E+00  0.45593999997E+02  0.45594000000E+02  0.51100000000E-03 0. -1.
         11   -1    0    0    0    0 -0.00000000000E+00 -0.00000000000E+00 -0.45593999997E+02  0.45594000000E+02  0.51100000000E-03 0.  1.
         23    2    1    2    0    0 -0.88817841970E-15  0.00000000000E+00  0.71054273576E-14  0.91188000000E+02  0.91188000000E+02 0.  0.
    9900012    2    3    3    0    0 -0.54936902374E+01 -0.13398812248E+02  0.37992788374E+02  0.50528920196E+02  0.30000183426E+02 0.  0.
        -12    1    3    3    0    0  0.54936902374E+01  0.13398812248E+02 -0.37992788374E+02  0.40659079804E+02  0.00000000000E+00 0.  1.
         11    1    4    4    0    0 -0.76938833785E+01 -0.72697826352E+01  0.11758764849E+02  0.15821318910E+02  0.51100000000E-03 0.  1.
        -11    1    4    4    0    0 -0.41007581399E+01 -0.11646908093E+02  0.22218946816E+02  0.25419446951E+02  0.51100000000E-03 0. -1.
        -12    1    4    4    0    0  0.63009512810E+01  0.55178784797E+01  0.40150767089E+01  0.92881543345E+01  0.00000000000E+00 0.  1.
</event>
<event>
 8    1  0.5829710E-012  0.9118800E+02  0.7816164E-02  0.1184000E+00
        -11   -1    0    0    0    0  0.00000000000E+00  0.00000000000E+00  0.45593999997E+02  0.45594000000E+02  0.51100000000E-03 0.  1.
         11   -1    0    0    0    0 -0.00000000000E+00 -0.00000000000E+00 -0.45593999997E+02  0.45594000000E+02  0.51100000000E-03 0. -1.
         23    2    1    2    0    0 -0.71054273576E-14  0.00000000000E+00  0.17763568394E-14  0.91188000000E+02  0.91188000000E+02 0.  0.
    9900012    2    3    3    0    0  0.35826293016E+02 -0.15467422091E+02 -0.11419314570E+02  0.50528866184E+02  0.30000019253E+02 0.  0.
         12    1    3    3    0    0 -0.35826293016E+02  0.15467422091E+02  0.11419314570E+02  0.40659133816E+02  0.00000000000E+00 0. -1.
         11    1    4    4    0    0  0.22092664702E+02 -0.53163975702E+01  0.50966365709E+01  0.23287885721E+02  0.51100000000E-03 0. -1.
        -11    1    4    4    0    0  0.55814785814E+01 -0.39022842923E-02  0.73579568617E+00  0.56297703270E+01  0.51100000000E-03 0.  1.
         12    1    4    4    0    0  0.81521497328E+01 -0.10147122236E+02 -0.17251746827E+02  0.21611210136E+02  0.00000000000E+00 0. -1.
</event>
<event>
 8    1  0.5829710E-012  0.9118800E+02  0.7816164E-02  0.1184000E+00
        -11   -1    0    0    0    0  0.00000000000E+00  0.00000000000E+00  0.45593999997E+02  0.45594000000E+02  0.51100000000E-03 0. -1.
         11   -1    0    0    0    0 -0.00000000000E+00 -0.00000000000E+00 -0.45593999997E+02  0.45594000000E+02  0.51100000000E-03 0.  1.
         23    2    1    2    0    0  0.00000000000E+00  0.00000000000E+00  0.00000000000E+00  0.91188000000E+02  0.91188000000E+02 0.  0.
    9900012    2    3    3    0    0  0.21255028720E+02 -0.17824514479E+02  0.29726696567E+02  0.50528855259E+02  0.29999986046E+02 0.  0.
        -12    1    3    3    0    0 -0.21255028720E+02  0.17824514479E+02 -0.29726696567E+02  0.40659144741E+02  0.00000000000E+00 0.  1.
         11    1    4    4    0    0  0.92259708310E+01 -0.94444568427E+01  0.10074264594E+02  0.16607441411E+02  0.51100000000E-03 0. -1.
        -11    1    4    4    0    0 -0.69454220884E+01 -0.10127896880E+01  0.30430302404E+01  0.76501414525E+01  0.51100000000E-03 0.  1.
         12    1    4    4    0    0  0.18974479977E+02 -0.73672679478E+01  0.16609401732E+02  0.26271272396E+02  0.00000000000E+00 0. -1.
</event>
<event>
 8    1  0.5829710E-012  0.9118800E+02  0.7816164E-02  0.1184000E+00
        -11   -1    0    0    0    0  0.00000000000E+00  0.00000000000E+00  0.45593999997E+02  0.45594000000E+02  0.51100000000E-03 0. -1.
         11   -1    0    0    0    0 -0.00000000000E+00 -0.00000000000E+00 -0.45593999997E+02  0.45594000000E+02  0.51100000000E-03 0.  1.
         23    2    1    2    0    0  0.00000000000E+00  0.00000000000E+00  0.00000000000E+00  0.91188000000E+02  0.91188000000E+02 0.  0.
    9900012    2    3    3    0    0  0.34632777656E+02  0.87084969987E+01 -0.19439589479E+02  0.50528870062E+02  0.30000031042E+02 0.  0.
         12    1    3    3    0    0 -0.34632777656E+02 -0.87084969987E+01  0.19439589479E+02  0.40659129938E+02  0.00000000000E+00 0. -1.
         11    1    4    4    0    0  0.36902668114E+00  0.65140066890E+01 -0.10675317132E+02  0.12511229355E+02  0.51100000000E-03 0. -1.
        -11    1    4    4    0    0  0.14312574763E+01 -0.21197576124E+01 -0.37296042791E+01  0.45223686978E+01  0.51100000000E-03 0.  1.
         12    1    4    4    0    0  0.32832493499E+02  0.43142479221E+01 -0.50346680682E+01  0.33495272010E+02  0.00000000000E+00 0. -1.
</event>
<event>
 8    1  0.5829710E-012  0.9118800E+02  0.7816164E-02  0.1184000E+00
        -11   -1    0    0    0    0  0.00000000000E+00  0.00000000000E+00  0.45593999997E+02  0.45594000000E+02  0.51100000000E-03 0. -1.
         11   -1    0    0    0    0 -0.00000000000E+00 -0.00000000000E+00 -0.45593999997E+02  0.45594000000E+02  0.51100000000E-03 0.  1.
         23    2    1    2    0    0 -0.17763568394E-14  0.20400348077E-14 -0.71054273576E-14  0.91188000000E+02  0.91188000000E+02 0.  0.
    9900012    2    3    3    0    0  0.12589695247E+02 -0.66476926191E-01  0.38660837320E+02  0.50528865874E+02  0.30000018311E+02 0.  0.
        -12    1    3    3    0    0 -0.12589695247E+02  0.66476926191E-01 -0.38660837320E+02  0.40659134126E+02  0.00000000000E+00 0.  1.
         11    1    4    4    0    0 -0.31117316225E+00 -0.54149832547E+01  0.19673889889E+02  0.20407861623E+02  0.51100000000E-03 0. -1.
        -11    1    4    4    0    0  0.23508869930E+01 -0.68408871240E+01  0.65792525528E+01  0.97780862500E+01  0.51100000000E-03 0.  1.
         12    1    4    4    0    0  0.10549981416E+02  0.12189393452E+02  0.12407694878E+02  0.20342918001E+02  0.00000000000E+00 0. -1.
</event>
<event>
 8    1  0.5829710E-012  0.9118800E+02  0.7816164E-02  0.1184000E+00
        -11   -1    0    0    0    0  0.00000000000E+00  0.00000000000E+00  0.45593999997E+02  0.45594000000E+02  0.51100000000E-03 0. -1.
         11   -1    0    0    0    0 -0.00000000000E+00 -0.00000000000E+00 -0.45593999997E+02  0.45594000000E+02  0.51100000000E-03 0.  1.
         23    2    1    2    0    0  0.00000000000E+00  0.00000000000E+00  0.00000000000E+00  0.91188000000E+02  0.91188000000E+02 0.  0.
    9900012    2    3    3    0    0  0.66443819138E+01 -0.23376460371E+02  0.32596908582E+02  0.50528866222E+02  0.30000019367E+02 0.  0.
        -12    1    3    3    0    0 -0.66443819138E+01  0.23376460371E+02 -0.32596908582E+02  0.40659133778E+02  0.00000000000E+00 0.  1.
         11    1    4    4    0    0 -0.50954351245E+00 -0.89150881979E+01 -0.14503526819E+00  0.89308156211E+01  0.51100000000E-03 0. -1.
        -11    1    4    4    0    0  0.25942126621E+01 -0.11898163970E+02  0.46692139897E+01  0.13042154911E+02  0.51100000000E-03 0.  1.
         12    1    4    4    0    0  0.45597127641E+01 -0.25632082031E+01  0.28072729861E+02  0.28555895689E+02  0.00000000000E+00 0. -1.
</event>
<event>
 8    1  0.5829710E-012  0.9118800E+02  0.7816164E-02  0.1184000E+00
        -11   -1    0    0    0    0  0.00000000000E+00  0.00000000000E+00  0.45593999997E+02  0.45594000000E+02  0.51100000000E-03 0. -1.
         11   -1    0    0    0    0 -0.00000000000E+00 -0.00000000000E+00 -0.45593999997E+02  0.45594000000E+02  0.51100000000E-03 0.  1.
         23    2    1    2    0    0  0.00000000000E+00 -0.35527136788E-14 -0.17763568394E-14  0.91188000000E+02  0.91188000000E+02 0.  0.
    9900012    2    3    3    0    0  0.33508243125E+02 -0.22236134164E+02  0.59931492836E+01  0.50528857630E+02  0.29999993253E+02 0.  0.
        -12    1    3    3    0    0 -0.33508243125E+02  0.22236134164E+02 -0.59931492836E+01  0.40659142370E+02  0.00000000000E+00 0.  1.
         11    1    4    4    0    0  0.93587975726E+01 -0.76565814906E+01  0.36273064876E+01  0.12624091442E+02  0.51100000000E-03 0. -1.
        -11    1    4    4    0    0  0.15213689818E+02 -0.11445191964E+02  0.13462293120E+02  0.23316991944E+02  0.51100000000E-03 0.  1.
        -12    1    4    4    0    0  0.89357557346E+01 -0.31343607094E+01 -0.11096450324E+02  0.14587774244E+02  0.00000000000E+00 0.  1.
</event>
<event>
 8    1  0.5829710E-012  0.9118800E+02  0.7816164E-02  0.1184000E+00
        -11   -1    0    0    0    0  0.00000000000E+00  0.00000000000E+00  0.45593999997E+02  0.45594000000E+02  0.51100000000E-03 0. -1.
         11   -1    0    0    0    0 -0.00000000000E+00 -0.00000000000E+00 -0.45593999997E+02  0.45594000000E+02  0.51100000000E-03 0.  1.
         23    2    1    2    0    0  0.88817841970E-15  0.88817841970E-15 -0.71054273576E-14  0.91188000000E+02  0.91188000000E+02 0.  0.
    9900012    2    3    3    0    0 -0.75177320429E+01  0.76106370515E+01  0.39226612173E+02  0.50528865799E+02  0.30000018084E+02 0.  0.
        -12    1    3    3    0    0  0.75177320429E+01 -0.76106370515E+01 -0.39226612173E+02  0.40659134201E+02  0.00000000000E+00 0.  1.
         11    1    4    4    0    0  0.11752056515E+01  0.64403049912E+00  0.48346833805E+01  0.50169759076E+01  0.51100000000E-03 0. -1.
        -11    1    4    4    0    0  0.77568072666E+00 -0.35967815535E+01 -0.34835812594E+01  0.50669376141E+01  0.51100000000E-03 0.  1.
         12    1    4    4    0    0 -0.94686184210E+01  0.10563388106E+02  0.37875510052E+02  0.40444952278E+02  0.00000000000E+00 0. -1.
</event>
<event>
 8    1  0.5829710E-012  0.9118800E+02  0.7816164E-02  0.1184000E+00
        -11   -1    0    0    0    0  0.00000000000E+00  0.00000000000E+00  0.45593999997E+02  0.45594000000E+02  0.51100000000E-03 0. -1.
         11   -1    0    0    0    0 -0.00000000000E+00 -0.00000000000E+00 -0.45593999997E+02  0.45594000000E+02  0.51100000000E-03 0.  1.
         23    2    1    2    0    0  0.00000000000E+00  0.55511151231E-15  0.00000000000E+00  0.91188000000E+02  0.91188000000E+02 0.  0.
    9900012    2    3    3    0    0 -0.35400664092E+02 -0.99415760125E+00 -0.19974233746E+02  0.50528863497E+02  0.30000011084E+02 0.  0.
         12    1    3    3    0    0  0.35400664092E+02  0.99415760125E+00  0.19974233746E+02  0.40659136503E+02  0.00000000000E+00 0. -1.
         11    1    4    4    0    0 -0.23000989118E+01  0.64372852490E+01 -0.37551728627E+00  0.68461748353E+01  0.51100000000E-03 0. -1.
        -11    1    4    4    0    0 -0.12734168106E+02 -0.81396809003E+01  0.41598287207E+00  0.15119076841E+02  0.51100000000E-03 0.  1.
        -12    1    4    4    0    0 -0.20366397074E+02  0.70823804998E+00 -0.20014699331E+02  0.28563611821E+02  0.00000000000E+00 0.  1.
</event>
<event>
 8    1  0.5829710E-012  0.9118800E+02  0.7816164E-02  0.1184000E+00
        -11   -1    0    0    0    0  0.00000000000E+00  0.00000000000E+00  0.45593999997E+02  0.45594000000E+02  0.51100000000E-03 0. -1.
         11   -1    0    0    0    0 -0.00000000000E+00 -0.00000000000E+00 -0.45593999997E+02  0.45594000000E+02  0.51100000000E-03 0.  1.
         23    2    1    2    0    0  0.00000000000E+00  0.00000000000E+00  0.00000000000E+00  0.91188000000E+02  0.91188000000E+02 0.  0.
    9900012    2    3    3    0    0  0.30344519559E+02 -0.24380470219E+02 -0.11745959524E+02  0.50528871130E+02  0.30000034285E+02 0.  0.
         12    1    3    3    0    0 -0.30344519559E+02  0.24380470219E+02  0.11745959524E+02  0.40659128870E+02  0.00000000000E+00 0. -1.
         11    1    4    4    0    0  0.38995012881E+00  0.52683093492E+01 -0.32926473376E+01  0.62248430705E+01  0.51100000000E-03 0. -1.
        -11    1    4    4    0    0  0.16899613965E+02 -0.17347051023E+02 -0.10206060095E+02  0.26280806576E+02  0.51100000000E-03 0.  1.
        -12    1    4    4    0    0  0.13054955466E+02 -0.12301728544E+02  0.17527479083E+01  0.18023221483E+02  0.00000000000E+00 0.  1.
</event>
<event>
 8    1  0.5829710E-012  0.9118800E+02  0.7816164E-02  0.1184000E+00
        -11   -1    0    0    0    0  0.00000000000E+00  0.00000000000E+00  0.45593999997E+02  0.45594000000E+02  0.51100000000E-03 0. -1.
         11   -1    0    0    0    0 -0.00000000000E+00 -0.00000000000E+00 -0.45593999997E+02  0.45594000000E+02  0.51100000000E-03 0.  1.
         23    2    1    2    0    0  0.00000000000E+00 -0.66613381478E-15  0.00000000000E+00  0.91188000000E+02  0.91188000000E+02 0.  0.
    9900012    2    3    3    0    0 -0.90838696737E+01 -0.10232973025E+01  0.39618178184E+02  0.50528882102E+02  0.30000067638E+02 0.  0.
        -12    1    3    3    0    0  0.90838696737E+01  0.10232973025E+01 -0.39618178184E+02  0.40659117898E+02  0.00000000000E+00 0.  1.
         11    1    4    4    0    0 -0.40808921039E+01  0.52872033031E+01  0.29706752945E+02  0.30448306519E+02  0.51100000000E-03 0. -1.
        -11    1    4    4    0    0 -0.71035753801E+01  0.11315435661E+00 -0.10714961733E+01  0.71848236860E+01  0.51100000000E-03 0.  1.
         12    1    4    4    0    0  0.21005978102E+01 -0.64236549622E+01  0.10982921413E+02  0.12895751897E+02  0.00000000000E+00 0. -1.
</event>
<event>
 8    1  0.5829710E-012  0.9118800E+02  0.7816164E-02  0.1184000E+00
        -11   -1    0    0    0    0  0.00000000000E+00  0.00000000000E+00  0.45593999997E+02  0.45594000000E+02  0.51100000000E-03 0. -1.
         11   -1    0    0    0    0 -0.00000000000E+00 -0.00000000000E+00 -0.45593999997E+02  0.45594000000E+02  0.51100000000E-03 0.  1.
         23    2    1    2    0    0  0.17763568394E-14  0.35527136788E-14  0.00000000000E+00  0.91188000000E+02  0.91188000000E+02 0.  0.
    9900012    2    3    3    0    0  0.92712338056E+01  0.14355463398E+02 -0.36893511874E+02  0.50528851902E+02  0.29999975840E+02 0.  0.
         12    1    3    3    0    0 -0.92712338056E+01 -0.14355463398E+02  0.36893511874E+02  0.40659148098E+02  0.00000000000E+00 0. -1.
         11    1    4    4    0    0  0.22516196940E+01  0.16536365412E+02 -0.55438309883E+01  0.17585654226E+02  0.51100000000E-03 0. -1.
        -11    1    4    4    0    0 -0.42355817035E+00  0.15475849974E+01 -0.78566478956E+01  0.80188114621E+01  0.51100000000E-03 0.  1.
        -12    1    4    4    0    0  0.74431722820E+01 -0.37284870108E+01 -0.23493032991E+02  0.24924386213E+02  0.00000000000E+00 0.  1.
</event>
<event>
 8    1  0.5829710E-012  0.9118800E+02  0.7816164E-02  0.1184000E+00
        -11   -1    0    0    0    0  0.00000000000E+00  0.00000000000E+00  0.45593999997E+02  0.45594000000E+02  0.51100000000E-03 0. -1.
         11   -1    0    0    0    0 -0.00000000000E+00 -0.00000000000E+00 -0.45593999997E+02  0.45594000000E+02  0.51100000000E-03 0.  1.
         23    2    1    2    0    0 -0.10658141036E-13  0.00000000000E+00  0.71054273576E-14  0.91188000000E+02  0.91188000000E+02 0.  0.
    9900012    2    3    3    0    0 -0.30196109163E+02 -0.78092157758E+01  0.26084000812E+02  0.50528880999E+02  0.30000064284E+02 0.  0.
        -12    1    3    3    0    0  0.30196109163E+02  0.78092157758E+01 -0.26084000812E+02  0.40659119001E+02  0.00000000000E+00 0.  1.
         11    1    4    4    0    0 -0.30473161954E+02 -0.64786712712E+01  0.14631702774E+02  0.34419086380E+02  0.51100000000E-03 0. -1.
        -11    1    4    4    0    0 -0.34996439186E+01 -0.10069875269E+01 -0.40242637882E+00  0.36638065844E+01  0.51100000000E-03 0.  1.
         12    1    4    4    0    0  0.37766967098E+01 -0.32355697762E+00  0.11854724416E+02  0.12445988034E+02  0.00000000000E+00 0. -1.
</event>
<event>
 8    1  0.9744314E-012  0.9118800E+02  0.7816164E-02  0.1184000E+00
        -11   -1    0    0    0    0  0.00000000000E+00  0.00000000000E+00  0.45593999997E+02  0.45594000000E+02  0.51100000000E-03 0. -1.
         11   -1    0    0    0    0 -0.00000000000E+00 -0.00000000000E+00 -0.45593999997E+02  0.45594000000E+02  0.51100000000E-03 0.  1.
         23    2    1    2    0    0  0.35527136788E-14  0.00000000000E+00  0.00000000000E+00  0.91188000000E+02  0.91188000000E+02 0.  0.
    9900012    2    3    3    0    0  0.22217769460E+02 -0.13400174473E+02 -0.31304501907E+02  0.50528858404E+02  0.29999995604E+02 0.  0.
         12    1    3    3    0    0 -0.22217769460E+02  0.13400174473E+02  0.31304501907E+02  0.40659141596E+02  0.00000000000E+00 0. -1.
         11    1    4    4    0    0  0.30412113156E+01 -0.23620731203E+01 -0.10599684360E+02  0.11277484848E+02  0.51100000000E-03 0. -1.
        -11    1    4    4    0    0  0.19780375766E+02 -0.11994609666E+02 -0.25438814301E+02  0.34384112608E+02  0.51100000000E-03 0.  1.
         12    1    4    4    0    0 -0.60381762199E+00  0.95650831334E+00  0.47339967542E+01  0.48672609487E+01  0.00000000000E+00 0. -1.
</event>
<event>
 8    1  0.5829710E-012  0.9118800E+02  0.7816164E-02  0.1184000E+00
        -11   -1    0    0    0    0  0.00000000000E+00  0.00000000000E+00  0.45593999997E+02  0.45594000000E+02  0.51100000000E-03 0. -1.
         11   -1    0    0    0    0 -0.00000000000E+00 -0.00000000000E+00 -0.45593999997E+02  0.45594000000E+02  0.51100000000E-03 0.  1.
         23    2    1    2    0    0  0.35527136788E-14  0.00000000000E+00  0.35527136788E-14  0.91188000000E+02  0.91188000000E+02 0.  0.
    9900012    2    3    3    0    0 -0.23646988642E+02  0.18317613795E+02 -0.27540045527E+02  0.50528817093E+02  0.29999870037E+02 0.  0.
         12    1    3    3    0    0  0.23646988642E+02 -0.18317613795E+02  0.27540045527E+02  0.40659182907E+02  0.00000000000E+00 0. -1.
         11    1    4    4    0    0 -0.44500613570E+00  0.20232300346E+01 -0.10228842112E+01  0.23103641714E+01  0.51100000000E-03 0. -1.
        -11    1    4    4    0    0 -0.85394173821E+01  0.16010251090E+02 -0.28119620108E+02  0.33465845641E+02  0.51100000000E-03 0.  1.
         12    1    4    4    0    0 -0.14662565124E+02  0.28413267033E+00  0.16024587919E+01  0.14752607281E+02  0.00000000000E+00 0. -1.
</event>
<event>
 8    1  0.7222064E-012  0.9118800E+02  0.7816164E-02  0.1184000E+00
        -11   -1    0    0    0    0  0.00000000000E+00  0.00000000000E+00  0.45593999997E+02  0.45594000000E+02  0.51100000000E-03 0. -1.
         11   -1    0    0    0    0 -0.00000000000E+00 -0.00000000000E+00 -0.45593999997E+02  0.45594000000E+02  0.51100000000E-03 0.  1.
         23    2    1    2    0    0  0.35527136788E-14  0.00000000000E+00  0.00000000000E+00  0.91188000000E+02  0.91188000000E+02 0.  0.
    9900012    2    3    3    0    0 -0.11279667315E+02 -0.20819617731E+02 -0.33052665865E+02  0.50528854682E+02  0.29999984292E+02 0.  0.
         12    1    3    3    0    0  0.11279667315E+02  0.20819617731E+02  0.33052665865E+02  0.40659145318E+02  0.00000000000E+00 0. -1.
         11    1    4    4    0    0 -0.51645357531E+01 -0.13998492037E+02 -0.73647656984E+01  0.16639410534E+02  0.51100000000E-03 0. -1.
        -11    1    4    4    0    0 -0.12063786463E+02  0.41998664652E+00 -0.10278966520E+02  0.15854604555E+02  0.51100000000E-03 0.  1.
         12    1    4    4    0    0  0.59486549010E+01 -0.72411123404E+01 -0.15408933646E+02  0.18034839594E+02  0.00000000000E+00 0. -1.
</event>
<event>
 8    1  0.5829710E-012  0.9118800E+02  0.7816164E-02  0.1184000E+00
        -11   -1    0    0    0    0  0.00000000000E+00  0.00000000000E+00  0.45593999997E+02  0.45594000000E+02  0.51100000000E-03 0. -1.
         11   -1    0    0    0    0 -0.00000000000E+00 -0.00000000000E+00 -0.45593999997E+02  0.45594000000E+02  0.51100000000E-03 0.  1.
         23    2    1    2    0    0  0.00000000000E+00 -0.35527136788E-14  0.00000000000E+00  0.91188000000E+02  0.91188000000E+02 0.  0.
    9900012    2    3    3    0    0  0.44734204666E+01 -0.18717054642E+02  0.35816554038E+02  0.50528866114E+02  0.30000019041E+02 0.  0.
        -12    1    3    3    0    0 -0.44734204666E+01  0.18717054642E+02 -0.35816554038E+02  0.40659133886E+02  0.00000000000E+00 0.  1.
         11    1    4    4    0    0 -0.61970565883E+01 -0.50295021064E+01  0.13100579233E+02  0.15340292641E+02  0.51100000000E-03 0. -1.
        -11    1    4    4    0    0 -0.32735945810E+01  0.10753104326E+01  0.11467944521E+02  0.11974408787E+02  0.51100000000E-03 0.  1.
        -12    1    4    4    0    0  0.13944071636E+02 -0.14762862969E+02  0.11248030284E+02  0.23214164686E+02  0.00000000000E+00 0.  1.
</event>
<event>
 8    1  0.5829710E-012  0.9118800E+02  0.7816164E-02  0.1184000E+00
        -11   -1    0    0    0    0  0.00000000000E+00  0.00000000000E+00  0.45593999997E+02  0.45594000000E+02  0.51100000000E-03 0. -1.
         11   -1    0    0    0    0 -0.00000000000E+00 -0.00000000000E+00 -0.45593999997E+02  0.45594000000E+02  0.51100000000E-03 0.  1.
         23    2    1    2    0    0  0.00000000000E+00  0.00000000000E+00  0.00000000000E+00  0.91188000000E+02  0.91188000000E+02 0.  0.
    9900012    2    3    3    0    0  0.31421962832E+01 -0.12800739924E+02  0.38463401799E+02  0.50528860584E+02  0.30000002230E+02 0.  0.
        -12    1    3    3    0    0 -0.31421962832E+01  0.12800739924E+02 -0.38463401799E+02  0.40659139416E+02  0.00000000000E+00 0.  1.
         11    1    4    4    0    0  0.28096827687E+01  0.24646926297E+01 -0.17411465448E+01  0.41231806378E+01  0.51100000000E-03 0. -1.
        -11    1    4    4    0    0 -0.28227915489E+01  0.20339762617E+01  0.13047232692E+01  0.37158464221E+01  0.51100000000E-03 0.  1.
         12    1    4    4    0    0  0.31553050634E+01 -0.17299408816E+02  0.38899825075E+02  0.42689833524E+02  0.00000000000E+00 0. -1.
</event>
<event>
 8    1  0.5829710E-012  0.9118800E+02  0.7816164E-02  0.1184000E+00
        -11   -1    0    0    0    0  0.00000000000E+00  0.00000000000E+00  0.45593999997E+02  0.45594000000E+02  0.51100000000E-03 0. -1.
         11   -1    0    0    0    0 -0.00000000000E+00 -0.00000000000E+00 -0.45593999997E+02  0.45594000000E+02  0.51100000000E-03 0.  1.
         23    2    1    2    0    0  0.00000000000E+00 -0.17763568394E-14  0.00000000000E+00  0.91188000000E+02  0.91188000000E+02 0.  0.
    9900012    2    3    3    0    0 -0.33168139131E+02 -0.12259822407E+02 -0.20068319135E+02  0.50528854266E+02  0.29999983027E+02 0.  0.
         12    1    3    3    0    0  0.33168139131E+02  0.12259822407E+02  0.20068319135E+02  0.40659145734E+02  0.00000000000E+00 0. -1.
         11    1    4    4    0    0  0.34303632427E+01  0.59605932108E+00 -0.74301658210E+01  0.82054885948E+01  0.51100000000E-03 0. -1.
        -11    1    4    4    0    0 -0.14545857697E+02  0.48993716613E+00 -0.34426167176E+01  0.14955722139E+02  0.51100000000E-03 0.  1.
        -12    1    4    4    0    0 -0.22052644677E+02 -0.13345818894E+02 -0.91955365969E+01  0.27367643532E+02  0.00000000000E+00 0.  1.
</event>
<event>
 8    1  0.5829710E-012  0.9118800E+02  0.7816164E-02  0.1184000E+00
        -11   -1    0    0    0    0  0.00000000000E+00  0.00000000000E+00  0.45593999997E+02  0.45594000000E+02  0.51100000000E-03 0. -1.
         11   -1    0    0    0    0 -0.00000000000E+00 -0.00000000000E+00 -0.45593999997E+02  0.45594000000E+02  0.51100000000E-03 0.  1.
         23    2    1    2    0    0 -0.35527136788E-14  0.00000000000E+00  0.00000000000E+00  0.91188000000E+02  0.91188000000E+02 0.  0.
    9900012    2    3    3    0    0 -0.22030530069E+02  0.18623981626E+02  0.28652583142E+02  0.50528837841E+02  0.29999933103E+02 0.  0.
        -12    1    3    3    0    0  0.22030530069E+02 -0.18623981626E+02 -0.28652583142E+02  0.40659162159E+02  0.00000000000E+00 0.  1.
         11    1    4    4    0    0 -0.19043590243E+02  0.66910742894E+01  0.16309566715E+02  0.25950544718E+02  0.51100000000E-03 0. -1.
        -11    1    4    4    0    0 -0.94930102531E+01  0.25671814489E+01  0.61983860725E+01  0.11624442112E+02  0.51100000000E-03 0.  1.
         12    1    4    4    0    0  0.65060704272E+01  0.93657258879E+01  0.61446303546E+01  0.12953851011E+02  0.00000000000E+00 0. -1.
</event>
<event>
 8    1  0.5829710E-012  0.9118800E+02  0.7816164E-02  0.1184000E+00
        -11   -1    0    0    0    0  0.00000000000E+00  0.00000000000E+00  0.45593999997E+02  0.45594000000E+02  0.51100000000E-03 0. -1.
         11   -1    0    0    0    0 -0.00000000000E+00 -0.00000000000E+00 -0.45593999997E+02  0.45594000000E+02  0.51100000000E-03 0.  1.
         23    2    1    2    0    0  0.00000000000E+00  0.71054273576E-14  0.00000000000E+00  0.91188000000E+02  0.91188000000E+02 0.  0.
    9900012    2    3    3    0    0  0.29731363557E+01  0.34655953878E+02 -0.21054456476E+02  0.50528870441E+02  0.30000032193E+02 0.  0.
         12    1    3    3    0    0 -0.29731363557E+01 -0.34655953878E+02  0.21054456476E+02  0.40659129559E+02  0.00000000000E+00 0. -1.
         11    1    4    4    0    0  0.27413303946E+01  0.19980998346E+02 -0.28524393829E+01  0.20368887989E+02  0.51100000000E-03 0. -1.
        -11    1    4    4    0    0  0.78918411371E+01  0.67770858288E+01 -0.20275900733E+01  0.10598168268E+02  0.51100000000E-03 0.  1.
         12    1    4    4    0    0 -0.76600351759E+01  0.78978697035E+01 -0.16174427020E+02  0.19561814184E+02  0.00000000000E+00 0. -1.
</event>
<event>
 8    1  0.5829710E-012  0.9118800E+02  0.7816164E-02  0.1184000E+00
        -11   -1    0    0    0    0  0.00000000000E+00  0.00000000000E+00  0.45593999997E+02  0.45594000000E+02  0.51100000000E-03 0. -1.
         11   -1    0    0    0    0 -0.00000000000E+00 -0.00000000000E+00 -0.45593999997E+02  0.45594000000E+02  0.51100000000E-03 0.  1.
         23    2    1    2    0    0  0.00000000000E+00  0.00000000000E+00  0.35527136788E-14  0.91188000000E+02  0.91188000000E+02 0.  0.
    9900012    2    3    3    0    0  0.23952405948E+02 -0.26428435376E+02  0.19518784661E+02  0.50528893987E+02  0.30000103763E+02 0.  0.
        -12    1    3    3    0    0 -0.23952405948E+02  0.26428435376E+02 -0.19518784661E+02  0.40659106013E+02  0.00000000000E+00 0.  1.
         11    1    4    4    0    0  0.10391703298E+02 -0.70830434725E+01  0.85601789113E+01  0.15212944012E+02  0.51100000000E-03 0. -1.
        -11    1    4    4    0    0  0.14454004013E+02 -0.71670538570E+01  0.15418188473E+02  0.22316035245E+02  0.51100000000E-03 0.  1.
        -12    1    4    4    0    0 -0.89330136307E+00 -0.12178338047E+02 -0.44595827239E+01  0.12999914730E+02  0.00000000000E+00 0.  1.
</event>
<event>
 8    1  0.5829710E-012  0.9118800E+02  0.7816164E-02  0.1184000E+00
        -11   -1    0    0    0    0  0.00000000000E+00  0.00000000000E+00  0.45593999997E+02  0.45594000000E+02  0.51100000000E-03 0. -1.
         11   -1    0    0    0    0 -0.00000000000E+00 -0.00000000000E+00 -0.45593999997E+02  0.45594000000E+02  0.51100000000E-03 0.  1.
         23    2    1    2    0    0  0.00000000000E+00  0.17763568394E-14 -0.35527136788E-14  0.91188000000E+02  0.91188000000E+02 0.  0.
    9900012    2    3    3    0    0  0.26807344802E+02 -0.85959473722E+01  0.29336700365E+02  0.50528855458E+02  0.29999986650E+02 0.  0.
        -12    1    3    3    0    0 -0.26807344802E+02  0.85959473722E+01 -0.29336700365E+02  0.40659144542E+02  0.00000000000E+00 0.  1.
         11    1    4    4    0    0  0.40020958666E+01  0.24205926132E+01 -0.80449673878E+00  0.47458671693E+01  0.51100000000E-03 0. -1.
        -11    1    4    4    0    0  0.16842119488E+01  0.55167311705E+00 -0.37846676110E+01  0.41790695499E+01  0.51100000000E-03 0.  1.
         12    1    4    4    0    0  0.21121036987E+02 -0.11568213102E+02  0.33925864715E+02  0.41603918739E+02  0.00000000000E+00 0. -1.
</event>
<event>
 8    1  0.5829710E-012  0.9118800E+02  0.7816164E-02  0.1184000E+00
        -11   -1    0    0    0    0  0.00000000000E+00  0.00000000000E+00  0.45593999997E+02  0.45594000000E+02  0.51100000000E-03 0. -1.
         11   -1    0    0    0    0 -0.00000000000E+00 -0.00000000000E+00 -0.45593999997E+02  0.45594000000E+02  0.51100000000E-03 0.  1.
         23    2    1    2    0    0  0.00000000000E+00  0.00000000000E+00  0.00000000000E+00  0.91188000000E+02  0.91188000000E+02 0.  0.
    9900012    2    3    3    0    0  0.31419912879E+02 -0.15021733008E+02 -0.20983372908E+02  0.50528864170E+02  0.30000013132E+02 0.  0.
         12    1    3    3    0    0 -0.31419912879E+02  0.15021733008E+02  0.20983372908E+02  0.40659135830E+02  0.00000000000E+00 0. -1.
         11    1    4    4    0    0  0.81961126951E+01  0.25088123499E+01 -0.11501489202E+01  0.86483088242E+01  0.51100000000E-03 0. -1.
        -11    1    4    4    0    0  0.19653282567E+02 -0.15632077954E+01 -0.15143549034E+02  0.24860052532E+02  0.51100000000E-03 0.  1.
         12    1    4    4    0    0  0.35705176159E+01 -0.15967337562E+02 -0.46896749538E+01  0.17020502814E+02  0.00000000000E+00 0. -1.
</event>
<event>
 8    1  0.5829710E-012  0.9118800E+02  0.7816164E-02  0.1184000E+00
        -11   -1    0    0    0    0  0.00000000000E+00  0.00000000000E+00  0.45593999997E+02  0.45594000000E+02  0.51100000000E-03 0. -1.
         11   -1    0    0    0    0 -0.00000000000E+00 -0.00000000000E+00 -0.45593999997E+02  0.45594000000E+02  0.51100000000E-03 0.  1.
         23    2    1    2    0    0  0.35527136788E-14  0.00000000000E+00  0.00000000000E+00  0.91188000000E+02  0.91188000000E+02 0.  0.
    9900012    2    3    3    0    0  0.19112760839E+02  0.29503488590E+01 -0.35765397429E+02  0.50528857872E+02  0.29999993989E+02 0.  0.
         12    1    3    3    0    0 -0.19112760839E+02 -0.29503488590E+01  0.35765397429E+02  0.40659142128E+02  0.00000000000E+00 0. -1.
         11    1    4    4    0    0  0.90132091834E+01  0.13233078141E+00 -0.77178624312E+01  0.11866796197E+02  0.51100000000E-03 0. -1.
        -11    1    4    4    0    0  0.14841396176E+02 -0.50633868626E+01 -0.23869449994E+02  0.28559684352E+02  0.51100000000E-03 0.  1.
         12    1    4    4    0    0 -0.47418445201E+01  0.78814049402E+01 -0.41780850036E+01  0.10102377323E+02  0.00000000000E+00 0. -1.
</event>
<event>
 8    1  0.5829710E-012  0.9118800E+02  0.7816164E-02  0.1184000E+00
        -11   -1    0    0    0    0  0.00000000000E+00  0.00000000000E+00  0.45593999997E+02  0.45594000000E+02  0.51100000000E-03 0. -1.
         11   -1    0    0    0    0 -0.00000000000E+00 -0.00000000000E+00 -0.45593999997E+02  0.45594000000E+02  0.51100000000E-03 0.  1.
         23    2    1    2    0    0  0.44408920985E-15  0.00000000000E+00  0.00000000000E+00  0.91188000000E+02  0.91188000000E+02 0.  0.
    9900012    2    3    3    0    0  0.39978655989E+01 -0.35552657564E+02 -0.19318157548E+02  0.50528860803E+02  0.30000002896E+02 0.  0.
         12    1    3    3    0    0 -0.39978655989E+01  0.35552657564E+02  0.19318157548E+02  0.40659139197E+02  0.00000000000E+00 0. -1.
         11    1    4    4    0    0  0.60619201510E+00  0.66222554397E+00  0.15644465019E+01  0.18037473628E+01  0.51100000000E-03 0. -1.
        -11    1    4    4    0    0  0.60376375991E+01 -0.20805696217E+01  0.29252805523E+01  0.70241799735E+01  0.51100000000E-03 0.  1.
        -12    1    4    4    0    0 -0.26459640154E+01 -0.34134313486E+02 -0.23807884602E+02  0.41700933467E+02  0.00000000000E+00 0.  1.
</event>
<event>
 8    1  0.5829710E-012  0.9118800E+02  0.7816164E-02  0.1184000E+00
        -11   -1    0    0    0    0  0.00000000000E+00  0.00000000000E+00  0.45593999997E+02  0.45594000000E+02  0.51100000000E-03 0. -1.
         11   -1    0    0    0    0 -0.00000000000E+00 -0.00000000000E+00 -0.45593999997E+02  0.45594000000E+02  0.51100000000E-03 0.  1.
         23    2    1    2    0    0  0.11102230246E-14 -0.17763568394E-14  0.71054273576E-14  0.91188000000E+02  0.91188000000E+02 0.  0.
    9900012    2    3    3    0    0 -0.10015693026E+01  0.33700222766E+01 -0.40506869041E+02  0.50528848131E+02  0.29999964379E+02 0.  0.
         12    1    3    3    0    0  0.10015693026E+01 -0.33700222766E+01  0.40506869041E+02  0.40659151869E+02  0.00000000000E+00 0. -1.
         11    1    4    4    0    0 -0.15184150447E+00  0.63110548423E+01 -0.95367877042E+01  0.11436904697E+02  0.51100000000E-03 0. -1.
        -11    1    4    4    0    0 -0.68974632545E+01  0.62255099672E+01 -0.42780209876E+01  0.10229048711E+02  0.51100000000E-03 0.  1.
        -12    1    4    4    0    0  0.60477354564E+01 -0.91665425328E+01 -0.26692060349E+02  0.28862894724E+02  0.00000000000E+00 0.  1.
</event>
<event>
 8    1  0.5829710E-012  0.9118800E+02  0.7816164E-02  0.1184000E+00
        -11   -1    0    0    0    0  0.00000000000E+00  0.00000000000E+00  0.45593999997E+02  0.45594000000E+02  0.51100000000E-03 0. -1.
         11   -1    0    0    0    0 -0.00000000000E+00 -0.00000000000E+00 -0.45593999997E+02  0.45594000000E+02  0.51100000000E-03 0.  1.
         23    2    1    2    0    0  0.00000000000E+00  0.00000000000E+00 -0.35527136788E-14  0.91188000000E+02  0.91188000000E+02 0.  0.
    9900012    2    3    3    0    0  0.32097445100E+02  0.17445425018E+02  0.17848711470E+02  0.50528864038E+02  0.30000012731E+02 0.  0.
        -12    1    3    3    0    0 -0.32097445100E+02 -0.17445425018E+02 -0.17848711470E+02  0.40659135962E+02  0.00000000000E+00 0.  1.
         11    1    4    4    0    0 -0.16157191155E+00  0.90830835903E+01  0.13195618747E+02  0.16020389114E+02  0.51100000000E-03 0.  1.
        -11    1    4    4    0    0  0.50953970017E+01  0.72570034029E+00  0.35836514451E+01  0.62715444294E+01  0.51100000000E-03 0. -1.
        -12    1    4    4    0    0  0.27163620010E+02  0.76366410870E+01  0.10694412785E+01  0.28236930495E+02  0.00000000000E+00 0.  1.
</event>
<event>
 8    1  0.5829710E-012  0.9118800E+02  0.7816164E-02  0.1184000E+00
        -11   -1    0    0    0    0  0.00000000000E+00  0.00000000000E+00  0.45593999997E+02  0.45594000000E+02  0.51100000000E-03 0. -1.
         11   -1    0    0    0    0 -0.00000000000E+00 -0.00000000000E+00 -0.45593999997E+02  0.45594000000E+02  0.51100000000E-03 0.  1.
         23    2    1    2    0    0  0.00000000000E+00 -0.17763568394E-14  0.00000000000E+00  0.91188000000E+02  0.91188000000E+02 0.  0.
    9900012    2    3    3    0    0  0.33337930514E+02  0.10748092192E+02  0.20645252122E+02  0.50528861643E+02  0.30000005451E+02 0.  0.
        -12    1    3    3    0    0 -0.33337930514E+02 -0.10748092192E+02 -0.20645252122E+02  0.40659138357E+02  0.00000000000E+00 0.  1.
         11    1    4    4    0    0  0.25289709690E+02  0.48452825638E+01  0.25135662900E+02  0.35983992678E+02  0.51100000000E-03 0. -1.
        -11    1    4    4    0    0 -0.18792699889E+01 -0.55384705112E+00 -0.99485361022E+00  0.21973020307E+01  0.51100000000E-03 0.  1.
        -12    1    4    4    0    0  0.99274908120E+01  0.64566566793E+01 -0.34955571677E+01  0.12347566935E+02  0.00000000000E+00 0.  1.
</event>
<event>
 8    1  0.5829710E-012  0.9118800E+02  0.7816164E-02  0.1184000E+00
        -11   -1    0    0    0    0  0.00000000000E+00  0.00000000000E+00  0.45593999997E+02  0.45594000000E+02  0.51100000000E-03 0. -1.
         11   -1    0    0    0    0 -0.00000000000E+00 -0.00000000000E+00 -0.45593999997E+02  0.45594000000E+02  0.51100000000E-03 0.  1.
         23    2    1    2    0    0 -0.35527136788E-14  0.00000000000E+00  0.00000000000E+00  0.91188000000E+02  0.91188000000E+02 0.  0.
    9900012    2    3    3    0    0 -0.27680346510E+02 -0.27937870599E+02  0.10316978940E+02  0.50528852800E+02  0.29999978572E+02 0.  0.
        -12    1    3    3    0    0  0.27680346510E+02  0.27937870599E+02 -0.10316978940E+02  0.40659147200E+02  0.00000000000E+00 0.  1.
         11    1    4    4    0    0 -0.12756893091E+02 -0.92722403233E+01  0.92621300154E+00  0.15797804681E+02  0.51100000000E-03 0. -1.
        -11    1    4    4    0    0 -0.11666506809E+02  0.27008130503E+00 -0.27678626853E+01  0.11993389394E+02  0.51100000000E-03 0.  1.
        -12    1    4    4    0    0 -0.32569466098E+01 -0.18935711581E+02  0.12158628624E+02  0.22737658726E+02  0.00000000000E+00 0.  1.
</event>
<event>
 8    1  0.5829710E-012  0.9118800E+02  0.7816164E-02  0.1184000E+00
        -11   -1    0    0    0    0  0.00000000000E+00  0.00000000000E+00  0.45593999997E+02  0.45594000000E+02  0.51100000000E-03 0. -1.
         11   -1    0    0    0    0 -0.00000000000E+00 -0.00000000000E+00 -0.45593999997E+02  0.45594000000E+02  0.51100000000E-03 0.  1.
         23    2    1    2    0    0  0.17763568394E-14  0.00000000000E+00  0.00000000000E+00  0.91188000000E+02  0.91188000000E+02 0.  0.
    9900012    2    3    3    0    0  0.11814966517E+02 -0.28310494603E+02  0.26685026086E+02  0.50528829378E+02  0.29999907377E+02 0.  0.
        -12    1    3    3    0    0 -0.11814966517E+02  0.28310494603E+02 -0.26685026086E+02  0.40659170622E+02  0.00000000000E+00 0.  1.
         11    1    4    4    0    0  0.70671562995E+01 -0.31200904947E+02  0.15699939564E+02  0.35636066986E+02  0.51100000000E-03 0. -1.
        -11    1    4    4    0    0  0.51063958251E+01 -0.34934983123E+00  0.10385887879E+02  0.11578600560E+02  0.51100000000E-03 0.  1.
        -12    1    4    4    0    0 -0.35858560764E+00  0.32397601753E+01  0.59919864302E+00  0.33141618315E+01  0.00000000000E+00 0.  1.
</event>
<event>
 8    1  0.5829710E-012  0.9118800E+02  0.7816164E-02  0.1184000E+00
        -11   -1    0    0    0    0  0.00000000000E+00  0.00000000000E+00  0.45593999997E+02  0.45594000000E+02  0.51100000000E-03 0. -1.
         11   -1    0    0    0    0 -0.00000000000E+00 -0.00000000000E+00 -0.45593999997E+02  0.45594000000E+02  0.51100000000E-03 0.  1.
         23    2    1    2    0    0 -0.35527136788E-14  0.35527136788E-14  0.00000000000E+00  0.91188000000E+02  0.91188000000E+02 0.  0.
    9900012    2    3    3    0    0  0.23796163420E+02  0.17124928127E+02  0.28171727041E+02  0.50528846524E+02  0.29999959495E+02 0.  0.
        -12    1    3    3    0    0 -0.23796163420E+02 -0.17124928127E+02 -0.28171727041E+02  0.40659153476E+02  0.00000000000E+00 0.  1.
         11    1    4    4    0    0  0.10155676235E+01  0.20432184085E+01 -0.51224516496E+00  0.23384854998E+01  0.51100000000E-03 0. -1.
        -11    1    4    4    0    0  0.21787614656E+02  0.18972269208E+02  0.12435229215E+02  0.31452854834E+02  0.51100000000E-03 0.  1.
         12    1    4    4    0    0  0.99298114029E+00 -0.38905594897E+01  0.16248742991E+02  0.16737506190E+02  0.00000000000E+00 0. -1.
</event>
<event>
 8    1  0.5829710E-012  0.9118800E+02  0.7816164E-02  0.1184000E+00
        -11   -1    0    0    0    0  0.00000000000E+00  0.00000000000E+00  0.45593999997E+02  0.45594000000E+02  0.51100000000E-03 0. -1.
         11   -1    0    0    0    0 -0.00000000000E+00 -0.00000000000E+00 -0.45593999997E+02  0.45594000000E+02  0.51100000000E-03 0.  1.
         23    2    1    2    0    0 -0.35527136788E-14 -0.35527136788E-14  0.00000000000E+00  0.91188000000E+02  0.91188000000E+02 0.  0.
    9900012    2    3    3    0    0 -0.19784030035E+02 -0.65999714245E+01  0.34902697326E+02  0.50528858988E+02  0.29999997380E+02 0.  0.
        -12    1    3    3    0    0  0.19784030035E+02  0.65999714245E+01 -0.34902697326E+02  0.40659141012E+02  0.00000000000E+00 0.  1.
         11    1    4    4    0    0 -0.11996567982E+02 -0.11583406670E+02  0.18926265503E+02  0.25224917831E+02  0.51100000000E-03 0. -1.
        -11    1    4    4    0    0 -0.94604443135E+01 -0.40791062684E+01  0.97300163691E+01  0.14170826841E+02  0.51100000000E-03 0.  1.
        -12    1    4    4    0    0  0.16729822609E+01  0.90625415143E+01  0.62464154534E+01  0.11133114315E+02  0.00000000000E+00 0.  1.
</event>
<event>
 8    1  0.5829710E-012  0.9118800E+02  0.7816164E-02  0.1184000E+00
        -11   -1    0    0    0    0  0.00000000000E+00  0.00000000000E+00  0.45593999997E+02  0.45594000000E+02  0.51100000000E-03 0. -1.
         11   -1    0    0    0    0 -0.00000000000E+00 -0.00000000000E+00 -0.45593999997E+02  0.45594000000E+02  0.51100000000E-03 0.  1.
         23    2    1    2    0    0  0.71054273576E-14  0.00000000000E+00  0.88817841970E-15  0.91188000000E+02  0.91188000000E+02 0.  0.
    9900012    2    3    3    0    0 -0.32112589383E+02 -0.24547961954E+02 -0.43984431708E+01  0.50528841926E+02  0.29999945518E+02 0.  0.
         12    1    3    3    0    0  0.32112589383E+02  0.24547961954E+02  0.43984431708E+01  0.40659158074E+02  0.00000000000E+00 0. -1.
         11    1    4    4    0    0 -0.69008623920E+01 -0.80969660730E+01 -0.23415477827E+01  0.10893374483E+02  0.51100000000E-03 0. -1.
        -11    1    4    4    0    0 -0.11957700006E+02 -0.63029758211E+01 -0.13729070016E+02  0.19266589148E+02  0.51100000000E-03 0.  1.
         12    1    4    4    0    0 -0.13254026984E+02 -0.10148020060E+02  0.11672174628E+02  0.20368878295E+02  0.00000000000E+00 0. -1.
</event>
<event>
 8    1  0.5829710E-012  0.9118800E+02  0.7816164E-02  0.1184000E+00
        -11   -1    0    0    0    0  0.00000000000E+00  0.00000000000E+00  0.45593999997E+02  0.45594000000E+02  0.51100000000E-03 0. -1.
         11   -1    0    0    0    0 -0.00000000000E+00 -0.00000000000E+00 -0.45593999997E+02  0.45594000000E+02  0.51100000000E-03 0.  1.
         23    2    1    2    0    0  0.00000000000E+00  0.17763568394E-14  0.00000000000E+00  0.91188000000E+02  0.91188000000E+02 0.  0.
    9900012    2    3    3    0    0 -0.75188860042E+01 -0.46998789950E+01  0.39680509768E+02  0.50528863699E+02  0.30000011699E+02 0.  0.
        -12    1    3    3    0    0  0.75188860042E+01  0.46998789950E+01 -0.39680509768E+02  0.40659136301E+02  0.00000000000E+00 0.  1.
         11    1    4    4    0    0 -0.82089065017E+01 -0.48329208678E+01  0.12173678187E+01  0.96033980828E+01  0.51100000000E-03 0. -1.
        -11    1    4    4    0    0  0.13253615370E+01 -0.14217773575E+01 -0.43440822160E+00  0.19916688536E+01  0.51100000000E-03 0.  1.
         12    1    4    4    0    0 -0.63534103948E+00  0.15548192303E+01  0.38897550171E+02  0.38933796763E+02  0.00000000000E+00 0. -1.
</event>
<event>
 8    1  0.5829710E-012  0.9118800E+02  0.7816164E-02  0.1184000E+00
        -11   -1    0    0    0    0  0.00000000000E+00  0.00000000000E+00  0.45593999997E+02  0.45594000000E+02  0.51100000000E-03 0. -1.
         11   -1    0    0    0    0 -0.00000000000E+00 -0.00000000000E+00 -0.45593999997E+02  0.45594000000E+02  0.51100000000E-03 0.  1.
         23    2    1    2    0    0  0.00000000000E+00  0.00000000000E+00  0.00000000000E+00  0.91188000000E+02  0.91188000000E+02 0.  0.
    9900012    2    3    3    0    0  0.28591280596E+02 -0.16275666887E+02  0.23891563410E+02  0.50528862516E+02  0.30000008105E+02 0.  0.
        -12    1    3    3    0    0 -0.28591280596E+02  0.16275666887E+02 -0.23891563410E+02  0.40659137484E+02  0.00000000000E+00 0.  1.
         11    1    4    4    0    0  0.48599570331E+01 -0.30914000723E+01  0.63649916841E+01  0.85842329984E+01  0.51100000000E-03 0. -1.
        -11    1    4    4    0    0  0.70300217300E+01  0.82190114659E+01  0.66647483334E+01  0.12704023993E+02  0.51100000000E-03 0.  1.
        -12    1    4    4    0    0  0.16701301833E+02 -0.21403278280E+02  0.10861823392E+02  0.29240605525E+02  0.00000000000E+00 0.  1.
</event>
<event>
 8    1  0.5829710E-012  0.9118800E+02  0.7816164E-02  0.1184000E+00
        -11   -1    0    0    0    0  0.00000000000E+00  0.00000000000E+00  0.45593999997E+02  0.45594000000E+02  0.51100000000E-03 0. -1.
         11   -1    0    0    0    0 -0.00000000000E+00 -0.00000000000E+00 -0.45593999997E+02  0.45594000000E+02  0.51100000000E-03 0.  1.
         23    2    1    2    0    0  0.22204460493E-14  0.71054273576E-14  0.17763568394E-14  0.91188000000E+02  0.91188000000E+02 0.  0.
    9900012    2    3    3    0    0 -0.39538693624E+01 -0.39184982537E+02 -0.10102947213E+02  0.50528862260E+02  0.30000007326E+02 0.  0.
         12    1    3    3    0    0  0.39538693624E+01  0.39184982537E+02  0.10102947213E+02  0.40659137740E+02  0.00000000000E+00 0. -1.
         11    1    4    4    0    0 -0.29033396092E+01 -0.11329336931E+00  0.24077885359E+01  0.37735476900E+01  0.51100000000E-03 0. -1.
        -11    1    4    4    0    0 -0.87614645924E+01 -0.22473882383E+02 -0.14817554254E+02  0.28308983830E+02  0.51100000000E-03 0.  1.
        -12    1    4    4    0    0  0.77109348392E+01 -0.16597806785E+02  0.23068185052E+01  0.18446330740E+02  0.00000000000E+00 0.  1.
</event>
<event>
 8    1  0.5829710E-012  0.9118800E+02  0.7816164E-02  0.1184000E+00
        -11   -1    0    0    0    0  0.00000000000E+00  0.00000000000E+00  0.45593999997E+02  0.45594000000E+02  0.51100000000E-03 0. -1.
         11   -1    0    0    0    0 -0.00000000000E+00 -0.00000000000E+00 -0.45593999997E+02  0.45594000000E+02  0.51100000000E-03 0.  1.
         23    2    1    2    0    0 -0.35527136788E-14  0.11102230246E-15  0.00000000000E+00  0.91188000000E+02  0.91188000000E+02 0.  0.
    9900012    2    3    3    0    0 -0.30522089024E+02 -0.99290720730E+00  0.26843660265E+02  0.50528857368E+02  0.29999992457E+02 0.  0.
        -12    1    3    3    0    0  0.30522089024E+02  0.99290720730E+00 -0.26843660265E+02  0.40659142632E+02  0.00000000000E+00 0.  1.
         11    1    4    4    0    0 -0.31436396693E+01  0.99842375306E+00  0.15636003211E+02  0.15980110044E+02  0.51100000000E-03 0. -1.
        -11    1    4    4    0    0  0.21646153293E+01 -0.22632079678E+01  0.91032501087E+00  0.32613435446E+01  0.51100000000E-03 0.  1.
        -12    1    4    4    0    0 -0.29543064684E+02  0.27187700739E+00  0.10297332043E+02  0.31287403780E+02  0.00000000000E+00 0.  1.
</event>
<event>
 8    1  0.5829710E-012  0.9118800E+02  0.7816164E-02  0.1184000E+00
        -11   -1    0    0    0    0  0.00000000000E+00  0.00000000000E+00  0.45593999997E+02  0.45594000000E+02  0.51100000000E-03 0. -1.
         11   -1    0    0    0    0 -0.00000000000E+00 -0.00000000000E+00 -0.45593999997E+02  0.45594000000E+02  0.51100000000E-03 0.  1.
         23    2    1    2    0    0 -0.35527136788E-14  0.00000000000E+00  0.00000000000E+00  0.91188000000E+02  0.91188000000E+02 0.  0.
    9900012    2    3    3    0    0 -0.26909451452E+02 -0.21578569377E+02  0.21527021404E+02  0.50528857309E+02  0.29999992277E+02 0.  0.
        -12    1    3    3    0    0  0.26909451452E+02  0.21578569377E+02 -0.21527021404E+02  0.40659142691E+02  0.00000000000E+00 0.  1.
         11    1    4    4    0    0 -0.72021290104E+01 -0.13796391135E+02  0.45135141128E+01  0.16204409293E+02  0.51100000000E-03 0. -1.
        -11    1    4    4    0    0 -0.11045448629E+02 -0.16134327174E+01  0.20323464687E+02  0.23187244720E+02  0.51100000000E-03 0.  1.
         12    1    4    4    0    0 -0.86618738133E+01 -0.61687455248E+01 -0.33099573957E+01  0.11137203297E+02  0.00000000000E+00 0. -1.
</event>
<event>
 8    1  0.5829710E-012  0.9118800E+02  0.7816164E-02  0.1184000E+00
        -11   -1    0    0    0    0  0.00000000000E+00  0.00000000000E+00  0.45593999997E+02  0.45594000000E+02  0.51100000000E-03 0. -1.
         11   -1    0    0    0    0 -0.00000000000E+00 -0.00000000000E+00 -0.45593999997E+02  0.45594000000E+02  0.51100000000E-03 0.  1.
         23    2    1    2    0    0  0.00000000000E+00  0.17763568394E-14  0.00000000000E+00  0.91188000000E+02  0.91188000000E+02 0.  0.
    9900012    2    3    3    0    0  0.13846011065E+02 -0.10715411536E+02 -0.36696507749E+02  0.50528858988E+02  0.29999997381E+02 0.  0.
         12    1    3    3    0    0 -0.13846011065E+02  0.10715411536E+02  0.36696507749E+02  0.40659141012E+02  0.00000000000E+00 0. -1.
         11    1    4    4    0    0 -0.13242386289E+01  0.13676318493E+00  0.61978777673E+00  0.14684853640E+01  0.51100000000E-03 0. -1.
        -11    1    4    4    0    0 -0.64519118757E+01 -0.26462106202E+01 -0.16625195242E+02  0.18028497291E+02  0.51100000000E-03 0.  1.
         12    1    4    4    0    0  0.21622161570E+02 -0.82059641007E+01 -0.20691100284E+02  0.31031876333E+02  0.00000000000E+00 0. -1.
</event>
<event>
 8    1  0.5829710E-012  0.9118800E+02  0.7816164E-02  0.1184000E+00
        -11   -1    0    0    0    0  0.00000000000E+00  0.00000000000E+00  0.45593999997E+02  0.45594000000E+02  0.51100000000E-03 0. -1.
         11   -1    0    0    0    0 -0.00000000000E+00 -0.00000000000E+00 -0.45593999997E+02  0.45594000000E+02  0.51100000000E-03 0.  1.
         23    2    1    2    0    0  0.00000000000E+00  0.22204460493E-14  0.00000000000E+00  0.91188000000E+02  0.91188000000E+02 0.  0.
    9900012    2    3    3    0    0 -0.37519402099E+02 -0.31398006486E+01  0.15349317674E+02  0.50528862834E+02  0.30000009071E+02 0.  0.
        -12    1    3    3    0    0  0.37519402099E+02  0.31398006486E+01 -0.15349317674E+02  0.40659137166E+02  0.00000000000E+00 0.  1.
         11    1    4    4    0    0  0.18814208815E+01  0.34151951690E+01  0.47111729548E+01  0.61154274950E+01  0.51100000000E-03 0. -1.
        -11    1    4    4    0    0 -0.46461331797E+01  0.45939619216E+01  0.26474880345E+01  0.70498392049E+01  0.51100000000E-03 0.  1.
        -12    1    4    4    0    0 -0.34754689801E+02 -0.11148957739E+02  0.79906566849E+01  0.37363596134E+02  0.00000000000E+00 0.  1.
</event>
<event>
 8    1  0.5829710E-012  0.9118800E+02  0.7816164E-02  0.1184000E+00
        -11   -1    0    0    0    0  0.00000000000E+00  0.00000000000E+00  0.45593999997E+02  0.45594000000E+02  0.51100000000E-03 0. -1.
         11   -1    0    0    0    0 -0.00000000000E+00 -0.00000000000E+00 -0.45593999997E+02  0.45594000000E+02  0.51100000000E-03 0.  1.
         23    2    1    2    0    0  0.00000000000E+00  0.00000000000E+00 -0.35527136788E-14  0.91188000000E+02  0.91188000000E+02 0.  0.
    9900012    2    3    3    0    0  0.25463987095E+02 -0.38188391104E+01 -0.31466924160E+02  0.50528862196E+02  0.30000007130E+02 0.  0.
         12    1    3    3    0    0 -0.25463987095E+02  0.38188391104E+01  0.31466924160E+02  0.40659137804E+02  0.00000000000E+00 0. -1.
         11    1    4    4    0    0  0.17438168583E+01 -0.28093068297E+01 -0.14151971043E+02  0.14533113457E+02  0.51100000000E-03 0. -1.
        -11    1    4    4    0    0 -0.24317317115E+01  0.36033862806E+01 -0.52827221671E+01  0.68414081562E+01  0.51100000000E-03 0.  1.
        -12    1    4    4    0    0  0.26151901948E+02 -0.46129185613E+01 -0.12032230950E+02  0.29154340582E+02  0.00000000000E+00 0.  1.
</event>
<event>
 8    1  0.5829710E-012  0.9118800E+02  0.7816164E-02  0.1184000E+00
        -11   -1    0    0    0    0  0.00000000000E+00  0.00000000000E+00  0.45593999997E+02  0.45594000000E+02  0.51100000000E-03 0. -1.
         11   -1    0    0    0    0 -0.00000000000E+00 -0.00000000000E+00 -0.45593999997E+02  0.45594000000E+02  0.51100000000E-03 0.  1.
         23    2    1    2    0    0  0.17763568394E-14  0.00000000000E+00  0.00000000000E+00  0.91188000000E+02  0.91188000000E+02 0.  0.
    9900012    2    3    3    0    0  0.13683748911E+02  0.16225100295E+02 -0.34679482139E+02  0.50528863939E+02  0.30000012428E+02 0.  0.
         12    1    3    3    0    0 -0.13683748911E+02 -0.16225100295E+02  0.34679482139E+02  0.40659136061E+02  0.00000000000E+00 0. -1.
         11    1    4    4    0    0  0.80661747868E+01  0.10668550951E+02 -0.23218252487E+02  0.26794932429E+02  0.51100000000E-03 0. -1.
        -11    1    4    4    0    0  0.66699706102E+01  0.10982635348E+02 -0.12703425888E+02  0.18068863181E+02  0.51100000000E-03 0.  1.
         12    1    4    4    0    0 -0.10523964860E+01 -0.54260860032E+01  0.12421962356E+01  0.56650683284E+01  0.00000000000E+00 0. -1.
</event>
<event>
 8    1  0.5829710E-012  0.9118800E+02  0.7816164E-02  0.1184000E+00
        -11   -1    0    0    0    0  0.00000000000E+00  0.00000000000E+00  0.45593999997E+02  0.45594000000E+02  0.51100000000E-03 0. -1.
         11   -1    0    0    0    0 -0.00000000000E+00 -0.00000000000E+00 -0.45593999997E+02  0.45594000000E+02  0.51100000000E-03 0.  1.
         23    2    1    2    0    0 -0.17763568394E-14  0.00000000000E+00  0.00000000000E+00  0.91188000000E+02  0.91188000000E+02 0.  0.
    9900012    2    3    3    0    0 -0.14594364167E+02 -0.30490495825E+02 -0.22594216911E+02  0.50528875084E+02  0.30000046306E+02 0.  0.
         12    1    3    3    0    0  0.14594364167E+02  0.30490495825E+02  0.22594216911E+02  0.40659124916E+02  0.00000000000E+00 0. -1.
         11    1    4    4    0    0  0.23436441521E+01 -0.11714203885E+02 -0.20303968075E+01  0.12117662813E+02  0.51100000000E-03 0.  1.
        -11    1    4    4    0    0 -0.11089038756E+02 -0.32881749616E+01  0.55141027898E+00  0.11579418322E+02  0.51100000000E-03 0. -1.
        -12    1    4    4    0    0 -0.58489695629E+01 -0.15488116978E+02 -0.21115230382E+02  0.26831793950E+02  0.00000000000E+00 0.  1.
</event>
<event>
 8    1  0.5829710E-012  0.9118800E+02  0.7816164E-02  0.1184000E+00
        -11   -1    0    0    0    0  0.00000000000E+00  0.00000000000E+00  0.45593999997E+02  0.45594000000E+02  0.51100000000E-03 0. -1.
         11   -1    0    0    0    0 -0.00000000000E+00 -0.00000000000E+00 -0.45593999997E+02  0.45594000000E+02  0.51100000000E-03 0.  1.
         23    2    1    2    0    0  0.00000000000E+00 -0.35527136788E-14  0.00000000000E+00  0.91188000000E+02  0.91188000000E+02 0.  0.
    9900012    2    3    3    0    0 -0.97741523901E+01  0.13049618961E+02  0.37246983697E+02  0.50528875508E+02  0.30000047594E+02 0.  0.
        -12    1    3    3    0    0  0.97741523901E+01 -0.13049618961E+02 -0.37246983697E+02  0.40659124492E+02  0.00000000000E+00 0.  1.
         11    1    4    4    0    0 -0.13595389416E+01 -0.24471720449E+01  0.47769834951E+01  0.55368374299E+01  0.51100000000E-03 0. -1.
        -11    1    4    4    0    0 -0.14461843089E+02  0.16964005731E+02  0.16153489451E+02  0.27529213895E+02  0.51100000000E-03 0.  1.
         12    1    4    4    0    0  0.60472296405E+01 -0.14672147255E+01  0.16316510751E+02  0.17462824183E+02  0.00000000000E+00 0. -1.
</event>
<event>
 8    1  0.6694656E-012  0.9118800E+02  0.7816164E-02  0.1184000E+00
        -11   -1    0    0    0    0  0.00000000000E+00  0.00000000000E+00  0.45593999997E+02  0.45594000000E+02  0.51100000000E-03 0. -1.
         11   -1    0    0    0    0 -0.00000000000E+00 -0.00000000000E+00 -0.45593999997E+02  0.45594000000E+02  0.51100000000E-03 0.  1.
         23    2    1    2    0    0 -0.88817841970E-15  0.35527136788E-14  0.00000000000E+00  0.91188000000E+02  0.91188000000E+02 0.  0.
    9900012    2    3    3    0    0 -0.75124333931E+01 -0.27500285550E+02 -0.28990745708E+02  0.50528859607E+02  0.29999999261E+02 0.  0.
         12    1    3    3    0    0  0.75124333931E+01  0.27500285550E+02  0.28990745708E+02  0.40659140393E+02  0.00000000000E+00 0. -1.
         11    1    4    4    0    0 -0.10669594643E+02 -0.14586669955E+02 -0.12387467826E+02  0.21910284107E+02  0.51100000000E-03 0. -1.
        -11    1    4    4    0    0 -0.27691869159E+01 -0.13665124054E+02 -0.17713298937E+02  0.22542514746E+02  0.51100000000E-03 0.  1.
         12    1    4    4    0    0  0.59263481660E+01  0.75150845914E+00  0.11100210552E+01  0.60760607544E+01  0.00000000000E+00 0. -1.
</event>
<event>
 8    1  0.5829710E-012  0.9118800E+02  0.7816164E-02  0.1184000E+00
        -11   -1    0    0    0    0  0.00000000000E+00  0.00000000000E+00  0.45593999997E+02  0.45594000000E+02  0.51100000000E-03 0. -1.
         11   -1    0    0    0    0 -0.00000000000E+00 -0.00000000000E+00 -0.45593999997E+02  0.45594000000E+02  0.51100000000E-03 0.  1.
         23    2    1    2    0    0 -0.17763568394E-14  0.00000000000E+00  0.00000000000E+00  0.91188000000E+02  0.91188000000E+02 0.  0.
    9900012    2    3    3    0    0  0.81006193249E+01  0.16177497316E+02  0.36412011476E+02  0.50528855486E+02  0.29999986736E+02 0.  0.
        -12    1    3    3    0    0 -0.81006193249E+01 -0.16177497316E+02 -0.36412011476E+02  0.40659144514E+02  0.00000000000E+00 0.  1.
         11    1    4    4    0    0 -0.22446126659E+01  0.52428565662E+01  0.26444609861E+02  0.27052601020E+02  0.51100000000E-03 0. -1.
        -11    1    4    4    0    0 -0.87256592232E+00 -0.17735008490E+01 -0.19333046649E+01  0.27648406353E+01  0.51100000000E-03 0.  1.
         12    1    4    4    0    0  0.11217797913E+02  0.12708141599E+02  0.11900706280E+02  0.20711413831E+02  0.00000000000E+00 0. -1.
</event>
<event>
 8    1  0.5829710E-012  0.9118800E+02  0.7816164E-02  0.1184000E+00
        -11   -1    0    0    0    0  0.00000000000E+00  0.00000000000E+00  0.45593999997E+02  0.45594000000E+02  0.51100000000E-03 0.  1.
         11   -1    0    0    0    0 -0.00000000000E+00 -0.00000000000E+00 -0.45593999997E+02  0.45594000000E+02  0.51100000000E-03 0. -1.
         23    2    1    2    0    0 -0.35527136788E-14  0.00000000000E+00 -0.88817841970E-15  0.91188000000E+02  0.91188000000E+02 0.  0.
    9900012    2    3    3    0    0  0.18328989475E+02  0.35952267049E+02 -0.49647050057E+01  0.50528860106E+02  0.30000000779E+02 0.  0.
        -12    1    3    3    0    0 -0.18328989475E+02 -0.35952267049E+02  0.49647050057E+01  0.40659139894E+02  0.00000000000E+00 0.  1.
         11    1    4    4    0    0  0.48136883168E+01  0.12111855202E+02 -0.33860007746E+01  0.13466017717E+02  0.51100000000E-03 0. -1.
        -11    1    4    4    0    0 -0.18746448573E+01  0.21326248932E+02 -0.16089288574E+01  0.21468857426E+02  0.51100000000E-03 0.  1.
        -12    1    4    4    0    0  0.15389946015E+02  0.25141629152E+01  0.30224626298E-01  0.15593984964E+02  0.00000000000E+00 0.  1.
</event>
<event>
 8    1  0.5829710E-012  0.9118800E+02  0.7816164E-02  0.1184000E+00
        -11   -1    0    0    0    0  0.00000000000E+00  0.00000000000E+00  0.45593999997E+02  0.45594000000E+02  0.51100000000E-03 0.  1.
         11   -1    0    0    0    0 -0.00000000000E+00 -0.00000000000E+00 -0.45593999997E+02  0.45594000000E+02  0.51100000000E-03 0. -1.
         23    2    1    2    0    0  0.00000000000E+00  0.00000000000E+00 -0.35527136788E-14  0.91188000000E+02  0.91188000000E+02 0.  0.
    9900012    2    3    3    0    0 -0.28039758952E+02  0.21132967305E+02 -0.20502096043E+02  0.50528851813E+02  0.29999975570E+02 0.  0.
         12    1    3    3    0    0  0.28039758952E+02 -0.21132967305E+02  0.20502096043E+02  0.40659148187E+02  0.00000000000E+00 0. -1.
         11    1    4    4    0    0 -0.17975417101E+02  0.43439826494E+01  0.41441301743E+00  0.18497501010E+02  0.51100000000E-03 0. -1.
        -11    1    4    4    0    0 -0.94993534600E+01  0.38292344207E+01 -0.47116003895E+01  0.11273860514E+02  0.51100000000E-03 0.  1.
         12    1    4    4    0    0 -0.56498839036E+00  0.12959750235E+02 -0.16204908671E+02  0.20757490288E+02  0.00000000000E+00 0. -1.
</event>
<event>
 8    1  0.5829710E-012  0.9118800E+02  0.7816164E-02  0.1184000E+00
        -11   -1    0    0    0    0  0.00000000000E+00  0.00000000000E+00  0.45593999997E+02  0.45594000000E+02  0.51100000000E-03 0. -1.
         11   -1    0    0    0    0 -0.00000000000E+00 -0.00000000000E+00 -0.45593999997E+02  0.45594000000E+02  0.51100000000E-03 0.  1.
         23    2    1    2    0    0  0.00000000000E+00  0.00000000000E+00  0.88817841970E-15  0.91188000000E+02  0.91188000000E+02 0.  0.
    9900012    2    3    3    0    0 -0.18951736757E+02 -0.35614373259E+02  0.50610239119E+01  0.50528857464E+02  0.29999992748E+02 0.  0.
        -12    1    3    3    0    0  0.18951736757E+02  0.35614373259E+02 -0.50610239119E+01  0.40659142536E+02  0.00000000000E+00 0.  1.
         11    1    4    4    0    0 -0.23441727542E+01 -0.55224163414E+00  0.50706238815E+01  0.56134965514E+01  0.51100000000E-03 0. -1.
        -11    1    4    4    0    0  0.15700311087E+00  0.17317562778E+01  0.39232939568E+01  0.42913710531E+01  0.51100000000E-03 0.  1.
        -12    1    4    4    0    0 -0.16764567113E+02 -0.36793887903E+02 -0.39328939264E+01  0.40623989860E+02  0.00000000000E+00 0.  1.
</event>
<event>
 8    1  0.5829710E-012  0.9118800E+02  0.7816164E-02  0.1184000E+00
        -11   -1    0    0    0    0  0.00000000000E+00  0.00000000000E+00  0.45593999997E+02  0.45594000000E+02  0.51100000000E-03 0. -1.
         11   -1    0    0    0    0 -0.00000000000E+00 -0.00000000000E+00 -0.45593999997E+02  0.45594000000E+02  0.51100000000E-03 0.  1.
         23    2    1    2    0    0  0.00000000000E+00  0.00000000000E+00  0.71054273576E-14  0.91188000000E+02  0.91188000000E+02 0.  0.
    9900012    2    3    3    0    0 -0.15260801252E+02 -0.41547479632E+01 -0.37456794719E+02  0.50528862575E+02  0.30000008283E+02 0.  0.
         12    1    3    3    0    0  0.15260801252E+02  0.41547479632E+01  0.37456794719E+02  0.40659137425E+02  0.00000000000E+00 0. -1.
         11    1    4    4    0    0  0.28450255035E+01  0.15719392765E+01 -0.31599500950E+01  0.45332602031E+01  0.51100000000E-03 0. -1.
        -11    1    4    4    0    0 -0.33396855558E+01 -0.61506603611E+01  0.15988057126E+01  0.71791575033E+01  0.51100000000E-03 0.  1.
        -12    1    4    4    0    0 -0.14766141199E+02  0.42397312145E+00 -0.35895650337E+02  0.38816444869E+02  0.00000000000E+00 0.  1.
</event>
<event>
 8    1  0.5829710E-012  0.9118800E+02  0.7816164E-02  0.1184000E+00
        -11   -1    0    0    0    0  0.00000000000E+00  0.00000000000E+00  0.45593999997E+02  0.45594000000E+02  0.51100000000E-03 0. -1.
         11   -1    0    0    0    0 -0.00000000000E+00 -0.00000000000E+00 -0.45593999997E+02  0.45594000000E+02  0.51100000000E-03 0.  1.
         23    2    1    2    0    0  0.00000000000E+00  0.15543122345E-14  0.00000000000E+00  0.91188000000E+02  0.91188000000E+02 0.  0.
    9900012    2    3    3    0    0  0.67891608330E+01  0.17827803145E+01  0.40048659499E+02  0.50528854189E+02  0.29999982792E+02 0.  0.
        -12    1    3    3    0    0 -0.67891608330E+01 -0.17827803145E+01 -0.40048659499E+02  0.40659145811E+02  0.00000000000E+00 0.  1.
         11    1    4    4    0    0  0.22628996000E+01 -0.35619926457E+01  0.12676618671E+01  0.44062992497E+01  0.51100000000E-03 0. -1.
        -11    1    4    4    0    0  0.17001470636E+01 -0.89204539731E+01  0.22657840132E+02  0.24409889776E+02  0.51100000000E-03 0.  1.
         12    1    4    4    0    0  0.28261141694E+01  0.14265226933E+02  0.16123157499E+02  0.21712665163E+02  0.00000000000E+00 0. -1.
</event>
<event>
 8    1  0.5829710E-012  0.9118800E+02  0.7816164E-02  0.1184000E+00
        -11   -1    0    0    0    0  0.00000000000E+00  0.00000000000E+00  0.45593999997E+02  0.45594000000E+02  0.51100000000E-03 0. -1.
         11   -1    0    0    0    0 -0.00000000000E+00 -0.00000000000E+00 -0.45593999997E+02  0.45594000000E+02  0.51100000000E-03 0.  1.
         23    2    1    2    0    0  0.00000000000E+00  0.00000000000E+00  0.00000000000E+00  0.91188000000E+02  0.91188000000E+02 0.  0.
    9900012    2    3    3    0    0  0.12630667841E+02  0.10800098709E+02 -0.37107820483E+02  0.50528852895E+02  0.29999978861E+02 0.  0.
         12    1    3    3    0    0 -0.12630667841E+02 -0.10800098709E+02  0.37107820483E+02  0.40659147105E+02  0.00000000000E+00 0. -1.
         11    1    4    4    0    0  0.70045402148E+01 -0.17802662124E+01 -0.26625022893E+02  0.27588489913E+02  0.51100000000E-03 0. -1.
        -11    1    4    4    0    0  0.68638745777E+01  0.22758654911E+01 -0.10268930900E+02  0.12559589167E+02  0.51100000000E-03 0.  1.
        -12    1    4    4    0    0 -0.12377469512E+01  0.10304499431E+02 -0.21386669058E+00  0.10380773815E+02  0.00000000000E+00 0.  1.
</event>
<event>
 8    1  0.5829710E-012  0.9118800E+02  0.7816164E-02  0.1184000E+00
        -11   -1    0    0    0    0  0.00000000000E+00  0.00000000000E+00  0.45593999997E+02  0.45594000000E+02  0.51100000000E-03 0.  1.
         11   -1    0    0    0    0 -0.00000000000E+00 -0.00000000000E+00 -0.45593999997E+02  0.45594000000E+02  0.51100000000E-03 0. -1.
         23    2    1    2    0    0  0.00000000000E+00  0.00000000000E+00  0.00000000000E+00  0.91188000000E+02  0.91188000000E+02 0.  0.
    9900012    2    3    3    0    0 -0.32355788199E+01 -0.34380404552E+02  0.21463486156E+02  0.50528899844E+02  0.30000121566E+02 0.  0.
        -12    1    3    3    0    0  0.32355788199E+01  0.34380404552E+02 -0.21463486156E+02  0.40659100156E+02  0.00000000000E+00 0.  1.
         11    1    4    4    0    0 -0.23855183216E+01 -0.14553557049E+01 -0.28351649631E+01  0.39808188252E+01  0.51100000000E-03 0. -1.
        -11    1    4    4    0    0 -0.29945850876E+01 -0.25859623837E+01 -0.35454695226E+01  0.53127295898E+01  0.51100000000E-03 0.  1.
        -12    1    4    4    0    0  0.21445245893E+01 -0.30339086464E+02  0.27844120642E+02  0.41235351429E+02  0.00000000000E+00 0.  1.
</event>
<event>
 8    1  0.5829710E-012  0.9118800E+02  0.7816164E-02  0.1184000E+00
        -11   -1    0    0    0    0  0.00000000000E+00  0.00000000000E+00  0.45593999997E+02  0.45594000000E+02  0.51100000000E-03 0.  1.
         11   -1    0    0    0    0 -0.00000000000E+00 -0.00000000000E+00 -0.45593999997E+02  0.45594000000E+02  0.51100000000E-03 0. -1.
         23    2    1    2    0    0 -0.88817841970E-15  0.00000000000E+00  0.17763568394E-14  0.91188000000E+02  0.91188000000E+02 0.  0.
    9900012    2    3    3    0    0 -0.40930029483E+01 -0.38892404382E+02  0.11126205271E+02  0.50528877586E+02  0.30000053911E+02 0.  0.
        -12    1    3    3    0    0  0.40930029483E+01  0.38892404382E+02 -0.11126205271E+02  0.40659122414E+02  0.00000000000E+00 0.  1.
         11    1    4    4    0    0  0.79354780697E+00 -0.23126073924E+02  0.14154094848E+02  0.27125327915E+02  0.51100000000E-03 0. -1.
        -11    1    4    4    0    0 -0.78166232229E+01 -0.14328227534E+01  0.15036913660E+01  0.80878716382E+01  0.51100000000E-03 0.  1.
         12    1    4    4    0    0  0.29300724676E+01 -0.14333507704E+02 -0.45315809428E+01  0.15315678033E+02  0.00000000000E+00 0. -1.
</event>
<event>
 8    1  0.5829710E-012  0.9118800E+02  0.7816164E-02  0.1184000E+00
        -11   -1    0    0    0    0  0.00000000000E+00  0.00000000000E+00  0.45593999997E+02  0.45594000000E+02  0.51100000000E-03 0.  1.
         11   -1    0    0    0    0 -0.00000000000E+00 -0.00000000000E+00 -0.45593999997E+02  0.45594000000E+02  0.51100000000E-03 0. -1.
         23    2    1    2    0    0  0.71054273576E-14  0.00000000000E+00  0.00000000000E+00  0.91188000000E+02  0.91188000000E+02 0.  0.
    9900012    2    3    3    0    0  0.36940880213E+02  0.25030339370E+01 -0.16800932742E+02  0.50528866330E+02  0.30000019697E+02 0.  0.
        -12    1    3    3    0    0 -0.36940880213E+02 -0.25030339370E+01  0.16800932742E+02  0.40659133670E+02  0.00000000000E+00 0.  1.
         11    1    4    4    0    0  0.55141569101E+01  0.51653780168E+01 -0.75990694485E+01  0.10716012002E+02  0.51100000000E-03 0. -1.
        -11    1    4    4    0    0  0.72883402306E+00 -0.43234716338E+01 -0.79088547662E+01  0.90428750946E+01  0.51100000000E-03 0.  1.
         12    1    4    4    0    0  0.30697889280E+02  0.16611275540E+01 -0.12930085275E+01  0.30769979233E+02  0.00000000000E+00 0. -1.
</event>
<event>
 8    1  0.5849223E-012  0.9118800E+02  0.7816164E-02  0.1184000E+00
        -11   -1    0    0    0    0  0.00000000000E+00  0.00000000000E+00  0.45593999997E+02  0.45594000000E+02  0.51100000000E-03 0. -1.
         11   -1    0    0    0    0 -0.00000000000E+00 -0.00000000000E+00 -0.45593999997E+02  0.45594000000E+02  0.51100000000E-03 0.  1.
         23    2    1    2    0    0 -0.35527136788E-14 -0.35527136788E-14  0.71054273576E-14  0.91188000000E+02  0.91188000000E+02 0.  0.
    9900012    2    3    3    0    0 -0.48186401266E+01  0.22013022749E+02 -0.33843347295E+02  0.50528872866E+02  0.30000039562E+02 0.  0.
         12    1    3    3    0    0  0.48186401266E+01 -0.22013022749E+02  0.33843347295E+02  0.40659127134E+02  0.00000000000E+00 0. -1.
         11    1    4    4    0    0 -0.57966718527E+01  0.72677878766E+01 -0.69342371768E+01  0.11597663156E+02  0.51100000000E-03 0. -1.
        -11    1    4    4    0    0 -0.11182829991E+02  0.41618368682E+01 -0.99984874619E+01  0.15567476498E+02  0.51100000000E-03 0.  1.
         12    1    4    4    0    0  0.12160861717E+02  0.10583398004E+02 -0.16910622656E+02  0.23363733212E+02  0.00000000000E+00 0. -1.
</event>
<event>
 8    1  0.5829710E-012  0.9118800E+02  0.7816164E-02  0.1184000E+00
        -11   -1    0    0    0    0  0.00000000000E+00  0.00000000000E+00  0.45593999997E+02  0.45594000000E+02  0.51100000000E-03 0. -1.
         11   -1    0    0    0    0 -0.00000000000E+00 -0.00000000000E+00 -0.45593999997E+02  0.45594000000E+02  0.51100000000E-03 0.  1.
         23    2    1    2    0    0  0.00000000000E+00  0.00000000000E+00  0.00000000000E+00  0.91188000000E+02  0.91188000000E+02 0.  0.
    9900012    2    3    3    0    0 -0.50437036987E+01 -0.30341730447E+02  0.26591475532E+02  0.50528854356E+02  0.29999983301E+02 0.  0.
        -12    1    3    3    0    0  0.50437036987E+01  0.30341730447E+02 -0.26591475532E+02  0.40659145644E+02  0.00000000000E+00 0.  1.
         11    1    4    4    0    0 -0.15849704089E+01 -0.42341621225E+01 -0.39196184650E+01  0.59836167364E+01  0.51100000000E-03 0. -1.
        -11    1    4    4    0    0  0.68361993485E+01 -0.13020306532E+02  0.86372214782E+01  0.17054723652E+02  0.51100000000E-03 0.  1.
         12    1    4    4    0    0 -0.10294932638E+02 -0.13087261792E+02  0.21873872518E+02  0.27490513968E+02  0.00000000000E+00 0. -1.
</event>
<event>
 8    1  0.5829710E-012  0.9118800E+02  0.7816164E-02  0.1184000E+00
        -11   -1    0    0    0    0  0.00000000000E+00  0.00000000000E+00  0.45593999997E+02  0.45594000000E+02  0.51100000000E-03 0. -1.
         11   -1    0    0    0    0 -0.00000000000E+00 -0.00000000000E+00 -0.45593999997E+02  0.45594000000E+02  0.51100000000E-03 0.  1.
         23    2    1    2    0    0  0.88817841970E-15  0.00000000000E+00  0.00000000000E+00  0.91188000000E+02  0.91188000000E+02 0.  0.
    9900012    2    3    3    0    0  0.65409740776E+01 -0.34786191639E+02  0.20007534907E+02  0.50528869123E+02  0.30000028185E+02 0.  0.
        -12    1    3    3    0    0 -0.65409740776E+01  0.34786191639E+02 -0.20007534907E+02  0.40659130877E+02  0.00000000000E+00 0.  1.
         11    1    4    4    0    0  0.54773800180E+01 -0.37215026841E+01 -0.47318218866E+01  0.81388827683E+01  0.51100000000E-03 0. -1.
        -11    1    4    4    0    0 -0.45798506097E+01 -0.22747068667E+02  0.11878690849E+02  0.26067363908E+02  0.51100000000E-03 0.  1.
         12    1    4    4    0    0  0.56434446693E+01 -0.83176202877E+01  0.12860665945E+02  0.16322622447E+02  0.00000000000E+00 0. -1.
</event>
<event>
 8    1  0.5829710E-012  0.9118800E+02  0.7816164E-02  0.1184000E+00
        -11   -1    0    0    0    0  0.00000000000E+00  0.00000000000E+00  0.45593999997E+02  0.45594000000E+02  0.51100000000E-03 0. -1.
         11   -1    0    0    0    0 -0.00000000000E+00 -0.00000000000E+00 -0.45593999997E+02  0.45594000000E+02  0.51100000000E-03 0.  1.
         23    2    1    2    0    0  0.00000000000E+00 -0.88817841970E-15  0.00000000000E+00  0.91188000000E+02  0.91188000000E+02 0.  0.
    9900012    2    3    3    0    0 -0.24203320130E+02 -0.42216448126E+01 -0.32396644211E+02  0.50528861466E+02  0.30000004912E+02 0.  0.
         12    1    3    3    0    0  0.24203320130E+02  0.42216448126E+01  0.32396644211E+02  0.40659138534E+02  0.00000000000E+00 0. -1.
         11    1    4    4    0    0 -0.88645859875E+01  0.72513614223E+01 -0.33906053800E+01  0.11944008218E+02  0.51100000000E-03 0. -1.
        -11    1    4    4    0    0  0.34885770917E+01 -0.27958982428E+01 -0.32758516843E+01  0.55424201959E+01  0.51100000000E-03 0.  1.
        -12    1    4    4    0    0 -0.18827311234E+02 -0.86771079921E+01 -0.25730187146E+02  0.33042433052E+02  0.00000000000E+00 0.  1.
</event>
<event>
 8    1  0.5829710E-012  0.9118800E+02  0.7816164E-02  0.1184000E+00
        -11   -1    0    0    0    0  0.00000000000E+00  0.00000000000E+00  0.45593999997E+02  0.45594000000E+02  0.51100000000E-03 0. -1.
         11   -1    0    0    0    0 -0.00000000000E+00 -0.00000000000E+00 -0.45593999997E+02  0.45594000000E+02  0.51100000000E-03 0.  1.
         23    2    1    2    0    0  0.00000000000E+00  0.00000000000E+00  0.00000000000E+00  0.91188000000E+02  0.91188000000E+02 0.  0.
    9900012    2    3    3    0    0 -0.37205750388E+02  0.15936731090E+02  0.38624180963E+01  0.50528861626E+02  0.30000005399E+02 0.  0.
        -12    1    3    3    0    0  0.37205750388E+02 -0.15936731090E+02 -0.38624180963E+01  0.40659138374E+02  0.00000000000E+00 0.  1.
         11    1    4    4    0    0 -0.41625334288E+01  0.94598359109E+01  0.70095727280E+01  0.12487965811E+02  0.51100000000E-03 0. -1.
        -11    1    4    4    0    0  0.15730218285E+01  0.35144179437E+00 -0.23850614790E+01  0.28786155574E+01  0.51100000000E-03 0.  1.
         12    1    4    4    0    0 -0.34616238787E+02  0.61254533846E+01 -0.76209315275E+00  0.35162280258E+02  0.00000000000E+00 0. -1.
</event>
<event>
 8    1  0.5829710E-012  0.9118800E+02  0.7816164E-02  0.1184000E+00
        -11   -1    0    0    0    0  0.00000000000E+00  0.00000000000E+00  0.45593999997E+02  0.45594000000E+02  0.51100000000E-03 0. -1.
         11   -1    0    0    0    0 -0.00000000000E+00 -0.00000000000E+00 -0.45593999997E+02  0.45594000000E+02  0.51100000000E-03 0.  1.
         23    2    1    2    0    0  0.71054273576E-14  0.17763568394E-14  0.35527136788E-14  0.91188000000E+02  0.91188000000E+02 0.  0.
    9900012    2    3    3    0    0  0.35822365432E+02  0.96804051343E+01  0.16619475978E+02  0.50528940856E+02  0.30000246224E+02 0.  0.
        -12    1    3    3    0    0 -0.35822365432E+02 -0.96804051343E+01 -0.16619475978E+02  0.40659059144E+02  0.00000000000E+00 0.  1.
         11    1    4    4    0    0  0.23044748367E+01  0.18477325295E+01 -0.55669037967E+01  0.63019947569E+01  0.51100000000E-03 0. -1.
        -11    1    4    4    0    0  0.47788835106E+01  0.78158108499E+01  0.28718666382E+01  0.96006377443E+01  0.51100000000E-03 0.  1.
         12    1    4    4    0    0  0.28739007085E+02  0.16861754858E-01  0.19314513136E+02  0.34626308354E+02  0.00000000000E+00 0. -1.
</event>
<event>
 8    1  0.6504131E-012  0.9118800E+02  0.7816164E-02  0.1184000E+00
        -11   -1    0    0    0    0  0.00000000000E+00  0.00000000000E+00  0.45593999997E+02  0.45594000000E+02  0.51100000000E-03 0. -1.
         11   -1    0    0    0    0 -0.00000000000E+00 -0.00000000000E+00 -0.45593999997E+02  0.45594000000E+02  0.51100000000E-03 0.  1.
         23    2    1    2    0    0  0.00000000000E+00  0.00000000000E+00  0.00000000000E+00  0.91188000000E+02  0.91188000000E+02 0.  0.
    9900012    2    3    3    0    0 -0.62909971358E+01  0.93541525287E+01 -0.39065174321E+02  0.50528872375E+02  0.30000038070E+02 0.  0.
         12    1    3    3    0    0  0.62909971358E+01 -0.93541525287E+01  0.39065174321E+02  0.40659127625E+02  0.00000000000E+00 0. -1.
         11    1    4    4    0    0  0.21192125011E+01  0.11186367468E+02 -0.16500004556E+02  0.20046845871E+02  0.51100000000E-03 0. -1.
        -11    1    4    4    0    0 -0.46887323281E+01  0.65719361384E+01 -0.18963289500E+02  0.20610213593E+02  0.51100000000E-03 0.  1.
         12    1    4    4    0    0 -0.37214773088E+01 -0.84041510776E+01 -0.36018802654E+01  0.98718129106E+01  0.00000000000E+00 0. -1.
</event>
<event>
 8    1  0.5829710E-012  0.9118800E+02  0.7816164E-02  0.1184000E+00
        -11   -1    0    0    0    0  0.00000000000E+00  0.00000000000E+00  0.45593999997E+02  0.45594000000E+02  0.51100000000E-03 0. -1.
         11   -1    0    0    0    0 -0.00000000000E+00 -0.00000000000E+00 -0.45593999997E+02  0.45594000000E+02  0.51100000000E-03 0.  1.
         23    2    1    2    0    0  0.00000000000E+00  0.00000000000E+00  0.71054273576E-14  0.91188000000E+02  0.91188000000E+02 0.  0.
    9900012    2    3    3    0    0 -0.16681806363E+02 -0.41280220374E+01 -0.36848909886E+02  0.50528863397E+02  0.30000010782E+02 0.  0.
         12    1    3    3    0    0  0.16681806363E+02  0.41280220374E+01  0.36848909886E+02  0.40659136603E+02  0.00000000000E+00 0. -1.
         11    1    4    4    0    0 -0.93208846034E+01  0.38391648743E+01 -0.21037692726E+02  0.23328150210E+02  0.51100000000E-03 0. -1.
        -11    1    4    4    0    0 -0.38871563983E+01 -0.71223477984E+01 -0.20065367095E+02  0.21643862408E+02  0.51100000000E-03 0.  1.
         12    1    4    4    0    0 -0.34737653613E+01 -0.84483911328E+00  0.42541499346E+01  0.55568507789E+01  0.00000000000E+00 0. -1.
</event>
<event>
 8    1  0.5829710E-012  0.9118800E+02  0.7816164E-02  0.1184000E+00
        -11   -1    0    0    0    0  0.00000000000E+00  0.00000000000E+00  0.45593999997E+02  0.45594000000E+02  0.51100000000E-03 0.  1.
         11   -1    0    0    0    0 -0.00000000000E+00 -0.00000000000E+00 -0.45593999997E+02  0.45594000000E+02  0.51100000000E-03 0. -1.
         23    2    1    2    0    0  0.44408920985E-15  0.00000000000E+00 -0.35527136788E-14  0.91188000000E+02  0.91188000000E+02 0.  0.
    9900012    2    3    3    0    0  0.10327829067E+01 -0.34822453806E+02  0.20964135942E+02  0.50528869101E+02  0.30000028120E+02 0.  0.
        -12    1    3    3    0    0 -0.10327829067E+01  0.34822453806E+02 -0.20964135942E+02  0.40659130899E+02  0.00000000000E+00 0.  1.
         11    1    4    4    0    0  0.30175514850E+00 -0.77774289052E+01  0.14380406493E+01  0.79150121740E+01  0.51100000000E-03 0. -1.
        -11    1    4    4    0    0 -0.21129439060E+01 -0.69672078219E+01 -0.64039003399E+01  0.96962083624E+01  0.51100000000E-03 0.  1.
        -12    1    4    4    0    0  0.28439716641E+01 -0.20077817079E+02  0.25929995633E+02  0.32917648565E+02  0.00000000000E+00 0.  1.
</event>
<event>
 8    1  0.5829710E-012  0.9118800E+02  0.7816164E-02  0.1184000E+00
        -11   -1    0    0    0    0  0.00000000000E+00  0.00000000000E+00  0.45593999997E+02  0.45594000000E+02  0.51100000000E-03 0. -1.
         11   -1    0    0    0    0 -0.00000000000E+00 -0.00000000000E+00 -0.45593999997E+02  0.45594000000E+02  0.51100000000E-03 0.  1.
         23    2    1    2    0    0  0.00000000000E+00  0.00000000000E+00  0.00000000000E+00  0.91188000000E+02  0.91188000000E+02 0.  0.
    9900012    2    3    3    0    0  0.99181145343E+01 -0.10484998006E+02  0.38011325309E+02  0.50528867805E+02  0.30000024181E+02 0.  0.
        -12    1    3    3    0    0 -0.99181145343E+01  0.10484998006E+02 -0.38011325309E+02  0.40659132195E+02  0.00000000000E+00 0.  1.
         11    1    4    4    0    0  0.96031492612E+01 -0.15797556145E+02  0.17990586558E+02  0.25796210203E+02  0.51100000000E-03 0. -1.
        -11    1    4    4    0    0  0.62562009838E+00  0.36569892376E+01 -0.84000039132E+00  0.38040204666E+01  0.51100000000E-03 0.  1.
        -12    1    4    4    0    0 -0.31065482520E+00  0.16555689008E+01  0.20860739142E+02  0.20928637135E+02  0.00000000000E+00 0.  1.
</event>
<event>
 8    1  0.5829710E-012  0.9118800E+02  0.7816164E-02  0.1184000E+00
        -11   -1    0    0    0    0  0.00000000000E+00  0.00000000000E+00  0.45593999997E+02  0.45594000000E+02  0.51100000000E-03 0. -1.
         11   -1    0    0    0    0 -0.00000000000E+00 -0.00000000000E+00 -0.45593999997E+02  0.45594000000E+02  0.51100000000E-03 0.  1.
         23    2    1    2    0    0  0.17763568394E-14 -0.35527136788E-14  0.71054273576E-14  0.91188000000E+02  0.91188000000E+02 0.  0.
    9900012    2    3    3    0    0  0.82721699357E+01 -0.17970160971E+02  0.35521896924E+02  0.50528921778E+02  0.30000188235E+02 0.  0.
        -12    1    3    3    0    0 -0.82721699357E+01  0.17970160971E+02 -0.35521896924E+02  0.40659078222E+02  0.00000000000E+00 0.  1.
         11    1    4    4    0    0  0.23070922898E+01 -0.73662457000E+01  0.14257026338E+02  0.16212558428E+02  0.51100000000E-03 0. -1.
        -11    1    4    4    0    0 -0.38147797017E+01 -0.30168386869E+01  0.21392033366E+02  0.21937934079E+02  0.51100000000E-03 0.  1.
        -12    1    4    4    0    0  0.97798573476E+01 -0.75870765842E+01 -0.12716277933E+00  0.12378429271E+02  0.00000000000E+00 0.  1.
</event>
<event>
 8    1  0.5829710E-012  0.9118800E+02  0.7816164E-02  0.1184000E+00
        -11   -1    0    0    0    0  0.00000000000E+00  0.00000000000E+00  0.45593999997E+02  0.45594000000E+02  0.51100000000E-03 0. -1.
         11   -1    0    0    0    0 -0.00000000000E+00 -0.00000000000E+00 -0.45593999997E+02  0.45594000000E+02  0.51100000000E-03 0.  1.
         23    2    1    2    0    0  0.35527136788E-14  0.35527136788E-14 -0.35527136788E-14  0.91188000000E+02  0.91188000000E+02 0.  0.
    9900012    2    3    3    0    0 -0.15938121537E+02 -0.21665150651E+02  0.30492020216E+02  0.50528858743E+02  0.29999996636E+02 0.  0.
        -12    1    3    3    0    0  0.15938121537E+02  0.21665150651E+02 -0.30492020216E+02  0.40659141257E+02  0.00000000000E+00 0.  1.
         11    1    4    4    0    0 -0.95680794752E+01 -0.13907769520E+02  0.24961919501E+02  0.30134226774E+02  0.51100000000E-03 0. -1.
        -11    1    4    4    0    0  0.20264095429E-01  0.46454861807E+01  0.43968866004E+01  0.63963711998E+01  0.51100000000E-03 0.  1.
        -12    1    4    4    0    0 -0.63903061575E+01 -0.12402867311E+02  0.11332141153E+01  0.13998260769E+02  0.00000000000E+00 0.  1.
</event>
<event>
 8    1  0.5829710E-012  0.9118800E+02  0.7816164E-02  0.1184000E+00
        -11   -1    0    0    0    0  0.00000000000E+00  0.00000000000E+00  0.45593999997E+02  0.45594000000E+02  0.51100000000E-03 0. -1.
         11   -1    0    0    0    0 -0.00000000000E+00 -0.00000000000E+00 -0.45593999997E+02  0.45594000000E+02  0.51100000000E-03 0.  1.
         23    2    1    2    0    0 -0.71054273576E-14  0.55511151231E-15 -0.35527136788E-14  0.91188000000E+02  0.91188000000E+02 0.  0.
    9900012    2    3    3    0    0 -0.30725511702E+02 -0.36496587179E+00 -0.26626595027E+02  0.50528857951E+02  0.29999994227E+02 0.  0.
         12    1    3    3    0    0  0.30725511702E+02  0.36496587179E+00  0.26626595027E+02  0.40659142049E+02  0.00000000000E+00 0. -1.
         11    1    4    4    0    0 -0.93369360092E+01 -0.10668000555E+02 -0.82077872825E+01  0.16381464593E+02  0.51100000000E-03 0. -1.
        -11    1    4    4    0    0 -0.10252064187E+02  0.53562843135E+01  0.57435635375E+00  0.11581212683E+02  0.51100000000E-03 0.  1.
        -12    1    4    4    0    0 -0.11136511506E+02  0.49467503700E+01 -0.18993164098E+02  0.22566180674E+02  0.00000000000E+00 0.  1.
</event>
<event>
 8    1  0.5829710E-012  0.9118800E+02  0.7816164E-02  0.1184000E+00
        -11   -1    0    0    0    0  0.00000000000E+00  0.00000000000E+00  0.45593999997E+02  0.45594000000E+02  0.51100000000E-03 0. -1.
         11   -1    0    0    0    0 -0.00000000000E+00 -0.00000000000E+00 -0.45593999997E+02  0.45594000000E+02  0.51100000000E-03 0.  1.
         23    2    1    2    0    0  0.00000000000E+00 -0.13322676296E-14  0.00000000000E+00  0.91188000000E+02  0.91188000000E+02 0.  0.
    9900012    2    3    3    0    0 -0.17916402355E+02  0.38510021392E+01 -0.36295137953E+02  0.50528871507E+02  0.30000035431E+02 0.  0.
         12    1    3    3    0    0  0.17916402355E+02 -0.38510021392E+01  0.36295137953E+02  0.40659128493E+02  0.00000000000E+00 0. -1.
         11    1    4    4    0    0  0.82862562950E+00 -0.39750943817E+01 -0.21775988544E+01  0.46075951220E+01  0.51100000000E-03 0. -1.
        -11    1    4    4    0    0 -0.11325300378E+02 -0.37373683497E+01 -0.36063529906E+01  0.12459379318E+02  0.51100000000E-03 0.  1.
        -12    1    4    4    0    0 -0.74197276062E+01  0.11563464871E+02 -0.30511186108E+02  0.33461897066E+02  0.00000000000E+00 0.  1.
</event>
<event>
 8    1  0.5829710E-012  0.9118800E+02  0.7816164E-02  0.1184000E+00
        -11   -1    0    0    0    0  0.00000000000E+00  0.00000000000E+00  0.45593999997E+02  0.45594000000E+02  0.51100000000E-03 0. -1.
         11   -1    0    0    0    0 -0.00000000000E+00 -0.00000000000E+00 -0.45593999997E+02  0.45594000000E+02  0.51100000000E-03 0.  1.
         23    2    1    2    0    0  0.00000000000E+00 -0.87430063189E-15  0.00000000000E+00  0.91188000000E+02  0.91188000000E+02 0.  0.
    9900012    2    3    3    0    0  0.20094181977E+02  0.12284182874E+00  0.35346500696E+02  0.50528851572E+02  0.29999974838E+02 0.  0.
        -12    1    3    3    0    0 -0.20094181977E+02 -0.12284182874E+00 -0.35346500696E+02  0.40659148428E+02  0.00000000000E+00 0.  1.
         11    1    4    4    0    0  0.11861786407E+02  0.82120216372E+01  0.13343319666E+02  0.19651550985E+02  0.51100000000E-03 0. -1.
        -11    1    4    4    0    0 -0.12699930682E+01 -0.27435268616E+01  0.19444700078E+02  0.19678317596E+02  0.51100000000E-03 0.  1.
         12    1    4    4    0    0  0.95023886375E+01 -0.53456529469E+01  0.25584809523E+01  0.11198982991E+02  0.00000000000E+00 0. -1.
</event>
<event>
 8    1  0.5829710E-012  0.9118800E+02  0.7816164E-02  0.1184000E+00
        -11   -1    0    0    0    0  0.00000000000E+00  0.00000000000E+00  0.45593999997E+02  0.45594000000E+02  0.51100000000E-03 0. -1.
         11   -1    0    0    0    0 -0.00000000000E+00 -0.00000000000E+00 -0.45593999997E+02  0.45594000000E+02  0.51100000000E-03 0.  1.
         23    2    1    2    0    0  0.17763568394E-14  0.00000000000E+00  0.00000000000E+00  0.91188000000E+02  0.91188000000E+02 0.  0.
    9900012    2    3    3    0    0 -0.13699240774E+02  0.81038033077E+01  0.37414235732E+02  0.50528857594E+02  0.29999993141E+02 0.  0.
        -12    1    3    3    0    0  0.13699240774E+02 -0.81038033077E+01 -0.37414235732E+02  0.40659142406E+02  0.00000000000E+00 0.  1.
         11    1    4    4    0    0 -0.19169370585E+02  0.10597309960E+02  0.33357739327E+02  0.39906221574E+02  0.51100000000E-03 0. -1.
        -11    1    4    4    0    0  0.14662659770E+01 -0.20596153173E+01  0.57288383701E+01  0.62619118888E+01  0.51100000000E-03 0.  1.
         12    1    4    4    0    0  0.40038638342E+01 -0.43389133552E+00 -0.16723419657E+01  0.43607241307E+01  0.00000000000E+00 0. -1.
</event>
<event>
 8    1  0.5829710E-012  0.9118800E+02  0.7816164E-02  0.1184000E+00
        -11   -1    0    0    0    0  0.00000000000E+00  0.00000000000E+00  0.45593999997E+02  0.45594000000E+02  0.51100000000E-03 0. -1.
         11   -1    0    0    0    0 -0.00000000000E+00 -0.00000000000E+00 -0.45593999997E+02  0.45594000000E+02  0.51100000000E-03 0.  1.
         23    2    1    2    0    0 -0.35527136788E-14 -0.35527136788E-14  0.35527136788E-14  0.91188000000E+02  0.91188000000E+02 0.  0.
    9900012    2    3    3    0    0 -0.19602857772E+02 -0.22216707392E+02  0.27844409717E+02  0.50528864831E+02  0.30000015141E+02 0.  0.
        -12    1    3    3    0    0  0.19602857772E+02  0.22216707392E+02 -0.27844409717E+02  0.40659135169E+02  0.00000000000E+00 0.  1.
         11    1    4    4    0    0  0.23831398073E+01 -0.83495120545E+01  0.13925407267E+01  0.87939113497E+01  0.51100000000E-03 0. -1.
        -11    1    4    4    0    0 -0.12227060083E+02 -0.62438177617E+01  0.14135133137E+01  0.13801604206E+02  0.51100000000E-03 0.  1.
         12    1    4    4    0    0 -0.97589374962E+01 -0.76233775758E+01  0.25038355677E+02  0.27933349275E+02  0.00000000000E+00 0. -1.
</event>
<event>
 8    1  0.5829710E-012  0.9118800E+02  0.7816164E-02  0.1184000E+00
        -11   -1    0    0    0    0  0.00000000000E+00  0.00000000000E+00  0.45593999997E+02  0.45594000000E+02  0.51100000000E-03 0. -1.
         11   -1    0    0    0    0 -0.00000000000E+00 -0.00000000000E+00 -0.45593999997E+02  0.45594000000E+02  0.51100000000E-03 0.  1.
         23    2    1    2    0    0  0.17763568394E-14  0.00000000000E+00 -0.71054273576E-14  0.91188000000E+02  0.91188000000E+02 0.  0.
    9900012    2    3    3    0    0 -0.11571807387E+02 -0.84090945485E+01  0.38059765473E+02  0.50528863939E+02  0.30000012430E+02 0.  0.
        -12    1    3    3    0    0  0.11571807387E+02  0.84090945485E+01 -0.38059765473E+02  0.40659136061E+02  0.00000000000E+00 0.  1.
         11    1    4    4    0    0  0.22556296924E+01  0.25703544017E+01  0.28555677793E+01  0.44552053446E+01  0.51100000000E-03 0. -1.
        -11    1    4    4    0    0 -0.74873744891E+00 -0.15733830189E+02  0.20087013547E+02  0.25526498657E+02  0.51100000000E-03 0.  1.
         12    1    4    4    0    0 -0.13078699630E+02  0.47543812386E+01  0.15117184147E+02  0.20547159938E+02  0.00000000000E+00 0. -1.
</event>
<event>
 8    1  0.5829710E-012  0.9118800E+02  0.7816164E-02  0.1184000E+00
        -11   -1    0    0    0    0  0.00000000000E+00  0.00000000000E+00  0.45593999997E+02  0.45594000000E+02  0.51100000000E-03 0. -1.
         11   -1    0    0    0    0 -0.00000000000E+00 -0.00000000000E+00 -0.45593999997E+02  0.45594000000E+02  0.51100000000E-03 0.  1.
         23    2    1    2    0    0  0.00000000000E+00 -0.17763568394E-14 -0.71054273576E-14  0.91188000000E+02  0.91188000000E+02 0.  0.
    9900012    2    3    3    0    0 -0.11841327808E+02 -0.81167060042E+01 -0.38040341730E+02  0.50528861303E+02  0.30000004417E+02 0.  0.
         12    1    3    3    0    0  0.11841327808E+02  0.81167060042E+01  0.38040341730E+02  0.40659138697E+02  0.00000000000E+00 0. -1.
         11    1    4    4    0    0  0.76017681032E+01  0.22647079366E+00 -0.11097103481E+02  0.13453024687E+02  0.51100000000E-03 0. -1.
        -11    1    4    4    0    0 -0.20698094429E+01  0.25703593807E+01 -0.97962490048E+01  0.10337183045E+02  0.51100000000E-03 0.  1.
         12    1    4    4    0    0 -0.17373286468E+02 -0.10913536179E+02 -0.17146989245E+02  0.26738653571E+02  0.00000000000E+00 0. -1.
</event>
<event>
 8    1  0.5829710E-012  0.9118800E+02  0.7816164E-02  0.1184000E+00
        -11   -1    0    0    0    0  0.00000000000E+00  0.00000000000E+00  0.45593999997E+02  0.45594000000E+02  0.51100000000E-03 0.  1.
         11   -1    0    0    0    0 -0.00000000000E+00 -0.00000000000E+00 -0.45593999997E+02  0.45594000000E+02  0.51100000000E-03 0. -1.
         23    2    1    2    0    0  0.00000000000E+00  0.00000000000E+00  0.17763568394E-14  0.91188000000E+02  0.91188000000E+02 0.  0.
    9900012    2    3    3    0    0  0.37808724750E+02 -0.12714423480E+02  0.78748805254E+01  0.50528807006E+02  0.29999839374E+02 0.  0.
         12    1    3    3    0    0 -0.37808724750E+02  0.12714423480E+02 -0.78748805254E+01  0.40659192994E+02  0.00000000000E+00 0. -1.
         11    1    4    4    0    0  0.13198802536E+02  0.10284737341E+01 -0.37296141563E+01  0.13754132783E+02  0.51100000000E-03 0. -1.
        -11    1    4    4    0    0  0.27374220501E+02 -0.13898813649E+02  0.71376788661E+01  0.31519381796E+02  0.51100000000E-03 0.  1.
         12    1    4    4    0    0 -0.27642982876E+01  0.15591643475E+00  0.44668158157E+01  0.52552924265E+01  0.00000000000E+00 0. -1.
</event>
<event>
 8    1  0.5829710E-012  0.9118800E+02  0.7816164E-02  0.1184000E+00
        -11   -1    0    0    0    0  0.00000000000E+00  0.00000000000E+00  0.45593999997E+02  0.45594000000E+02  0.51100000000E-03 0. -1.
         11   -1    0    0    0    0 -0.00000000000E+00 -0.00000000000E+00 -0.45593999997E+02  0.45594000000E+02  0.51100000000E-03 0.  1.
         23    2    1    2    0    0  0.00000000000E+00 -0.88817841970E-15 -0.71054273576E-14  0.91188000000E+02  0.91188000000E+02 0.  0.
    9900012    2    3    3    0    0  0.10969675942E+02  0.28685756573E+01 -0.39046069834E+02  0.50528953208E+02  0.30000283769E+02 0.  0.
         12    1    3    3    0    0 -0.10969675942E+02 -0.28685756573E+01  0.39046069834E+02  0.40659046792E+02  0.00000000000E+00 0. -1.
         11    1    4    4    0    0  0.73272818716E+01  0.13021958303E+02 -0.28789592772E+02  0.32436108119E+02  0.51100000000E-03 0. -1.
        -11    1    4    4    0    0  0.28235939860E+01 -0.13165232530E+01 -0.84906362499E+01  0.90441594780E+01  0.51100000000E-03 0.  1.
         12    1    4    4    0    0  0.81880008425E+00 -0.88368593931E+01 -0.17658408122E+01  0.90486856110E+01  0.00000000000E+00 0. -1.
</event>
<event>
 8    1  0.5829710E-012  0.9118800E+02  0.7816164E-02  0.1184000E+00
        -11   -1    0    0    0    0  0.00000000000E+00  0.00000000000E+00  0.45593999997E+02  0.45594000000E+02  0.51100000000E-03 0. -1.
         11   -1    0    0    0    0 -0.00000000000E+00 -0.00000000000E+00 -0.45593999997E+02  0.45594000000E+02  0.51100000000E-03 0.  1.
         23    2    1    2    0    0 -0.17763568394E-14 -0.17763568394E-14 -0.71054273576E-14  0.91188000000E+02  0.91188000000E+02 0.  0.
    9900012    2    3    3    0    0 -0.14184755667E+02 -0.14579523821E+02  0.35205027598E+02  0.50528883232E+02  0.30000071073E+02 0.  0.
        -12    1    3    3    0    0  0.14184755667E+02  0.14579523821E+02 -0.35205027598E+02  0.40659116768E+02  0.00000000000E+00 0.  1.
         11    1    4    4    0    0 -0.37462340728E+01 -0.32514619875E+01  0.25645363738E+01  0.55841849771E+01  0.51100000000E-03 0. -1.
        -11    1    4    4    0    0  0.39835309809E-01 -0.16818617886E+01 -0.46937241622E+01  0.49861099767E+01  0.51100000000E-03 0.  1.
         12    1    4    4    0    0 -0.10478356904E+02 -0.96462000453E+01  0.37334215386E+02  0.39958588278E+02  0.00000000000E+00 0. -1.
</event>
<event>
 8    1  0.5829710E-012  0.9118800E+02  0.7816164E-02  0.1184000E+00
        -11   -1    0    0    0    0  0.00000000000E+00  0.00000000000E+00  0.45593999997E+02  0.45594000000E+02  0.51100000000E-03 0. -1.
         11   -1    0    0    0    0 -0.00000000000E+00 -0.00000000000E+00 -0.45593999997E+02  0.45594000000E+02  0.51100000000E-03 0.  1.
         23    2    1    2    0    0  0.00000000000E+00 -0.44408920985E-14  0.00000000000E+00  0.91188000000E+02  0.91188000000E+02 0.  0.
    9900012    2    3    3    0    0  0.43474909711E+01  0.76590118989E+01  0.39693891406E+02  0.50528853969E+02  0.29999982123E+02 0.  0.
        -12    1    3    3    0    0 -0.43474909711E+01 -0.76590118989E+01 -0.39693891406E+02  0.40659146031E+02  0.00000000000E+00 0.  1.
         11    1    4    4    0    0  0.17627733984E+01  0.13760320465E+02  0.23495654440E+02  0.27285519368E+02  0.51100000000E-03 0. -1.
        -11    1    4    4    0    0 -0.12505866146E+01  0.24259535266E+01 -0.15818899472E+01  0.31546146294E+01  0.51100000000E-03 0.  1.
         12    1    4    4    0    0  0.38353041874E+01 -0.85272620930E+01  0.17780126914E+02  0.20088719971E+02  0.00000000000E+00 0. -1.
</event>
<event>
 8    1  0.5829710E-012  0.9118800E+02  0.7816164E-02  0.1184000E+00
        -11   -1    0    0    0    0  0.00000000000E+00  0.00000000000E+00  0.45593999997E+02  0.45594000000E+02  0.51100000000E-03 0. -1.
         11   -1    0    0    0    0 -0.00000000000E+00 -0.00000000000E+00 -0.45593999997E+02  0.45594000000E+02  0.51100000000E-03 0.  1.
         23    2    1    2    0    0  0.00000000000E+00  0.88817841970E-15 -0.71054273576E-14  0.91188000000E+02  0.91188000000E+02 0.  0.
    9900012    2    3    3    0    0 -0.22642031436E+02 -0.24004632119E+01  0.33685930713E+02  0.50528859095E+02  0.29999997704E+02 0.  0.
        -12    1    3    3    0    0  0.22642031436E+02  0.24004632119E+01 -0.33685930713E+02  0.40659140905E+02  0.00000000000E+00 0.  1.
         11    1    4    4    0    0 -0.11439523979E+02 -0.41359050298E+00  0.19961570394E+02  0.23010824818E+02  0.51100000000E-03 0. -1.
        -11    1    4    4    0    0 -0.84487733166E+01 -0.11262766460E+02  0.69132230910E+01  0.15685162819E+02  0.51100000000E-03 0.  1.
        -12    1    4    4    0    0 -0.27537341408E+01  0.92758937510E+01  0.68111372279E+01  0.11832871458E+02  0.00000000000E+00 0.  1.
</event>
<event>
 8    1  0.5855041E-012  0.9118800E+02  0.7816164E-02  0.1184000E+00
        -11   -1    0    0    0    0  0.00000000000E+00  0.00000000000E+00  0.45593999997E+02  0.45594000000E+02  0.51100000000E-03 0. -1.
         11   -1    0    0    0    0 -0.00000000000E+00 -0.00000000000E+00 -0.45593999997E+02  0.45594000000E+02  0.51100000000E-03 0.  1.
         23    2    1    2    0    0 -0.26645352591E-14 -0.71054273576E-14 -0.71054273576E-14  0.91188000000E+02  0.91188000000E+02 0.  0.
    9900012    2    3    3    0    0 -0.73224556257E+01 -0.24619240640E+02 -0.31518847309E+02  0.50528891528E+02  0.30000096288E+02 0.  0.
         12    1    3    3    0    0  0.73224556257E+01  0.24619240640E+02  0.31518847309E+02  0.40659108472E+02  0.00000000000E+00 0. -1.
         11    1    4    4    0    0  0.51404543675E+01 -0.15371608303E+02 -0.99943165542E+01  0.19041979324E+02  0.51100000000E-03 0. -1.
        -11    1    4    4    0    0 -0.92608492304E+01 -0.14267997886E+02 -0.15416302521E+02  0.22956512711E+02  0.51100000000E-03 0.  1.
         12    1    4    4    0    0 -0.32020607628E+01  0.50203655489E+01 -0.61082282332E+01  0.85303994938E+01  0.00000000000E+00 0. -1.
</event>
<event>
 8    1  0.5829710E-012  0.9118800E+02  0.7816164E-02  0.1184000E+00
        -11   -1    0    0    0    0  0.00000000000E+00  0.00000000000E+00  0.45593999997E+02  0.45594000000E+02  0.51100000000E-03 0. -1.
         11   -1    0    0    0    0 -0.00000000000E+00 -0.00000000000E+00 -0.45593999997E+02  0.45594000000E+02  0.51100000000E-03 0.  1.
         23    2    1    2    0    0 -0.35527136788E-14  0.00000000000E+00  0.00000000000E+00  0.91188000000E+02  0.91188000000E+02 0.  0.
    9900012    2    3    3    0    0  0.31882981315E+02 -0.22980482099E+02 -0.10418220043E+02  0.50528851412E+02  0.29999974352E+02 0.  0.
         12    1    3    3    0    0 -0.31882981315E+02  0.22980482099E+02  0.10418220043E+02  0.40659148588E+02  0.00000000000E+00 0. -1.
         11    1    4    4    0    0 -0.39451913639E+00 -0.53761984410E+01  0.35207581961E+01  0.64385474730E+01  0.51100000000E-03 0. -1.
        -11    1    4    4    0    0 -0.23717211423E+01  0.10387968864E+00 -0.26839728207E+01  0.35832335299E+01  0.51100000000E-03 0.  1.
        -12    1    4    4    0    0  0.34649221594E+02 -0.17708163346E+02 -0.11255005419E+02  0.40507070409E+02  0.00000000000E+00 0.  1.
</event>
<event>
 8    1  0.6043711E-012  0.9118800E+02  0.7816164E-02  0.1184000E+00
        -11   -1    0    0    0    0  0.00000000000E+00  0.00000000000E+00  0.45593999997E+02  0.45594000000E+02  0.51100000000E-03 0. -1.
         11   -1    0    0    0    0 -0.00000000000E+00 -0.00000000000E+00 -0.45593999997E+02  0.45594000000E+02  0.51100000000E-03 0.  1.
         23    2    1    2    0    0  0.00000000000E+00  0.00000000000E+00  0.00000000000E+00  0.91188000000E+02  0.91188000000E+02 0.  0.
    9900012    2    3    3    0    0  0.31087509109E+02 -0.40837602809E+01 -0.25885430539E+02  0.50528857918E+02  0.29999994128E+02 0.  0.
         12    1    3    3    0    0 -0.31087509109E+02  0.40837602809E+01  0.25885430539E+02  0.40659142082E+02  0.00000000000E+00 0. -1.
         11    1    4    4    0    0  0.62223774998E+01  0.26400237384E+00  0.49202185739E+01  0.79370164470E+01  0.51100000000E-03 0. -1.
        -11    1    4    4    0    0  0.18854864588E+02 -0.46848255994E+01 -0.11974567751E+02  0.22822002160E+02  0.51100000000E-03 0.  1.
        -12    1    4    4    0    0  0.60102670211E+01  0.33706294473E+00 -0.18831081363E+02  0.19769839311E+02  0.00000000000E+00 0.  1.
</event>
<event>
 8    1  0.5829710E-012  0.9118800E+02  0.7816164E-02  0.1184000E+00
        -11   -1    0    0    0    0  0.00000000000E+00  0.00000000000E+00  0.45593999997E+02  0.45594000000E+02  0.51100000000E-03 0. -1.
         11   -1    0    0    0    0 -0.00000000000E+00 -0.00000000000E+00 -0.45593999997E+02  0.45594000000E+02  0.51100000000E-03 0.  1.
         23    2    1    2    0    0  0.88817841970E-15 -0.17763568394E-14  0.71054273576E-14  0.91188000000E+02  0.91188000000E+02 0.  0.
    9900012    2    3    3    0    0  0.50943540308E+01  0.15083374305E+02  0.37412630215E+02  0.50528861753E+02  0.30000005785E+02 0.  0.
        -12    1    3    3    0    0 -0.50943540308E+01 -0.15083374305E+02 -0.37412630215E+02  0.40659138247E+02  0.00000000000E+00 0.  1.
         11    1    4    4    0    0  0.19654566362E+01 -0.26277245105E+01  0.52112408365E+01  0.61583266565E+01  0.51100000000E-03 0. -1.
        -11    1    4    4    0    0  0.28947449024E+01 -0.37355253354E+01 -0.10129075324E+01  0.48331852346E+01  0.51100000000E-03 0.  1.
         12    1    4    4    0    0  0.23415249220E+00  0.21446624151E+02  0.33214296910E+02  0.39537349862E+02  0.00000000000E+00 0. -1.
</event>
<event>
 8    1  0.5829710E-012  0.9118800E+02  0.7816164E-02  0.1184000E+00
        -11   -1    0    0    0    0  0.00000000000E+00  0.00000000000E+00  0.45593999997E+02  0.45594000000E+02  0.51100000000E-03 0. -1.
         11   -1    0    0    0    0 -0.00000000000E+00 -0.00000000000E+00 -0.45593999997E+02  0.45594000000E+02  0.51100000000E-03 0.  1.
         23    2    1    2    0    0  0.35527136788E-14 -0.35527136788E-14 -0.14210854715E-13  0.91188000000E+02  0.91188000000E+02 0.  0.
    9900012    2    3    3    0    0  0.20674118586E+02 -0.11979094879E+02 -0.32897539674E+02  0.50528855764E+02  0.29999987580E+02 0.  0.
         12    1    3    3    0    0 -0.20674118586E+02  0.11979094879E+02  0.32897539674E+02  0.40659144236E+02  0.00000000000E+00 0. -1.
         11    1    4    4    0    0  0.23140310868E+01 -0.73757480111E+01  0.11881116832E-01  0.77302354438E+01  0.51100000000E-03 0. -1.
        -11    1    4    4    0    0  0.11510364550E+00  0.58760703801E+01 -0.10682550551E+02  0.12192552583E+02  0.51100000000E-03 0.  1.
         12    1    4    4    0    0  0.18244983854E+02 -0.10479417248E+02 -0.22226870240E+02  0.30606067737E+02  0.00000000000E+00 0. -1.
</event>
<event>
 8    1  0.5829710E-012  0.9118800E+02  0.7816164E-02  0.1184000E+00
        -11   -1    0    0    0    0  0.00000000000E+00  0.00000000000E+00  0.45593999997E+02  0.45594000000E+02  0.51100000000E-03 0. -1.
         11   -1    0    0    0    0 -0.00000000000E+00 -0.00000000000E+00 -0.45593999997E+02  0.45594000000E+02  0.51100000000E-03 0.  1.
         23    2    1    2    0    0 -0.35527136788E-14  0.88817841970E-15 -0.71054273576E-14  0.91188000000E+02  0.91188000000E+02 0.  0.
    9900012    2    3    3    0    0 -0.17947697171E+02  0.45772353446E+01 -0.36195226869E+02  0.50528863693E+02  0.30000011680E+02 0.  0.
         12    1    3    3    0    0  0.17947697171E+02 -0.45772353446E+01  0.36195226869E+02  0.40659136307E+02  0.00000000000E+00 0. -1.
         11    1    4    4    0    0 -0.32720715270E+00 -0.94197933316E+00 -0.70511642323E+01  0.71213276064E+01  0.51100000000E-03 0. -1.
        -11    1    4    4    0    0 -0.10970632365E+02  0.73263014375E+00  0.20246263874E+01  0.11179921005E+02  0.51100000000E-03 0.  1.
        -12    1    4    4    0    0 -0.66498576538E+01  0.47865845340E+01 -0.31168689024E+02  0.32227615081E+02  0.00000000000E+00 0.  1.
</event>
<event>
 8    1  0.5829710E-012  0.9118800E+02  0.7816164E-02  0.1184000E+00
        -11   -1    0    0    0    0  0.00000000000E+00  0.00000000000E+00  0.45593999997E+02  0.45594000000E+02  0.51100000000E-03 0. -1.
         11   -1    0    0    0    0 -0.00000000000E+00 -0.00000000000E+00 -0.45593999997E+02  0.45594000000E+02  0.51100000000E-03 0.  1.
         23    2    1    2    0    0 -0.17763568394E-14  0.00000000000E+00  0.00000000000E+00  0.91188000000E+02  0.91188000000E+02 0.  0.
    9900012    2    3    3    0    0  0.11258160044E+02 -0.17410799274E+02 -0.34975477475E+02  0.50528854367E+02  0.29999983335E+02 0.  0.
         12    1    3    3    0    0 -0.11258160044E+02  0.17410799274E+02  0.34975477475E+02  0.40659145633E+02  0.00000000000E+00 0. -1.
         11    1    4    4    0    0  0.30386051367E+01 -0.78822198503E+01 -0.13151253231E+02  0.15630674098E+02  0.51100000000E-03 0. -1.
        -11    1    4    4    0    0  0.11231557026E+02 -0.96801811368E+01 -0.25890411167E+02  0.29835669437E+02  0.51100000000E-03 0.  1.
        -12    1    4    4    0    0 -0.30120021185E+01  0.15160171314E+00  0.40661869228E+01  0.50625108329E+01  0.00000000000E+00 0.  1.
</event>
<event>
 8    1  0.5829710E-012  0.9118800E+02  0.7816164E-02  0.1184000E+00
        -11   -1    0    0    0    0  0.00000000000E+00  0.00000000000E+00  0.45593999997E+02  0.45594000000E+02  0.51100000000E-03 0. -1.
         11   -1    0    0    0    0 -0.00000000000E+00 -0.00000000000E+00 -0.45593999997E+02  0.45594000000E+02  0.51100000000E-03 0.  1.
         23    2    1    2    0    0  0.35527136788E-14  0.00000000000E+00  0.00000000000E+00  0.91188000000E+02  0.91188000000E+02 0.  0.
    9900012    2    3    3    0    0 -0.18000124347E+02  0.14233768239E+02  0.33564282711E+02  0.50528859469E+02  0.29999998842E+02 0.  0.
        -12    1    3    3    0    0  0.18000124347E+02 -0.14233768239E+02 -0.33564282711E+02  0.40659140531E+02  0.00000000000E+00 0.  1.
         11    1    4    4    0    0 -0.16185474574E+02  0.49256867027E+01  0.78368345391E+01  0.18645319856E+02  0.51100000000E-03 0. -1.
        -11    1    4    4    0    0 -0.51213575626E+01 -0.30824749012E+01  0.73466569763E+01  0.94711838642E+01  0.51100000000E-03 0.  1.
        -12    1    4    4    0    0  0.33067077894E+01  0.12390556438E+02  0.18380791196E+02  0.22412355749E+02  0.00000000000E+00 0.  1.
</event>
<event>
 8    1  0.5927955E-012  0.9118800E+02  0.7816164E-02  0.1184000E+00
        -11   -1    0    0    0    0  0.00000000000E+00  0.00000000000E+00  0.45593999997E+02  0.45594000000E+02  0.51100000000E-03 0. -1.
         11   -1    0    0    0    0 -0.00000000000E+00 -0.00000000000E+00 -0.45593999997E+02  0.45594000000E+02  0.51100000000E-03 0.  1.
         23    2    1    2    0    0  0.22204460493E-14  0.00000000000E+00  0.00000000000E+00  0.91188000000E+02  0.91188000000E+02 0.  0.
    9900012    2    3    3    0    0  0.28847446314E+01  0.12076559086E+02 -0.38716918909E+02  0.50528870143E+02  0.30000031285E+02 0.  0.
         12    1    3    3    0    0 -0.28847446314E+01 -0.12076559086E+02  0.38716918909E+02  0.40659129857E+02  0.00000000000E+00 0. -1.
         11    1    4    4    0    0  0.10517133239E+02 -0.30666619906E+01 -0.19868674180E+02  0.22688735559E+02  0.51100000000E-03 0. -1.
        -11    1    4    4    0    0 -0.97141465246E+00  0.18616708196E+01 -0.10680349005E+02  0.10884820614E+02  0.51100000000E-03 0.  1.
         12    1    4    4    0    0 -0.66609739551E+01  0.13281550257E+02 -0.81678957248E+01  0.16955313970E+02  0.00000000000E+00 0. -1.
</event>
<event>
 8    1  0.6669653E-012  0.9118800E+02  0.7816164E-02  0.1184000E+00
        -11   -1    0    0    0    0  0.00000000000E+00  0.00000000000E+00  0.45593999997E+02  0.45594000000E+02  0.51100000000E-03 0. -1.
         11   -1    0    0    0    0 -0.00000000000E+00 -0.00000000000E+00 -0.45593999997E+02  0.45594000000E+02  0.51100000000E-03 0.  1.
         23    2    1    2    0    0  0.13322676296E-14 -0.17763568394E-14  0.00000000000E+00  0.91188000000E+02  0.91188000000E+02 0.  0.
    9900012    2    3    3    0    0  0.29525460525E+01 -0.13488432548E+02 -0.38242780681E+02  0.50528860622E+02  0.30000002346E+02 0.  0.
         12    1    3    3    0    0 -0.29525460525E+01  0.13488432548E+02  0.38242780681E+02  0.40659139378E+02  0.00000000000E+00 0. -1.
         11    1    4    4    0    0 -0.38632614523E+01 -0.43498671729E+01 -0.15197125870E+02  0.16272638644E+02  0.51100000000E-03 0. -1.
        -11    1    4    4    0    0 -0.73868049317E+01 -0.45363920876E+01 -0.14928073899E+02  0.17262419612E+02  0.51100000000E-03 0.  1.
         12    1    4    4    0    0  0.14202612436E+02 -0.46021732872E+01 -0.81175809121E+01  0.16993802366E+02  0.00000000000E+00 0. -1.
</event>
<event>
 8    1  0.5829710E-012  0.9118800E+02  0.7816164E-02  0.1184000E+00
        -11   -1    0    0    0    0  0.00000000000E+00  0.00000000000E+00  0.45593999997E+02  0.45594000000E+02  0.51100000000E-03 0. -1.
         11   -1    0    0    0    0 -0.00000000000E+00 -0.00000000000E+00 -0.45593999997E+02  0.45594000000E+02  0.51100000000E-03 0.  1.
         23    2    1    2    0    0  0.00000000000E+00  0.35527136788E-14  0.00000000000E+00  0.91188000000E+02  0.91188000000E+02 0.  0.
    9900012    2    3    3    0    0 -0.14849782618E+02 -0.21339254301E+02  0.31261565452E+02  0.50528864588E+02  0.30000014401E+02 0.  0.
        -12    1    3    3    0    0  0.14849782618E+02  0.21339254301E+02 -0.31261565452E+02  0.40659135412E+02  0.00000000000E+00 0.  1.
         11    1    4    4    0    0 -0.11898381892E+02 -0.19864578869E+02  0.10668340466E+02  0.25494832297E+02  0.51100000000E-03 0. -1.
        -11    1    4    4    0    0 -0.39126012026E+01 -0.72777514612E+01  0.10625592113E+02  0.13460212573E+02  0.51100000000E-03 0.  1.
        -12    1    4    4    0    0  0.96120047640E+00  0.58030760288E+01  0.99676328737E+01  0.11573819718E+02  0.00000000000E+00 0.  1.
</event>
<event>
 8    1  0.5829710E-012  0.9118800E+02  0.7816164E-02  0.1184000E+00
        -11   -1    0    0    0    0  0.00000000000E+00  0.00000000000E+00  0.45593999997E+02  0.45594000000E+02  0.51100000000E-03 0.  1.
         11   -1    0    0    0    0 -0.00000000000E+00 -0.00000000000E+00 -0.45593999997E+02  0.45594000000E+02  0.51100000000E-03 0. -1.
         23    2    1    2    0    0  0.00000000000E+00  0.71054273576E-14 -0.17763568394E-14  0.91188000000E+02  0.91188000000E+02 0.  0.
    9900012    2    3    3    0    0 -0.14388211727E+02  0.36666863497E+02 -0.10083878708E+02  0.50528878943E+02  0.30000058034E+02 0.  0.
         12    1    3    3    0    0  0.14388211727E+02 -0.36666863497E+02  0.10083878708E+02  0.40659121057E+02  0.00000000000E+00 0. -1.
         11    1    4    4    0    0 -0.44103412902E+01  0.24108704164E+02 -0.11458893675E+02  0.27055257738E+02  0.51100000000E-03 0. -1.
        -11    1    4    4    0    0  0.36403307191E+01  0.11783685172E+01 -0.33748807337E+01  0.51019976808E+01  0.51100000000E-03 0.  1.
        -12    1    4    4    0    0 -0.13618201156E+02  0.11379790816E+02  0.47498957014E+01  0.18371623524E+02  0.00000000000E+00 0.  1.
</event>
<event>
 8    1  0.5829710E-012  0.9118800E+02  0.7816164E-02  0.1184000E+00
        -11   -1    0    0    0    0  0.00000000000E+00  0.00000000000E+00  0.45593999997E+02  0.45594000000E+02  0.51100000000E-03 0. -1.
         11   -1    0    0    0    0 -0.00000000000E+00 -0.00000000000E+00 -0.45593999997E+02  0.45594000000E+02  0.51100000000E-03 0.  1.
         23    2    1    2    0    0 -0.88817841970E-15  0.17763568394E-14  0.00000000000E+00  0.91188000000E+02  0.91188000000E+02 0.  0.
    9900012    2    3    3    0    0  0.51436774701E+01  0.89261246553E+01 -0.39332336791E+02  0.50528857895E+02  0.29999994057E+02 0.  0.
         12    1    3    3    0    0 -0.51436774701E+01 -0.89261246553E+01  0.39332336791E+02  0.40659142105E+02  0.00000000000E+00 0. -1.
         11    1    4    4    0    0  0.55630831185E+01 -0.25956508556E+01 -0.66605072481E+01  0.90580160196E+01  0.51100000000E-03 0. -1.
        -11    1    4    4    0    0  0.10980442004E+02  0.32684707592E+01 -0.15277364438E+02  0.19095833895E+02  0.51100000000E-03 0.  1.
         12    1    4    4    0    0 -0.11399847652E+02  0.82533047518E+01 -0.17394465105E+02  0.22375007980E+02  0.00000000000E+00 0. -1.
</event>
<event>
 8    1  0.5829710E-012  0.9118800E+02  0.7816164E-02  0.1184000E+00
        -11   -1    0    0    0    0  0.00000000000E+00  0.00000000000E+00  0.45593999997E+02  0.45594000000E+02  0.51100000000E-03 0. -1.
         11   -1    0    0    0    0 -0.00000000000E+00 -0.00000000000E+00 -0.45593999997E+02  0.45594000000E+02  0.51100000000E-03 0.  1.
         23    2    1    2    0    0  0.35527136788E-14  0.00000000000E+00 -0.35527136788E-14  0.91188000000E+02  0.91188000000E+02 0.  0.
    9900012    2    3    3    0    0 -0.31719255087E+02  0.18678048469E+02 -0.17268053104E+02  0.50528852249E+02  0.29999976895E+02 0.  0.
         12    1    3    3    0    0  0.31719255087E+02 -0.18678048469E+02  0.17268053104E+02  0.40659147751E+02  0.00000000000E+00 0. -1.
         11    1    4    4    0    0 -0.18270442443E+01  0.37816075871E+01 -0.44002788744E+00  0.42228274197E+01  0.51100000000E-03 0. -1.
        -11    1    4    4    0    0 -0.28438004313E+02  0.21750227344E+02 -0.11853766793E+02  0.37713449408E+02  0.51100000000E-03 0.  1.
        -12    1    4    4    0    0 -0.14542065295E+01 -0.68537864622E+01 -0.49742584234E+01  0.85925754208E+01  0.00000000000E+00 0.  1.
</event>
<event>
 8    1  0.5829710E-012  0.9118800E+02  0.7816164E-02  0.1184000E+00
        -11   -1    0    0    0    0  0.00000000000E+00  0.00000000000E+00  0.45593999997E+02  0.45594000000E+02  0.51100000000E-03 0. -1.
         11   -1    0    0    0    0 -0.00000000000E+00 -0.00000000000E+00 -0.45593999997E+02  0.45594000000E+02  0.51100000000E-03 0.  1.
         23    2    1    2    0    0 -0.17763568394E-14  0.00000000000E+00 -0.17763568394E-14  0.91188000000E+02  0.91188000000E+02 0.  0.
    9900012    2    3    3    0    0 -0.14954236366E+02 -0.34503443931E+02 -0.15461134540E+02  0.50528886512E+02  0.30000081042E+02 0.  0.
         12    1    3    3    0    0  0.14954236366E+02  0.34503443931E+02  0.15461134540E+02  0.40659113488E+02  0.00000000000E+00 0. -1.
         11    1    4    4    0    0  0.12373572179E+01 -0.11250176785E+01  0.34766672772E+01  0.38579700982E+01  0.51100000000E-03 0. -1.
        -11    1    4    4    0    0  0.44902565228E+01 -0.79757698969E+01 -0.70174043435E+00  0.91797466733E+01  0.51100000000E-03 0.  1.
        -12    1    4    4    0    0 -0.20681850107E+02 -0.25402656356E+02 -0.18236061382E+02  0.37491169740E+02  0.00000000000E+00 0.  1.
</event>
<event>
 8    1  0.5829710E-012  0.9118800E+02  0.7816164E-02  0.1184000E+00
        -11   -1    0    0    0    0  0.00000000000E+00  0.00000000000E+00  0.45593999997E+02  0.45594000000E+02  0.51100000000E-03 0. -1.
         11   -1    0    0    0    0 -0.00000000000E+00 -0.00000000000E+00 -0.45593999997E+02  0.45594000000E+02  0.51100000000E-03 0.  1.
         23    2    1    2    0    0 -0.35527136788E-14 -0.35527136788E-14  0.35527136788E-14  0.91188000000E+02  0.91188000000E+02 0.  0.
    9900012    2    3    3    0    0  0.27138814752E+02  0.25665535164E+02 -0.16060148779E+02  0.50528888595E+02  0.30000087374E+02 0.  0.
         12    1    3    3    0    0 -0.27138814752E+02 -0.25665535164E+02  0.16060148779E+02  0.40659111405E+02  0.00000000000E+00 0. -1.
         11    1    4    4    0    0 -0.39110185944E-01 -0.75011984318E+00 -0.72515244509E+01  0.72903234845E+01  0.51100000000E-03 0. -1.
        -11    1    4    4    0    0  0.18024776675E+02  0.71565708284E+01 -0.10119200008E+02  0.21874809468E+02  0.51100000000E-03 0.  1.
        -12    1    4    4    0    0  0.91531482630E+01  0.19259084179E+02  0.13105756800E+01  0.21363755642E+02  0.00000000000E+00 0.  1.
</event>
<event>
 8    1  0.5829710E-012  0.9118800E+02  0.7816164E-02  0.1184000E+00
        -11   -1    0    0    0    0  0.00000000000E+00  0.00000000000E+00  0.45593999997E+02  0.45594000000E+02  0.51100000000E-03 0. -1.
         11   -1    0    0    0    0 -0.00000000000E+00 -0.00000000000E+00 -0.45593999997E+02  0.45594000000E+02  0.51100000000E-03 0.  1.
         23    2    1    2    0    0  0.44408920985E-15  0.17763568394E-14  0.00000000000E+00  0.91188000000E+02  0.91188000000E+02 0.  0.
    9900012    2    3    3    0    0 -0.28970587479E+01  0.13229956049E+02 -0.38337199495E+02  0.50528861402E+02  0.30000004717E+02 0.  0.
         12    1    3    3    0    0  0.28970587479E+01 -0.13229956049E+02  0.38337199495E+02  0.40659138598E+02  0.00000000000E+00 0. -1.
         11    1    4    4    0    0  0.70678300179E+00 -0.22868603976E+01 -0.17349247303E+02  0.17513584869E+02  0.51100000000E-03 0. -1.
        -11    1    4    4    0    0 -0.94702190695E+01  0.10726901821E+01 -0.53314136812E+01  0.10920608296E+02  0.51100000000E-03 0.  1.
         12    1    4    4    0    0  0.58663773198E+01  0.14444126264E+02 -0.15656538510E+02  0.22094668237E+02  0.00000000000E+00 0. -1.
</event>
<event>
 8    1  0.5829710E-012  0.9118800E+02  0.7816164E-02  0.1184000E+00
        -11   -1    0    0    0    0  0.00000000000E+00  0.00000000000E+00  0.45593999997E+02  0.45594000000E+02  0.51100000000E-03 0. -1.
         11   -1    0    0    0    0 -0.00000000000E+00 -0.00000000000E+00 -0.45593999997E+02  0.45594000000E+02  0.51100000000E-03 0.  1.
         23    2    1    2    0    0  0.17763568394E-14  0.35527136788E-14  0.00000000000E+00  0.91188000000E+02  0.91188000000E+02 0.  0.
    9900012    2    3    3    0    0  0.95188683691E+01  0.30389752766E+02 -0.25278852080E+02  0.50528852312E+02  0.29999977088E+02 0.  0.
         12    1    3    3    0    0 -0.95188683691E+01 -0.30389752766E+02  0.25278852080E+02  0.40659147688E+02  0.00000000000E+00 0. -1.
         11    1    4    4    0    0  0.81170093948E+01  0.53685553151E+00 -0.20245418825E+01  0.83828888500E+01  0.51100000000E-03 0. -1.
        -11    1    4    4    0    0  0.18322443780E+01 -0.28827307399E+00 -0.82839625282E+01  0.84890668660E+01  0.51100000000E-03 0.  1.
        -12    1    4    4    0    0 -0.43038540368E+00  0.30141170308E+02 -0.14970347670E+02  0.33656896596E+02  0.00000000000E+00 0.  1.
</event>
<event>
 8    1  0.5829710E-012  0.9118800E+02  0.7816164E-02  0.1184000E+00
        -11   -1    0    0    0    0  0.00000000000E+00  0.00000000000E+00  0.45593999997E+02  0.45594000000E+02  0.51100000000E-03 0. -1.
         11   -1    0    0    0    0 -0.00000000000E+00 -0.00000000000E+00 -0.45593999997E+02  0.45594000000E+02  0.51100000000E-03 0.  1.
         23    2    1    2    0    0 -0.35527136788E-14  0.22204460493E-14  0.35527136788E-14  0.91188000000E+02  0.91188000000E+02 0.  0.
    9900012    2    3    3    0    0  0.31973560747E+02 -0.35047009426E+01  0.24871157696E+02  0.50528855879E+02  0.29999987929E+02 0.  0.
        -12    1    3    3    0    0 -0.31973560747E+02  0.35047009426E+01 -0.24871157696E+02  0.40659144121E+02  0.00000000000E+00 0.  1.
         11    1    4    4    0    0  0.23322487077E+00  0.40542642247E+01  0.66937110358E+01  0.78292541111E+01  0.51100000000E-03 0.  1.
        -11    1    4    4    0    0  0.13529717603E+02  0.17775210478E+01  0.17542762990E+02  0.22225241800E+02  0.51100000000E-03 0. -1.
         12    1    4    4    0    0  0.18210618273E+02 -0.93364862151E+01  0.63468367093E+00  0.20474359968E+02  0.00000000000E+00 0. -1.
</event>
<event>
 8    1  0.5829710E-012  0.9118800E+02  0.7816164E-02  0.1184000E+00
        -11   -1    0    0    0    0  0.00000000000E+00  0.00000000000E+00  0.45593999997E+02  0.45594000000E+02  0.51100000000E-03 0.  1.
         11   -1    0    0    0    0 -0.00000000000E+00 -0.00000000000E+00 -0.45593999997E+02  0.45594000000E+02  0.51100000000E-03 0. -1.
         23    2    1    2    0    0  0.00000000000E+00  0.00000000000E+00  0.00000000000E+00  0.91188000000E+02  0.91188000000E+02 0.  0.
    9900012    2    3    3    0    0 -0.44253481136E+01 -0.37098080329E+02  0.16041021065E+02  0.50528860476E+02  0.30000001903E+02 0.  0.
         12    1    3    3    0    0  0.44253481136E+01  0.37098080329E+02 -0.16041021065E+02  0.40659139524E+02  0.00000000000E+00 0. -1.
         11    1    4    4    0    0 -0.97817676229E+01 -0.62193720274E+01  0.49274151655E+01  0.12595355760E+02  0.51100000000E-03 0. -1.
        -11    1    4    4    0    0 -0.14429113968E+01 -0.28537612245E+02  0.11332053053E+02  0.30739107544E+02  0.51100000000E-03 0.  1.
         12    1    4    4    0    0  0.67993309061E+01 -0.23410960563E+01 -0.21844715287E+00  0.71943971724E+01  0.00000000000E+00 0. -1.
</event>
<event>
 8    1  0.5829710E-012  0.9118800E+02  0.7816164E-02  0.1184000E+00
        -11   -1    0    0    0    0  0.00000000000E+00  0.00000000000E+00  0.45593999997E+02  0.45594000000E+02  0.51100000000E-03 0.  1.
         11   -1    0    0    0    0 -0.00000000000E+00 -0.00000000000E+00 -0.45593999997E+02  0.45594000000E+02  0.51100000000E-03 0. -1.
         23    2    1    2    0    0  0.00000000000E+00 -0.35527136788E-14 -0.35527136788E-14  0.91188000000E+02  0.91188000000E+02 0.  0.
    9900012    2    3    3    0    0  0.21259525355E+02 -0.21055879269E+02 -0.27529043559E+02  0.50528859461E+02  0.29999998818E+02 0.  0.
        -12    1    3    3    0    0 -0.21259525355E+02  0.21055879269E+02  0.27529043559E+02  0.40659140539E+02  0.00000000000E+00 0.  1.
         11    1    4    4    0    0  0.60955542642E+01  0.23028693212E+00  0.34451993911E+01  0.70055844128E+01  0.51100000000E-03 0. -1.
        -11    1    4    4    0    0  0.82675029225E+01 -0.83276879864E+00 -0.13028759400E+02  0.15452950534E+02  0.51100000000E-03 0.  1.
        -12    1    4    4    0    0  0.68964681687E+01 -0.20453397402E+02 -0.17945483550E+02  0.28070324514E+02  0.00000000000E+00 0.  1.
</event>
<event>
 8    1  0.5829710E-012  0.9118800E+02  0.7816164E-02  0.1184000E+00
        -11   -1    0    0    0    0  0.00000000000E+00  0.00000000000E+00  0.45593999997E+02  0.45594000000E+02  0.51100000000E-03 0. -1.
         11   -1    0    0    0    0 -0.00000000000E+00 -0.00000000000E+00 -0.45593999997E+02  0.45594000000E+02  0.51100000000E-03 0.  1.
         23    2    1    2    0    0  0.00000000000E+00  0.00000000000E+00  0.00000000000E+00  0.91188000000E+02  0.91188000000E+02 0.  0.
    9900012    2    3    3    0    0  0.21809887830E+02 -0.24690032794E+02 -0.23830590465E+02  0.50528856275E+02  0.29999989132E+02 0.  0.
         12    1    3    3    0    0 -0.21809887830E+02  0.24690032794E+02  0.23830590465E+02  0.40659143725E+02  0.00000000000E+00 0. -1.
         11    1    4    4    0    0 -0.32087349329E+01 -0.73745505739E+01 -0.65589884979E+01  0.10377875814E+02  0.51100000000E-03 0. -1.
        -11    1    4    4    0    0  0.95829165606E+01 -0.53854411832E+01 -0.17470807173E+02  0.20641326752E+02  0.51100000000E-03 0.  1.
        -12    1    4    4    0    0  0.15435706203E+02 -0.11930041037E+02  0.19920520530E+00  0.19509653709E+02  0.00000000000E+00 0.  1.
</event>
<event>
 8    1  0.5829710E-012  0.9118800E+02  0.7816164E-02  0.1184000E+00
        -11   -1    0    0    0    0  0.00000000000E+00  0.00000000000E+00  0.45593999997E+02  0.45594000000E+02  0.51100000000E-03 0. -1.
         11   -1    0    0    0    0 -0.00000000000E+00 -0.00000000000E+00 -0.45593999997E+02  0.45594000000E+02  0.51100000000E-03 0.  1.
         23    2    1    2    0    0 -0.88817841970E-15  0.00000000000E+00  0.00000000000E+00  0.91188000000E+02  0.91188000000E+02 0.  0.
    9900012    2    3    3    0    0  0.37063807660E+01  0.79963379535E+01 -0.39692392119E+02  0.50528872228E+02  0.30000037623E+02 0.  0.
         12    1    3    3    0    0 -0.37063807660E+01 -0.79963379535E+01  0.39692392119E+02  0.40659127772E+02  0.00000000000E+00 0. -1.
         11    1    4    4    0    0 -0.12603916541E+02  0.31310464678E+01 -0.17643506493E+02  0.21907886383E+02  0.51100000000E-03 0. -1.
        -11    1    4    4    0    0  0.54430054202E+00 -0.72006447877E+00 -0.36315952961E+01  0.37420904037E+01  0.51100000000E-03 0.  1.
        -12    1    4    4    0    0  0.15765996765E+02  0.55853559645E+01 -0.18417290330E+02  0.24878895441E+02  0.00000000000E+00 0.  1.
</event>
<event>
 8    1  0.5829710E-012  0.9118800E+02  0.7816164E-02  0.1184000E+00
        -11   -1    0    0    0    0  0.00000000000E+00  0.00000000000E+00  0.45593999997E+02  0.45594000000E+02  0.51100000000E-03 0. -1.
         11   -1    0    0    0    0 -0.00000000000E+00 -0.00000000000E+00 -0.45593999997E+02  0.45594000000E+02  0.51100000000E-03 0.  1.
         23    2    1    2    0    0  0.00000000000E+00 -0.88817841970E-15  0.00000000000E+00  0.91188000000E+02  0.91188000000E+02 0.  0.
    9900012    2    3    3    0    0 -0.37910191540E+02  0.68219236002E+01 -0.13017163771E+02  0.50528833544E+02  0.29999920041E+02 0.  0.
         12    1    3    3    0    0  0.37910191540E+02 -0.68219236002E+01  0.13017163771E+02  0.40659166456E+02  0.00000000000E+00 0. -1.
         11    1    4    4    0    0 -0.14428976420E+02  0.13919733871E+02 -0.19220755641E+01  0.20140723083E+02  0.51100000000E-03 0. -1.
        -11    1    4    4    0    0 -0.16355363895E+02 -0.32516244676E+01 -0.28689276246E-01  0.16675485395E+02  0.51100000000E-03 0.  1.
        -12    1    4    4    0    0 -0.71258512253E+01 -0.38461858035E+01 -0.11066398931E+02  0.13712625067E+02  0.00000000000E+00 0.  1.
</event>
<event>
 8    1  0.5829710E-012  0.9118800E+02  0.7816164E-02  0.1184000E+00
        -11   -1    0    0    0    0  0.00000000000E+00  0.00000000000E+00  0.45593999997E+02  0.45594000000E+02  0.51100000000E-03 0. -1.
         11   -1    0    0    0    0 -0.00000000000E+00 -0.00000000000E+00 -0.45593999997E+02  0.45594000000E+02  0.51100000000E-03 0.  1.
         23    2    1    2    0    0 -0.35527136788E-14  0.00000000000E+00  0.71054273576E-14  0.91188000000E+02  0.91188000000E+02 0.  0.
    9900012    2    3    3    0    0  0.16298374618E+02  0.12165468020E+02 -0.35206931571E+02  0.50528884688E+02  0.30000075496E+02 0.  0.
         12    1    3    3    0    0 -0.16298374618E+02 -0.12165468020E+02  0.35206931571E+02  0.40659115312E+02  0.00000000000E+00 0. -1.
         11    1    4    4    0    0 -0.53914261957E+00  0.19459774171E+01 -0.11496149256E+02  0.11672144227E+02  0.51100000000E-03 0. -1.
        -11    1    4    4    0    0  0.28039476198E+00 -0.63254990800E+01 -0.96798898748E+01  0.11566798523E+02  0.51100000000E-03 0.  1.
         12    1    4    4    0    0  0.16557122475E+02  0.16544989683E+02 -0.14030892440E+02  0.27289941937E+02  0.00000000000E+00 0. -1.
</event>
<event>
 8    1  0.5829710E-012  0.9118800E+02  0.7816164E-02  0.1184000E+00
        -11   -1    0    0    0    0  0.00000000000E+00  0.00000000000E+00  0.45593999997E+02  0.45594000000E+02  0.51100000000E-03 0. -1.
         11   -1    0    0    0    0 -0.00000000000E+00 -0.00000000000E+00 -0.45593999997E+02  0.45594000000E+02  0.51100000000E-03 0.  1.
         23    2    1    2    0    0  0.00000000000E+00  0.17763568394E-14  0.00000000000E+00  0.91188000000E+02  0.91188000000E+02 0.  0.
    9900012    2    3    3    0    0 -0.92907998363E+01  0.64829724160E+01 -0.39048905790E+02  0.50528868967E+02  0.30000027712E+02 0.  0.
         12    1    3    3    0    0  0.92907998363E+01 -0.64829724160E+01  0.39048905790E+02  0.40659131033E+02  0.00000000000E+00 0. -1.
         11    1    4    4    0    0 -0.55116350677E+01 -0.14261962065E+01 -0.99084130671E+01  0.11427545953E+02  0.51100000000E-03 0. -1.
        -11    1    4    4    0    0 -0.93271373822E+01 -0.32790821275E+01 -0.23307987923E+02  0.25318178699E+02  0.51100000000E-03 0.  1.
         12    1    4    4    0    0  0.55479726136E+01  0.11188250750E+02 -0.58325048005E+01  0.13783144315E+02  0.00000000000E+00 0. -1.
</event>
<event>
 8    1  0.5829710E-012  0.9118800E+02  0.7816164E-02  0.1184000E+00
        -11   -1    0    0    0    0  0.00000000000E+00  0.00000000000E+00  0.45593999997E+02  0.45594000000E+02  0.51100000000E-03 0. -1.
         11   -1    0    0    0    0 -0.00000000000E+00 -0.00000000000E+00 -0.45593999997E+02  0.45594000000E+02  0.51100000000E-03 0.  1.
         23    2    1    2    0    0  0.00000000000E+00  0.00000000000E+00  0.00000000000E+00  0.91188000000E+02  0.91188000000E+02 0.  0.
    9900012    2    3    3    0    0  0.17705893452E+02 -0.14577076882E+02  0.33573425166E+02  0.50528871742E+02  0.30000036146E+02 0.  0.
        -12    1    3    3    0    0 -0.17705893452E+02  0.14577076882E+02 -0.33573425166E+02  0.40659128258E+02  0.00000000000E+00 0.  1.
         11    1    4    4    0    0  0.14059058095E+02 -0.87967774467E+01  0.45831378566E+01  0.17205974568E+02  0.51100000000E-03 0. -1.
        -11    1    4    4    0    0  0.35646418546E+01  0.19121177545E+01  0.82821254924E+00  0.41290195139E+01  0.51100000000E-03 0.  1.
        -12    1    4    4    0    0  0.82193502382E-01 -0.76924171895E+01  0.28162074760E+02  0.29193877659E+02  0.00000000000E+00 0.  1.
</event>
<event>
 8    1  0.5829710E-012  0.9118800E+02  0.7816164E-02  0.1184000E+00
        -11   -1    0    0    0    0  0.00000000000E+00  0.00000000000E+00  0.45593999997E+02  0.45594000000E+02  0.51100000000E-03 0. -1.
         11   -1    0    0    0    0 -0.00000000000E+00 -0.00000000000E+00 -0.45593999997E+02  0.45594000000E+02  0.51100000000E-03 0.  1.
         23    2    1    2    0    0 -0.88817841970E-15  0.00000000000E+00  0.00000000000E+00  0.91188000000E+02  0.91188000000E+02 0.  0.
    9900012    2    3    3    0    0  0.25701760066E+01  0.22466823787E+02 -0.33790556982E+02  0.50528859368E+02  0.29999998536E+02 0.  0.
         12    1    3    3    0    0 -0.25701760066E+01 -0.22466823787E+02  0.33790556982E+02  0.40659140632E+02  0.00000000000E+00 0. -1.
         11    1    4    4    0    0  0.57549535534E+01 -0.28121419597E+00 -0.39349742862E+01  0.69772913599E+01  0.51100000000E-03 0. -1.
        -11    1    4    4    0    0  0.73517697214E+01  0.40140919703E+01 -0.24587638876E+01  0.87296605031E+01  0.51100000000E-03 0.  1.
         12    1    4    4    0    0 -0.10536547268E+02  0.18733946012E+02 -0.27396818808E+02  0.34821907506E+02  0.00000000000E+00 0. -1.
</event>
<event>
 8    1  0.5829710E-012  0.9118800E+02  0.7816164E-02  0.1184000E+00
        -11   -1    0    0    0    0  0.00000000000E+00  0.00000000000E+00  0.45593999997E+02  0.45594000000E+02  0.51100000000E-03 0. -1.
         11   -1    0    0    0    0 -0.00000000000E+00 -0.00000000000E+00 -0.45593999997E+02  0.45594000000E+02  0.51100000000E-03 0.  1.
         23    2    1    2    0    0  0.00000000000E+00  0.00000000000E+00  0.00000000000E+00  0.91188000000E+02  0.91188000000E+02 0.  0.
    9900012    2    3    3    0    0  0.34742864955E+02  0.92245680428E+01  0.19000139837E+02  0.50528872677E+02  0.30000038988E+02 0.  0.
        -12    1    3    3    0    0 -0.34742864955E+02 -0.92245680428E+01 -0.19000139837E+02  0.40659127323E+02  0.00000000000E+00 0.  1.
         11    1    4    4    0    0  0.63969815765E+00  0.18237240875E+01  0.11304062631E+02  0.11468086828E+02  0.51100000000E-03 0. -1.
        -11    1    4    4    0    0 -0.18801030299E+00  0.34974709444E+01 -0.62833382212E+00  0.35584342813E+01  0.51100000000E-03 0.  1.
        -12    1    4    4    0    0  0.34291177101E+02  0.39033730109E+01  0.83244110279E+01  0.35502351567E+02  0.00000000000E+00 0.  1.
</event>
<event>
 8    1  0.5829710E-012  0.9118800E+02  0.7816164E-02  0.1184000E+00
        -11   -1    0    0    0    0  0.00000000000E+00  0.00000000000E+00  0.45593999997E+02  0.45594000000E+02  0.51100000000E-03 0.  1.
         11   -1    0    0    0    0 -0.00000000000E+00 -0.00000000000E+00 -0.45593999997E+02  0.45594000000E+02  0.51100000000E-03 0. -1.
         23    2    1    2    0    0  0.17763568394E-14 -0.35527136788E-14  0.00000000000E+00  0.91188000000E+02  0.91188000000E+02 0.  0.
    9900012    2    3    3    0    0  0.86608275413E+01 -0.30011394338E+02 -0.26028356494E+02  0.50528818188E+02  0.29999873365E+02 0.  0.
         12    1    3    3    0    0 -0.86608275413E+01  0.30011394338E+02  0.26028356494E+02  0.40659181812E+02  0.00000000000E+00 0. -1.
         11    1    4    4    0    0 -0.90408591776E+00  0.41570992557E+00  0.11006928010E+01  0.14838163607E+01  0.51100000000E-03 0. -1.
        -11    1    4    4    0    0  0.71334873944E+01 -0.33535220953E+02 -0.17194810691E+02  0.38355693211E+02  0.51100000000E-03 0.  1.
         12    1    4    4    0    0  0.24314260647E+01  0.31081166891E+01 -0.99342386041E+01  0.10689308617E+02  0.00000000000E+00 0. -1.
</event>
<event>
 8    1  0.5829710E-012  0.9118800E+02  0.7816164E-02  0.1184000E+00
        -11   -1    0    0    0    0  0.00000000000E+00  0.00000000000E+00  0.45593999997E+02  0.45594000000E+02  0.51100000000E-03 0. -1.
         11   -1    0    0    0    0 -0.00000000000E+00 -0.00000000000E+00 -0.45593999997E+02  0.45594000000E+02  0.51100000000E-03 0.  1.
         23    2    1    2    0    0  0.00000000000E+00  0.00000000000E+00  0.00000000000E+00  0.91188000000E+02  0.91188000000E+02 0.  0.
    9900012    2    3    3    0    0  0.38314853921E+02 -0.55961876318E+01 -0.12402395582E+02  0.50528871097E+02  0.30000034187E+02 0.  0.
         12    1    3    3    0    0 -0.38314853921E+02  0.55961876318E+01  0.12402395582E+02  0.40659128903E+02  0.00000000000E+00 0. -1.
         11    1    4    4    0    0  0.54543779682E+01  0.47713274926E+01  0.60437260202E+01  0.94362296247E+01  0.51100000000E-03 0.  1.
        -11    1    4    4    0    0  0.14807219620E+01 -0.44126958819E+01 -0.35292308265E+01  0.58412235844E+01  0.51100000000E-03 0. -1.
        -12    1    4    4    0    0  0.31379753990E+02 -0.59548192425E+01 -0.14916890776E+02  0.35251417888E+02  0.00000000000E+00 0.  1.
</event>
<event>
 8    1  0.5829710E-012  0.9118800E+02  0.7816164E-02  0.1184000E+00
        -11   -1    0    0    0    0  0.00000000000E+00  0.00000000000E+00  0.45593999997E+02  0.45594000000E+02  0.51100000000E-03 0. -1.
         11   -1    0    0    0    0 -0.00000000000E+00 -0.00000000000E+00 -0.45593999997E+02  0.45594000000E+02  0.51100000000E-03 0.  1.
         23    2    1    2    0    0  0.00000000000E+00  0.35527136788E-14  0.00000000000E+00  0.91188000000E+02  0.91188000000E+02 0.  0.
    9900012    2    3    3    0    0  0.11692509618E+02 -0.16910864138E+02  0.35078109197E+02  0.50528857708E+02  0.29999993490E+02 0.  0.
        -12    1    3    3    0    0 -0.11692509618E+02  0.16910864138E+02 -0.35078109197E+02  0.40659142292E+02  0.00000000000E+00 0.  1.
         11    1    4    4    0    0  0.87389590585E+01  0.35862785337E+00  0.12435270311E+02  0.15203090716E+02  0.51100000000E-03 0. -1.
        -11    1    4    4    0    0  0.23794248921E+01 -0.20118979320E+02  0.24564671429E+02  0.31841138082E+02  0.51100000000E-03 0.  1.
         12    1    4    4    0    0  0.57412566715E+00  0.28494873291E+01 -0.19218325422E+01  0.34846289100E+01  0.00000000000E+00 0. -1.
</event>
<event>
 8    1  0.5829710E-012  0.9118800E+02  0.7816164E-02  0.1184000E+00
        -11   -1    0    0    0    0  0.00000000000E+00  0.00000000000E+00  0.45593999997E+02  0.45594000000E+02  0.51100000000E-03 0.  1.
         11   -1    0    0    0    0 -0.00000000000E+00 -0.00000000000E+00 -0.45593999997E+02  0.45594000000E+02  0.51100000000E-03 0. -1.
         23    2    1    2    0    0 -0.35527136788E-14 -0.71054273576E-14 -0.17763568394E-14  0.91188000000E+02  0.91188000000E+02 0.  0.
    9900012    2    3    3    0    0 -0.17951242577E+02  0.35113746009E+02 -0.98966181620E+01  0.50528864251E+02  0.30000013376E+02 0.  0.
        -12    1    3    3    0    0  0.17951242577E+02 -0.35113746009E+02  0.98966181620E+01  0.40659135749E+02  0.00000000000E+00 0.  1.
         11    1    4    4    0    0 -0.12695789097E+01  0.23270059219E+01  0.73167394564E+00  0.27499334887E+01  0.51100000000E-03 0.  1.
        -11    1    4    4    0    0 -0.15302122521E+02  0.35218884217E+02 -0.16096893202E+02  0.41636939491E+02  0.51100000000E-03 0. -1.
         12    1    4    4    0    0 -0.13795411460E+01 -0.24321441300E+01  0.54686010946E+01  0.61419912711E+01  0.00000000000E+00 0. -1.
</event>
<event>
 8    1  0.5829710E-012  0.9118800E+02  0.7816164E-02  0.1184000E+00
        -11   -1    0    0    0    0  0.00000000000E+00  0.00000000000E+00  0.45593999997E+02  0.45594000000E+02  0.51100000000E-03 0.  1.
         11   -1    0    0    0    0 -0.00000000000E+00 -0.00000000000E+00 -0.45593999997E+02  0.45594000000E+02  0.51100000000E-03 0. -1.
         23    2    1    2    0    0  0.00000000000E+00  0.00000000000E+00  0.00000000000E+00  0.91188000000E+02  0.91188000000E+02 0.  0.
    9900012    2    3    3    0    0  0.16059998185E+02  0.28947616732E+02 -0.23606695736E+02  0.50528878763E+02  0.30000057489E+02 0.  0.
         12    1    3    3    0    0 -0.16059998185E+02 -0.28947616732E+02  0.23606695736E+02  0.40659121237E+02  0.00000000000E+00 0. -1.
         11    1    4    4    0    0  0.32519011975E+01  0.25300118255E+01 -0.32876241126E+00  0.41332682250E+01  0.51100000000E-03 0. -1.
        -11    1    4    4    0    0 -0.56028719384E+01  0.15359172003E+02 -0.25485276111E+01  0.16546641104E+02  0.51100000000E-03 0.  1.
         12    1    4    4    0    0  0.18410968926E+02  0.11058432904E+02 -0.20729405714E+02  0.29848969435E+02  0.00000000000E+00 0. -1.
</event>
<event>
 8    1  0.5829710E-012  0.9118800E+02  0.7816164E-02  0.1184000E+00
        -11   -1    0    0    0    0  0.00000000000E+00  0.00000000000E+00  0.45593999997E+02  0.45594000000E+02  0.51100000000E-03 0. -1.
         11   -1    0    0    0    0 -0.00000000000E+00 -0.00000000000E+00 -0.45593999997E+02  0.45594000000E+02  0.51100000000E-03 0.  1.
         23    2    1    2    0    0  0.00000000000E+00  0.00000000000E+00  0.00000000000E+00  0.91188000000E+02  0.91188000000E+02 0.  0.
    9900012    2    3    3    0    0 -0.20716435511E+02  0.10226084235E+02  0.33457668324E+02  0.50528941123E+02  0.30000247037E+02 0.  0.
        -12    1    3    3    0    0  0.20716435511E+02 -0.10226084235E+02 -0.33457668324E+02  0.40659058877E+02  0.00000000000E+00 0.  1.
         11    1    4    4    0    0 -0.55252114900E+01  0.10667355212E+02  0.15630936001E+02  0.19714121583E+02  0.51100000000E-03 0. -1.
        -11    1    4    4    0    0  0.39675049994E+01  0.19438565895E+01 -0.16962397588E+00  0.44213625632E+01  0.51100000000E-03 0.  1.
        -12    1    4    4    0    0 -0.19158729020E+02 -0.23851275671E+01  0.17996356299E+02  0.26393456977E+02  0.00000000000E+00 0.  1.
</event>
<event>
 8    1  0.5829710E-012  0.9118800E+02  0.7816164E-02  0.1184000E+00
        -11   -1    0    0    0    0  0.00000000000E+00  0.00000000000E+00  0.45593999997E+02  0.45594000000E+02  0.51100000000E-03 0. -1.
         11   -1    0    0    0    0 -0.00000000000E+00 -0.00000000000E+00 -0.45593999997E+02  0.45594000000E+02  0.51100000000E-03 0.  1.
         23    2    1    2    0    0 -0.83266726847E-15  0.11102230246E-14 -0.71054273576E-14  0.91188000000E+02  0.91188000000E+02 0.  0.
    9900012    2    3    3    0    0 -0.25006922801E+00 -0.25557193163E+00 -0.40657549712E+02  0.50528878019E+02  0.30000055227E+02 0.  0.
         12    1    3    3    0    0  0.25006922801E+00  0.25557193163E+00  0.40657549712E+02  0.40659121981E+02  0.00000000000E+00 0. -1.
         11    1    4    4    0    0 -0.65469370730E+01  0.28633230432E+01 -0.45835712652E+01  0.84894128002E+01  0.51100000000E-03 0. -1.
        -11    1    4    4    0    0  0.10461859106E+02  0.29943451637E+01 -0.31537222884E+02  0.33361849865E+02  0.51100000000E-03 0.  1.
         12    1    4    4    0    0 -0.41649912609E+01 -0.61132401385E+01 -0.45367555636E+01  0.86776153544E+01  0.00000000000E+00 0. -1.
</event>
<event>
 8    1  0.5829710E-012  0.9118800E+02  0.7816164E-02  0.1184000E+00
        -11   -1    0    0    0    0  0.00000000000E+00  0.00000000000E+00  0.45593999997E+02  0.45594000000E+02  0.51100000000E-03 0. -1.
         11   -1    0    0    0    0 -0.00000000000E+00 -0.00000000000E+00 -0.45593999997E+02  0.45594000000E+02  0.51100000000E-03 0.  1.
         23    2    1    2    0    0  0.00000000000E+00  0.00000000000E+00  0.00000000000E+00  0.91188000000E+02  0.91188000000E+02 0.  0.
    9900012    2    3    3    0    0  0.19522054061E+02 -0.12339809683E+02 -0.33463172609E+02  0.50528863034E+02  0.30000009680E+02 0.  0.
         12    1    3    3    0    0 -0.19522054061E+02  0.12339809683E+02  0.33463172609E+02  0.40659136966E+02  0.00000000000E+00 0. -1.
         11    1    4    4    0    0 -0.17207583595E+01 -0.59493327854E+01 -0.93918360566E+01  0.11249984653E+02  0.51100000000E-03 0. -1.
        -11    1    4    4    0    0 -0.28716894303E+01 -0.59783958732E+01 -0.31116926263E+01  0.73260117842E+01  0.51100000000E-03 0.  1.
        -12    1    4    4    0    0  0.24114501851E+02 -0.41208102391E+00 -0.20959643926E+02  0.31952866597E+02  0.00000000000E+00 0.  1.
</event>
<event>
 8    1  0.5829710E-012  0.9118800E+02  0.7816164E-02  0.1184000E+00
        -11   -1    0    0    0    0  0.00000000000E+00  0.00000000000E+00  0.45593999997E+02  0.45594000000E+02  0.51100000000E-03 0. -1.
         11   -1    0    0    0    0 -0.00000000000E+00 -0.00000000000E+00 -0.45593999997E+02  0.45594000000E+02  0.51100000000E-03 0.  1.
         23    2    1    2    0    0  0.13322676296E-14  0.00000000000E+00  0.35527136788E-14  0.91188000000E+02  0.91188000000E+02 0.  0.
    9900012    2    3    3    0    0  0.19832141241E+01 -0.27122359618E+02 -0.30226045464E+02  0.50528814643E+02  0.29999862589E+02 0.  0.
         12    1    3    3    0    0 -0.19832141241E+01  0.27122359618E+02  0.30226045464E+02  0.40659185357E+02  0.00000000000E+00 0. -1.
         11    1    4    4    0    0  0.86423354663E+01 -0.65612824714E+01 -0.22152099724E+01  0.11074635229E+02  0.51100000000E-03 0. -1.
        -11    1    4    4    0    0  0.37612569061E+01  0.94799157781E+00 -0.42037340512E+01  0.57198882663E+01  0.51100000000E-03 0.  1.
        -12    1    4    4    0    0 -0.10420378248E+02 -0.21509068724E+02 -0.23807101440E+02  0.33734291147E+02  0.00000000000E+00 0.  1.
</event>
<event>
 8    1  0.5829710E-012  0.9118800E+02  0.7816164E-02  0.1184000E+00
        -11   -1    0    0    0    0  0.00000000000E+00  0.00000000000E+00  0.45593999997E+02  0.45594000000E+02  0.51100000000E-03 0. -1.
         11   -1    0    0    0    0 -0.00000000000E+00 -0.00000000000E+00 -0.45593999997E+02  0.45594000000E+02  0.51100000000E-03 0.  1.
         23    2    1    2    0    0 -0.35527136788E-14  0.00000000000E+00  0.00000000000E+00  0.91188000000E+02  0.91188000000E+02 0.  0.
    9900012    2    3    3    0    0  0.24387194887E+02  0.14656488187E+02 -0.29045087369E+02  0.50528867930E+02  0.30000024561E+02 0.  0.
         12    1    3    3    0    0 -0.24387194887E+02 -0.14656488187E+02  0.29045087369E+02  0.40659132070E+02  0.00000000000E+00 0. -1.
         11    1    4    4    0    0 -0.31737659816E+01  0.56109516019E+00 -0.60062651853E+01  0.68163656022E+01  0.51100000000E-03 0. -1.
        -11    1    4    4    0    0  0.11043253009E+02  0.10764584664E+02 -0.31760096415E+00  0.15424998886E+02  0.51100000000E-03 0.  1.
        -12    1    4    4    0    0  0.16517707859E+02  0.33308083629E+01 -0.22721221219E+02  0.28287503442E+02  0.00000000000E+00 0.  1.
</event>
<event>
 8    1  0.5829710E-012  0.9118800E+02  0.7816164E-02  0.1184000E+00
        -11   -1    0    0    0    0  0.00000000000E+00  0.00000000000E+00  0.45593999997E+02  0.45594000000E+02  0.51100000000E-03 0.  1.
         11   -1    0    0    0    0 -0.00000000000E+00 -0.00000000000E+00 -0.45593999997E+02  0.45594000000E+02  0.51100000000E-03 0. -1.
         23    2    1    2    0    0  0.71054273576E-14  0.35527136788E-14  0.44408920985E-15  0.91188000000E+02  0.91188000000E+02 0.  0.
    9900012    2    3    3    0    0  0.33044168270E+02  0.23384293179E+02  0.37977929687E+01  0.50528862582E+02  0.30000008304E+02 0.  0.
        -12    1    3    3    0    0 -0.33044168270E+02 -0.23384293179E+02 -0.37977929687E+01  0.40659137418E+02  0.00000000000E+00 0.  1.
         11    1    4    4    0    0  0.11895888816E+02  0.56959126737E+01  0.80431781553E+01  0.15448246082E+02  0.51100000000E-03 0. -1.
        -11    1    4    4    0    0  0.22010826885E+01 -0.24847785724E+01  0.49125693646E+01  0.59289314028E+01  0.51100000000E-03 0.  1.
        -12    1    4    4    0    0  0.18947196765E+02  0.20173159078E+02 -0.91579545513E+01  0.29151685097E+02  0.00000000000E+00 0.  1.
</event>
<event>
 8    1  0.5829710E-012  0.9118800E+02  0.7816164E-02  0.1184000E+00
        -11   -1    0    0    0    0  0.00000000000E+00  0.00000000000E+00  0.45593999997E+02  0.45594000000E+02  0.51100000000E-03 0.  1.
         11   -1    0    0    0    0 -0.00000000000E+00 -0.00000000000E+00 -0.45593999997E+02  0.45594000000E+02  0.51100000000E-03 0. -1.
         23    2    1    2    0    0  0.88817841970E-15  0.00000000000E+00 -0.35527136788E-14  0.91188000000E+02  0.91188000000E+02 0.  0.
    9900012    2    3    3    0    0  0.39966642817E+01  0.39120042004E+02 -0.10335106829E+02  0.50528862713E+02  0.30000008701E+02 0.  0.
         12    1    3    3    0    0 -0.39966642817E+01 -0.39120042004E+02  0.10335106829E+02  0.40659137287E+02  0.00000000000E+00 0. -1.
         11    1    4    4    0    0  0.15027811550E+01  0.40059681777E+01  0.36214630689E+01  0.56054551342E+01  0.51100000000E-03 0. -1.
        -11    1    4    4    0    0 -0.73119359831E+01  0.96583916242E+01  0.34108101953E+01  0.12585013430E+02  0.51100000000E-03 0.  1.
         12    1    4    4    0    0  0.98058191098E+01  0.25455682202E+02 -0.17367380093E+02  0.32338394148E+02  0.00000000000E+00 0. -1.
</event>
<event>
 8    1  0.5829710E-012  0.9118800E+02  0.7816164E-02  0.1184000E+00
        -11   -1    0    0    0    0  0.00000000000E+00  0.00000000000E+00  0.45593999997E+02  0.45594000000E+02  0.51100000000E-03 0. -1.
         11   -1    0    0    0    0 -0.00000000000E+00 -0.00000000000E+00 -0.45593999997E+02  0.45594000000E+02  0.51100000000E-03 0.  1.
         23    2    1    2    0    0  0.88817841970E-15 -0.17763568394E-14  0.00000000000E+00  0.91188000000E+02  0.91188000000E+02 0.  0.
    9900012    2    3    3    0    0 -0.58027815296E+01  0.14008995093E+02 -0.37725864678E+02  0.50528867168E+02  0.30000022242E+02 0.  0.
         12    1    3    3    0    0  0.58027815296E+01 -0.14008995093E+02  0.37725864678E+02  0.40659132832E+02  0.00000000000E+00 0. -1.
         11    1    4    4    0    0  0.74279052905E+01  0.65376673796E+01 -0.12287854718E+02  0.15776762837E+02  0.51100000000E-03 0. -1.
        -11    1    4    4    0    0 -0.83282413304E+01  0.13432810756E+02 -0.15175748636E+02  0.21911260927E+02  0.51100000000E-03 0.  1.
         12    1    4    4    0    0 -0.49024454897E+01 -0.59614830431E+01 -0.10262261324E+02  0.12840843404E+02  0.00000000000E+00 0. -1.
</event>
<event>
 8    1  0.5829710E-012  0.9118800E+02  0.7816164E-02  0.1184000E+00
        -11   -1    0    0    0    0  0.00000000000E+00  0.00000000000E+00  0.45593999997E+02  0.45594000000E+02  0.51100000000E-03 0. -1.
         11   -1    0    0    0    0 -0.00000000000E+00 -0.00000000000E+00 -0.45593999997E+02  0.45594000000E+02  0.51100000000E-03 0.  1.
         23    2    1    2    0    0  0.00000000000E+00  0.00000000000E+00  0.00000000000E+00  0.91188000000E+02  0.91188000000E+02 0.  0.
    9900012    2    3    3    0    0 -0.10121354056E+02  0.15066729673E+02  0.36382917150E+02  0.50528870505E+02  0.30000032386E+02 0.  0.
        -12    1    3    3    0    0  0.10121354056E+02 -0.15066729673E+02 -0.36382917150E+02  0.40659129495E+02  0.00000000000E+00 0.  1.
         11    1    4    4    0    0 -0.88068419381E+01  0.57656268433E+01 -0.14656078128E+01  0.10627837237E+02  0.51100000000E-03 0.  1.
        -11    1    4    4    0    0 -0.45787437252E+01  0.28969677583E+01  0.15005311040E+02  0.15953578782E+02  0.51100000000E-03 0. -1.
        -12    1    4    4    0    0  0.32642316075E+01  0.64041350715E+01  0.22843213923E+02  0.23947454485E+02  0.00000000000E+00 0.  1.
</event>
<event>
 8    1  0.5829710E-012  0.9118800E+02  0.7816164E-02  0.1184000E+00
        -11   -1    0    0    0    0  0.00000000000E+00  0.00000000000E+00  0.45593999997E+02  0.45594000000E+02  0.51100000000E-03 0. -1.
         11   -1    0    0    0    0 -0.00000000000E+00 -0.00000000000E+00 -0.45593999997E+02  0.45594000000E+02  0.51100000000E-03 0.  1.
         23    2    1    2    0    0  0.00000000000E+00  0.00000000000E+00  0.00000000000E+00  0.91188000000E+02  0.91188000000E+02 0.  0.
    9900012    2    3    3    0    0  0.32437001688E+02  0.41078472681E+01  0.24168831195E+02  0.50528857251E+02  0.29999992101E+02 0.  0.
        -12    1    3    3    0    0 -0.32437001688E+02 -0.41078472681E+01 -0.24168831195E+02  0.40659142749E+02  0.00000000000E+00 0.  1.
         11    1    4    4    0    0  0.16427732946E+01  0.40231890924E+01 -0.39385077807E+01  0.58648613257E+01  0.51100000000E-03 0. -1.
        -11    1    4    4    0    0 -0.11756650280E+01 -0.10449290677E+01 -0.59845934269E+00  0.16829197428E+01  0.51100000000E-03 0.  1.
         12    1    4    4    0    0  0.31969893422E+02  0.11295872434E+01  0.28705798319E+02  0.42981076183E+02  0.00000000000E+00 0. -1.
</event>
<event>
 8    1  0.5829710E-012  0.9118800E+02  0.7816164E-02  0.1184000E+00
        -11   -1    0    0    0    0  0.00000000000E+00  0.00000000000E+00  0.45593999997E+02  0.45594000000E+02  0.51100000000E-03 0. -1.
         11   -1    0    0    0    0 -0.00000000000E+00 -0.00000000000E+00 -0.45593999997E+02  0.45594000000E+02  0.51100000000E-03 0.  1.
         23    2    1    2    0    0  0.00000000000E+00  0.35527136788E-14  0.00000000000E+00  0.91188000000E+02  0.91188000000E+02 0.  0.
    9900012    2    3    3    0    0  0.97782860141E+01 -0.11762634938E+02  0.37672166882E+02  0.50528848317E+02  0.29999964943E+02 0.  0.
        -12    1    3    3    0    0 -0.97782860141E+01  0.11762634938E+02 -0.37672166882E+02  0.40659151683E+02  0.00000000000E+00 0.  1.
         11    1    4    4    0    0  0.34678519730E+01 -0.96981482557E+01  0.29814145996E+02  0.31543040098E+02  0.51100000000E-03 0. -1.
        -11    1    4    4    0    0 -0.34883345681E+01 -0.58128316558E+01  0.27280367267E+01  0.73075080952E+01  0.51100000000E-03 0.  1.
        -12    1    4    4    0    0  0.97987686093E+01  0.37483449739E+01  0.51299841589E+01  0.11678300123E+02  0.00000000000E+00 0.  1.
</event>
<event>
 8    1  0.5829710E-012  0.9118800E+02  0.7816164E-02  0.1184000E+00
        -11   -1    0    0    0    0  0.00000000000E+00  0.00000000000E+00  0.45593999997E+02  0.45594000000E+02  0.51100000000E-03 0. -1.
         11   -1    0    0    0    0 -0.00000000000E+00 -0.00000000000E+00 -0.45593999997E+02  0.45594000000E+02  0.51100000000E-03 0.  1.
         23    2    1    2    0    0  0.00000000000E+00  0.00000000000E+00  0.00000000000E+00  0.91188000000E+02  0.91188000000E+02 0.  0.
    9900012    2    3    3    0    0 -0.32309678374E+02  0.13744751403E+02 -0.20501997370E+02  0.50528863217E+02  0.30000010234E+02 0.  0.
         12    1    3    3    0    0  0.32309678374E+02 -0.13744751403E+02  0.20501997370E+02  0.40659136783E+02  0.00000000000E+00 0. -1.
         11    1    4    4    0    0 -0.51312684310E+01 -0.39118628602E+01 -0.77622839269E+01  0.10093841626E+02  0.51100000000E-03 0. -1.
        -11    1    4    4    0    0 -0.17537623486E+02  0.39565478681E+01 -0.15149713140E+02  0.23510344894E+02  0.51100000000E-03 0.  1.
         12    1    4    4    0    0 -0.96407864577E+01  0.13700066395E+02  0.24099996967E+01  0.16924676697E+02  0.00000000000E+00 0. -1.
</event>
<event>
 8    1  0.5829710E-012  0.9118800E+02  0.7816164E-02  0.1184000E+00
        -11   -1    0    0    0    0  0.00000000000E+00  0.00000000000E+00  0.45593999997E+02  0.45594000000E+02  0.51100000000E-03 0. -1.
         11   -1    0    0    0    0 -0.00000000000E+00 -0.00000000000E+00 -0.45593999997E+02  0.45594000000E+02  0.51100000000E-03 0.  1.
         23    2    1    2    0    0  0.17763568394E-14  0.00000000000E+00  0.71054273576E-14  0.91188000000E+02  0.91188000000E+02 0.  0.
    9900012    2    3    3    0    0  0.88209025688E+01  0.10604548220E+02  0.38247883850E+02  0.50528863461E+02  0.30000010977E+02 0.  0.
        -12    1    3    3    0    0 -0.88209025688E+01 -0.10604548220E+02 -0.38247883850E+02  0.40659136539E+02  0.00000000000E+00 0.  1.
         11    1    4    4    0    0  0.86150378443E+01  0.95642050531E+01  0.27860732533E+02  0.30690606265E+02  0.51100000000E-03 0.  1.
        -11    1    4    4    0    0  0.20094323038E+01 -0.19109182148E+01  0.14328578677E+02  0.14594437083E+02  0.51100000000E-03 0. -1.
        -12    1    4    4    0    0 -0.18035675792E+01  0.29512613817E+01 -0.39414273596E+01  0.52438201139E+01  0.00000000000E+00 0.  1.
</event>
<event>
 8    1  0.5829710E-012  0.9118800E+02  0.7816164E-02  0.1184000E+00
        -11   -1    0    0    0    0  0.00000000000E+00  0.00000000000E+00  0.45593999997E+02  0.45594000000E+02  0.51100000000E-03 0. -1.
         11   -1    0    0    0    0 -0.00000000000E+00 -0.00000000000E+00 -0.45593999997E+02  0.45594000000E+02  0.51100000000E-03 0.  1.
         23    2    1    2    0    0  0.22204460493E-14  0.00000000000E+00  0.00000000000E+00  0.91188000000E+02  0.91188000000E+02 0.  0.
    9900012    2    3    3    0    0  0.38453084976E+01  0.12768375828E+02  0.38410263371E+02  0.50528854031E+02  0.29999982312E+02 0.  0.
        -12    1    3    3    0    0 -0.38453084976E+01 -0.12768375828E+02 -0.38410263371E+02  0.40659145969E+02  0.00000000000E+00 0.  1.
         11    1    4    4    0    0  0.10893961129E+02  0.65729271373E+01  0.17673599895E+02  0.21777003783E+02  0.51100000000E-03 0. -1.
        -11    1    4    4    0    0  0.35521432761E+01  0.36282656010E+01 -0.26737718690E+00  0.50846360683E+01  0.51100000000E-03 0.  1.
         12    1    4    4    0    0 -0.10600795908E+02  0.25671830896E+01  0.21004040662E+02  0.23667214180E+02  0.00000000000E+00 0. -1.
</event>
<event>
 8    1  0.5829710E-012  0.9118800E+02  0.7816164E-02  0.1184000E+00
        -11   -1    0    0    0    0  0.00000000000E+00  0.00000000000E+00  0.45593999997E+02  0.45594000000E+02  0.51100000000E-03 0. -1.
         11   -1    0    0    0    0 -0.00000000000E+00 -0.00000000000E+00 -0.45593999997E+02  0.45594000000E+02  0.51100000000E-03 0.  1.
         23    2    1    2    0    0  0.00000000000E+00  0.00000000000E+00  0.00000000000E+00  0.91188000000E+02  0.91188000000E+02 0.  0.
    9900012    2    3    3    0    0  0.35702341481E+02  0.18028337438E+02 -0.73134742678E+01  0.50528867645E+02  0.30000023694E+02 0.  0.
         12    1    3    3    0    0 -0.35702341481E+02 -0.18028337438E+02  0.73134742678E+01  0.40659132355E+02  0.00000000000E+00 0. -1.
         11    1    4    4    0    0 -0.85064024508E+00 -0.21744763386E+01 -0.10362195915E+01  0.25545425180E+01  0.51100000000E-03 0. -1.
        -11    1    4    4    0    0  0.15723859104E+02  0.21433267181E+02 -0.18670246796E+01  0.26647898015E+02  0.51100000000E-03 0.  1.
        -12    1    4    4    0    0  0.20829122621E+02 -0.12304534042E+01 -0.44102299967E+01  0.21326427112E+02  0.00000000000E+00 0.  1.
</event>
<event>
 8    1  0.5829710E-012  0.9118800E+02  0.7816164E-02  0.1184000E+00
        -11   -1    0    0    0    0  0.00000000000E+00  0.00000000000E+00  0.45593999997E+02  0.45594000000E+02  0.51100000000E-03 0. -1.
         11   -1    0    0    0    0 -0.00000000000E+00 -0.00000000000E+00 -0.45593999997E+02  0.45594000000E+02  0.51100000000E-03 0.  1.
         23    2    1    2    0    0  0.00000000000E+00 -0.35527136788E-14  0.00000000000E+00  0.91188000000E+02  0.91188000000E+02 0.  0.
    9900012    2    3    3    0    0 -0.20458588614E+02 -0.30362809518E+02  0.17683601211E+02  0.50528882921E+02  0.30000070125E+02 0.  0.
        -12    1    3    3    0    0  0.20458588614E+02  0.30362809518E+02 -0.17683601211E+02  0.40659117079E+02  0.00000000000E+00 0.  1.
         11    1    4    4    0    0 -0.80071438124E+01 -0.20603704569E+02  0.50664822952E+01  0.22678100385E+02  0.51100000000E-03 0. -1.
        -11    1    4    4    0    0  0.51867578829E+01 -0.20439912924E+01  0.29883878668E+01  0.63254106620E+01  0.51100000000E-03 0.  1.
        -12    1    4    4    0    0 -0.17638202684E+02 -0.77151136572E+01  0.96287310485E+01  0.21525371873E+02  0.00000000000E+00 0.  1.
</event>
<event>
 8    1  0.5829710E-012  0.9118800E+02  0.7816164E-02  0.1184000E+00
        -11   -1    0    0    0    0  0.00000000000E+00  0.00000000000E+00  0.45593999997E+02  0.45594000000E+02  0.51100000000E-03 0. -1.
         11   -1    0    0    0    0 -0.00000000000E+00 -0.00000000000E+00 -0.45593999997E+02  0.45594000000E+02  0.51100000000E-03 0.  1.
         23    2    1    2    0    0  0.71054273576E-14  0.00000000000E+00  0.00000000000E+00  0.91188000000E+02  0.91188000000E+02 0.  0.
    9900012    2    3    3    0    0 -0.33245010351E+02 -0.16582642074E+02 -0.16521223925E+02  0.50528861158E+02  0.30000003975E+02 0.  0.
         12    1    3    3    0    0  0.33245010351E+02  0.16582642074E+02  0.16521223925E+02  0.40659138842E+02  0.00000000000E+00 0. -1.
         11    1    4    4    0    0  0.55440940865E+00 -0.89983868944E+01  0.25220896228E+01  0.93615849523E+01  0.51100000000E-03 0. -1.
        -11    1    4    4    0    0 -0.17908899146E+02 -0.16083787918E+01 -0.38588942907E+01  0.18390394677E+02  0.51100000000E-03 0.  1.
        -12    1    4    4    0    0 -0.15890520614E+02 -0.59758763876E+01 -0.15184419257E+02  0.22776881529E+02  0.00000000000E+00 0.  1.
</event>
<event>
 8    1  0.5829710E-012  0.9118800E+02  0.7816164E-02  0.1184000E+00
        -11   -1    0    0    0    0  0.00000000000E+00  0.00000000000E+00  0.45593999997E+02  0.45594000000E+02  0.51100000000E-03 0. -1.
         11   -1    0    0    0    0 -0.00000000000E+00 -0.00000000000E+00 -0.45593999997E+02  0.45594000000E+02  0.51100000000E-03 0.  1.
         23    2    1    2    0    0 -0.88817841970E-15 -0.13322676296E-14  0.00000000000E+00  0.91188000000E+02  0.91188000000E+02 0.  0.
    9900012    2    3    3    0    0  0.57065354318E+01  0.20810255306E+01  0.40202891927E+02  0.50528834573E+02  0.29999923168E+02 0.  0.
        -12    1    3    3    0    0 -0.57065354318E+01 -0.20810255306E+01 -0.40202891927E+02  0.40659165427E+02  0.00000000000E+00 0.  1.
         11    1    4    4    0    0 -0.22943366004E+01 -0.23134292201E+01  0.85346626853E+01  0.91354475865E+01  0.51100000000E-03 0. -1.
        -11    1    4    4    0    0  0.63772301699E+01  0.96298200487E+01  0.33640467165E+02  0.35568012739E+02  0.51100000000E-03 0.  1.
        -12    1    4    4    0    0  0.16236418623E+01 -0.52353652980E+01 -0.19722379233E+01  0.58253742478E+01  0.00000000000E+00 0.  1.
</event>
<event>
 8    1  0.5829710E-012  0.9118800E+02  0.7816164E-02  0.1184000E+00
        -11   -1    0    0    0    0  0.00000000000E+00  0.00000000000E+00  0.45593999997E+02  0.45594000000E+02  0.51100000000E-03 0.  1.
         11   -1    0    0    0    0 -0.00000000000E+00 -0.00000000000E+00 -0.45593999997E+02  0.45594000000E+02  0.51100000000E-03 0. -1.
         23    2    1    2    0    0  0.00000000000E+00  0.71054273576E-14  0.00000000000E+00  0.91188000000E+02  0.91188000000E+02 0.  0.
    9900012    2    3    3    0    0 -0.12522143466E+02 -0.36837538732E+02  0.11804948755E+02  0.50528866316E+02  0.30000019654E+02 0.  0.
        -12    1    3    3    0    0  0.12522143466E+02  0.36837538732E+02 -0.11804948755E+02  0.40659133684E+02  0.00000000000E+00 0.  1.
         11    1    4    4    0    0 -0.73845941474E+01 -0.67299312430E+01 -0.63916157524E+01  0.11860731742E+02  0.51100000000E-03 0. -1.
        -11    1    4    4    0    0 -0.20233793340E+01  0.11666007347E+01  0.28731580923E+01  0.37027096683E+01  0.51100000000E-03 0.  1.
         12    1    4    4    0    0 -0.31141699848E+01 -0.31274208224E+02  0.15323406415E+02  0.34965424906E+02  0.00000000000E+00 0. -1.
</event>
<event>
 8    1  0.5829710E-012  0.9118800E+02  0.7816164E-02  0.1184000E+00
        -11   -1    0    0    0    0  0.00000000000E+00  0.00000000000E+00  0.45593999997E+02  0.45594000000E+02  0.51100000000E-03 0. -1.
         11   -1    0    0    0    0 -0.00000000000E+00 -0.00000000000E+00 -0.45593999997E+02  0.45594000000E+02  0.51100000000E-03 0.  1.
         23    2    1    2    0    0  0.00000000000E+00  0.00000000000E+00  0.00000000000E+00  0.91188000000E+02  0.91188000000E+02 0.  0.
    9900012    2    3    3    0    0  0.12101195081E+02 -0.14655500961E+02  0.35943606497E+02  0.50528862297E+02  0.30000007437E+02 0.  0.
        -12    1    3    3    0    0 -0.12101195081E+02  0.14655500961E+02 -0.35943606497E+02  0.40659137703E+02  0.00000000000E+00 0.  1.
         11    1    4    4    0    0  0.42969580614E+01 -0.53968774397E+01 -0.24438244514E+01  0.73186346330E+01  0.51100000000E-03 0.  1.
        -11    1    4    4    0    0  0.48024155674E+01 -0.56825665284E+00  0.13105167972E+01  0.50103458406E+01  0.51100000000E-03 0. -1.
         12    1    4    4    0    0  0.30018214520E+01 -0.86903668688E+01  0.37076914151E+02  0.38199881823E+02  0.00000000000E+00 0. -1.
</event>
<event>
 8    1  0.5829710E-012  0.9118800E+02  0.7816164E-02  0.1184000E+00
        -11   -1    0    0    0    0  0.00000000000E+00  0.00000000000E+00  0.45593999997E+02  0.45594000000E+02  0.51100000000E-03 0. -1.
         11   -1    0    0    0    0 -0.00000000000E+00 -0.00000000000E+00 -0.45593999997E+02  0.45594000000E+02  0.51100000000E-03 0.  1.
         23    2    1    2    0    0 -0.88817841970E-15 -0.66613381478E-15  0.00000000000E+00  0.91188000000E+02  0.91188000000E+02 0.  0.
    9900012    2    3    3    0    0  0.55120293912E+01 -0.10110999193E+01 -0.40271100294E+02  0.50528852076E+02  0.29999976369E+02 0.  0.
         12    1    3    3    0    0 -0.55120293912E+01  0.10110999193E+01  0.40271100294E+02  0.40659147924E+02  0.00000000000E+00 0. -1.
         11    1    4    4    0    0 -0.54333606456E+01 -0.94297176329E+01 -0.10754644930E+02  0.15300436934E+02  0.51100000000E-03 0. -1.
        -11    1    4    4    0    0 -0.10251346467E+01  0.60552291022E+00  0.98383778590E+00  0.15445051274E+01  0.51100000000E-03 0.  1.
        -12    1    4    4    0    0  0.11970524684E+02  0.78130948034E+01 -0.30500293150E+02  0.33683910014E+02  0.00000000000E+00 0.  1.
</event>
<event>
 8    1  0.5829710E-012  0.9118800E+02  0.7816164E-02  0.1184000E+00
        -11   -1    0    0    0    0  0.00000000000E+00  0.00000000000E+00  0.45593999997E+02  0.45594000000E+02  0.51100000000E-03 0. -1.
         11   -1    0    0    0    0 -0.00000000000E+00 -0.00000000000E+00 -0.45593999997E+02  0.45594000000E+02  0.51100000000E-03 0.  1.
         23    2    1    2    0    0 -0.88817841970E-15  0.00000000000E+00 -0.71054273576E-14  0.91188000000E+02  0.91188000000E+02 0.  0.
    9900012    2    3    3    0    0  0.19867887867E+01 -0.10979298901E+02 -0.39098252429E+02  0.50528859858E+02  0.30000000025E+02 0.  0.
         12    1    3    3    0    0 -0.19867887867E+01  0.10979298901E+02  0.39098252429E+02  0.40659140142E+02  0.00000000000E+00 0. -1.
         11    1    4    4    0    0  0.92229357255E+01 -0.68283916458E+01 -0.10274841754E+02  0.15403306437E+02  0.51100000000E-03 0. -1.
        -11    1    4    4    0    0  0.36234482794E+01 -0.76688718680E+01 -0.14634638700E+02  0.16914893535E+02  0.51100000000E-03 0.  1.
         12    1    4    4    0    0 -0.10859595218E+02  0.35179646130E+01 -0.14188771975E+02  0.18210659886E+02  0.00000000000E+00 0. -1.
</event>
<event>
 8    1  0.5829710E-012  0.9118800E+02  0.7816164E-02  0.1184000E+00
        -11   -1    0    0    0    0  0.00000000000E+00  0.00000000000E+00  0.45593999997E+02  0.45594000000E+02  0.51100000000E-03 0. -1.
         11   -1    0    0    0    0 -0.00000000000E+00 -0.00000000000E+00 -0.45593999997E+02  0.45594000000E+02  0.51100000000E-03 0.  1.
         23    2    1    2    0    0  0.00000000000E+00  0.00000000000E+00  0.00000000000E+00  0.91188000000E+02  0.91188000000E+02 0.  0.
    9900012    2    3    3    0    0  0.51900009463E+00  0.28842698979E+02  0.28653009982E+02  0.50528860480E+02  0.30000001914E+02 0.  0.
        -12    1    3    3    0    0 -0.51900009463E+00 -0.28842698979E+02 -0.28653009982E+02  0.40659139520E+02  0.00000000000E+00 0.  1.
         11    1    4    4    0    0 -0.31548988142E+01  0.60052831274E+01  0.16138324170E+01  0.69728951877E+01  0.51100000000E-03 0. -1.
        -11    1    4    4    0    0  0.57341626020E+01  0.25829782895E+02  0.13827647454E+02  0.29854013793E+02  0.51100000000E-03 0.  1.
        -12    1    4    4    0    0 -0.20602636932E+01 -0.29923670433E+01  0.13211530111E+02  0.13701951499E+02  0.00000000000E+00 0.  1.
</event>
<event>
 8    1  0.5829710E-012  0.9118800E+02  0.7816164E-02  0.1184000E+00
        -11   -1    0    0    0    0  0.00000000000E+00  0.00000000000E+00  0.45593999997E+02  0.45594000000E+02  0.51100000000E-03 0. -1.
         11   -1    0    0    0    0 -0.00000000000E+00 -0.00000000000E+00 -0.45593999997E+02  0.45594000000E+02  0.51100000000E-03 0.  1.
         23    2    1    2    0    0 -0.35527136788E-14  0.88817841970E-15  0.71054273576E-14  0.91188000000E+02  0.91188000000E+02 0.  0.
    9900012    2    3    3    0    0 -0.20649461008E+02  0.36784076040E+00  0.35023275050E+02  0.50528863979E+02  0.30000012551E+02 0.  0.
        -12    1    3    3    0    0  0.20649461008E+02 -0.36784076040E+00 -0.35023275050E+02  0.40659136021E+02  0.00000000000E+00 0.  1.
         11    1    4    4    0    0  0.44785385462E+00 -0.17187823969E+01  0.12810268437E+01  0.21899351677E+01  0.51100000000E-03 0. -1.
        -11    1    4    4    0    0  0.98904286885E+00 -0.95770786840E+01  0.89038864382E+01  0.13114032022E+02  0.51100000000E-03 0.  1.
         12    1    4    4    0    0 -0.22086357731E+02  0.11663701841E+02  0.24838361768E+02  0.35224896789E+02  0.00000000000E+00 0. -1.
</event>
<event>
 8    1  0.5829710E-012  0.9118800E+02  0.7816164E-02  0.1184000E+00
        -11   -1    0    0    0    0  0.00000000000E+00  0.00000000000E+00  0.45593999997E+02  0.45594000000E+02  0.51100000000E-03 0. -1.
         11   -1    0    0    0    0 -0.00000000000E+00 -0.00000000000E+00 -0.45593999997E+02  0.45594000000E+02  0.51100000000E-03 0.  1.
         23    2    1    2    0    0  0.00000000000E+00  0.00000000000E+00  0.00000000000E+00  0.91188000000E+02  0.91188000000E+02 0.  0.
    9900012    2    3    3    0    0  0.84491541282E+01 -0.18392838721E+02 -0.35263018117E+02  0.50528866113E+02  0.30000019038E+02 0.  0.
         12    1    3    3    0    0 -0.84491541282E+01  0.18392838721E+02  0.35263018117E+02  0.40659133887E+02  0.00000000000E+00 0. -1.
         11    1    4    4    0    0  0.59766749544E+00 -0.22644064769E+02 -0.18639985138E+02  0.29335301633E+02  0.51100000000E-03 0. -1.
        -11    1    4    4    0    0 -0.83564278992E+00 -0.17173093610E+01 -0.57136004396E+01  0.60243406742E+01  0.51100000000E-03 0.  1.
        -12    1    4    4    0    0  0.86871294227E+01  0.59685354096E+01 -0.10909432539E+02  0.15169223806E+02  0.00000000000E+00 0.  1.
</event>
<event>
 8    1  0.5829710E-012  0.9118800E+02  0.7816164E-02  0.1184000E+00
        -11   -1    0    0    0    0  0.00000000000E+00  0.00000000000E+00  0.45593999997E+02  0.45594000000E+02  0.51100000000E-03 0. -1.
         11   -1    0    0    0    0 -0.00000000000E+00 -0.00000000000E+00 -0.45593999997E+02  0.45594000000E+02  0.51100000000E-03 0.  1.
         23    2    1    2    0    0  0.00000000000E+00  0.00000000000E+00  0.00000000000E+00  0.91188000000E+02  0.91188000000E+02 0.  0.
    9900012    2    3    3    0    0 -0.20385775748E+02 -0.10946822565E+02  0.33432805379E+02  0.50528865077E+02  0.30000015889E+02 0.  0.
        -12    1    3    3    0    0  0.20385775748E+02  0.10946822565E+02 -0.33432805379E+02  0.40659134923E+02  0.00000000000E+00 0.  1.
         11    1    4    4    0    0 -0.71983094246E+01  0.21470977502E+01  0.10264020653E+02  0.12719111901E+02  0.51100000000E-03 0. -1.
        -11    1    4    4    0    0 -0.70449277747E+01  0.61706715943E+01  0.49523006321E+01  0.10594030257E+02  0.51100000000E-03 0.  1.
         12    1    4    4    0    0 -0.61425385488E+01 -0.19264591910E+02  0.18216484095E+02  0.27215722919E+02  0.00000000000E+00 0. -1.
</event>
<event>
 8    1  0.5829710E-012  0.9118800E+02  0.7816164E-02  0.1184000E+00
        -11   -1    0    0    0    0  0.00000000000E+00  0.00000000000E+00  0.45593999997E+02  0.45594000000E+02  0.51100000000E-03 0. -1.
         11   -1    0    0    0    0 -0.00000000000E+00 -0.00000000000E+00 -0.45593999997E+02  0.45594000000E+02  0.51100000000E-03 0.  1.
         23    2    1    2    0    0  0.00000000000E+00  0.00000000000E+00  0.00000000000E+00  0.91188000000E+02  0.91188000000E+02 0.  0.
    9900012    2    3    3    0    0 -0.23536773678E+02  0.23582737527E+02  0.23303246559E+02  0.50528849436E+02  0.29999968344E+02 0.  0.
        -12    1    3    3    0    0  0.23536773678E+02 -0.23582737527E+02 -0.23303246559E+02  0.40659150564E+02  0.00000000000E+00 0.  1.
         11    1    4    4    0    0  0.28762477700E+01  0.74201788437E+01 -0.11912070273E+01  0.80467900277E+01  0.51100000000E-03 0. -1.
        -11    1    4    4    0    0 -0.32736710340E+01  0.14723992180E-01 -0.19500111459E+01  0.38104701239E+01  0.51100000000E-03 0.  1.
         12    1    4    4    0    0 -0.23139350414E+02  0.16147834691E+02  0.26444464732E+02  0.38671589284E+02  0.00000000000E+00 0. -1.
</event>
<event>
 8    1  0.5829710E-012  0.9118800E+02  0.7816164E-02  0.1184000E+00
        -11   -1    0    0    0    0  0.00000000000E+00  0.00000000000E+00  0.45593999997E+02  0.45594000000E+02  0.51100000000E-03 0. -1.
         11   -1    0    0    0    0 -0.00000000000E+00 -0.00000000000E+00 -0.45593999997E+02  0.45594000000E+02  0.51100000000E-03 0.  1.
         23    2    1    2    0    0  0.00000000000E+00  0.00000000000E+00  0.00000000000E+00  0.91188000000E+02  0.91188000000E+02 0.  0.
    9900012    2    3    3    0    0  0.88650128450E+00  0.31878668608E+01  0.40524284721E+02  0.50528855496E+02  0.29999986765E+02 0.  0.
        -12    1    3    3    0    0 -0.88650128450E+00 -0.31878668608E+01 -0.40524284721E+02  0.40659144504E+02  0.00000000000E+00 0.  1.
         11    1    4    4    0    0  0.10598851056E+02  0.23138026753E+01  0.25427939436E+02  0.27645423324E+02  0.51100000000E-03 0. -1.
        -11    1    4    4    0    0  0.30230891547E+01 -0.17961419172E+01  0.90818912334E+00  0.36318041755E+01  0.51100000000E-03 0.  1.
         12    1    4    4    0    0 -0.12735438926E+02  0.26702061027E+01  0.14188156162E+02  0.19251627997E+02  0.00000000000E+00 0. -1.
</event>
<event>
 8    1  0.5829710E-012  0.9118800E+02  0.7816164E-02  0.1184000E+00
        -11   -1    0    0    0    0  0.00000000000E+00  0.00000000000E+00  0.45593999997E+02  0.45594000000E+02  0.51100000000E-03 0. -1.
         11   -1    0    0    0    0 -0.00000000000E+00 -0.00000000000E+00 -0.45593999997E+02  0.45594000000E+02  0.51100000000E-03 0.  1.
         23    2    1    2    0    0  0.00000000000E+00  0.35527136788E-14  0.00000000000E+00  0.91188000000E+02  0.91188000000E+02 0.  0.
    9900012    2    3    3    0    0 -0.14286129564E+02  0.19458401887E+02 -0.32717634500E+02  0.50528849625E+02  0.29999968920E+02 0.  0.
         12    1    3    3    0    0  0.14286129564E+02 -0.19458401887E+02  0.32717634500E+02  0.40659150375E+02  0.00000000000E+00 0. -1.
         11    1    4    4    0    0 -0.86801999652E+01  0.22232242892E+02 -0.17838592137E+02  0.29796541161E+02  0.51100000000E-03 0. -1.
        -11    1    4    4    0    0 -0.50789182972E+01  0.45045305013E+01 -0.94556064444E+01  0.11640219053E+02  0.51100000000E-03 0.  1.
        -12    1    4    4    0    0 -0.52701130207E+00 -0.72783715065E+01 -0.54234359190E+01  0.90920894115E+01  0.00000000000E+00 0.  1.
</event>
<event>
 8    1  0.5997675E-012  0.9118800E+02  0.7816164E-02  0.1184000E+00
        -11   -1    0    0    0    0  0.00000000000E+00  0.00000000000E+00  0.45593999997E+02  0.45594000000E+02  0.51100000000E-03 0. -1.
         11   -1    0    0    0    0 -0.00000000000E+00 -0.00000000000E+00 -0.45593999997E+02  0.45594000000E+02  0.51100000000E-03 0.  1.
         23    2    1    2    0    0  0.88817841970E-15 -0.17763568394E-14  0.00000000000E+00  0.91188000000E+02  0.91188000000E+02 0.  0.
    9900012    2    3    3    0    0 -0.73216977777E+01  0.10649977183E+02 -0.38550434236E+02  0.50528865084E+02  0.30000015910E+02 0.  0.
         12    1    3    3    0    0  0.73216977777E+01 -0.10649977183E+02  0.38550434236E+02  0.40659134916E+02  0.00000000000E+00 0. -1.
         11    1    4    4    0    0 -0.70565804546E+01  0.11351997558E+01 -0.14442813572E+02  0.16114554612E+02  0.51100000000E-03 0. -1.
        -11    1    4    4    0    0 -0.10345707957E+02  0.10019969731E+02 -0.12944283729E+02  0.19364605548E+02  0.51100000000E-03 0.  1.
         12    1    4    4    0    0  0.10080590634E+02 -0.50519230367E+00 -0.11163336935E+02  0.15049704924E+02  0.00000000000E+00 0. -1.
</event>
<event>
 8    1  0.5829710E-012  0.9118800E+02  0.7816164E-02  0.1184000E+00
        -11   -1    0    0    0    0  0.00000000000E+00  0.00000000000E+00  0.45593999997E+02  0.45594000000E+02  0.51100000000E-03 0. -1.
         11   -1    0    0    0    0 -0.00000000000E+00 -0.00000000000E+00 -0.45593999997E+02  0.45594000000E+02  0.51100000000E-03 0.  1.
         23    2    1    2    0    0  0.71054273576E-14  0.35527136788E-14  0.00000000000E+00  0.91188000000E+02  0.91188000000E+02 0.  0.
    9900012    2    3    3    0    0  0.20488546773E+02  0.24442426848E+02 -0.25218093667E+02  0.50528867849E+02  0.30000024313E+02 0.  0.
         12    1    3    3    0    0 -0.20488546773E+02 -0.24442426848E+02  0.25218093667E+02  0.40659132151E+02  0.00000000000E+00 0. -1.
         11    1    4    4    0    0  0.97554651247E+01  0.11331194890E+02 -0.12236754363E+02  0.19321056778E+02  0.51100000000E-03 0. -1.
        -11    1    4    4    0    0  0.17065544793E+02  0.13291590529E+02 -0.12174195867E+02  0.24821568104E+02  0.51100000000E-03 0.  1.
         12    1    4    4    0    0 -0.63324631447E+01 -0.18035857131E+00 -0.80714343689E+00  0.63862429661E+01  0.00000000000E+00 0. -1.
</event>
<event>
 8    1  0.5829710E-012  0.9118800E+02  0.7816164E-02  0.1184000E+00
        -11   -1    0    0    0    0  0.00000000000E+00  0.00000000000E+00  0.45593999997E+02  0.45594000000E+02  0.51100000000E-03 0. -1.
         11   -1    0    0    0    0 -0.00000000000E+00 -0.00000000000E+00 -0.45593999997E+02  0.45594000000E+02  0.51100000000E-03 0.  1.
         23    2    1    2    0    0  0.35527136788E-14  0.00000000000E+00  0.00000000000E+00  0.91188000000E+02  0.91188000000E+02 0.  0.
    9900012    2    3    3    0    0  0.19683458959E+02  0.22448909305E+02  0.27600222299E+02  0.50528876097E+02  0.30000049385E+02 0.  0.
        -12    1    3    3    0    0 -0.19683458959E+02 -0.22448909305E+02 -0.27600222299E+02  0.40659123903E+02  0.00000000000E+00 0.  1.
         11    1    4    4    0    0  0.66897194394E+01  0.99868565783E+01  0.16852691432E+02  0.20700310608E+02  0.51100000000E-03 0. -1.
        -11    1    4    4    0    0 -0.25895604168E+01  0.79565265556E+01 -0.26636080955E+01  0.87810561056E+01  0.51100000000E-03 0.  1.
         12    1    4    4    0    0  0.15583299937E+02  0.45055261714E+01  0.13411138962E+02  0.21047509384E+02  0.00000000000E+00 0. -1.
</event>
<event>
 8    1  0.5829710E-012  0.9118800E+02  0.7816164E-02  0.1184000E+00
        -11   -1    0    0    0    0  0.00000000000E+00  0.00000000000E+00  0.45593999997E+02  0.45594000000E+02  0.51100000000E-03 0. -1.
         11   -1    0    0    0    0 -0.00000000000E+00 -0.00000000000E+00 -0.45593999997E+02  0.45594000000E+02  0.51100000000E-03 0.  1.
         23    2    1    2    0    0  0.00000000000E+00  0.00000000000E+00  0.00000000000E+00  0.91188000000E+02  0.91188000000E+02 0.  0.
    9900012    2    3    3    0    0 -0.13145698916E+02 -0.36936530800E+02 -0.10772593930E+02  0.50528862189E+02  0.30000007111E+02 0.  0.
         12    1    3    3    0    0  0.13145698916E+02  0.36936530800E+02  0.10772593930E+02  0.40659137811E+02  0.00000000000E+00 0. -1.
         11    1    4    4    0    0  0.55874846738E+01 -0.15738300920E+01  0.51537483539E+00  0.58277386370E+01  0.51100000000E-03 0. -1.
        -11    1    4    4    0    0 -0.34690635985E+01  0.49786383626E+00 -0.35070616306E+01  0.49579988092E+01  0.51100000000E-03 0.  1.
         12    1    4    4    0    0 -0.15264119991E+02 -0.35860564544E+02 -0.77809071351E+01  0.39743124743E+02  0.00000000000E+00 0. -1.
</event>
<event>
 8    1  0.5829710E-012  0.9118800E+02  0.7816164E-02  0.1184000E+00
        -11   -1    0    0    0    0  0.00000000000E+00  0.00000000000E+00  0.45593999997E+02  0.45594000000E+02  0.51100000000E-03 0. -1.
         11   -1    0    0    0    0 -0.00000000000E+00 -0.00000000000E+00 -0.45593999997E+02  0.45594000000E+02  0.51100000000E-03 0.  1.
         23    2    1    2    0    0 -0.17763568394E-14 -0.17763568394E-14  0.00000000000E+00  0.91188000000E+02  0.91188000000E+02 0.  0.
    9900012    2    3    3    0    0 -0.80636271041E+01  0.85653742112E+01 -0.38920149254E+02  0.50528859141E+02  0.29999997845E+02 0.  0.
         12    1    3    3    0    0  0.80636271041E+01 -0.85653742112E+01  0.38920149254E+02  0.40659140859E+02  0.00000000000E+00 0. -1.
         11    1    4    4    0    0 -0.92571717503E+01 -0.22162705312E+01 -0.19510150128E+02  0.21708363415E+02  0.51100000000E-03 0. -1.
        -11    1    4    4    0    0 -0.12456837073E+01 -0.43871778895E+00 -0.17046187441E+02  0.17097271938E+02  0.51100000000E-03 0.  1.
        -12    1    4    4    0    0  0.24392283534E+01  0.11220362531E+02 -0.23638116850E+01  0.11723223788E+02  0.00000000000E+00 0.  1.
</event>
<event>
 8    1  0.5829710E-012  0.9118800E+02  0.7816164E-02  0.1184000E+00
        -11   -1    0    0    0    0  0.00000000000E+00  0.00000000000E+00  0.45593999997E+02  0.45594000000E+02  0.51100000000E-03 0. -1.
         11   -1    0    0    0    0 -0.00000000000E+00 -0.00000000000E+00 -0.45593999997E+02  0.45594000000E+02  0.51100000000E-03 0.  1.
         23    2    1    2    0    0 -0.35527136788E-14  0.00000000000E+00  0.35527136788E-14  0.91188000000E+02  0.91188000000E+02 0.  0.
    9900012    2    3    3    0    0 -0.23672017518E+02 -0.12516365644E+02 -0.30596446948E+02  0.50528851114E+02  0.29999973446E+02 0.  0.
         12    1    3    3    0    0  0.23672017518E+02  0.12516365644E+02  0.30596446948E+02  0.40659148886E+02  0.00000000000E+00 0. -1.
         11    1    4    4    0    0 -0.66405961661E+01  0.31205559031E+01 -0.20856716671E+02  0.22109681525E+02  0.51100000000E-03 0. -1.
        -11    1    4    4    0    0 -0.30116684259E+01 -0.20560782892E+01 -0.80375092605E+01  0.88260500799E+01  0.51100000000E-03 0.  1.
        -12    1    4    4    0    0 -0.14019752926E+02 -0.13580843258E+02 -0.17022210162E+01  0.19593119509E+02  0.00000000000E+00 0.  1.
</event>
<event>
 8    1  0.5829710E-012  0.9118800E+02  0.7816164E-02  0.1184000E+00
        -11   -1    0    0    0    0  0.00000000000E+00  0.00000000000E+00  0.45593999997E+02  0.45594000000E+02  0.51100000000E-03 0. -1.
         11   -1    0    0    0    0 -0.00000000000E+00 -0.00000000000E+00 -0.45593999997E+02  0.45594000000E+02  0.51100000000E-03 0.  1.
         23    2    1    2    0    0 -0.35527136788E-14 -0.88817841970E-15  0.00000000000E+00  0.91188000000E+02  0.91188000000E+02 0.  0.
    9900012    2    3    3    0    0 -0.21559106037E+02 -0.40606918485E+01  0.34232753849E+02  0.50528859484E+02  0.29999998889E+02 0.  0.
        -12    1    3    3    0    0  0.21559106037E+02  0.40606918485E+01 -0.34232753849E+02  0.40659140516E+02  0.00000000000E+00 0.  1.
         11    1    4    4    0    0  0.26481234715E+01 -0.61920642359E+01  0.45480900728E+01  0.81264593147E+01  0.51100000000E-03 0. -1.
        -11    1    4    4    0    0 -0.16654731534E+02 -0.24635816087E+01  0.73285832280E+01  0.18361847652E+02  0.51100000000E-03 0.  1.
         12    1    4    4    0    0 -0.75524979746E+01  0.45949539960E+01  0.22356080548E+02  0.24040552518E+02  0.00000000000E+00 0. -1.
</event>
<event>
 8    1  0.5829710E-012  0.9118800E+02  0.7816164E-02  0.1184000E+00
        -11   -1    0    0    0    0  0.00000000000E+00  0.00000000000E+00  0.45593999997E+02  0.45594000000E+02  0.51100000000E-03 0. -1.
         11   -1    0    0    0    0 -0.00000000000E+00 -0.00000000000E+00 -0.45593999997E+02  0.45594000000E+02  0.51100000000E-03 0.  1.
         23    2    1    2    0    0  0.00000000000E+00 -0.22204460493E-15  0.00000000000E+00  0.91188000000E+02  0.91188000000E+02 0.  0.
    9900012    2    3    3    0    0 -0.17798636538E+02  0.39102371599E+00  0.36554365473E+02  0.50528855921E+02  0.29999988056E+02 0.  0.
        -12    1    3    3    0    0  0.17798636538E+02 -0.39102371599E+00 -0.36554365473E+02  0.40659144079E+02  0.00000000000E+00 0.  1.
         11    1    4    4    0    0 -0.70681734783E+01 -0.28563533529E+01 -0.12704874469E+00  0.76245637541E+01  0.51100000000E-03 0. -1.
        -11    1    4    4    0    0  0.35518838279E+01 -0.33243667398E+01  0.17175917094E+02  0.17851594361E+02  0.51100000000E-03 0.  1.
         12    1    4    4    0    0 -0.14282346888E+02  0.65717438087E+01  0.19505497124E+02  0.25052697806E+02  0.00000000000E+00 0. -1.
</event>
<event>
 8    1  0.5829710E-012  0.9118800E+02  0.7816164E-02  0.1184000E+00
        -11   -1    0    0    0    0  0.00000000000E+00  0.00000000000E+00  0.45593999997E+02  0.45594000000E+02  0.51100000000E-03 0. -1.
         11   -1    0    0    0    0 -0.00000000000E+00 -0.00000000000E+00 -0.45593999997E+02  0.45594000000E+02  0.51100000000E-03 0.  1.
         23    2    1    2    0    0 -0.88817841970E-15 -0.88817841970E-15  0.00000000000E+00  0.91188000000E+02  0.91188000000E+02 0.  0.
    9900012    2    3    3    0    0 -0.63588988433E+01 -0.77657769878E+00 -0.40151300940E+02  0.50528860381E+02  0.30000001614E+02 0.  0.
         12    1    3    3    0    0  0.63588988433E+01  0.77657769878E+00  0.40151300940E+02  0.40659139619E+02  0.00000000000E+00 0. -1.
         11    1    4    4    0    0 -0.52297842497E+01  0.40604084497E+01 -0.70295266101E+01  0.96566974013E+01  0.51100000000E-03 0. -1.
        -11    1    4    4    0    0 -0.73997019471E+01  0.59969779115E+01 -0.67306394124E+01  0.11662797269E+02  0.51100000000E-03 0.  1.
         12    1    4    4    0    0  0.62705873535E+01 -0.10833964060E+02 -0.26391134917E+02  0.29209365711E+02  0.00000000000E+00 0. -1.
</event>
<event>
 8    1  0.5829710E-012  0.9118800E+02  0.7816164E-02  0.1184000E+00
        -11   -1    0    0    0    0  0.00000000000E+00  0.00000000000E+00  0.45593999997E+02  0.45594000000E+02  0.51100000000E-03 0. -1.
         11   -1    0    0    0    0 -0.00000000000E+00 -0.00000000000E+00 -0.45593999997E+02  0.45594000000E+02  0.51100000000E-03 0.  1.
         23    2    1    2    0    0 -0.88817841970E-15  0.35527136788E-14 -0.35527136788E-14  0.91188000000E+02  0.91188000000E+02 0.  0.
    9900012    2    3    3    0    0  0.34837937446E+01 -0.30098856732E+02  0.27112524907E+02  0.50528843562E+02  0.29999950491E+02 0.  0.
        -12    1    3    3    0    0 -0.34837937446E+01  0.30098856732E+02 -0.27112524907E+02  0.40659156438E+02  0.00000000000E+00 0.  1.
         11    1    4    4    0    0 -0.28758598512E+01 -0.66809628106E+01  0.17797974559E+02  0.19226901275E+02  0.51100000000E-03 0. -1.
        -11    1    4    4    0    0  0.89919843359E+01 -0.32943482325E+01  0.34103532221E+01  0.10165580256E+02  0.51100000000E-03 0.  1.
        -12    1    4    4    0    0 -0.26323307401E+01 -0.20123545689E+02  0.59041971250E+01  0.21136362031E+02  0.00000000000E+00 0.  1.
</event>
<event>
 8    1  0.5829710E-012  0.9118800E+02  0.7816164E-02  0.1184000E+00
        -11   -1    0    0    0    0  0.00000000000E+00  0.00000000000E+00  0.45593999997E+02  0.45594000000E+02  0.51100000000E-03 0. -1.
         11   -1    0    0    0    0 -0.00000000000E+00 -0.00000000000E+00 -0.45593999997E+02  0.45594000000E+02  0.51100000000E-03 0.  1.
         23    2    1    2    0    0  0.00000000000E+00 -0.35527136788E-14  0.71054273576E-14  0.91188000000E+02  0.91188000000E+02 0.  0.
    9900012    2    3    3    0    0  0.11187614580E+02 -0.18015716430E+02  0.34690609926E+02  0.50528841432E+02  0.29999944016E+02 0.  0.
        -12    1    3    3    0    0 -0.11187614580E+02  0.18015716430E+02 -0.34690609926E+02  0.40659158568E+02  0.00000000000E+00 0.  1.
         11    1    4    4    0    0  0.10962614331E+02 -0.18077865715E+02  0.31062523717E+02  0.37574838944E+02  0.51100000000E-03 0. -1.
        -11    1    4    4    0    0  0.28766176190E+01  0.93278033642E-01  0.76291241380E+01  0.81539662184E+01  0.51100000000E-03 0.  1.
        -12    1    4    4    0    0 -0.26516173703E+01 -0.31128748113E-01 -0.40010379287E+01  0.48000362691E+01  0.00000000000E+00 0.  1.
</event>
<event>
 8    1  0.5829710E-012  0.9118800E+02  0.7816164E-02  0.1184000E+00
        -11   -1    0    0    0    0  0.00000000000E+00  0.00000000000E+00  0.45593999997E+02  0.45594000000E+02  0.51100000000E-03 0. -1.
         11   -1    0    0    0    0 -0.00000000000E+00 -0.00000000000E+00 -0.45593999997E+02  0.45594000000E+02  0.51100000000E-03 0.  1.
         23    2    1    2    0    0  0.24424906542E-14 -0.17763568394E-14  0.00000000000E+00  0.91188000000E+02  0.91188000000E+02 0.  0.
    9900012    2    3    3    0    0 -0.74267618953E+00 -0.11323928533E+02  0.39043283181E+02  0.50528918765E+02  0.30000179076E+02 0.  0.
        -12    1    3    3    0    0  0.74267618953E+00  0.11323928533E+02 -0.39043283181E+02  0.40659081235E+02  0.00000000000E+00 0.  1.
         11    1    4    4    0    0  0.10115841692E+02 -0.46383001173E+01  0.26527819583E+02  0.28767504118E+02  0.51100000000E-03 0. -1.
        -11    1    4    4    0    0 -0.42189036689E+00 -0.72179586526E+01  0.63834998788E+01  0.96449981626E+01  0.51100000000E-03 0.  1.
         12    1    4    4    0    0 -0.10436627514E+02  0.53233023643E+00  0.61319637192E+01  0.12116416484E+02  0.00000000000E+00 0. -1.
</event>
<event>
 8    1  0.5829710E-012  0.9118800E+02  0.7816164E-02  0.1184000E+00
        -11   -1    0    0    0    0  0.00000000000E+00  0.00000000000E+00  0.45593999997E+02  0.45594000000E+02  0.51100000000E-03 0. -1.
         11   -1    0    0    0    0 -0.00000000000E+00 -0.00000000000E+00 -0.45593999997E+02  0.45594000000E+02  0.51100000000E-03 0.  1.
         23    2    1    2    0    0 -0.35527136788E-14  0.33306690739E-15  0.00000000000E+00  0.91188000000E+02  0.91188000000E+02 0.  0.
    9900012    2    3    3    0    0 -0.25671609626E+02 -0.64712055904E+00 -0.31523242830E+02  0.50528866409E+02  0.30000019937E+02 0.  0.
         12    1    3    3    0    0  0.25671609626E+02  0.64712055904E+00  0.31523242830E+02  0.40659133591E+02  0.00000000000E+00 0. -1.
         11    1    4    4    0    0 -0.13918597845E+02 -0.24244637796E+01 -0.42029426143E+00  0.14134427406E+02  0.51100000000E-03 0. -1.
        -11    1    4    4    0    0  0.21832316050E+01 -0.33140873404E+01 -0.81267056057E+01  0.90439493256E+01  0.51100000000E-03 0.  1.
        -12    1    4    4    0    0 -0.13936243387E+02  0.50914305609E+01 -0.22976242963E+02  0.27350489677E+02  0.00000000000E+00 0.  1.
</event>
<event>
 8    1  0.5829710E-012  0.9118800E+02  0.7816164E-02  0.1184000E+00
        -11   -1    0    0    0    0  0.00000000000E+00  0.00000000000E+00  0.45593999997E+02  0.45594000000E+02  0.51100000000E-03 0. -1.
         11   -1    0    0    0    0 -0.00000000000E+00 -0.00000000000E+00 -0.45593999997E+02  0.45594000000E+02  0.51100000000E-03 0.  1.
         23    2    1    2    0    0 -0.17763568394E-14  0.35527136788E-14  0.35527136788E-14  0.91188000000E+02  0.91188000000E+02 0.  0.
    9900012    2    3    3    0    0 -0.10600584543E+02 -0.25564873451E+02  0.29786423409E+02  0.50528853837E+02  0.29999981722E+02 0.  0.
        -12    1    3    3    0    0  0.10600584543E+02  0.25564873451E+02 -0.29786423409E+02  0.40659146163E+02  0.00000000000E+00 0.  1.
         11    1    4    4    0    0 -0.12550216931E+01 -0.57893787850E+01  0.57060337052E+01  0.82250110682E+01  0.51100000000E-03 0. -1.
        -11    1    4    4    0    0 -0.13166265276E+02 -0.20265428346E+02  0.75325431359E+01  0.25313580026E+02  0.51100000000E-03 0.  1.
         12    1    4    4    0    0  0.38207024257E+01  0.48993367984E+00  0.16547846568E+02  0.16990262743E+02  0.00000000000E+00 0. -1.
</event>
<event>
 8    1  0.5829710E-012  0.9118800E+02  0.7816164E-02  0.1184000E+00
        -11   -1    0    0    0    0  0.00000000000E+00  0.00000000000E+00  0.45593999997E+02  0.45594000000E+02  0.51100000000E-03 0. -1.
         11   -1    0    0    0    0 -0.00000000000E+00 -0.00000000000E+00 -0.45593999997E+02  0.45594000000E+02  0.51100000000E-03 0.  1.
         23    2    1    2    0    0  0.44408920985E-15 -0.17763568394E-14  0.00000000000E+00  0.91188000000E+02  0.91188000000E+02 0.  0.
    9900012    2    3    3    0    0  0.21650175234E+01  0.66589382664E+01  0.40051680180E+02  0.50528857794E+02  0.29999993750E+02 0.  0.
        -12    1    3    3    0    0 -0.21650175234E+01 -0.66589382664E+01 -0.40051680180E+02  0.40659142206E+02  0.00000000000E+00 0.  1.
         11    1    4    4    0    0 -0.21439504889E+01 -0.34918130194E+01  0.13271189154E+01  0.43070322425E+01  0.51100000000E-03 0. -1.
        -11    1    4    4    0    0  0.83697096938E+01 -0.22829464569E+01  0.49166163243E+01  0.99718103284E+01  0.51100000000E-03 0.  1.
        -12    1    4    4    0    0 -0.40607416815E+01  0.12433697743E+02  0.33807944940E+02  0.36250015223E+02  0.00000000000E+00 0.  1.
</event>
<event>
 8    1  0.5829710E-012  0.9118800E+02  0.7816164E-02  0.1184000E+00
        -11   -1    0    0    0    0  0.00000000000E+00  0.00000000000E+00  0.45593999997E+02  0.45594000000E+02  0.51100000000E-03 0. -1.
         11   -1    0    0    0    0 -0.00000000000E+00 -0.00000000000E+00 -0.45593999997E+02  0.45594000000E+02  0.51100000000E-03 0.  1.
         23    2    1    2    0    0  0.00000000000E+00  0.35527136788E-14  0.71054273576E-14  0.91188000000E+02  0.91188000000E+02 0.  0.
    9900012    2    3    3    0    0 -0.85449869874E+01  0.28279008258E+02  0.27936487923E+02  0.50528850130E+02  0.29999970455E+02 0.  0.
        -12    1    3    3    0    0  0.85449869874E+01 -0.28279008258E+02 -0.27936487923E+02  0.40659149870E+02  0.00000000000E+00 0.  1.
         11    1    4    4    0    0 -0.26376342305E+00  0.18959298563E+02  0.18289131365E+02  0.26344200491E+02  0.51100000000E-03 0. -1.
        -11    1    4    4    0    0 -0.82528486471E+01  0.12114675488E+02  0.13157503313E+02  0.19697582762E+02  0.51100000000E-03 0.  1.
        -12    1    4    4    0    0 -0.28374917222E-01 -0.27949657936E+01 -0.35101467543E+01  0.44870668771E+01  0.00000000000E+00 0.  1.
</event>
<event>
 8    1  0.5829710E-012  0.9118800E+02  0.7816164E-02  0.1184000E+00
        -11   -1    0    0    0    0  0.00000000000E+00  0.00000000000E+00  0.45593999997E+02  0.45594000000E+02  0.51100000000E-03 0. -1.
         11   -1    0    0    0    0 -0.00000000000E+00 -0.00000000000E+00 -0.45593999997E+02  0.45594000000E+02  0.51100000000E-03 0.  1.
         23    2    1    2    0    0  0.00000000000E+00  0.35527136788E-14  0.00000000000E+00  0.91188000000E+02  0.91188000000E+02 0.  0.
    9900012    2    3    3    0    0  0.23522952540E+01 -0.26365513791E+02  0.30862471192E+02  0.50528859103E+02  0.29999997728E+02 0.  0.
        -12    1    3    3    0    0 -0.23522952540E+01  0.26365513791E+02 -0.30862471192E+02  0.40659140897E+02  0.00000000000E+00 0.  1.
         11    1    4    4    0    0  0.49940660850E+00 -0.20259744550E+02  0.25931865882E+02  0.32911522672E+02  0.51100000000E-03 0. -1.
        -11    1    4    4    0    0  0.38957688557E+01 -0.10500133332E+02  0.59251463071E+01  0.12670326514E+02  0.51100000000E-03 0.  1.
         12    1    4    4    0    0 -0.20428802102E+01  0.43943640909E+01 -0.99454099680E+00  0.49470099162E+01  0.00000000000E+00 0. -1.
</event>
<event>
 8    1  0.5829710E-012  0.9118800E+02  0.7816164E-02  0.1184000E+00
        -11   -1    0    0    0    0  0.00000000000E+00  0.00000000000E+00  0.45593999997E+02  0.45594000000E+02  0.51100000000E-03 0. -1.
         11   -1    0    0    0    0 -0.00000000000E+00 -0.00000000000E+00 -0.45593999997E+02  0.45594000000E+02  0.51100000000E-03 0.  1.
         23    2    1    2    0    0  0.35527136788E-14 -0.17763568394E-14  0.00000000000E+00  0.91188000000E+02  0.91188000000E+02 0.  0.
    9900012    2    3    3    0    0 -0.10517309634E+02  0.14285709493E+02 -0.36585106989E+02  0.50528863868E+02  0.30000012212E+02 0.  0.
         12    1    3    3    0    0  0.10517309634E+02 -0.14285709493E+02  0.36585106989E+02  0.40659136132E+02  0.00000000000E+00 0. -1.
         11    1    4    4    0    0 -0.15600491535E+02  0.72714033983E+01 -0.23349800402E+02  0.29007961365E+02  0.51100000000E-03 0. -1.
        -11    1    4    4    0    0 -0.26783154322E+01 -0.26927418419E+01 -0.61117004613E+01  0.71956316589E+01  0.51100000000E-03 0.  1.
        -12    1    4    4    0    0  0.77614973332E+01  0.97070479366E+01 -0.71236061258E+01  0.14325270843E+02  0.00000000000E+00 0.  1.
</event>
<event>
 8    1  0.5829710E-012  0.9118800E+02  0.7816164E-02  0.1184000E+00
        -11   -1    0    0    0    0  0.00000000000E+00  0.00000000000E+00  0.45593999997E+02  0.45594000000E+02  0.51100000000E-03 0. -1.
         11   -1    0    0    0    0 -0.00000000000E+00 -0.00000000000E+00 -0.45593999997E+02  0.45594000000E+02  0.51100000000E-03 0.  1.
         23    2    1    2    0    0 -0.17763568394E-14  0.35527136788E-14  0.00000000000E+00  0.91188000000E+02  0.91188000000E+02 0.  0.
    9900012    2    3    3    0    0  0.11464715142E+02 -0.18108125667E+02  0.34551725978E+02  0.50528859865E+02  0.30000000045E+02 0.  0.
        -12    1    3    3    0    0 -0.11464715142E+02  0.18108125667E+02 -0.34551725978E+02  0.40659140135E+02  0.00000000000E+00 0.  1.
         11    1    4    4    0    0  0.12720936095E+00  0.23767647917E+01 -0.18303837980E+00  0.23871942540E+01  0.51100000000E-03 0. -1.
        -11    1    4    4    0    0 -0.51954780749E+01  0.18572411679E+01  0.64171048832E+01  0.84629529436E+01  0.51100000000E-03 0.  1.
         12    1    4    4    0    0  0.16532983856E+02 -0.22342131627E+02  0.28317659474E+02  0.39678712667E+02  0.00000000000E+00 0. -1.
</event>
<event>
 8    1  0.5829710E-012  0.9118800E+02  0.7816164E-02  0.1184000E+00
        -11   -1    0    0    0    0  0.00000000000E+00  0.00000000000E+00  0.45593999997E+02  0.45594000000E+02  0.51100000000E-03 0.  1.
         11   -1    0    0    0    0 -0.00000000000E+00 -0.00000000000E+00 -0.45593999997E+02  0.45594000000E+02  0.51100000000E-03 0. -1.
         23    2    1    2    0    0  0.00000000000E+00  0.00000000000E+00  0.35527136788E-14  0.91188000000E+02  0.91188000000E+02 0.  0.
    9900012    2    3    3    0    0  0.25171357129E+02  0.16912510704E+02 -0.27083861327E+02  0.50528858563E+02  0.29999996088E+02 0.  0.
         12    1    3    3    0    0 -0.25171357129E+02 -0.16912510704E+02  0.27083861327E+02  0.40659141437E+02  0.00000000000E+00 0. -1.
         11    1    4    4    0    0 -0.13726148501E+01 -0.27753025421E+01 -0.96347760238E+01  0.10120043726E+02  0.51100000000E-03 0. -1.
        -11    1    4    4    0    0  0.24636992782E+01 -0.23234007673E+01 -0.36706140173E+01  0.49941378419E+01  0.51100000000E-03 0.  1.
        -12    1    4    4    0    0  0.24080272701E+02  0.22011214013E+02 -0.13778471286E+02  0.35414676995E+02  0.00000000000E+00 0.  1.
</event>
<event>
 8    1  0.5829710E-012  0.9118800E+02  0.7816164E-02  0.1184000E+00
        -11   -1    0    0    0    0  0.00000000000E+00  0.00000000000E+00  0.45593999997E+02  0.45594000000E+02  0.51100000000E-03 0. -1.
         11   -1    0    0    0    0 -0.00000000000E+00 -0.00000000000E+00 -0.45593999997E+02  0.45594000000E+02  0.51100000000E-03 0.  1.
         23    2    1    2    0    0 -0.17763568394E-14  0.17763568394E-14 -0.71054273576E-14  0.91188000000E+02  0.91188000000E+02 0.  0.
    9900012    2    3    3    0    0  0.53698354817E+01 -0.13186167512E+02  0.38084832855E+02  0.50528872607E+02  0.30000038776E+02 0.  0.
        -12    1    3    3    0    0 -0.53698354817E+01  0.13186167512E+02 -0.38084832855E+02  0.40659127393E+02  0.00000000000E+00 0.  1.
         11    1    4    4    0    0 -0.61009159854E+01  0.37994659366E+01  0.14717885082E+02  0.16379049387E+02  0.51100000000E-03 0. -1.
        -11    1    4    4    0    0 -0.31092033533E+01 -0.18952453329E+01  0.18088690356E+01  0.40658465063E+01  0.51100000000E-03 0.  1.
         12    1    4    4    0    0  0.14579954820E+02 -0.15090388116E+02  0.21558078738E+02  0.30083976714E+02  0.00000000000E+00 0. -1.
</event>
<event>
 8    1  0.5829710E-012  0.9118800E+02  0.7816164E-02  0.1184000E+00
        -11   -1    0    0    0    0  0.00000000000E+00  0.00000000000E+00  0.45593999997E+02  0.45594000000E+02  0.51100000000E-03 0.  1.
         11   -1    0    0    0    0 -0.00000000000E+00 -0.00000000000E+00 -0.45593999997E+02  0.45594000000E+02  0.51100000000E-03 0. -1.
         23    2    1    2    0    0  0.00000000000E+00  0.00000000000E+00 -0.53290705182E-14  0.91188000000E+02  0.91188000000E+02 0.  0.
    9900012    2    3    3    0    0  0.39055704528E+02  0.73822051672E+00 -0.11281536218E+02  0.50528854840E+02  0.29999984771E+02 0.  0.
         12    1    3    3    0    0 -0.39055704528E+02 -0.73822051672E+00  0.11281536218E+02  0.40659145160E+02  0.00000000000E+00 0. -1.
         11    1    4    4    0    0  0.17836561067E+02 -0.32325392302E+00 -0.18954174939E+02  0.26028986758E+02  0.51100000000E-03 0. -1.
        -11    1    4    4    0    0 -0.78252651753E+00 -0.90926909346E-01  0.13766060227E+01  0.15860831808E+01  0.51100000000E-03 0.  1.
        -12    1    4    4    0    0  0.22001669979E+02  0.11524013491E+01  0.62960326985E+01  0.22913784901E+02  0.00000000000E+00 0.  1.
</event>
<event>
 8    1  0.5829710E-012  0.9118800E+02  0.7816164E-02  0.1184000E+00
        -11   -1    0    0    0    0  0.00000000000E+00  0.00000000000E+00  0.45593999997E+02  0.45594000000E+02  0.51100000000E-03 0. -1.
         11   -1    0    0    0    0 -0.00000000000E+00 -0.00000000000E+00 -0.45593999997E+02  0.45594000000E+02  0.51100000000E-03 0.  1.
         23    2    1    2    0    0  0.88817841970E-15 -0.35527136788E-14  0.71054273576E-14  0.91188000000E+02  0.91188000000E+02 0.  0.
    9900012    2    3    3    0    0 -0.48773447079E+01  0.22348859511E+02 -0.33614070021E+02  0.50528859377E+02  0.29999998561E+02 0.  0.
         12    1    3    3    0    0  0.48773447079E+01 -0.22348859511E+02  0.33614070021E+02  0.40659140623E+02  0.00000000000E+00 0. -1.
         11    1    4    4    0    0  0.45902771889E+01 -0.12586103403E+01  0.44838119591E+00  0.47807730147E+01  0.51100000000E-03 0. -1.
        -11    1    4    4    0    0 -0.12654669602E+02  0.14323317343E+02 -0.14960622917E+02  0.24271759738E+02  0.51100000000E-03 0.  1.
         12    1    4    4    0    0  0.31870477048E+01  0.92841525078E+01 -0.19101828300E+02  0.21476326624E+02  0.00000000000E+00 0. -1.
</event>
<event>
 8    1  0.5829710E-012  0.9118800E+02  0.7816164E-02  0.1184000E+00
        -11   -1    0    0    0    0  0.00000000000E+00  0.00000000000E+00  0.45593999997E+02  0.45594000000E+02  0.51100000000E-03 0. -1.
         11   -1    0    0    0    0 -0.00000000000E+00 -0.00000000000E+00 -0.45593999997E+02  0.45594000000E+02  0.51100000000E-03 0.  1.
         23    2    1    2    0    0  0.35527136788E-14  0.88817841970E-15  0.00000000000E+00  0.91188000000E+02  0.91188000000E+02 0.  0.
    9900012    2    3    3    0    0  0.22287616278E+02 -0.57004032667E+01 -0.33525145844E+02  0.50528833252E+02  0.29999919153E+02 0.  0.
         12    1    3    3    0    0 -0.22287616278E+02  0.57004032667E+01  0.33525145844E+02  0.40659166748E+02  0.00000000000E+00 0. -1.
         11    1    4    4    0    0 -0.45830469953E+01  0.58864808699E+01 -0.66762632193E+01  0.10011366921E+02  0.51100000000E-03 0. -1.
        -11    1    4    4    0    0  0.72593879267E+01 -0.13309227169E+01 -0.11198186365E+02  0.13411541540E+02  0.51100000000E-03 0.  1.
        -12    1    4    4    0    0  0.19611275347E+02 -0.10255961420E+02 -0.15650696260E+02  0.27105924791E+02  0.00000000000E+00 0.  1.
</event>
<event>
 8    1  0.5829710E-012  0.9118800E+02  0.7816164E-02  0.1184000E+00
        -11   -1    0    0    0    0  0.00000000000E+00  0.00000000000E+00  0.45593999997E+02  0.45594000000E+02  0.51100000000E-03 0. -1.
         11   -1    0    0    0    0 -0.00000000000E+00 -0.00000000000E+00 -0.45593999997E+02  0.45594000000E+02  0.51100000000E-03 0.  1.
         23    2    1    2    0    0  0.35527136788E-14  0.17763568394E-14  0.35527136788E-14  0.91188000000E+02  0.91188000000E+02 0.  0.
    9900012    2    3    3    0    0 -0.31217171559E+02 -0.46493639731E+01 -0.25632719715E+02  0.50528871806E+02  0.30000036341E+02 0.  0.
         12    1    3    3    0    0  0.31217171559E+02  0.46493639731E+01  0.25632719715E+02  0.40659128194E+02  0.00000000000E+00 0. -1.
         11    1    4    4    0    0 -0.62776392647E+01  0.87539671441E+01 -0.27453935850E+01  0.11116558896E+02  0.51100000000E-03 0. -1.
        -11    1    4    4    0    0 -0.41019038933E+00  0.20063268970E+01 -0.49085108228E+01  0.53185601934E+01  0.51100000000E-03 0.  1.
         12    1    4    4    0    0 -0.24529341905E+02 -0.15409658014E+02 -0.17978815307E+02  0.34093752716E+02  0.00000000000E+00 0. -1.
</event>
<event>
 8    1  0.5829710E-012  0.9118800E+02  0.7816164E-02  0.1184000E+00
        -11   -1    0    0    0    0  0.00000000000E+00  0.00000000000E+00  0.45593999997E+02  0.45594000000E+02  0.51100000000E-03 0.  1.
         11   -1    0    0    0    0 -0.00000000000E+00 -0.00000000000E+00 -0.45593999997E+02  0.45594000000E+02  0.51100000000E-03 0. -1.
         23    2    1    2    0    0  0.00000000000E+00  0.00000000000E+00  0.17763568394E-14  0.91188000000E+02  0.91188000000E+02 0.  0.
    9900012    2    3    3    0    0  0.34536930342E+02  0.18632068921E+02  0.10640120179E+02  0.50528859489E+02  0.29999998902E+02 0.  0.
        -12    1    3    3    0    0 -0.34536930342E+02 -0.18632068921E+02 -0.10640120179E+02  0.40659140511E+02  0.00000000000E+00 0.  1.
         11    1    4    4    0    0  0.15841348167E+02  0.10875354621E+02  0.43879834119E+00  0.19220150731E+02  0.51100000000E-03 0. -1.
        -11    1    4    4    0    0  0.15559950393E+02 -0.37500122949E+01  0.10895858383E+02  0.19362189407E+02  0.51100000000E-03 0.  1.
         12    1    4    4    0    0  0.31356317817E+01  0.11506726595E+02 -0.69453654550E+00  0.11946519351E+02  0.00000000000E+00 0. -1.
</event>
<event>
 8    1  0.5829710E-012  0.9118800E+02  0.7816164E-02  0.1184000E+00
        -11   -1    0    0    0    0  0.00000000000E+00  0.00000000000E+00  0.45593999997E+02  0.45594000000E+02  0.51100000000E-03 0. -1.
         11   -1    0    0    0    0 -0.00000000000E+00 -0.00000000000E+00 -0.45593999997E+02  0.45594000000E+02  0.51100000000E-03 0.  1.
         23    2    1    2    0    0 -0.71054273576E-14 -0.17763568394E-14 -0.44408920985E-15  0.91188000000E+02  0.91188000000E+02 0.  0.
    9900012    2    3    3    0    0  0.37476352924E+02  0.15594712470E+02 -0.23437085753E+01  0.50528867503E+02  0.30000023263E+02 0.  0.
        -12    1    3    3    0    0 -0.37476352924E+02 -0.15594712470E+02  0.23437085753E+01  0.40659132497E+02  0.00000000000E+00 0.  1.
         11    1    4    4    0    0  0.95872740017E+01 -0.49236744363E+00  0.40994058094E+01  0.10438552425E+02  0.51100000000E-03 0. -1.
        -11    1    4    4    0    0  0.23539141536E+02  0.10362518494E+02  0.53582172701E+01  0.26271343064E+02  0.51100000000E-03 0.  1.
        -12    1    4    4    0    0  0.43499373858E+01  0.57245614194E+01 -0.11801331655E+02  0.13818972014E+02  0.00000000000E+00 0.  1.
</event>
<event>
 8    1  0.5829710E-012  0.9118800E+02  0.7816164E-02  0.1184000E+00
        -11   -1    0    0    0    0  0.00000000000E+00  0.00000000000E+00  0.45593999997E+02  0.45594000000E+02  0.51100000000E-03 0. -1.
         11   -1    0    0    0    0 -0.00000000000E+00 -0.00000000000E+00 -0.45593999997E+02  0.45594000000E+02  0.51100000000E-03 0.  1.
         23    2    1    2    0    0  0.00000000000E+00  0.00000000000E+00  0.00000000000E+00  0.91188000000E+02  0.91188000000E+02 0.  0.
    9900012    2    3    3    0    0 -0.15612303588E+02 -0.16468923959E+02 -0.33737165834E+02  0.50528857877E+02  0.29999994003E+02 0.  0.
         12    1    3    3    0    0  0.15612303588E+02  0.16468923959E+02  0.33737165834E+02  0.40659142123E+02  0.00000000000E+00 0. -1.
         11    1    4    4    0    0 -0.99635923456E+01 -0.16098474426E+01  0.32683121933E+00  0.10098098837E+02  0.51100000000E-03 0. -1.
        -11    1    4    4    0    0  0.45453526899E+01 -0.54954035399E+01 -0.67983465372E+01  0.98527766158E+01  0.51100000000E-03 0.  1.
        -12    1    4    4    0    0 -0.10194063933E+02 -0.93636729766E+01 -0.27265650516E+02  0.30577982424E+02  0.00000000000E+00 0.  1.
</event>
<event>
 8    1  0.5829710E-012  0.9118800E+02  0.7816164E-02  0.1184000E+00
        -11   -1    0    0    0    0  0.00000000000E+00  0.00000000000E+00  0.45593999997E+02  0.45594000000E+02  0.51100000000E-03 0. -1.
         11   -1    0    0    0    0 -0.00000000000E+00 -0.00000000000E+00 -0.45593999997E+02  0.45594000000E+02  0.51100000000E-03 0.  1.
         23    2    1    2    0    0 -0.35527136788E-14  0.35527136788E-14 -0.35527136788E-14  0.91188000000E+02  0.91188000000E+02 0.  0.
    9900012    2    3    3    0    0  0.24409423675E+02 -0.22385974329E+02  0.23584193762E+02  0.50528855811E+02  0.29999987723E+02 0.  0.
        -12    1    3    3    0    0 -0.24409423675E+02  0.22385974329E+02 -0.23584193762E+02  0.40659144189E+02  0.00000000000E+00 0.  1.
         11    1    4    4    0    0  0.20827776827E+02 -0.41593880816E+01  0.21529536080E+02  0.30242647385E+02  0.51100000000E-03 0. -1.
        -11    1    4    4    0    0  0.86876971308E+00 -0.64299578761E+01  0.45530663523E+01  0.79265082207E+01  0.51100000000E-03 0.  1.
        -12    1    4    4    0    0  0.27128771350E+01 -0.11796628371E+02 -0.24984086712E+01  0.12359700205E+02  0.00000000000E+00 0.  1.
</event>
<event>
 8    1  0.5829710E-012  0.9118800E+02  0.7816164E-02  0.1184000E+00
        -11   -1    0    0    0    0  0.00000000000E+00  0.00000000000E+00  0.45593999997E+02  0.45594000000E+02  0.51100000000E-03 0. -1.
         11   -1    0    0    0    0 -0.00000000000E+00 -0.00000000000E+00 -0.45593999997E+02  0.45594000000E+02  0.51100000000E-03 0.  1.
         23    2    1    2    0    0 -0.88817841970E-15 -0.88817841970E-15  0.00000000000E+00  0.91188000000E+02  0.91188000000E+02 0.  0.
    9900012    2    3    3    0    0 -0.47392123392E+01 -0.71667305079E+01 -0.39740943942E+02  0.50528870826E+02  0.30000033363E+02 0.  0.
         12    1    3    3    0    0  0.47392123392E+01  0.71667305079E+01  0.39740943942E+02  0.40659129174E+02  0.00000000000E+00 0. -1.
         11    1    4    4    0    0  0.15146429710E+01  0.16970807529E+01  0.34145569519E+01  0.41028558165E+01  0.51100000000E-03 0. -1.
        -11    1    4    4    0    0 -0.99590119782E+01 -0.36009288583E+01 -0.24476969408E+02  0.26669657663E+02  0.51100000000E-03 0.  1.
        -12    1    4    4    0    0  0.37051566680E+01 -0.52628824025E+01 -0.18678531486E+02  0.19756357346E+02  0.00000000000E+00 0.  1.
</event>
<event>
 8    1  0.5829710E-012  0.9118800E+02  0.7816164E-02  0.1184000E+00
        -11   -1    0    0    0    0  0.00000000000E+00  0.00000000000E+00  0.45593999997E+02  0.45594000000E+02  0.51100000000E-03 0. -1.
         11   -1    0    0    0    0 -0.00000000000E+00 -0.00000000000E+00 -0.45593999997E+02  0.45594000000E+02  0.51100000000E-03 0.  1.
         23    2    1    2    0    0  0.00000000000E+00  0.00000000000E+00  0.00000000000E+00  0.91188000000E+02  0.91188000000E+02 0.  0.
    9900012    2    3    3    0    0  0.95862103951E+01 -0.22750954611E+02  0.32305801560E+02  0.50528853675E+02  0.29999981229E+02 0.  0.
        -12    1    3    3    0    0 -0.95862103951E+01  0.22750954611E+02 -0.32305801560E+02  0.40659146325E+02  0.00000000000E+00 0.  1.
         11    1    4    4    0    0  0.18995114608E+01 -0.28581738805E+01 -0.11656955630E+01  0.36243824477E+01  0.51100000000E-03 0. -1.
        -11    1    4    4    0    0 -0.50607590223E+01 -0.12525789427E+01 -0.13647963158E+01  0.53891469765E+01  0.51100000000E-03 0.  1.
         12    1    4    4    0    0  0.12747457957E+02 -0.18640201788E+02  0.34836293439E+02  0.41515324250E+02  0.00000000000E+00 0. -1.
</event>
<event>
 8    1  0.6366608E-012  0.9118800E+02  0.7816164E-02  0.1184000E+00
        -11   -1    0    0    0    0  0.00000000000E+00  0.00000000000E+00  0.45593999997E+02  0.45594000000E+02  0.51100000000E-03 0. -1.
         11   -1    0    0    0    0 -0.00000000000E+00 -0.00000000000E+00 -0.45593999997E+02  0.45594000000E+02  0.51100000000E-03 0.  1.
         23    2    1    2    0    0  0.35527136788E-14  0.00000000000E+00  0.00000000000E+00  0.91188000000E+02  0.91188000000E+02 0.  0.
    9900012    2    3    3    0    0  0.22001812952E+02  0.65531852770E+01 -0.33558025640E+02  0.50528867013E+02  0.30000021772E+02 0.  0.
         12    1    3    3    0    0 -0.22001812952E+02 -0.65531852770E+01  0.33558025640E+02  0.40659132987E+02  0.00000000000E+00 0. -1.
         11    1    4    4    0    0  0.23336073334E+01 -0.66925023517E+01 -0.18785102861E+02  0.20077733953E+02  0.51100000000E-03 0. -1.
        -11    1    4    4    0    0  0.21648562228E+01  0.32390549288E+01 -0.84765829154E+01  0.93290158902E+01  0.51100000000E-03 0.  1.
         12    1    4    4    0    0  0.17503349396E+02  0.10006632700E+02 -0.62963398629E+01  0.21122117170E+02  0.00000000000E+00 0. -1.
</event>
<event>
 8    1  0.5829710E-012  0.9118800E+02  0.7816164E-02  0.1184000E+00
        -11   -1    0    0    0    0  0.00000000000E+00  0.00000000000E+00  0.45593999997E+02  0.45594000000E+02  0.51100000000E-03 0.  1.
         11   -1    0    0    0    0 -0.00000000000E+00 -0.00000000000E+00 -0.45593999997E+02  0.45594000000E+02  0.51100000000E-03 0. -1.
         23    2    1    2    0    0  0.71054273576E-14  0.35527136788E-14  0.17763568394E-14  0.91188000000E+02  0.91188000000E+02 0.  0.
    9900012    2    3    3    0    0 -0.38776595388E+02 -0.99656581998E+01 -0.70870940355E+01  0.50528860866E+02  0.30000003089E+02 0.  0.
         12    1    3    3    0    0  0.38776595388E+02  0.99656581998E+01  0.70870940355E+01  0.40659139134E+02  0.00000000000E+00 0. -1.
         11    1    4    4    0    0 -0.25398744913E+02 -0.15460974555E+02 -0.46989960591E+01  0.30103463946E+02  0.51100000000E-03 0. -1.
        -11    1    4    4    0    0 -0.39987899504E+01 -0.47786878851E+01  0.37534071319E+00  0.62423601212E+01  0.51100000000E-03 0.  1.
         12    1    4    4    0    0 -0.93790605247E+01  0.10274004240E+02 -0.27634386896E+01  0.14183036799E+02  0.00000000000E+00 0. -1.
</event>
<event>
 8    1  0.5829710E-012  0.9118800E+02  0.7816164E-02  0.1184000E+00
        -11   -1    0    0    0    0  0.00000000000E+00  0.00000000000E+00  0.45593999997E+02  0.45594000000E+02  0.51100000000E-03 0. -1.
         11   -1    0    0    0    0 -0.00000000000E+00 -0.00000000000E+00 -0.45593999997E+02  0.45594000000E+02  0.51100000000E-03 0.  1.
         23    2    1    2    0    0  0.00000000000E+00 -0.35527136788E-14 -0.35527136788E-14  0.91188000000E+02  0.91188000000E+02 0.  0.
    9900012    2    3    3    0    0 -0.10688865226E+02  0.31870092497E+02 -0.22873850867E+02  0.50528835116E+02  0.29999924819E+02 0.  0.
         12    1    3    3    0    0  0.10688865226E+02 -0.31870092497E+02  0.22873850867E+02  0.40659164884E+02  0.00000000000E+00 0. -1.
         11    1    4    4    0    0 -0.41826299195E+01  0.21449582713E+01  0.89665595669E+00  0.47853141167E+01  0.51100000000E-03 0. -1.
        -11    1    4    4    0    0 -0.38125940113E+01 -0.37994906969E+01 -0.23828301894E+01  0.58864150910E+01  0.51100000000E-03 0.  1.
        -12    1    4    4    0    0 -0.26936412949E+01  0.33524624922E+02 -0.21387676634E+02  0.39857105909E+02  0.00000000000E+00 0.  1.
</event>
<event>
 8    1  0.5829710E-012  0.9118800E+02  0.7816164E-02  0.1184000E+00
        -11   -1    0    0    0    0  0.00000000000E+00  0.00000000000E+00  0.45593999997E+02  0.45594000000E+02  0.51100000000E-03 0. -1.
         11   -1    0    0    0    0 -0.00000000000E+00 -0.00000000000E+00 -0.45593999997E+02  0.45594000000E+02  0.51100000000E-03 0.  1.
         23    2    1    2    0    0  0.00000000000E+00  0.00000000000E+00  0.00000000000E+00  0.91188000000E+02  0.91188000000E+02 0.  0.
    9900012    2    3    3    0    0 -0.99015745324E+01  0.99086527774E+01  0.38170075458E+02  0.50528717683E+02  0.29999567867E+02 0.  0.
        -12    1    3    3    0    0  0.99015745324E+01 -0.99086527774E+01 -0.38170075458E+02  0.40659282317E+02  0.00000000000E+00 0.  1.
         11    1    4    4    0    0  0.56037479104E+01 -0.21452770470E+01  0.11765275559E+02  0.13207040300E+02  0.51100000000E-03 0. -1.
        -11    1    4    4    0    0  0.30497755073E+01 -0.19445998898E+00  0.35898495606E+00  0.30769816041E+01  0.51100000000E-03 0.  1.
         12    1    4    4    0    0 -0.18555097950E+02  0.12248389813E+02  0.26045814942E+02  0.34244695779E+02  0.00000000000E+00 0. -1.
</event>
<event>
 8    1  0.5829710E-012  0.9118800E+02  0.7816164E-02  0.1184000E+00
        -11   -1    0    0    0    0  0.00000000000E+00  0.00000000000E+00  0.45593999997E+02  0.45594000000E+02  0.51100000000E-03 0.  1.
         11   -1    0    0    0    0 -0.00000000000E+00 -0.00000000000E+00 -0.45593999997E+02  0.45594000000E+02  0.51100000000E-03 0. -1.
         23    2    1    2    0    0  0.00000000000E+00  0.00000000000E+00  0.88817841970E-15  0.91188000000E+02  0.91188000000E+02 0.  0.
    9900012    2    3    3    0    0  0.22390653993E+02 -0.33433624579E+02  0.58324326348E+01  0.50528857004E+02  0.29999991349E+02 0.  0.
        -12    1    3    3    0    0 -0.22390653993E+02  0.33433624579E+02 -0.58324326348E+01  0.40659142996E+02  0.00000000000E+00 0.  1.
         11    1    4    4    0    0 -0.19558080986E+01 -0.82608414440E+01 -0.55115443735E+00  0.85070828229E+01  0.51100000000E-03 0. -1.
        -11    1    4    4    0    0  0.12908984566E+02 -0.16651736928E+01  0.88859513148E+01  0.15759911706E+02  0.51100000000E-03 0.  1.
         12    1    4    4    0    0  0.11437477525E+02 -0.23507609442E+02 -0.25023642427E+01  0.26261862475E+02  0.00000000000E+00 0. -1.
</event>
<event>
 8    1  0.5829710E-012  0.9118800E+02  0.7816164E-02  0.1184000E+00
        -11   -1    0    0    0    0  0.00000000000E+00  0.00000000000E+00  0.45593999997E+02  0.45594000000E+02  0.51100000000E-03 0. -1.
         11   -1    0    0    0    0 -0.00000000000E+00 -0.00000000000E+00 -0.45593999997E+02  0.45594000000E+02  0.51100000000E-03 0.  1.
         23    2    1    2    0    0  0.35527136788E-14  0.00000000000E+00  0.35527136788E-14  0.91188000000E+02  0.91188000000E+02 0.  0.
    9900012    2    3    3    0    0  0.25702802145E+02  0.21528981260E+02 -0.23000761559E+02  0.50528854601E+02  0.29999984046E+02 0.  0.
         12    1    3    3    0    0 -0.25702802145E+02 -0.21528981260E+02  0.23000761559E+02  0.40659145399E+02  0.00000000000E+00 0. -1.
         11    1    4    4    0    0  0.54821213300E+01  0.49730488327E+01 -0.62074580967E+01  0.96600934391E+01  0.51100000000E-03 0. -1.
        -11    1    4    4    0    0 -0.81241211361E+00  0.63902653922E+01 -0.16273511116E+02  0.17502076149E+02  0.51100000000E-03 0.  1.
         12    1    4    4    0    0  0.21033092929E+02  0.10165667036E+02 -0.51979234695E+00  0.23366685013E+02  0.00000000000E+00 0. -1.
</event>
<event>
 8    1  0.5829710E-012  0.9118800E+02  0.7816164E-02  0.1184000E+00
        -11   -1    0    0    0    0  0.00000000000E+00  0.00000000000E+00  0.45593999997E+02  0.45594000000E+02  0.51100000000E-03 0. -1.
         11   -1    0    0    0    0 -0.00000000000E+00 -0.00000000000E+00 -0.45593999997E+02  0.45594000000E+02  0.51100000000E-03 0.  1.
         23    2    1    2    0    0  0.00000000000E+00 -0.88817841970E-15  0.71054273576E-14  0.91188000000E+02  0.91188000000E+02 0.  0.
    9900012    2    3    3    0    0 -0.25663281063E+02  0.55954153327E+01 -0.31036317393E+02  0.50528860007E+02  0.30000000476E+02 0.  0.
         12    1    3    3    0    0  0.25663281063E+02 -0.55954153327E+01  0.31036317393E+02  0.40659139993E+02  0.00000000000E+00 0. -1.
         11    1    4    4    0    0 -0.89994099516E+01  0.60301095648E+01 -0.21694722936E+02  0.24248971203E+02  0.51100000000E-03 0. -1.
        -11    1    4    4    0    0  0.60551166795E+00  0.30680197684E+01 -0.80214557991E+01  0.86094798378E+01  0.51100000000E-03 0.  1.
         12    1    4    4    0    0 -0.17269382780E+02 -0.35027140005E+01 -0.13201386578E+01  0.17670408966E+02  0.00000000000E+00 0. -1.
</event>
<event>
 8    1  0.5829710E-012  0.9118800E+02  0.7816164E-02  0.1184000E+00
        -11   -1    0    0    0    0  0.00000000000E+00  0.00000000000E+00  0.45593999997E+02  0.45594000000E+02  0.51100000000E-03 0. -1.
         11   -1    0    0    0    0 -0.00000000000E+00 -0.00000000000E+00 -0.45593999997E+02  0.45594000000E+02  0.51100000000E-03 0.  1.
         23    2    1    2    0    0  0.00000000000E+00  0.00000000000E+00  0.00000000000E+00  0.91188000000E+02  0.91188000000E+02 0.  0.
    9900012    2    3    3    0    0  0.17112306602E+02 -0.17229119716E+02 -0.32611222261E+02  0.50528863010E+02  0.30000009607E+02 0.  0.
         12    1    3    3    0    0 -0.17112306602E+02  0.17229119716E+02  0.32611222261E+02  0.40659136990E+02  0.00000000000E+00 0. -1.
         11    1    4    4    0    0 -0.44310561114E+01  0.16405981822E+01 -0.13385589034E+02  0.14195063040E+02  0.51100000000E-03 0. -1.
        -11    1    4    4    0    0  0.91660341711E+00 -0.41554158130E+01 -0.70221848569E+01  0.82108905015E+01  0.51100000000E-03 0.  1.
         12    1    4    4    0    0  0.20626759296E+02 -0.14714302085E+02 -0.12203448370E+02  0.28122909469E+02  0.00000000000E+00 0. -1.
</event>
<event>
 8    1  0.5829710E-012  0.9118800E+02  0.7816164E-02  0.1184000E+00
        -11   -1    0    0    0    0  0.00000000000E+00  0.00000000000E+00  0.45593999997E+02  0.45594000000E+02  0.51100000000E-03 0. -1.
         11   -1    0    0    0    0 -0.00000000000E+00 -0.00000000000E+00 -0.45593999997E+02  0.45594000000E+02  0.51100000000E-03 0.  1.
         23    2    1    2    0    0  0.00000000000E+00  0.00000000000E+00  0.00000000000E+00  0.91188000000E+02  0.91188000000E+02 0.  0.
    9900012    2    3    3    0    0  0.26944314339E+02 -0.14376215803E+02 -0.26841978142E+02  0.50528887287E+02  0.30000083397E+02 0.  0.
         12    1    3    3    0    0 -0.26944314339E+02  0.14376215803E+02  0.26841978142E+02  0.40659112713E+02  0.00000000000E+00 0. -1.
         11    1    4    4    0    0  0.79017891772E+01 -0.15923486211E+02 -0.16925376659E+02  0.24545143321E+02  0.51100000000E-03 0. -1.
        -11    1    4    4    0    0  0.19965016300E+01 -0.23357117793E+01 -0.77876291356E+01  0.83719015814E+01  0.51100000000E-03 0.  1.
        -12    1    4    4    0    0  0.17046023532E+02  0.38829821876E+01 -0.21289723472E+01  0.17611842385E+02  0.00000000000E+00 0.  1.
</event>
<event>
 8    1  0.5829710E-012  0.9118800E+02  0.7816164E-02  0.1184000E+00
        -11   -1    0    0    0    0  0.00000000000E+00  0.00000000000E+00  0.45593999997E+02  0.45594000000E+02  0.51100000000E-03 0. -1.
         11   -1    0    0    0    0 -0.00000000000E+00 -0.00000000000E+00 -0.45593999997E+02  0.45594000000E+02  0.51100000000E-03 0.  1.
         23    2    1    2    0    0  0.00000000000E+00  0.00000000000E+00  0.66613381478E-15  0.91188000000E+02  0.91188000000E+02 0.  0.
    9900012    2    3    3    0    0  0.17634441305E+02  0.36633314707E+02 -0.43917863700E+00  0.50528854110E+02  0.29999982554E+02 0.  0.
         12    1    3    3    0    0 -0.17634441305E+02 -0.36633314707E+02  0.43917863700E+00  0.40659145890E+02  0.00000000000E+00 0. -1.
         11    1    4    4    0    0  0.10714902339E+02  0.16645858028E+02  0.29618526386E+01  0.20016650392E+02  0.51100000000E-03 0. -1.
        -11    1    4    4    0    0  0.13830741932E+02  0.15238851646E+02  0.17785800899E+01  0.20656121835E+02  0.51100000000E-03 0.  1.
         12    1    4    4    0    0 -0.69112029649E+01  0.47486050331E+01 -0.51796113655E+01  0.98560818828E+01  0.00000000000E+00 0. -1.
</event>
<event>
 8    1  0.5829710E-012  0.9118800E+02  0.7816164E-02  0.1184000E+00
        -11   -1    0    0    0    0  0.00000000000E+00  0.00000000000E+00  0.45593999997E+02  0.45594000000E+02  0.51100000000E-03 0.  1.
         11   -1    0    0    0    0 -0.00000000000E+00 -0.00000000000E+00 -0.45593999997E+02  0.45594000000E+02  0.51100000000E-03 0. -1.
         23    2    1    2    0    0  0.00000000000E+00 -0.35527136788E-14  0.17763568394E-14  0.91188000000E+02  0.91188000000E+02 0.  0.
    9900012    2    3    3    0    0 -0.27743089285E+02  0.26240315481E+02 -0.13961819929E+02  0.50528861109E+02  0.30000003827E+02 0.  0.
        -12    1    3    3    0    0  0.27743089285E+02 -0.26240315481E+02  0.13961819929E+02  0.40659138891E+02  0.00000000000E+00 0.  1.
         11    1    4    4    0    0 -0.26096763617E+02  0.16505474074E+02  0.93196043337E+00  0.30892398679E+02  0.51100000000E-03 0.  1.
        -11    1    4    4    0    0  0.78513114698E-01  0.61632192275E+01 -0.25487215954E+01  0.66698888737E+01  0.51100000000E-03 0. -1.
        -12    1    4    4    0    0 -0.17248387832E+01  0.35716221796E+01 -0.12345058767E+02  0.12966573556E+02  0.00000000000E+00 0.  1.
</event>
<event>
 8    1  0.5829710E-012  0.9118800E+02  0.7816164E-02  0.1184000E+00
        -11   -1    0    0    0    0  0.00000000000E+00  0.00000000000E+00  0.45593999997E+02  0.45594000000E+02  0.51100000000E-03 0. -1.
         11   -1    0    0    0    0 -0.00000000000E+00 -0.00000000000E+00 -0.45593999997E+02  0.45594000000E+02  0.51100000000E-03 0.  1.
         23    2    1    2    0    0  0.00000000000E+00  0.00000000000E+00  0.35527136788E-14  0.91188000000E+02  0.91188000000E+02 0.  0.
    9900012    2    3    3    0    0 -0.18958883481E+02 -0.33769921146E+02  0.12382210142E+02  0.50528856316E+02  0.29999989259E+02 0.  0.
        -12    1    3    3    0    0  0.18958883481E+02  0.33769921146E+02 -0.12382210142E+02  0.40659143684E+02  0.00000000000E+00 0.  1.
         11    1    4    4    0    0 -0.19763794546E+02 -0.22133913046E+02  0.48392908683E+01  0.30065535385E+02  0.51100000000E-03 0. -1.
        -11    1    4    4    0    0 -0.43313635440E+01 -0.72426370872E+01  0.10166863904E+02  0.13212933967E+02  0.51100000000E-03 0.  1.
        -12    1    4    4    0    0  0.51362746086E+01 -0.43933710130E+01 -0.26239446301E+01  0.72503869645E+01  0.00000000000E+00 0.  1.
</event>
<event>
 8    1  0.5829710E-012  0.9118800E+02  0.7816164E-02  0.1184000E+00
        -11   -1    0    0    0    0  0.00000000000E+00  0.00000000000E+00  0.45593999997E+02  0.45594000000E+02  0.51100000000E-03 0. -1.
         11   -1    0    0    0    0 -0.00000000000E+00 -0.00000000000E+00 -0.45593999997E+02  0.45594000000E+02  0.51100000000E-03 0.  1.
         23    2    1    2    0    0 -0.88817841970E-15 -0.88817841970E-15  0.00000000000E+00  0.91188000000E+02  0.91188000000E+02 0.  0.
    9900012    2    3    3    0    0  0.29584388176E+01  0.74758599572E+01  0.39856300117E+02  0.50528862020E+02  0.30000006595E+02 0.  0.
        -12    1    3    3    0    0 -0.29584388176E+01 -0.74758599572E+01 -0.39856300117E+02  0.40659137980E+02  0.00000000000E+00 0.  1.
         11    1    4    4    0    0 -0.60546706203E+01  0.56183758542E+01  0.15802094311E+02  0.17830630063E+02  0.51100000000E-03 0. -1.
        -11    1    4    4    0    0 -0.29922003490E+01  0.51248261810E+01  0.17819194269E+02  0.18781394809E+02  0.51100000000E-03 0.  1.
         12    1    4    4    0    0  0.12005309787E+02 -0.32673420780E+01  0.62350115362E+01  0.13916837147E+02  0.00000000000E+00 0. -1.
</event>
<event>
 8    1  0.5829710E-012  0.9118800E+02  0.7816164E-02  0.1184000E+00
        -11   -1    0    0    0    0  0.00000000000E+00  0.00000000000E+00  0.45593999997E+02  0.45594000000E+02  0.51100000000E-03 0. -1.
         11   -1    0    0    0    0 -0.00000000000E+00 -0.00000000000E+00 -0.45593999997E+02  0.45594000000E+02  0.51100000000E-03 0.  1.
         23    2    1    2    0    0 -0.17763568394E-14  0.00000000000E+00  0.00000000000E+00  0.91188000000E+02  0.91188000000E+02 0.  0.
    9900012    2    3    3    0    0 -0.14220569520E+02  0.12402566717E+02  0.36015514036E+02  0.50528861914E+02  0.30000006273E+02 0.  0.
        -12    1    3    3    0    0  0.14220569520E+02 -0.12402566717E+02 -0.36015514036E+02  0.40659138086E+02  0.00000000000E+00 0.  1.
         11    1    4    4    0    0 -0.11022078369E+01  0.17221293918E+01 -0.98986130884E+00  0.22716552180E+01  0.51100000000E-03 0.  1.
        -11    1    4    4    0    0 -0.11062916118E+02  0.12985322735E+02  0.40287664686E+02  0.43750458805E+02  0.51100000000E-03 0. -1.
         12    1    4    4    0    0 -0.20554455654E+01 -0.23048854107E+01 -0.32822893412E+01  0.45067478904E+01  0.00000000000E+00 0. -1.
</event>
<event>
 8    1  0.5829710E-012  0.9118800E+02  0.7816164E-02  0.1184000E+00
        -11   -1    0    0    0    0  0.00000000000E+00  0.00000000000E+00  0.45593999997E+02  0.45594000000E+02  0.51100000000E-03 0. -1.
         11   -1    0    0    0    0 -0.00000000000E+00 -0.00000000000E+00 -0.45593999997E+02  0.45594000000E+02  0.51100000000E-03 0.  1.
         23    2    1    2    0    0  0.00000000000E+00 -0.44408920985E-15  0.00000000000E+00  0.91188000000E+02  0.91188000000E+02 0.  0.
    9900012    2    3    3    0    0  0.54208026561E+01  0.26726315001E+01 -0.40207405150E+02  0.50528886760E+02  0.30000081797E+02 0.  0.
         12    1    3    3    0    0 -0.54208026561E+01 -0.26726315001E+01  0.40207405150E+02  0.40659113240E+02  0.00000000000E+00 0. -1.
         11    1    4    4    0    0 -0.19863585574E+01  0.11019772690E+02 -0.14504678267E+02  0.18323937960E+02  0.51100000000E-03 0. -1.
        -11    1    4    4    0    0 -0.22228381779E+00  0.42827874141E+01 -0.34470571491E+01  0.55021706063E+01  0.51100000000E-03 0.  1.
        -12    1    4    4    0    0  0.76294450313E+01 -0.12629928604E+02 -0.22255669733E+02  0.26702778194E+02  0.00000000000E+00 0.  1.
</event>
<event>
 8    1  0.5829710E-012  0.9118800E+02  0.7816164E-02  0.1184000E+00
        -11   -1    0    0    0    0  0.00000000000E+00  0.00000000000E+00  0.45593999997E+02  0.45594000000E+02  0.51100000000E-03 0. -1.
         11   -1    0    0    0    0 -0.00000000000E+00 -0.00000000000E+00 -0.45593999997E+02  0.45594000000E+02  0.51100000000E-03 0.  1.
         23    2    1    2    0    0  0.00000000000E+00  0.00000000000E+00  0.00000000000E+00  0.91188000000E+02  0.91188000000E+02 0.  0.
    9900012    2    3    3    0    0 -0.26685573098E+02  0.20159485498E+02  0.23122242697E+02  0.50528895553E+02  0.30000108523E+02 0.  0.
        -12    1    3    3    0    0  0.26685573098E+02 -0.20159485498E+02 -0.23122242697E+02  0.40659104447E+02  0.00000000000E+00 0.  1.
         11    1    4    4    0    0  0.39812300554E+01 -0.14690631212E+01  0.41729869362E+01  0.59516518244E+01  0.51100000000E-03 0. -1.
        -11    1    4    4    0    0 -0.14709613123E+01  0.38915468319E+01 -0.18812958786E+01  0.45658666615E+01  0.51100000000E-03 0.  1.
         12    1    4    4    0    0 -0.29195841841E+02  0.17737001787E+02  0.20830551640E+02  0.40011377067E+02  0.00000000000E+00 0. -1.
</event>
<event>
 8    1  0.5829710E-012  0.9118800E+02  0.7816164E-02  0.1184000E+00
        -11   -1    0    0    0    0  0.00000000000E+00  0.00000000000E+00  0.45593999997E+02  0.45594000000E+02  0.51100000000E-03 0.  1.
         11   -1    0    0    0    0 -0.00000000000E+00 -0.00000000000E+00 -0.45593999997E+02  0.45594000000E+02  0.51100000000E-03 0. -1.
         23    2    1    2    0    0 -0.17763568394E-14  0.00000000000E+00  0.00000000000E+00  0.91188000000E+02  0.91188000000E+02 0.  0.
    9900012    2    3    3    0    0  0.10229437565E+02  0.24288478331E+02  0.30961176195E+02  0.50528855839E+02  0.29999987807E+02 0.  0.
        -12    1    3    3    0    0 -0.10229437565E+02 -0.24288478331E+02 -0.30961176195E+02  0.40659144161E+02  0.00000000000E+00 0.  1.
         11    1    4    4    0    0 -0.18362814053E+01  0.10576563185E+02  0.17449491251E+02  0.20487077962E+02  0.51100000000E-03 0. -1.
        -11    1    4    4    0    0  0.10938930996E+02  0.13963054717E+02  0.18081032006E+02  0.25328853647E+02  0.51100000000E-03 0.  1.
        -12    1    4    4    0    0  0.11267879744E+01 -0.25113957146E+00 -0.45693470627E+01  0.47129242305E+01  0.00000000000E+00 0.  1.
</event>
<event>
 8    1  0.5829710E-012  0.9118800E+02  0.7816164E-02  0.1184000E+00
        -11   -1    0    0    0    0  0.00000000000E+00  0.00000000000E+00  0.45593999997E+02  0.45594000000E+02  0.51100000000E-03 0. -1.
         11   -1    0    0    0    0 -0.00000000000E+00 -0.00000000000E+00 -0.45593999997E+02  0.45594000000E+02  0.51100000000E-03 0.  1.
         23    2    1    2    0    0 -0.88817841970E-15  0.00000000000E+00 -0.35527136788E-14  0.91188000000E+02  0.91188000000E+02 0.  0.
    9900012    2    3    3    0    0 -0.57127632881E+01 -0.35476358328E+02  0.19025169386E+02  0.50528871446E+02  0.30000035247E+02 0.  0.
        -12    1    3    3    0    0  0.57127632881E+01  0.35476358328E+02 -0.19025169386E+02  0.40659128554E+02  0.00000000000E+00 0.  1.
         11    1    4    4    0    0 -0.53850065188E+01 -0.15563363259E+01  0.54907525103E+01  0.78465815078E+01  0.51100000000E-03 0. -1.
        -11    1    4    4    0    0  0.82073459819E+01 -0.74385824886E+01  0.94522008026E+01  0.14561495039E+02  0.51100000000E-03 0.  1.
         12    1    4    4    0    0 -0.85351027511E+01 -0.26481439513E+02  0.40822160735E+01  0.28120794899E+02  0.00000000000E+00 0. -1.
</event>
<event>
 8    1  0.5829710E-012  0.9118800E+02  0.7816164E-02  0.1184000E+00
        -11   -1    0    0    0    0  0.00000000000E+00  0.00000000000E+00  0.45593999997E+02  0.45594000000E+02  0.51100000000E-03 0.  1.
         11   -1    0    0    0    0 -0.00000000000E+00 -0.00000000000E+00 -0.45593999997E+02  0.45594000000E+02  0.51100000000E-03 0. -1.
         23    2    1    2    0    0  0.00000000000E+00  0.00000000000E+00  0.00000000000E+00  0.91188000000E+02  0.91188000000E+02 0.  0.
    9900012    2    3    3    0    0 -0.23630360113E+02 -0.26651112596E+02  0.19608408194E+02  0.50528863344E+02  0.30000010620E+02 0.  0.
        -12    1    3    3    0    0  0.23630360113E+02  0.26651112596E+02 -0.19608408194E+02  0.40659136656E+02  0.00000000000E+00 0.  1.
         11    1    4    4    0    0 -0.20452072982E+01 -0.11344112214E+02  0.94013205695E+01  0.14874696082E+02  0.51100000000E-03 0. -1.
        -11    1    4    4    0    0  0.11986657418E+01  0.38986359049E+00  0.77787865605E+01  0.78802483333E+01  0.51100000000E-03 0.  1.
         12    1    4    4    0    0 -0.22783818557E+02 -0.15696863973E+02  0.24283010645E+01  0.27773918929E+02  0.00000000000E+00 0. -1.
</event>
<event>
 8    1  0.5829710E-012  0.9118800E+02  0.7816164E-02  0.1184000E+00
        -11   -1    0    0    0    0  0.00000000000E+00  0.00000000000E+00  0.45593999997E+02  0.45594000000E+02  0.51100000000E-03 0. -1.
         11   -1    0    0    0    0 -0.00000000000E+00 -0.00000000000E+00 -0.45593999997E+02  0.45594000000E+02  0.51100000000E-03 0.  1.
         23    2    1    2    0    0  0.35527136788E-14  0.88817841970E-15  0.00000000000E+00  0.91188000000E+02  0.91188000000E+02 0.  0.
    9900012    2    3    3    0    0  0.29513057242E+02  0.50168850619E+01 -0.27513220436E+02  0.50528843808E+02  0.29999951239E+02 0.  0.
         12    1    3    3    0    0 -0.29513057242E+02 -0.50168850619E+01  0.27513220436E+02  0.40659156192E+02  0.00000000000E+00 0. -1.
         11    1    4    4    0    0 -0.37399401116E+01 -0.76494954782E+00 -0.36964418049E+00  0.38352231917E+01  0.51100000000E-03 0. -1.
        -11    1    4    4    0    0  0.64333263860E+00 -0.37968984471E+01 -0.41348561142E+01  0.56504291915E+01  0.51100000000E-03 0.  1.
        -12    1    4    4    0    0  0.32609664715E+02  0.95787330569E+01 -0.23008720141E+02  0.41043191425E+02  0.00000000000E+00 0.  1.
</event>
<event>
 8    1  0.5829710E-012  0.9118800E+02  0.7816164E-02  0.1184000E+00
        -11   -1    0    0    0    0  0.00000000000E+00  0.00000000000E+00  0.45593999997E+02  0.45594000000E+02  0.51100000000E-03 0. -1.
         11   -1    0    0    0    0 -0.00000000000E+00 -0.00000000000E+00 -0.45593999997E+02  0.45594000000E+02  0.51100000000E-03 0.  1.
         23    2    1    2    0    0  0.44408920985E-15  0.00000000000E+00  0.00000000000E+00  0.91188000000E+02  0.91188000000E+02 0.  0.
    9900012    2    3    3    0    0 -0.38005391741E+01 -0.21844072001E+02 -0.34081562354E+02  0.50528923866E+02  0.30000194583E+02 0.  0.
         12    1    3    3    0    0  0.38005391741E+01  0.21844072001E+02  0.34081562354E+02  0.40659076134E+02  0.00000000000E+00 0. -1.
         11    1    4    4    0    0  0.21025674101E+01  0.27001572398E+00 -0.20540323633E+02  0.20649421139E+02  0.51100000000E-03 0. -1.
        -11    1    4    4    0    0  0.18148153671E+01 -0.81102935715E+01 -0.10846205341E+02  0.13664208253E+02  0.51100000000E-03 0.  1.
        -12    1    4    4    0    0 -0.77179219512E+01 -0.14003794153E+02 -0.26950333802E+01  0.16215294473E+02  0.00000000000E+00 0.  1.
</event>
<event>
 8    1  0.5829710E-012  0.9118800E+02  0.7816164E-02  0.1184000E+00
        -11   -1    0    0    0    0  0.00000000000E+00  0.00000000000E+00  0.45593999997E+02  0.45594000000E+02  0.51100000000E-03 0. -1.
         11   -1    0    0    0    0 -0.00000000000E+00 -0.00000000000E+00 -0.45593999997E+02  0.45594000000E+02  0.51100000000E-03 0.  1.
         23    2    1    2    0    0 -0.17763568394E-14 -0.71054273576E-14 -0.35527136788E-14  0.91188000000E+02  0.91188000000E+02 0.  0.
    9900012    2    3    3    0    0 -0.12725452181E+02 -0.32817171543E+02 -0.20353413759E+02  0.50528864090E+02  0.30000012887E+02 0.  0.
         12    1    3    3    0    0  0.12725452181E+02  0.32817171543E+02  0.20353413759E+02  0.40659135910E+02  0.00000000000E+00 0. -1.
         11    1    4    4    0    0 -0.16100668927E+01  0.30148339551E+00 -0.79649453062E+01  0.81316395412E+01  0.51100000000E-03 0. -1.
        -11    1    4    4    0    0 -0.11284443285E+01  0.24555692810E+01  0.12933603753E+01  0.29959953969E+01  0.51100000000E-03 0.  1.
        -12    1    4    4    0    0 -0.99869409603E+01 -0.35574224220E+02 -0.13681828829E+02  0.39401229152E+02  0.00000000000E+00 0.  1.
</event>
<event>
 8    1  0.5829710E-012  0.9118800E+02  0.7816164E-02  0.1184000E+00
        -11   -1    0    0    0    0  0.00000000000E+00  0.00000000000E+00  0.45593999997E+02  0.45594000000E+02  0.51100000000E-03 0. -1.
         11   -1    0    0    0    0 -0.00000000000E+00 -0.00000000000E+00 -0.45593999997E+02  0.45594000000E+02  0.51100000000E-03 0.  1.
         23    2    1    2    0    0  0.17763568394E-14  0.00000000000E+00  0.00000000000E+00  0.91188000000E+02  0.91188000000E+02 0.  0.
    9900012    2    3    3    0    0  0.13702201483E+02 -0.36038226410E+01 -0.38110726467E+02  0.50528864065E+02  0.30000012812E+02 0.  0.
         12    1    3    3    0    0 -0.13702201483E+02  0.36038226410E+01  0.38110726467E+02  0.40659135935E+02  0.00000000000E+00 0. -1.
         11    1    4    4    0    0 -0.30122247723E+01 -0.42015018313E+01 -0.92523151996E+01  0.10598653336E+02  0.51100000000E-03 0. -1.
        -11    1    4    4    0    0 -0.82449432890E+00 -0.77867705851E+01 -0.11211364200E+02  0.13675096874E+02  0.51100000000E-03 0.  1.
         12    1    4    4    0    0  0.17538920585E+02  0.83844497753E+01 -0.17647047068E+02  0.26255113855E+02  0.00000000000E+00 0. -1.
</event>
<event>
 8    1  0.5829710E-012  0.9118800E+02  0.7816164E-02  0.1184000E+00
        -11   -1    0    0    0    0  0.00000000000E+00  0.00000000000E+00  0.45593999997E+02  0.45594000000E+02  0.51100000000E-03 0. -1.
         11   -1    0    0    0    0 -0.00000000000E+00 -0.00000000000E+00 -0.45593999997E+02  0.45594000000E+02  0.51100000000E-03 0.  1.
         23    2    1    2    0    0  0.22204460493E-15 -0.35527136788E-14  0.71054273576E-14  0.91188000000E+02  0.91188000000E+02 0.  0.
    9900012    2    3    3    0    0 -0.10437374496E+01  0.10979511801E+02 -0.39134728339E+02  0.50528855525E+02  0.29999986854E+02 0.  0.
         12    1    3    3    0    0  0.10437374496E+01 -0.10979511801E+02  0.39134728339E+02  0.40659144475E+02  0.00000000000E+00 0. -1.
         11    1    4    4    0    0  0.21897456325E+01  0.74749259210E+00 -0.20110837673E+01  0.30656466350E+01  0.51100000000E-03 0. -1.
        -11    1    4    4    0    0  0.11976758307E+02  0.20930395512E+01 -0.12922474977E+02  0.17742996193E+02  0.51100000000E-03 0.  1.
         12    1    4    4    0    0 -0.15210241389E+02  0.81389796574E+01 -0.24201169595E+02  0.29720212697E+02  0.00000000000E+00 0. -1.
</event>
<event>
 8    1  0.1089296E-011  0.9118800E+02  0.7816164E-02  0.1184000E+00
        -11   -1    0    0    0    0  0.00000000000E+00  0.00000000000E+00  0.45593999997E+02  0.45594000000E+02  0.51100000000E-03 0. -1.
         11   -1    0    0    0    0 -0.00000000000E+00 -0.00000000000E+00 -0.45593999997E+02  0.45594000000E+02  0.51100000000E-03 0.  1.
         23    2    1    2    0    0  0.00000000000E+00  0.00000000000E+00  0.00000000000E+00  0.91188000000E+02  0.91188000000E+02 0.  0.
    9900012    2    3    3    0    0 -0.59408876624E+01  0.24776529668E+02 -0.31685885926E+02  0.50528856680E+02  0.29999990364E+02 0.  0.
         12    1    3    3    0    0  0.59408876624E+01 -0.24776529668E+02  0.31685885926E+02  0.40659143320E+02  0.00000000000E+00 0. -1.
         11    1    4    4    0    0 -0.91447004453E+01  0.83004033548E+01 -0.17826013618E+02  0.21686147741E+02  0.51100000000E-03 0. -1.
        -11    1    4    4    0    0 -0.27859953214E+01  0.12149428677E+02 -0.16775288446E+02  0.20899298788E+02  0.51100000000E-03 0.  1.
         12    1    4    4    0    0  0.59898081043E+01  0.43266976362E+01  0.29154161380E+01  0.79434101505E+01  0.00000000000E+00 0. -1.
</event>
<event>
 8    1  0.5829710E-012  0.9118800E+02  0.7816164E-02  0.1184000E+00
        -11   -1    0    0    0    0  0.00000000000E+00  0.00000000000E+00  0.45593999997E+02  0.45594000000E+02  0.51100000000E-03 0. -1.
         11   -1    0    0    0    0 -0.00000000000E+00 -0.00000000000E+00 -0.45593999997E+02  0.45594000000E+02  0.51100000000E-03 0.  1.
         23    2    1    2    0    0  0.00000000000E+00  0.00000000000E+00  0.00000000000E+00  0.91188000000E+02  0.91188000000E+02 0.  0.
    9900012    2    3    3    0    0 -0.22676318364E+02 -0.19737235716E+02  0.27375018141E+02  0.50528861956E+02  0.30000006402E+02 0.  0.
        -12    1    3    3    0    0  0.22676318364E+02  0.19737235716E+02 -0.27375018141E+02  0.40659138044E+02  0.00000000000E+00 0.  1.
         11    1    4    4    0    0 -0.16089949462E+02 -0.13135823791E+02  0.21946174188E+02  0.30217063095E+02  0.51100000000E-03 0. -1.
        -11    1    4    4    0    0 -0.26216762436E+01  0.58953805852E+01  0.14832046939E+01  0.66203168349E+01  0.51100000000E-03 0.  1.
         12    1    4    4    0    0 -0.39646926585E+01 -0.12496792510E+02  0.39456392598E+01  0.13691482027E+02  0.00000000000E+00 0. -1.
</event>
<event>
 8    1  0.5829710E-012  0.9118800E+02  0.7816164E-02  0.1184000E+00
        -11   -1    0    0    0    0  0.00000000000E+00  0.00000000000E+00  0.45593999997E+02  0.45594000000E+02  0.51100000000E-03 0. -1.
         11   -1    0    0    0    0 -0.00000000000E+00 -0.00000000000E+00 -0.45593999997E+02  0.45594000000E+02  0.51100000000E-03 0.  1.
         23    2    1    2    0    0  0.17763568394E-14  0.00000000000E+00  0.00000000000E+00  0.91188000000E+02  0.91188000000E+02 0.  0.
    9900012    2    3    3    0    0 -0.75160821879E+01  0.58576350930E+01 -0.39526724446E+02  0.50528864178E+02  0.30000013156E+02 0.  0.
         12    1    3    3    0    0  0.75160821879E+01 -0.58576350930E+01  0.39526724446E+02  0.40659135822E+02  0.00000000000E+00 0. -1.
         11    1    4    4    0    0 -0.11423577679E+02  0.36287498214E+00 -0.34330659733E+01  0.11933806915E+02  0.51100000000E-03 0. -1.
        -11    1    4    4    0    0 -0.55061642712E+00 -0.24035804008E+01 -0.16250098351E+01  0.29531397560E+01  0.51100000000E-03 0.  1.
        -12    1    4    4    0    0  0.44581119180E+01  0.78983405116E+01 -0.34468648638E+02  0.35641917508E+02  0.00000000000E+00 0.  1.
</event>
<event>
 8    1  0.5829710E-012  0.9118800E+02  0.7816164E-02  0.1184000E+00
        -11   -1    0    0    0    0  0.00000000000E+00  0.00000000000E+00  0.45593999997E+02  0.45594000000E+02  0.51100000000E-03 0. -1.
         11   -1    0    0    0    0 -0.00000000000E+00 -0.00000000000E+00 -0.45593999997E+02  0.45594000000E+02  0.51100000000E-03 0.  1.
         23    2    1    2    0    0  0.22204460493E-15  0.35527136788E-14  0.71054273576E-14  0.91188000000E+02  0.91188000000E+02 0.  0.
    9900012    2    3    3    0    0  0.11371465772E+01 -0.25913780839E+02 -0.31310516341E+02  0.50528861135E+02  0.30000003905E+02 0.  0.
         12    1    3    3    0    0 -0.11371465772E+01  0.25913780839E+02  0.31310516341E+02  0.40659138865E+02  0.00000000000E+00 0. -1.
         11    1    4    4    0    0 -0.21498064616E+01 -0.73075370039E+01 -0.51321372386E+01  0.91848025446E+01  0.51100000000E-03 0. -1.
        -11    1    4    4    0    0 -0.19838529206E+01 -0.23415361371E+02 -0.14361887168E+02  0.27540490625E+02  0.51100000000E-03 0.  1.
        -12    1    4    4    0    0  0.52708059594E+01  0.48091175360E+01 -0.11816491934E+02  0.13803567965E+02  0.00000000000E+00 0.  1.
</event>
<event>
 8    1  0.5829710E-012  0.9118800E+02  0.7816164E-02  0.1184000E+00
        -11   -1    0    0    0    0  0.00000000000E+00  0.00000000000E+00  0.45593999997E+02  0.45594000000E+02  0.51100000000E-03 0.  1.
         11   -1    0    0    0    0 -0.00000000000E+00 -0.00000000000E+00 -0.45593999997E+02  0.45594000000E+02  0.51100000000E-03 0. -1.
         23    2    1    2    0    0  0.00000000000E+00  0.00000000000E+00  0.88817841970E-15  0.91188000000E+02  0.91188000000E+02 0.  0.
    9900012    2    3    3    0    0 -0.14205135687E+02 -0.37934525464E+02 -0.35146067133E+01  0.50528848971E+02  0.29999966931E+02 0.  0.
         12    1    3    3    0    0  0.14205135687E+02  0.37934525464E+02  0.35146067133E+01  0.40659151029E+02  0.00000000000E+00 0. -1.
         11    1    4    4    0    0  0.92420656688E+00 -0.19473376651E+01 -0.16325021781E+01  0.27039499594E+01  0.51100000000E-03 0. -1.
        -11    1    4    4    0    0  0.21087141632E+01 -0.46263366252E+01 -0.99200667730E+01  0.11147079933E+02  0.51100000000E-03 0.  1.
        -12    1    4    4    0    0 -0.17238056417E+02 -0.31360851174E+02  0.80379622378E+01  0.36677819078E+02  0.00000000000E+00 0.  1.
</event>
<event>
 8    1  0.5829710E-012  0.9118800E+02  0.7816164E-02  0.1184000E+00
        -11   -1    0    0    0    0  0.00000000000E+00  0.00000000000E+00  0.45593999997E+02  0.45594000000E+02  0.51100000000E-03 0. -1.
         11   -1    0    0    0    0 -0.00000000000E+00 -0.00000000000E+00 -0.45593999997E+02  0.45594000000E+02  0.51100000000E-03 0.  1.
         23    2    1    2    0    0  0.00000000000E+00  0.35527136788E-14  0.12693839035E-14  0.91188000000E+02  0.91188000000E+02 0.  0.
    9900012    2    3    3    0    0 -0.32237334585E+02  0.24777503938E+02 -0.27311225439E-02  0.50528801163E+02  0.29999821616E+02 0.  0.
        -12    1    3    3    0    0  0.32237334585E+02 -0.24777503938E+02  0.27311225439E-02  0.40659198837E+02  0.00000000000E+00 0.  1.
         11    1    4    4    0    0 -0.23483908424E+02  0.12746179435E+02  0.75485179010E+01  0.27765791324E+02  0.51100000000E-03 0. -1.
        -11    1    4    4    0    0 -0.86373065224E+01  0.37311951597E+01  0.24921412421E+01  0.97332240040E+01  0.51100000000E-03 0.  1.
        -12    1    4    4    0    0 -0.11611963854E+00  0.83001293437E+01 -0.10043390266E+02  0.13029785836E+02  0.00000000000E+00 0.  1.
</event>
<event>
 8    1  0.5829710E-012  0.9118800E+02  0.7816164E-02  0.1184000E+00
        -11   -1    0    0    0    0  0.00000000000E+00  0.00000000000E+00  0.45593999997E+02  0.45594000000E+02  0.51100000000E-03 0. -1.
         11   -1    0    0    0    0 -0.00000000000E+00 -0.00000000000E+00 -0.45593999997E+02  0.45594000000E+02  0.51100000000E-03 0.  1.
         23    2    1    2    0    0 -0.17763568394E-14  0.00000000000E+00  0.00000000000E+00  0.91188000000E+02  0.91188000000E+02 0.  0.
    9900012    2    3    3    0    0 -0.15493852173E+02 -0.33902771698E+02  0.16239172983E+02  0.50528829778E+02  0.29999908593E+02 0.  0.
        -12    1    3    3    0    0  0.15493852173E+02  0.33902771698E+02 -0.16239172983E+02  0.40659170222E+02  0.00000000000E+00 0.  1.
         11    1    4    4    0    0 -0.97929531251E+01 -0.18301950326E+02 -0.83513041518E+00  0.20774040524E+02  0.51100000000E-03 0. -1.
        -11    1    4    4    0    0 -0.50864469583E+01 -0.32513998727E+01 -0.25553899887E+01  0.65554223394E+01  0.51100000000E-03 0.  1.
        -12    1    4    4    0    0 -0.61445208909E+00 -0.12349421500E+02  0.19629693387E+02  0.23199366914E+02  0.00000000000E+00 0.  1.
</event>
<event>
 8    1  0.5829710E-012  0.9118800E+02  0.7816164E-02  0.1184000E+00
        -11   -1    0    0    0    0  0.00000000000E+00  0.00000000000E+00  0.45593999997E+02  0.45594000000E+02  0.51100000000E-03 0. -1.
         11   -1    0    0    0    0 -0.00000000000E+00 -0.00000000000E+00 -0.45593999997E+02  0.45594000000E+02  0.51100000000E-03 0.  1.
         23    2    1    2    0    0  0.00000000000E+00  0.00000000000E+00  0.17763568394E-14  0.91188000000E+02  0.91188000000E+02 0.  0.
    9900012    2    3    3    0    0 -0.32763348938E+02  0.20525982003E+02 -0.12586212148E+02  0.50528859489E+02  0.29999998904E+02 0.  0.
         12    1    3    3    0    0  0.32763348938E+02 -0.20525982003E+02  0.12586212148E+02  0.40659140511E+02  0.00000000000E+00 0. -1.
         11    1    4    4    0    0  0.18346473503E+01  0.24319476294E+01  0.31188502137E+01  0.43597622743E+01  0.51100000000E-03 0. -1.
        -11    1    4    4    0    0 -0.19022705191E+02  0.18623544375E+02 -0.15027669974E+02  0.30570092950E+02  0.51100000000E-03 0.  1.
         12    1    4    4    0    0 -0.15575291097E+02 -0.52951000125E+00 -0.67739238774E+00  0.15599004265E+02  0.00000000000E+00 0. -1.
</event>
<event>
 8    1  0.5829710E-012  0.9118800E+02  0.7816164E-02  0.1184000E+00
        -11   -1    0    0    0    0  0.00000000000E+00  0.00000000000E+00  0.45593999997E+02  0.45594000000E+02  0.51100000000E-03 0. -1.
         11   -1    0    0    0    0 -0.00000000000E+00 -0.00000000000E+00 -0.45593999997E+02  0.45594000000E+02  0.51100000000E-03 0.  1.
         23    2    1    2    0    0  0.00000000000E+00  0.88817841970E-15  0.00000000000E+00  0.91188000000E+02  0.91188000000E+02 0.  0.
    9900012    2    3    3    0    0  0.21798639627E+02 -0.55309230107E+01  0.33873204016E+02  0.50528858971E+02  0.29999997327E+02 0.  0.
        -12    1    3    3    0    0 -0.21798639627E+02  0.55309230107E+01 -0.33873204016E+02  0.40659141029E+02  0.00000000000E+00 0.  1.
         11    1    4    4    0    0  0.18659405986E+02 -0.87439569634E+01  0.17240632703E+02  0.26867631667E+02  0.51100000000E-03 0. -1.
        -11    1    4    4    0    0  0.95188391548E+01  0.19146134673E+01  0.67436318006E+01  0.11821616375E+02  0.51100000000E-03 0.  1.
         12    1    4    4    0    0 -0.63796055141E+01  0.12984204855E+01  0.98889395126E+01  0.11839610929E+02  0.00000000000E+00 0. -1.
</event>
<event>
 8    1  0.5829710E-012  0.9118800E+02  0.7816164E-02  0.1184000E+00
        -11   -1    0    0    0    0  0.00000000000E+00  0.00000000000E+00  0.45593999997E+02  0.45594000000E+02  0.51100000000E-03 0.  1.
         11   -1    0    0    0    0 -0.00000000000E+00 -0.00000000000E+00 -0.45593999997E+02  0.45594000000E+02  0.51100000000E-03 0. -1.
         23    2    1    2    0    0  0.00000000000E+00  0.00000000000E+00  0.00000000000E+00  0.91188000000E+02  0.91188000000E+02 0.  0.
    9900012    2    3    3    0    0 -0.16838390719E+02  0.36693266675E+02  0.48206341695E+01  0.50528859145E+02  0.29999997856E+02 0.  0.
         12    1    3    3    0    0  0.16838390719E+02 -0.36693266675E+02 -0.48206341695E+01  0.40659140855E+02  0.00000000000E+00 0. -1.
         11    1    4    4    0    0 -0.34282085112E+01  0.24381187556E+02  0.48239703030E+01  0.25089153234E+02  0.51100000000E-03 0. -1.
        -11    1    4    4    0    0 -0.10380314810E+02  0.16714880729E+02  0.18975809324E+01  0.19767118834E+02  0.51100000000E-03 0.  1.
         12    1    4    4    0    0 -0.30298673973E+01 -0.44028016094E+01 -0.19009170660E+01  0.56725870773E+01  0.00000000000E+00 0. -1.
</event>
<event>
 8    1  0.5829710E-012  0.9118800E+02  0.7816164E-02  0.1184000E+00
        -11   -1    0    0    0    0  0.00000000000E+00  0.00000000000E+00  0.45593999997E+02  0.45594000000E+02  0.51100000000E-03 0. -1.
         11   -1    0    0    0    0 -0.00000000000E+00 -0.00000000000E+00 -0.45593999997E+02  0.45594000000E+02  0.51100000000E-03 0.  1.
         23    2    1    2    0    0 -0.17763568394E-14  0.17763568394E-14  0.00000000000E+00  0.91188000000E+02  0.91188000000E+02 0.  0.
    9900012    2    3    3    0    0 -0.11687889790E+02  0.11015659113E+02 -0.37352571550E+02  0.50528854475E+02  0.29999983662E+02 0.  0.
         12    1    3    3    0    0  0.11687889790E+02 -0.11015659113E+02  0.37352571550E+02  0.40659145525E+02  0.00000000000E+00 0. -1.
         11    1    4    4    0    0 -0.64351508179E+01 -0.53043404664E+01 -0.16339323207E+02  0.18344499910E+02  0.51100000000E-03 0. -1.
        -11    1    4    4    0    0  0.29277211038E+01 -0.60965619330E+00 -0.99030048958E+01  0.10344696117E+02  0.51100000000E-03 0.  1.
        -12    1    4    4    0    0 -0.81804600757E+01  0.16929655773E+02 -0.11110243447E+02  0.21839658447E+02  0.00000000000E+00 0.  1.
</event>
<event>
 8    1  0.5829710E-012  0.9118800E+02  0.7816164E-02  0.1184000E+00
        -11   -1    0    0    0    0  0.00000000000E+00  0.00000000000E+00  0.45593999997E+02  0.45594000000E+02  0.51100000000E-03 0. -1.
         11   -1    0    0    0    0 -0.00000000000E+00 -0.00000000000E+00 -0.45593999997E+02  0.45594000000E+02  0.51100000000E-03 0.  1.
         23    2    1    2    0    0  0.00000000000E+00  0.00000000000E+00  0.00000000000E+00  0.91188000000E+02  0.91188000000E+02 0.  0.
    9900012    2    3    3    0    0 -0.70617158987E+01  0.10888617179E+02  0.38532260504E+02  0.50528869229E+02  0.30000028507E+02 0.  0.
        -12    1    3    3    0    0  0.70617158987E+01 -0.10888617179E+02 -0.38532260504E+02  0.40659130771E+02  0.00000000000E+00 0.  1.
         11    1    4    4    0    0 -0.43138405709E+01  0.70920033550E+01  0.74996748792E+01  0.11187084321E+02  0.51100000000E-03 0. -1.
        -11    1    4    4    0    0  0.41836141099E+01 -0.52789824606E+01  0.51255577230E+00  0.67552199462E+01  0.51100000000E-03 0.  1.
         12    1    4    4    0    0 -0.69314894377E+01  0.90755962844E+01  0.30520029853E+02  0.32586564961E+02  0.00000000000E+00 0. -1.
</event>
<event>
 8    1  0.5829710E-012  0.9118800E+02  0.7816164E-02  0.1184000E+00
        -11   -1    0    0    0    0  0.00000000000E+00  0.00000000000E+00  0.45593999997E+02  0.45594000000E+02  0.51100000000E-03 0. -1.
         11   -1    0    0    0    0 -0.00000000000E+00 -0.00000000000E+00 -0.45593999997E+02  0.45594000000E+02  0.51100000000E-03 0.  1.
         23    2    1    2    0    0 -0.35527136788E-14  0.17763568394E-14  0.71054273576E-14  0.91188000000E+02  0.91188000000E+02 0.  0.
    9900012    2    3    3    0    0 -0.23020366421E+02  0.32919596002E+01  0.33352531701E+02  0.50528860325E+02  0.30000001445E+02 0.  0.
        -12    1    3    3    0    0  0.23020366421E+02 -0.32919596002E+01 -0.33352531701E+02  0.40659139675E+02  0.00000000000E+00 0.  1.
         11    1    4    4    0    0 -0.12126914733E+01 -0.82739310938E+01  0.12497607195E+02  0.15037245167E+02  0.51100000000E-03 0.  1.
        -11    1    4    4    0    0 -0.92561555918E+01  0.83629502426E+01  0.18519441758E+02  0.22329018706E+02  0.51100000000E-03 0. -1.
        -12    1    4    4    0    0 -0.12551519356E+02  0.32029404515E+01  0.23354827487E+01  0.13162596452E+02  0.00000000000E+00 0.  1.
</event>
<event>
 8    1  0.5829710E-012  0.9118800E+02  0.7816164E-02  0.1184000E+00
        -11   -1    0    0    0    0  0.00000000000E+00  0.00000000000E+00  0.45593999997E+02  0.45594000000E+02  0.51100000000E-03 0. -1.
         11   -1    0    0    0    0 -0.00000000000E+00 -0.00000000000E+00 -0.45593999997E+02  0.45594000000E+02  0.51100000000E-03 0.  1.
         23    2    1    2    0    0  0.00000000000E+00 -0.13322676296E-14  0.00000000000E+00  0.91188000000E+02  0.91188000000E+02 0.  0.
    9900012    2    3    3    0    0 -0.21845015614E+02  0.29905627701E+01 -0.34161666009E+02  0.50528836244E+02  0.29999928246E+02 0.  0.
         12    1    3    3    0    0  0.21845015614E+02 -0.29905627701E+01  0.34161666009E+02  0.40659163756E+02  0.00000000000E+00 0. -1.
         11    1    4    4    0    0 -0.23423579204E+01  0.95494742485E+01 -0.19000149719E+01  0.10014447374E+02  0.51100000000E-03 0. -1.
        -11    1    4    4    0    0  0.10699909864E+01 -0.18216176714E+01 -0.83677184093E+01  0.86302887142E+01  0.51100000000E-03 0.  1.
         12    1    4    4    0    0 -0.20572648680E+02 -0.47372938070E+01 -0.23893932628E+02  0.31884100156E+02  0.00000000000E+00 0. -1.
</event>
<event>
 8    1  0.5829710E-012  0.9118800E+02  0.7816164E-02  0.1184000E+00
        -11   -1    0    0    0    0  0.00000000000E+00  0.00000000000E+00  0.45593999997E+02  0.45594000000E+02  0.51100000000E-03 0. -1.
         11   -1    0    0    0    0 -0.00000000000E+00 -0.00000000000E+00 -0.45593999997E+02  0.45594000000E+02  0.51100000000E-03 0.  1.
         23    2    1    2    0    0  0.17763568394E-14  0.71054273576E-14  0.00000000000E+00  0.91188000000E+02  0.91188000000E+02 0.  0.
    9900012    2    3    3    0    0 -0.95760503676E+01 -0.38920987033E+02  0.68277833879E+01  0.50528897720E+02  0.30000115109E+02 0.  0.
         12    1    3    3    0    0  0.95760503676E+01  0.38920987033E+02 -0.68277833879E+01  0.40659102280E+02  0.00000000000E+00 0. -1.
         11    1    4    4    0    0 -0.56451315825E+00 -0.12865972949E+02 -0.11077010531E+02  0.16986821292E+02  0.51100000000E-03 0. -1.
        -11    1    4    4    0    0 -0.74681374351E+00 -0.11644769285E+02  0.61360394638E+01  0.13183677903E+02  0.51100000000E-03 0.  1.
        -12    1    4    4    0    0 -0.82647234658E+01 -0.14410244798E+02  0.11768754455E+02  0.20358398525E+02  0.00000000000E+00 0.  1.
</event>
<event>
 8    1  0.5829710E-012  0.9118800E+02  0.7816164E-02  0.1184000E+00
        -11   -1    0    0    0    0  0.00000000000E+00  0.00000000000E+00  0.45593999997E+02  0.45594000000E+02  0.51100000000E-03 0. -1.
         11   -1    0    0    0    0 -0.00000000000E+00 -0.00000000000E+00 -0.45593999997E+02  0.45594000000E+02  0.51100000000E-03 0.  1.
         23    2    1    2    0    0  0.00000000000E+00 -0.35527136788E-14  0.00000000000E+00  0.91188000000E+02  0.91188000000E+02 0.  0.
    9900012    2    3    3    0    0  0.27285320299E+01  0.21752655394E+02  0.34242399657E+02  0.50528870177E+02  0.30000031389E+02 0.  0.
        -12    1    3    3    0    0 -0.27285320299E+01 -0.21752655394E+02 -0.34242399657E+02  0.40659129823E+02  0.00000000000E+00 0.  1.
         11    1    4    4    0    0 -0.32047835502E+01  0.24216686439E+01 -0.37846267318E+01  0.55189234806E+01  0.51100000000E-03 0. -1.
        -11    1    4    4    0    0  0.25895759487E+01 -0.13222048851E+01  0.27899826105E+01  0.40296566330E+01  0.51100000000E-03 0.  1.
         12    1    4    4    0    0  0.33437396313E+01  0.20653191635E+02  0.35237043778E+02  0.40980290063E+02  0.00000000000E+00 0. -1.
</event>
<event>
 8    1  0.5829710E-012  0.9118800E+02  0.7816164E-02  0.1184000E+00
        -11   -1    0    0    0    0  0.00000000000E+00  0.00000000000E+00  0.45593999997E+02  0.45594000000E+02  0.51100000000E-03 0. -1.
         11   -1    0    0    0    0 -0.00000000000E+00 -0.00000000000E+00 -0.45593999997E+02  0.45594000000E+02  0.51100000000E-03 0.  1.
         23    2    1    2    0    0 -0.88817841970E-15 -0.35527136788E-14  0.00000000000E+00  0.91188000000E+02  0.91188000000E+02 0.  0.
    9900012    2    3    3    0    0 -0.79130778540E+01 -0.18837968999E+02  0.35152236324E+02  0.50528860858E+02  0.30000003065E+02 0.  0.
        -12    1    3    3    0    0  0.79130778540E+01  0.18837968999E+02 -0.35152236324E+02  0.40659139142E+02  0.00000000000E+00 0.  1.
         11    1    4    4    0    0 -0.53885433250E+00 -0.15896661193E+01 -0.13155172631E+00  0.16836592530E+01  0.51100000000E-03 0. -1.
        -11    1    4    4    0    0 -0.48999034711E+01  0.49811357629E+01 -0.96537608736E-01  0.69878528381E+01  0.51100000000E-03 0.  1.
         12    1    4    4    0    0 -0.24743200504E+01 -0.22229438643E+02  0.35380325659E+02  0.41857348767E+02  0.00000000000E+00 0. -1.
</event>
<event>
 8    1  0.5829710E-012  0.9118800E+02  0.7816164E-02  0.1184000E+00
        -11   -1    0    0    0    0  0.00000000000E+00  0.00000000000E+00  0.45593999997E+02  0.45594000000E+02  0.51100000000E-03 0. -1.
         11   -1    0    0    0    0 -0.00000000000E+00 -0.00000000000E+00 -0.45593999997E+02  0.45594000000E+02  0.51100000000E-03 0.  1.
         23    2    1    2    0    0  0.88817841970E-15  0.00000000000E+00  0.00000000000E+00  0.91188000000E+02  0.91188000000E+02 0.  0.
    9900012    2    3    3    0    0  0.60878881572E+01 -0.17706347023E+02 -0.36091407647E+02  0.50528845888E+02  0.29999957561E+02 0.  0.
         12    1    3    3    0    0 -0.60878881572E+01  0.17706347023E+02  0.36091407647E+02  0.40659154112E+02  0.00000000000E+00 0. -1.
         11    1    4    4    0    0  0.87158700125E+01 -0.72137596512E+01 -0.17252089563E+02  0.20631027917E+02  0.51100000000E-03 0. -1.
        -11    1    4    4    0    0  0.69116753670E+01  0.13970002406E+01 -0.10127026423E+02  0.12340159257E+02  0.51100000000E-03 0.  1.
         12    1    4    4    0    0 -0.95396572223E+01 -0.11889587613E+02 -0.87122916615E+01  0.17557658714E+02  0.00000000000E+00 0. -1.
</event>
<event>
 8    1  0.5829710E-012  0.9118800E+02  0.7816164E-02  0.1184000E+00
        -11   -1    0    0    0    0  0.00000000000E+00  0.00000000000E+00  0.45593999997E+02  0.45594000000E+02  0.51100000000E-03 0. -1.
         11   -1    0    0    0    0 -0.00000000000E+00 -0.00000000000E+00 -0.45593999997E+02  0.45594000000E+02  0.51100000000E-03 0.  1.
         23    2    1    2    0    0  0.00000000000E+00  0.00000000000E+00  0.00000000000E+00  0.91188000000E+02  0.91188000000E+02 0.  0.
    9900012    2    3    3    0    0  0.32179735861E+02  0.17577802105E+02 -0.17568452120E+02  0.50528867731E+02  0.30000023956E+02 0.  0.
         12    1    3    3    0    0 -0.32179735861E+02 -0.17577802105E+02  0.17568452120E+02  0.40659132269E+02  0.00000000000E+00 0. -1.
         11    1    4    4    0    0  0.39511440781E+01 -0.27122365367E+00 -0.10290782206E+01  0.40919560165E+01  0.51100000000E-03 0. -1.
        -11    1    4    4    0    0 -0.15696939987E+01  0.41683414074E+01 -0.12658590851E+02  0.13419349162E+02  0.51100000000E-03 0.  1.
         12    1    4    4    0    0  0.29798285781E+02  0.13680684352E+02 -0.38807830485E+01  0.33017562553E+02  0.00000000000E+00 0. -1.
</event>
<event>
 8    1  0.5829710E-012  0.9118800E+02  0.7816164E-02  0.1184000E+00
        -11   -1    0    0    0    0  0.00000000000E+00  0.00000000000E+00  0.45593999997E+02  0.45594000000E+02  0.51100000000E-03 0. -1.
         11   -1    0    0    0    0 -0.00000000000E+00 -0.00000000000E+00 -0.45593999997E+02  0.45594000000E+02  0.51100000000E-03 0.  1.
         23    2    1    2    0    0  0.17763568394E-14  0.00000000000E+00  0.00000000000E+00  0.91188000000E+02  0.91188000000E+02 0.  0.
    9900012    2    3    3    0    0 -0.82915164278E+01 -0.10453748228E+02 -0.38407490439E+02  0.50528863038E+02  0.30000009689E+02 0.  0.
         12    1    3    3    0    0  0.82915164278E+01  0.10453748228E+02  0.38407490439E+02  0.40659136962E+02  0.00000000000E+00 0. -1.
         11    1    4    4    0    0 -0.91357191690E+01  0.29258978369E+01 -0.26513165796E+01  0.99524731978E+01  0.51100000000E-03 0. -1.
        -11    1    4    4    0    0  0.19145751603E+00  0.27643744735E+01 -0.79213435488E+01  0.83920263399E+01  0.51100000000E-03 0.  1.
         12    1    4    4    0    0  0.65274522511E+00 -0.16144020539E+02 -0.27834830311E+02  0.32184363500E+02  0.00000000000E+00 0. -1.
</event>
<event>
 8    1  0.5829710E-012  0.9118800E+02  0.7816164E-02  0.1184000E+00
        -11   -1    0    0    0    0  0.00000000000E+00  0.00000000000E+00  0.45593999997E+02  0.45594000000E+02  0.51100000000E-03 0. -1.
         11   -1    0    0    0    0 -0.00000000000E+00 -0.00000000000E+00 -0.45593999997E+02  0.45594000000E+02  0.51100000000E-03 0.  1.
         23    2    1    2    0    0  0.00000000000E+00  0.17763568394E-14  0.00000000000E+00  0.91188000000E+02  0.91188000000E+02 0.  0.
    9900012    2    3    3    0    0 -0.16104788828E+02 -0.15342879339E+02 -0.34035242670E+02  0.50528856954E+02  0.29999991198E+02 0.  0.
         12    1    3    3    0    0  0.16104788828E+02  0.15342879339E+02  0.34035242670E+02  0.40659143046E+02  0.00000000000E+00 0. -1.
         11    1    4    4    0    0 -0.92442005266E+01 -0.18326678618E+02 -0.11994039084E+02  0.23773501348E+02  0.51100000000E-03 0. -1.
        -11    1    4    4    0    0 -0.93349846071E+01  0.23399793967E+01 -0.80917964208E+01  0.12573567941E+02  0.51100000000E-03 0.  1.
        -12    1    4    4    0    0  0.24743963059E+01  0.64381988152E+00 -0.13949407165E+02  0.14181787665E+02  0.00000000000E+00 0.  1.
</event>
<event>
 8    1  0.5829710E-012  0.9118800E+02  0.7816164E-02  0.1184000E+00
        -11   -1    0    0    0    0  0.00000000000E+00  0.00000000000E+00  0.45593999997E+02  0.45594000000E+02  0.51100000000E-03 0. -1.
         11   -1    0    0    0    0 -0.00000000000E+00 -0.00000000000E+00 -0.45593999997E+02  0.45594000000E+02  0.51100000000E-03 0.  1.
         23    2    1    2    0    0 -0.35527136788E-14 -0.53290705182E-14 -0.35527136788E-14  0.91188000000E+02  0.91188000000E+02 0.  0.
    9900012    2    3    3    0    0 -0.27199252968E+02 -0.15883988968E+02  0.25711265527E+02  0.50528811093E+02  0.29999851799E+02 0.  0.
        -12    1    3    3    0    0  0.27199252968E+02  0.15883988968E+02 -0.25711265527E+02  0.40659188907E+02  0.00000000000E+00 0.  1.
         11    1    4    4    0    0 -0.12490336149E+02 -0.10112648766E+02  0.25833066447E+02  0.30424028078E+02  0.51100000000E-03 0. -1.
        -11    1    4    4    0    0 -0.16521508209E+00 -0.21688052364E+01  0.40103174907E+01  0.45621989012E+01  0.51100000000E-03 0.  1.
        -12    1    4    4    0    0 -0.14543701737E+02 -0.36025349659E+01 -0.41321184102E+01  0.15542584114E+02  0.00000000000E+00 0.  1.
</event>
<event>
 8    1  0.5829710E-012  0.9118800E+02  0.7816164E-02  0.1184000E+00
        -11   -1    0    0    0    0  0.00000000000E+00  0.00000000000E+00  0.45593999997E+02  0.45594000000E+02  0.51100000000E-03 0.  1.
         11   -1    0    0    0    0 -0.00000000000E+00 -0.00000000000E+00 -0.45593999997E+02  0.45594000000E+02  0.51100000000E-03 0. -1.
         23    2    1    2    0    0  0.71054273576E-14  0.88817841970E-15 -0.17763568394E-14  0.91188000000E+02  0.91188000000E+02 0.  0.
    9900012    2    3    3    0    0  0.37975497657E+02  0.38860074452E+01 -0.13997361163E+02  0.50528860859E+02  0.30000003068E+02 0.  0.
         12    1    3    3    0    0 -0.37975497657E+02 -0.38860074452E+01  0.13997361163E+02  0.40659139141E+02  0.00000000000E+00 0. -1.
         11    1    4    4    0    0  0.50004690291E+01 -0.35385729870E+01  0.52387119044E+01  0.80604151242E+01  0.51100000000E-03 0.  1.
        -11    1    4    4    0    0 -0.31035274460E+00  0.18238710377E+00  0.21944489362E+01  0.22237783784E+01  0.51100000000E-03 0. -1.
         12    1    4    4    0    0  0.33285381372E+02  0.72421933284E+01 -0.21430522004E+02  0.40244667357E+02  0.00000000000E+00 0. -1.
</event>
<event>
 8    1  0.7061712E-012  0.9118800E+02  0.7816164E-02  0.1184000E+00
        -11   -1    0    0    0    0  0.00000000000E+00  0.00000000000E+00  0.45593999997E+02  0.45594000000E+02  0.51100000000E-03 0. -1.
         11   -1    0    0    0    0 -0.00000000000E+00 -0.00000000000E+00 -0.45593999997E+02  0.45594000000E+02  0.51100000000E-03 0.  1.
         23    2    1    2    0    0  0.00000000000E+00  0.00000000000E+00 -0.71054273576E-14  0.91188000000E+02  0.91188000000E+02 0.  0.
    9900012    2    3    3    0    0 -0.17985236767E+02 -0.20813796467E+02 -0.29941341410E+02  0.50528846168E+02  0.29999958413E+02 0.  0.
         12    1    3    3    0    0  0.17985236767E+02  0.20813796467E+02  0.29941341410E+02  0.40659153832E+02  0.00000000000E+00 0. -1.
         11    1    4    4    0    0 -0.46867844305E+01  0.10766073748E+01 -0.15279757514E+02  0.16018614849E+02  0.51100000000E-03 0. -1.
        -11    1    4    4    0    0 -0.89863183874E+01 -0.34668837280E+01 -0.12023514583E+02  0.15405781517E+02  0.51100000000E-03 0.  1.
         12    1    4    4    0    0 -0.43121339490E+01 -0.18423520113E+02 -0.26380693125E+01  0.19104449802E+02  0.00000000000E+00 0. -1.
</event>
<event>
 8    1  0.7399842E-012  0.9118800E+02  0.7816164E-02  0.1184000E+00
        -11   -1    0    0    0    0  0.00000000000E+00  0.00000000000E+00  0.45593999997E+02  0.45594000000E+02  0.51100000000E-03 0. -1.
         11   -1    0    0    0    0 -0.00000000000E+00 -0.00000000000E+00 -0.45593999997E+02  0.45594000000E+02  0.51100000000E-03 0.  1.
         23    2    1    2    0    0  0.44408920985E-15  0.00000000000E+00  0.71054273576E-14  0.91188000000E+02  0.91188000000E+02 0.  0.
    9900012    2    3    3    0    0 -0.38995604606E+01 -0.20301893206E+02 -0.35011322184E+02  0.50528854404E+02  0.29999983446E+02 0.  0.
         12    1    3    3    0    0  0.38995604606E+01  0.20301893206E+02  0.35011322184E+02  0.40659145596E+02  0.00000000000E+00 0. -1.
         11    1    4    4    0    0 -0.10603724658E+01  0.17094326276E+01  0.24040355280E+01  0.31346350275E+01  0.51100000000E-03 0. -1.
        -11    1    4    4    0    0  0.67051444909E+01 -0.17019684602E+02 -0.22543333415E+02  0.29031543333E+02  0.51100000000E-03 0.  1.
         12    1    4    4    0    0 -0.95443324857E+01 -0.49916412322E+01 -0.14872024297E+02  0.18362676044E+02  0.00000000000E+00 0. -1.
</event>
<event>
 8    1  0.5829710E-012  0.9118800E+02  0.7816164E-02  0.1184000E+00
        -11   -1    0    0    0    0  0.00000000000E+00  0.00000000000E+00  0.45593999997E+02  0.45594000000E+02  0.51100000000E-03 0. -1.
         11   -1    0    0    0    0 -0.00000000000E+00 -0.00000000000E+00 -0.45593999997E+02  0.45594000000E+02  0.51100000000E-03 0.  1.
         23    2    1    2    0    0  0.17763568394E-14  0.00000000000E+00  0.00000000000E+00  0.91188000000E+02  0.91188000000E+02 0.  0.
    9900012    2    3    3    0    0 -0.10519975132E+02 -0.21906191839E+02  0.32597769885E+02  0.50528859341E+02  0.29999998453E+02 0.  0.
        -12    1    3    3    0    0  0.10519975132E+02  0.21906191839E+02 -0.32597769885E+02  0.40659140659E+02  0.00000000000E+00 0.  1.
         11    1    4    4    0    0 -0.45244769970E+01 -0.12393850526E+01 -0.29396828250E+01  0.55361270557E+01  0.51100000000E-03 0. -1.
        -11    1    4    4    0    0 -0.30542871890E+01 -0.65381624675E+01  0.65886091658E+00  0.72464016348E+01  0.51100000000E-03 0.  1.
         12    1    4    4    0    0 -0.29412109461E+01 -0.14128644319E+02  0.34878591793E+02  0.37746330651E+02  0.00000000000E+00 0. -1.
</event>
<event>
 8    1  0.5829710E-012  0.9118800E+02  0.7816164E-02  0.1184000E+00
        -11   -1    0    0    0    0  0.00000000000E+00  0.00000000000E+00  0.45593999997E+02  0.45594000000E+02  0.51100000000E-03 0. -1.
         11   -1    0    0    0    0 -0.00000000000E+00 -0.00000000000E+00 -0.45593999997E+02  0.45594000000E+02  0.51100000000E-03 0.  1.
         23    2    1    2    0    0  0.00000000000E+00  0.00000000000E+00 -0.71054273576E-14  0.91188000000E+02  0.91188000000E+02 0.  0.
    9900012    2    3    3    0    0  0.17706476767E+02 -0.13418165709E+02 -0.34052889823E+02  0.50528858398E+02  0.29999995586E+02 0.  0.
         12    1    3    3    0    0 -0.17706476767E+02  0.13418165709E+02  0.34052889823E+02  0.40659141602E+02  0.00000000000E+00 0. -1.
         11    1    4    4    0    0 -0.20275995456E+01 -0.49035455474E+00 -0.25372986380E+00  0.21014249003E+01  0.51100000000E-03 0. -1.
        -11    1    4    4    0    0 -0.38454325119E+00  0.60115425374E+00 -0.20999625511E+02  0.21011747472E+02  0.51100000000E-03 0.  1.
        -12    1    4    4    0    0  0.20118619564E+02 -0.13528965408E+02 -0.12799534448E+02  0.27415686026E+02  0.00000000000E+00 0.  1.
</event>
<event>
 8    1  0.5829710E-012  0.9118800E+02  0.7816164E-02  0.1184000E+00
        -11   -1    0    0    0    0  0.00000000000E+00  0.00000000000E+00  0.45593999997E+02  0.45594000000E+02  0.51100000000E-03 0. -1.
         11   -1    0    0    0    0 -0.00000000000E+00 -0.00000000000E+00 -0.45593999997E+02  0.45594000000E+02  0.51100000000E-03 0.  1.
         23    2    1    2    0    0  0.00000000000E+00  0.61062266354E-15  0.00000000000E+00  0.91188000000E+02  0.91188000000E+02 0.  0.
    9900012    2    3    3    0    0 -0.22431548852E+02  0.30572102809E+00 -0.33910141453E+02  0.50528861512E+02  0.30000005051E+02 0.  0.
         12    1    3    3    0    0  0.22431548852E+02 -0.30572102809E+00  0.33910141453E+02  0.40659138488E+02  0.00000000000E+00 0. -1.
         11    1    4    4    0    0 -0.93965330359E+01 -0.45937965667E+01  0.69120159727E+00  0.10482154354E+02  0.51100000000E-03 0. -1.
        -11    1    4    4    0    0 -0.30576209650E+01 -0.47249794253E+01 -0.57946664571E+01  0.80779103824E+01  0.51100000000E-03 0.  1.
        -12    1    4    4    0    0 -0.99773948506E+01  0.96244970201E+01 -0.28806676594E+02  0.31968796775E+02  0.00000000000E+00 0.  1.
</event>
<event>
 8    1  0.5829710E-012  0.9118800E+02  0.7816164E-02  0.1184000E+00
        -11   -1    0    0    0    0  0.00000000000E+00  0.00000000000E+00  0.45593999997E+02  0.45594000000E+02  0.51100000000E-03 0.  1.
         11   -1    0    0    0    0 -0.00000000000E+00 -0.00000000000E+00 -0.45593999997E+02  0.45594000000E+02  0.51100000000E-03 0. -1.
         23    2    1    2    0    0  0.35527136788E-14 -0.71054273576E-14  0.00000000000E+00  0.91188000000E+02  0.91188000000E+02 0.  0.
    9900012    2    3    3    0    0  0.22969119152E+02 -0.26237274241E+02 -0.20909100997E+02  0.50528862051E+02  0.30000006691E+02 0.  0.
         12    1    3    3    0    0 -0.22969119152E+02  0.26237274241E+02  0.20909100997E+02  0.40659137949E+02  0.00000000000E+00 0. -1.
         11    1    4    4    0    0  0.77154556815E+01 -0.20043370328E+02 -0.84860005654E+01  0.23092794468E+02  0.51100000000E-03 0. -1.
        -11    1    4    4    0    0 -0.75842387309E+00 -0.26166591802E+01  0.35922398113E+01  0.45084697137E+01  0.51100000000E-03 0.  1.
         12    1    4    4    0    0  0.16012087344E+02 -0.35772447330E+01 -0.16015340243E+02  0.22927597870E+02  0.00000000000E+00 0. -1.
</event>
<event>
 8    1  0.5829710E-012  0.9118800E+02  0.7816164E-02  0.1184000E+00
        -11   -1    0    0    0    0  0.00000000000E+00  0.00000000000E+00  0.45593999997E+02  0.45594000000E+02  0.51100000000E-03 0. -1.
         11   -1    0    0    0    0 -0.00000000000E+00 -0.00000000000E+00 -0.45593999997E+02  0.45594000000E+02  0.51100000000E-03 0.  1.
         23    2    1    2    0    0 -0.88817841970E-15  0.00000000000E+00  0.00000000000E+00  0.91188000000E+02  0.91188000000E+02 0.  0.
    9900012    2    3    3    0    0 -0.58555922104E+01  0.82694679111E+01 -0.39376313687E+02  0.50528854174E+02  0.29999982748E+02 0.  0.
         12    1    3    3    0    0  0.58555922104E+01 -0.82694679111E+01  0.39376313687E+02  0.40659145826E+02  0.00000000000E+00 0. -1.
         11    1    4    4    0    0  0.22340056277E+01  0.34565383929E+01  0.15939317523E+01  0.44135085247E+01  0.51100000000E-03 0. -1.
        -11    1    4    4    0    0  0.33584464698E+01  0.60663818175E+01 -0.55859661243E+01  0.89041096606E+01  0.51100000000E-03 0.  1.
        -12    1    4    4    0    0 -0.11448044308E+02 -0.12534522992E+01 -0.35384279316E+02  0.37211235989E+02  0.00000000000E+00 0.  1.
</event>
<event>
 8    1  0.5829710E-012  0.9118800E+02  0.7816164E-02  0.1184000E+00
        -11   -1    0    0    0    0  0.00000000000E+00  0.00000000000E+00  0.45593999997E+02  0.45594000000E+02  0.51100000000E-03 0.  1.
         11   -1    0    0    0    0 -0.00000000000E+00 -0.00000000000E+00 -0.45593999997E+02  0.45594000000E+02  0.51100000000E-03 0. -1.
         23    2    1    2    0    0  0.17763568394E-14  0.00000000000E+00  0.00000000000E+00  0.91188000000E+02  0.91188000000E+02 0.  0.
    9900012    2    3    3    0    0  0.95934388989E+01  0.39098649565E+02 -0.56946654135E+01  0.50528835204E+02  0.29999925087E+02 0.  0.
        -12    1    3    3    0    0 -0.95934388989E+01 -0.39098649565E+02  0.56946654135E+01  0.40659164796E+02  0.00000000000E+00 0.  1.
         11    1    4    4    0    0 -0.12550039364E+01 -0.92401765868E+00 -0.12973965885E+01  0.20278268375E+01  0.51100000000E-03 0. -1.
        -11    1    4    4    0    0 -0.78381432231E+01  0.13945003622E+02 -0.36632920659E+01  0.16410951351E+02  0.51100000000E-03 0.  1.
        -12    1    4    4    0    0  0.18686586058E+02  0.26077663601E+02 -0.73397675912E+00  0.32090057016E+02  0.00000000000E+00 0.  1.
</event>
<event>
 8    1  0.5829710E-012  0.9118800E+02  0.7816164E-02  0.1184000E+00
        -11   -1    0    0    0    0  0.00000000000E+00  0.00000000000E+00  0.45593999997E+02  0.45594000000E+02  0.51100000000E-03 0. -1.
         11   -1    0    0    0    0 -0.00000000000E+00 -0.00000000000E+00 -0.45593999997E+02  0.45594000000E+02  0.51100000000E-03 0.  1.
         23    2    1    2    0    0  0.00000000000E+00  0.00000000000E+00  0.71054273576E-14  0.91188000000E+02  0.91188000000E+02 0.  0.
    9900012    2    3    3    0    0 -0.13081018149E+02  0.17573151408E+02  0.34252542097E+02  0.50528864172E+02  0.30000013136E+02 0.  0.
        -12    1    3    3    0    0  0.13081018149E+02 -0.17573151408E+02 -0.34252542097E+02  0.40659135828E+02  0.00000000000E+00 0.  1.
         11    1    4    4    0    0 -0.64249905432E+01  0.74376635392E+01  0.77503365193E+01  0.12516671236E+02  0.51100000000E-03 0. -1.
        -11    1    4    4    0    0 -0.79970093407E+01  0.17769817807E+02  0.19471988397E+02  0.27547720698E+02  0.51100000000E-03 0.  1.
        -12    1    4    4    0    0  0.13409817348E+01 -0.76343299376E+01  0.70302171802E+01  0.10464472237E+02  0.00000000000E+00 0.  1.
</event>
<event>
 8    1  0.5829710E-012  0.9118800E+02  0.7816164E-02  0.1184000E+00
        -11   -1    0    0    0    0  0.00000000000E+00  0.00000000000E+00  0.45593999997E+02  0.45594000000E+02  0.51100000000E-03 0. -1.
         11   -1    0    0    0    0 -0.00000000000E+00 -0.00000000000E+00 -0.45593999997E+02  0.45594000000E+02  0.51100000000E-03 0.  1.
         23    2    1    2    0    0  0.88817841970E-15 -0.88817841970E-15  0.00000000000E+00  0.91188000000E+02  0.91188000000E+02 0.  0.
    9900012    2    3    3    0    0 -0.73030777733E+01 -0.45476067367E+01  0.39738516197E+02  0.50528863985E+02  0.30000012568E+02 0.  0.
        -12    1    3    3    0    0  0.73030777733E+01  0.45476067367E+01 -0.39738516197E+02  0.40659136015E+02  0.00000000000E+00 0.  1.
         11    1    4    4    0    0  0.86517272129E+00  0.20965873838E+01  0.22128212226E+02  0.22244144826E+02  0.51100000000E-03 0. -1.
        -11    1    4    4    0    0  0.86899658380E+00  0.59445117587E+01  0.81627861297E+01  0.10135257904E+02  0.51100000000E-03 0.  1.
         12    1    4    4    0    0 -0.90372470784E+01 -0.12588705879E+02  0.94475178415E+01  0.18149461255E+02  0.00000000000E+00 0. -1.
</event>
<event>
 8    1  0.5829710E-012  0.9118800E+02  0.7816164E-02  0.1184000E+00
        -11   -1    0    0    0    0  0.00000000000E+00  0.00000000000E+00  0.45593999997E+02  0.45594000000E+02  0.51100000000E-03 0. -1.
         11   -1    0    0    0    0 -0.00000000000E+00 -0.00000000000E+00 -0.45593999997E+02  0.45594000000E+02  0.51100000000E-03 0.  1.
         23    2    1    2    0    0  0.35527136788E-14  0.00000000000E+00  0.00000000000E+00  0.91188000000E+02  0.91188000000E+02 0.  0.
    9900012    2    3    3    0    0 -0.28576659366E+02  0.18015230311E+02  0.22627233748E+02  0.50528859690E+02  0.29999999514E+02 0.  0.
        -12    1    3    3    0    0  0.28576659366E+02 -0.18015230311E+02 -0.22627233748E+02  0.40659140310E+02  0.00000000000E+00 0.  1.
         11    1    4    4    0    0 -0.79979380879E+01  0.51790970391E+01  0.11899238128E+02  0.15244078460E+02  0.51100000000E-03 0. -1.
        -11    1    4    4    0    0  0.38742657425E+01  0.67887402040E+01 -0.21833141021E+00  0.78195011008E+01  0.51100000000E-03 0.  1.
         12    1    4    4    0    0 -0.24452987020E+02  0.60473930681E+01  0.10946327029E+02  0.27465280129E+02  0.00000000000E+00 0. -1.
</event>
<event>
 8    1  0.5829710E-012  0.9118800E+02  0.7816164E-02  0.1184000E+00
        -11   -1    0    0    0    0  0.00000000000E+00  0.00000000000E+00  0.45593999997E+02  0.45594000000E+02  0.51100000000E-03 0. -1.
         11   -1    0    0    0    0 -0.00000000000E+00 -0.00000000000E+00 -0.45593999997E+02  0.45594000000E+02  0.51100000000E-03 0.  1.
         23    2    1    2    0    0 -0.17763568394E-14  0.00000000000E+00  0.00000000000E+00  0.91188000000E+02  0.91188000000E+02 0.  0.
    9900012    2    3    3    0    0 -0.92233900686E+01 -0.61271545893E+01  0.39122282752E+02  0.50528856435E+02  0.29999989620E+02 0.  0.
        -12    1    3    3    0    0  0.92233900686E+01  0.61271545893E+01 -0.39122282752E+02  0.40659143565E+02  0.00000000000E+00 0.  1.
         11    1    4    4    0    0 -0.10404778728E+02 -0.37001190245E+00  0.73660879860E+01  0.12753649739E+02  0.51100000000E-03 0. -1.
        -11    1    4    4    0    0 -0.81580879621E+01 -0.71273958701E+01  0.19478734683E+02  0.22288456120E+02  0.51100000000E-03 0.  1.
        -12    1    4    4    0    0  0.93394766212E+01  0.13702531832E+01  0.12277460082E+02  0.15486750576E+02  0.00000000000E+00 0.  1.
</event>
<event>
 8    1  0.5829710E-012  0.9118800E+02  0.7816164E-02  0.1184000E+00
        -11   -1    0    0    0    0  0.00000000000E+00  0.00000000000E+00  0.45593999997E+02  0.45594000000E+02  0.51100000000E-03 0. -1.
         11   -1    0    0    0    0 -0.00000000000E+00 -0.00000000000E+00 -0.45593999997E+02  0.45594000000E+02  0.51100000000E-03 0.  1.
         23    2    1    2    0    0  0.00000000000E+00  0.00000000000E+00  0.00000000000E+00  0.91188000000E+02  0.91188000000E+02 0.  0.
    9900012    2    3    3    0    0  0.24595399706E+02  0.83534377336E+01  0.31280196784E+02  0.50528876552E+02  0.30000050768E+02 0.  0.
        -12    1    3    3    0    0 -0.24595399706E+02 -0.83534377336E+01 -0.31280196784E+02  0.40659123448E+02  0.00000000000E+00 0.  1.
         11    1    4    4    0    0  0.12653883485E+02  0.77272810643E+01  0.34888120968E+01  0.15231659464E+02  0.51100000000E-03 0. -1.
        -11    1    4    4    0    0  0.32242592079E+01 -0.48384890530E+01  0.16442930100E+00  0.58166881480E+01  0.51100000000E-03 0.  1.
         12    1    4    4    0    0  0.87172570133E+01  0.54646457223E+01  0.27626955386E+02  0.29480528941E+02  0.00000000000E+00 0. -1.
</event>
<event>
 8    1  0.5829710E-012  0.9118800E+02  0.7816164E-02  0.1184000E+00
        -11   -1    0    0    0    0  0.00000000000E+00  0.00000000000E+00  0.45593999997E+02  0.45594000000E+02  0.51100000000E-03 0. -1.
         11   -1    0    0    0    0 -0.00000000000E+00 -0.00000000000E+00 -0.45593999997E+02  0.45594000000E+02  0.51100000000E-03 0.  1.
         23    2    1    2    0    0  0.00000000000E+00 -0.35527136788E-14  0.00000000000E+00  0.91188000000E+02  0.91188000000E+02 0.  0.
    9900012    2    3    3    0    0 -0.21008144679E+02  0.22084995386E+02 -0.26908680383E+02  0.50528852887E+02  0.29999978835E+02 0.  0.
         12    1    3    3    0    0  0.21008144679E+02 -0.22084995386E+02  0.26908680383E+02  0.40659147113E+02  0.00000000000E+00 0. -1.
         11    1    4    4    0    0 -0.47784743437E+01  0.24688624643E+01 -0.97190946020E+01  0.11108100606E+02  0.51100000000E-03 0. -1.
        -11    1    4    4    0    0 -0.11737096427E+02  0.15689018856E+02 -0.23592968858E+02  0.30668109250E+02  0.51100000000E-03 0.  1.
         12    1    4    4    0    0 -0.44925739083E+01  0.39271140649E+01  0.64033830770E+01  0.87526430312E+01  0.00000000000E+00 0. -1.
</event>
<event>
 8    1  0.5829710E-012  0.9118800E+02  0.7816164E-02  0.1184000E+00
        -11   -1    0    0    0    0  0.00000000000E+00  0.00000000000E+00  0.45593999997E+02  0.45594000000E+02  0.51100000000E-03 0.  1.
         11   -1    0    0    0    0 -0.00000000000E+00 -0.00000000000E+00 -0.45593999997E+02  0.45594000000E+02  0.51100000000E-03 0. -1.
         23    2    1    2    0    0  0.00000000000E+00 -0.71054273576E-14  0.00000000000E+00  0.91188000000E+02  0.91188000000E+02 0.  0.
    9900012    2    3    3    0    0  0.22663120245E+02 -0.31014914202E+02 -0.13327555770E+02  0.50528860006E+02  0.30000000475E+02 0.  0.
         12    1    3    3    0    0 -0.22663120245E+02  0.31014914202E+02  0.13327555770E+02  0.40659139994E+02  0.00000000000E+00 0. -1.
         11    1    4    4    0    0  0.46740105018E+01 -0.48608016869E+01  0.20591793841E+01  0.70508146485E+01  0.51100000000E-03 0. -1.
        -11    1    4    4    0    0  0.40568234074E+01 -0.24481503401E+02 -0.34472058788E+01  0.25053643519E+02  0.51100000000E-03 0.  1.
         12    1    4    4    0    0  0.13932286336E+02 -0.16726091145E+01 -0.11939529275E+02  0.18424401839E+02  0.00000000000E+00 0. -1.
</event>
<event>
 8    1  0.5829710E-012  0.9118800E+02  0.7816164E-02  0.1184000E+00
        -11   -1    0    0    0    0  0.00000000000E+00  0.00000000000E+00  0.45593999997E+02  0.45594000000E+02  0.51100000000E-03 0.  1.
         11   -1    0    0    0    0 -0.00000000000E+00 -0.00000000000E+00 -0.45593999997E+02  0.45594000000E+02  0.51100000000E-03 0. -1.
         23    2    1    2    0    0  0.00000000000E+00  0.00000000000E+00  0.35527136788E-14  0.91188000000E+02  0.91188000000E+02 0.  0.
    9900012    2    3    3    0    0 -0.19743434637E+02  0.17784317495E+02  0.30774667391E+02  0.50528864335E+02  0.30000013631E+02 0.  0.
        -12    1    3    3    0    0  0.19743434637E+02 -0.17784317495E+02 -0.30774667391E+02  0.40659135665E+02  0.00000000000E+00 0.  1.
         11    1    4    4    0    0 -0.46334292529E+01  0.68423513397E+01  0.67373106867E+01  0.10661978899E+02  0.51100000000E-03 0.  1.
        -11    1    4    4    0    0 -0.19272259470E+02  0.15966195409E+02  0.16909119221E+02  0.30203603990E+02  0.51100000000E-03 0. -1.
        -12    1    4    4    0    0  0.41622540861E+01 -0.50242292533E+01  0.71282374833E+01  0.96632814450E+01  0.00000000000E+00 0.  1.
</event>
<event>
 8    1  0.5829710E-012  0.9118800E+02  0.7816164E-02  0.1184000E+00
        -11   -1    0    0    0    0  0.00000000000E+00  0.00000000000E+00  0.45593999997E+02  0.45594000000E+02  0.51100000000E-03 0.  1.
         11   -1    0    0    0    0 -0.00000000000E+00 -0.00000000000E+00 -0.45593999997E+02  0.45594000000E+02  0.51100000000E-03 0. -1.
         23    2    1    2    0    0  0.88817841970E-15  0.00000000000E+00  0.35527136788E-14  0.91188000000E+02  0.91188000000E+02 0.  0.
    9900012    2    3    3    0    0 -0.75613118286E+01  0.33666498917E+02 -0.21507179907E+02  0.50528863592E+02  0.30000011373E+02 0.  0.
         12    1    3    3    0    0  0.75613118286E+01 -0.33666498917E+02  0.21507179907E+02  0.40659136408E+02  0.00000000000E+00 0. -1.
         11    1    4    4    0    0 -0.44409869739E+00  0.13581352516E+01 -0.49796284828E+01  0.51805844364E+01  0.51100000000E-03 0. -1.
        -11    1    4    4    0    0 -0.85847261308E+01 -0.11165343701E+01 -0.20699367127E+01  0.89010566786E+01  0.51100000000E-03 0.  1.
         12    1    4    4    0    0  0.14675129996E+01  0.33424898036E+02 -0.14457614712E+02  0.36447222477E+02  0.00000000000E+00 0. -1.
</event>
<event>
 8    1  0.5829710E-012  0.9118800E+02  0.7816164E-02  0.1184000E+00
        -11   -1    0    0    0    0  0.00000000000E+00  0.00000000000E+00  0.45593999997E+02  0.45594000000E+02  0.51100000000E-03 0. -1.
         11   -1    0    0    0    0 -0.00000000000E+00 -0.00000000000E+00 -0.45593999997E+02  0.45594000000E+02  0.51100000000E-03 0.  1.
         23    2    1    2    0    0  0.17763568394E-14  0.11102230246E-14  0.00000000000E+00  0.91188000000E+02  0.91188000000E+02 0.  0.
    9900012    2    3    3    0    0  0.12000097200E+02  0.34830610373E+00  0.38846394336E+02  0.50528855852E+02  0.29999987847E+02 0.  0.
        -12    1    3    3    0    0 -0.12000097200E+02 -0.34830610373E+00 -0.38846394336E+02  0.40659144148E+02  0.00000000000E+00 0.  1.
         11    1    4    4    0    0  0.70312692042E+00 -0.75291955041E+01  0.13354335373E+02  0.15346707983E+02  0.51100000000E-03 0. -1.
        -11    1    4    4    0    0 -0.77041512892E+00 -0.53636031502E+01  0.10524084038E+02  0.11837150135E+02  0.51100000000E-03 0.  1.
        -12    1    4    4    0    0  0.12067385408E+02  0.13241104758E+02  0.14967974926E+02  0.23344997734E+02  0.00000000000E+00 0.  1.
</event>
<event>
 8    1  0.5829710E-012  0.9118800E+02  0.7816164E-02  0.1184000E+00
        -11   -1    0    0    0    0  0.00000000000E+00  0.00000000000E+00  0.45593999997E+02  0.45594000000E+02  0.51100000000E-03 0. -1.
         11   -1    0    0    0    0 -0.00000000000E+00 -0.00000000000E+00 -0.45593999997E+02  0.45594000000E+02  0.51100000000E-03 0.  1.
         23    2    1    2    0    0  0.00000000000E+00 -0.71054273576E-14 -0.11102230246E-14  0.91188000000E+02  0.91188000000E+02 0.  0.
    9900012    2    3    3    0    0 -0.16599895668E+02 -0.37110546801E+02 -0.64624337750E+00  0.50528845428E+02  0.29999956162E+02 0.  0.
        -12    1    3    3    0    0  0.16599895668E+02  0.37110546801E+02  0.64624337750E+00  0.40659154572E+02  0.00000000000E+00 0.  1.
         11    1    4    4    0    0 -0.21942760896E+01 -0.73885049577E+01  0.50879427592E+01  0.92353676077E+01  0.51100000000E-03 0. -1.
        -11    1    4    4    0    0 -0.15205893534E+02 -0.23519760698E+02  0.54002840902E+01  0.28522997914E+02  0.51100000000E-03 0.  1.
        -12    1    4    4    0    0  0.80027395591E+00 -0.62022811451E+01 -0.11134470227E+02  0.12770479906E+02  0.00000000000E+00 0.  1.
</event>
<event>
 8    1  0.5829710E-012  0.9118800E+02  0.7816164E-02  0.1184000E+00
        -11   -1    0    0    0    0  0.00000000000E+00  0.00000000000E+00  0.45593999997E+02  0.45594000000E+02  0.51100000000E-03 0. -1.
         11   -1    0    0    0    0 -0.00000000000E+00 -0.00000000000E+00 -0.45593999997E+02  0.45594000000E+02  0.51100000000E-03 0.  1.
         23    2    1    2    0    0  0.17763568394E-14  0.00000000000E+00  0.00000000000E+00  0.91188000000E+02  0.91188000000E+02 0.  0.
    9900012    2    3    3    0    0  0.14969087997E+02  0.18828908361E+01  0.37756410458E+02  0.50528863216E+02  0.30000010232E+02 0.  0.
        -12    1    3    3    0    0 -0.14969087997E+02 -0.18828908361E+01 -0.37756410458E+02  0.40659136784E+02  0.00000000000E+00 0.  1.
         11    1    4    4    0    0 -0.43415283999E+01  0.27123441550E+01  0.15619654909E+02  0.16437131727E+02  0.51100000000E-03 0. -1.
        -11    1    4    4    0    0  0.43266793475E+01 -0.24905006875E+01 -0.22066462787E+01  0.54582081227E+01  0.51100000000E-03 0.  1.
        -12    1    4    4    0    0  0.14983937049E+02  0.16610473685E+01  0.24343401827E+02  0.28633523366E+02  0.00000000000E+00 0.  1.
</event>
<event>
 8    1  0.5829710E-012  0.9118800E+02  0.7816164E-02  0.1184000E+00
        -11   -1    0    0    0    0  0.00000000000E+00  0.00000000000E+00  0.45593999997E+02  0.45594000000E+02  0.51100000000E-03 0. -1.
         11   -1    0    0    0    0 -0.00000000000E+00 -0.00000000000E+00 -0.45593999997E+02  0.45594000000E+02  0.51100000000E-03 0.  1.
         23    2    1    2    0    0 -0.17763568394E-14  0.00000000000E+00 -0.35527136788E-14  0.91188000000E+02  0.91188000000E+02 0.  0.
    9900012    2    3    3    0    0  0.95428142278E+01  0.27081157607E+02 -0.28787430439E+02  0.50528799910E+02  0.29999817805E+02 0.  0.
         12    1    3    3    0    0 -0.95428142278E+01 -0.27081157607E+02  0.28787430439E+02  0.40659200090E+02  0.00000000000E+00 0. -1.
         11    1    4    4    0    0  0.17055447492E+01  0.10162565953E+02 -0.14810970925E+02  0.18043045465E+02  0.51100000000E-03 0. -1.
        -11    1    4    4    0    0 -0.28979911103E+01  0.17661605062E+02 -0.11990620855E+02  0.21543111070E+02  0.51100000000E-03 0.  1.
         12    1    4    4    0    0  0.10735260589E+02 -0.74301340828E+00 -0.19858386588E+01  0.10942643374E+02  0.00000000000E+00 0. -1.
</event>
<event>
 8    1  0.5829710E-012  0.9118800E+02  0.7816164E-02  0.1184000E+00
        -11   -1    0    0    0    0  0.00000000000E+00  0.00000000000E+00  0.45593999997E+02  0.45594000000E+02  0.51100000000E-03 0. -1.
         11   -1    0    0    0    0 -0.00000000000E+00 -0.00000000000E+00 -0.45593999997E+02  0.45594000000E+02  0.51100000000E-03 0.  1.
         23    2    1    2    0    0  0.00000000000E+00  0.44408920985E-15  0.00000000000E+00  0.91188000000E+02  0.91188000000E+02 0.  0.
    9900012    2    3    3    0    0  0.19306965627E+02 -0.22163489789E+01  0.35714082771E+02  0.50528845647E+02  0.29999956829E+02 0.  0.
        -12    1    3    3    0    0 -0.19306965627E+02  0.22163489789E+01 -0.35714082771E+02  0.40659154353E+02  0.00000000000E+00 0.  1.
         11    1    4    4    0    0  0.48648981336E+01  0.76473956145E+01  0.49398641846E+01  0.10322410182E+02  0.51100000000E-03 0. -1.
        -11    1    4    4    0    0  0.22507304706E+01  0.37255660330E+01 -0.82534377209E-01  0.43534402605E+01  0.51100000000E-03 0.  1.
         12    1    4    4    0    0  0.12191337023E+02 -0.13589310626E+02  0.30856752964E+02  0.35852995205E+02  0.00000000000E+00 0. -1.
</event>
<event>
 8    1  0.5829710E-012  0.9118800E+02  0.7816164E-02  0.1184000E+00
        -11   -1    0    0    0    0  0.00000000000E+00  0.00000000000E+00  0.45593999997E+02  0.45594000000E+02  0.51100000000E-03 0. -1.
         11   -1    0    0    0    0 -0.00000000000E+00 -0.00000000000E+00 -0.45593999997E+02  0.45594000000E+02  0.51100000000E-03 0.  1.
         23    2    1    2    0    0 -0.88817841970E-15  0.35527136788E-14 -0.71054273576E-14  0.91188000000E+02  0.91188000000E+02 0.  0.
    9900012    2    3    3    0    0  0.70841444567E+01  0.16168262083E+02 -0.36627418707E+02  0.50528860774E+02  0.30000002810E+02 0.  0.
         12    1    3    3    0    0 -0.70841444567E+01 -0.16168262083E+02  0.36627418707E+02  0.40659139226E+02  0.00000000000E+00 0. -1.
         11    1    4    4    0    0 -0.11858260804E+01 -0.58793677832E+00 -0.13497107345E+02  0.13561849435E+02  0.51100000000E-03 0. -1.
        -11    1    4    4    0    0 -0.10050708765E+01  0.18207874745E+02 -0.20012998252E+02  0.27075024829E+02  0.51100000000E-03 0.  1.
         12    1    4    4    0    0  0.92750414137E+01 -0.14516758843E+01 -0.31173131098E+01  0.98919865105E+01  0.00000000000E+00 0. -1.
</event>
<event>
 8    1  0.5829710E-012  0.9118800E+02  0.7816164E-02  0.1184000E+00
        -11   -1    0    0    0    0  0.00000000000E+00  0.00000000000E+00  0.45593999997E+02  0.45594000000E+02  0.51100000000E-03 0.  1.
         11   -1    0    0    0    0 -0.00000000000E+00 -0.00000000000E+00 -0.45593999997E+02  0.45594000000E+02  0.51100000000E-03 0. -1.
         23    2    1    2    0    0  0.00000000000E+00  0.00000000000E+00  0.35527136788E-14  0.91188000000E+02  0.91188000000E+02 0.  0.
    9900012    2    3    3    0    0  0.23888394010E+02  0.22412168869E+02  0.24087444202E+02  0.50528860192E+02  0.30000001039E+02 0.  0.
        -12    1    3    3    0    0 -0.23888394010E+02 -0.22412168869E+02 -0.24087444202E+02  0.40659139808E+02  0.00000000000E+00 0.  1.
         11    1    4    4    0    0  0.19233162480E+02  0.29631625196E+01  0.41064726977E+01  0.19888639706E+02  0.51100000000E-03 0. -1.
        -11    1    4    4    0    0 -0.26554601383E+01  0.27832001319E+00  0.17417527428E+01  0.31878885574E+01  0.51100000000E-03 0.  1.
        -12    1    4    4    0    0  0.73106916684E+01  0.19170686336E+02  0.18239218761E+02  0.27452331928E+02  0.00000000000E+00 0.  1.
</event>
<event>
 8    1  0.5829710E-012  0.9118800E+02  0.7816164E-02  0.1184000E+00
        -11   -1    0    0    0    0  0.00000000000E+00  0.00000000000E+00  0.45593999997E+02  0.45594000000E+02  0.51100000000E-03 0. -1.
         11   -1    0    0    0    0 -0.00000000000E+00 -0.00000000000E+00 -0.45593999997E+02  0.45594000000E+02  0.51100000000E-03 0.  1.
         23    2    1    2    0    0 -0.35527136788E-14  0.35527136788E-14  0.00000000000E+00  0.91188000000E+02  0.91188000000E+02 0.  0.
    9900012    2    3    3    0    0 -0.29898421310E+02  0.26538761721E+02  0.74124539736E+01  0.50528856571E+02  0.29999990033E+02 0.  0.
         12    1    3    3    0    0  0.29898421310E+02 -0.26538761721E+02 -0.74124539736E+01  0.40659143429E+02  0.00000000000E+00 0. -1.
         11    1    4    4    0    0 -0.19381332429E+02  0.15773710897E+02 -0.55909799122E+01  0.25606738543E+02  0.51100000000E-03 0. -1.
        -11    1    4    4    0    0 -0.23404459122E+01  0.37779266351E+01 -0.31983529548E+01  0.54753884440E+01  0.51100000000E-03 0.  1.
         12    1    4    4    0    0 -0.81766429687E+01  0.69871241884E+01  0.16201786841E+02  0.19446729583E+02  0.00000000000E+00 0. -1.
</event>
<event>
 8    1  0.5829710E-012  0.9118800E+02  0.7816164E-02  0.1184000E+00
        -11   -1    0    0    0    0  0.00000000000E+00  0.00000000000E+00  0.45593999997E+02  0.45594000000E+02  0.51100000000E-03 0. -1.
         11   -1    0    0    0    0 -0.00000000000E+00 -0.00000000000E+00 -0.45593999997E+02  0.45594000000E+02  0.51100000000E-03 0.  1.
         23    2    1    2    0    0  0.00000000000E+00  0.00000000000E+00  0.00000000000E+00  0.91188000000E+02  0.91188000000E+02 0.  0.
    9900012    2    3    3    0    0  0.79785671479E+01 -0.87519839785E+01  0.38896155860E+02  0.50528859601E+02  0.29999999243E+02 0.  0.
        -12    1    3    3    0    0 -0.79785671479E+01  0.87519839785E+01 -0.38896155860E+02  0.40659140399E+02  0.00000000000E+00 0.  1.
         11    1    4    4    0    0 -0.28275973962E+00 -0.11394497586E+02  0.11074512422E+02  0.15892116094E+02  0.51100000000E-03 0. -1.
        -11    1    4    4    0    0  0.11347921937E+01 -0.69477217888E+01  0.17444027868E+02  0.18810972859E+02  0.51100000000E-03 0.  1.
         12    1    4    4    0    0  0.71265346938E+01  0.95902353959E+01  0.10377615570E+02  0.15825770648E+02  0.00000000000E+00 0. -1.
</event>
<event>
 8    1  0.5829710E-012  0.9118800E+02  0.7816164E-02  0.1184000E+00
        -11   -1    0    0    0    0  0.00000000000E+00  0.00000000000E+00  0.45593999997E+02  0.45594000000E+02  0.51100000000E-03 0. -1.
         11   -1    0    0    0    0 -0.00000000000E+00 -0.00000000000E+00 -0.45593999997E+02  0.45594000000E+02  0.51100000000E-03 0.  1.
         23    2    1    2    0    0  0.00000000000E+00 -0.22204460493E-14 -0.35527136788E-14  0.91188000000E+02  0.91188000000E+02 0.  0.
    9900012    2    3    3    0    0  0.30199636020E+02  0.19396215872E+01  0.27154822798E+02  0.50528873732E+02  0.30000042197E+02 0.  0.
        -12    1    3    3    0    0 -0.30199636020E+02 -0.19396215872E+01 -0.27154822798E+02  0.40659126268E+02  0.00000000000E+00 0.  1.
         11    1    4    4    0    0  0.57269118932E+00 -0.50288586081E+01  0.52266718410E+01  0.72756781741E+01  0.51100000000E-03 0. -1.
        -11    1    4    4    0    0  0.12228470723E+02  0.13913706587E+02  0.10102957639E+02  0.21099679631E+02  0.51100000000E-03 0.  1.
         12    1    4    4    0    0  0.17398474108E+02 -0.69452263919E+01  0.11825193318E+02  0.22153515927E+02  0.00000000000E+00 0. -1.
</event>
<event>
 8    1  0.5829710E-012  0.9118800E+02  0.7816164E-02  0.1184000E+00
        -11   -1    0    0    0    0  0.00000000000E+00  0.00000000000E+00  0.45593999997E+02  0.45594000000E+02  0.51100000000E-03 0. -1.
         11   -1    0    0    0    0 -0.00000000000E+00 -0.00000000000E+00 -0.45593999997E+02  0.45594000000E+02  0.51100000000E-03 0.  1.
         23    2    1    2    0    0  0.00000000000E+00  0.00000000000E+00  0.00000000000E+00  0.91188000000E+02  0.91188000000E+02 0.  0.
    9900012    2    3    3    0    0 -0.19525458627E+02 -0.22974456631E+01  0.35589950546E+02  0.50528851324E+02  0.29999974086E+02 0.  0.
        -12    1    3    3    0    0  0.19525458627E+02  0.22974456631E+01 -0.35589950546E+02  0.40659148676E+02  0.00000000000E+00 0.  1.
         11    1    4    4    0    0  0.21159164893E+01  0.54563131493E+01  0.16304620192E+02  0.17323079854E+02  0.51100000000E-03 0. -1.
        -11    1    4    4    0    0 -0.84742505709E+00 -0.25375230543E+01 -0.17293328743E+01  0.31855525313E+01  0.51100000000E-03 0.  1.
         12    1    4    4    0    0 -0.20793950059E+02 -0.52162357582E+01  0.21014663228E+02  0.30020218939E+02  0.00000000000E+00 0. -1.
</event>
<event>
 8    1  0.5829710E-012  0.9118800E+02  0.7816164E-02  0.1184000E+00
        -11   -1    0    0    0    0  0.00000000000E+00  0.00000000000E+00  0.45593999997E+02  0.45594000000E+02  0.51100000000E-03 0.  1.
         11   -1    0    0    0    0 -0.00000000000E+00 -0.00000000000E+00 -0.45593999997E+02  0.45594000000E+02  0.51100000000E-03 0. -1.
         23    2    1    2    0    0 -0.35527136788E-14  0.00000000000E+00  0.35527136788E-14  0.91188000000E+02  0.91188000000E+02 0.  0.
    9900012    2    3    3    0    0  0.29436361824E+02 -0.21345801015E+02 -0.18194085394E+02  0.50528839141E+02  0.29999937053E+02 0.  0.
         12    1    3    3    0    0 -0.29436361824E+02  0.21345801015E+02  0.18194085394E+02  0.40659160859E+02  0.00000000000E+00 0. -1.
         11    1    4    4    0    0  0.83073513421E+01 -0.59668818352E+01 -0.35635145490E+00  0.10234390640E+02  0.51100000000E-03 0. -1.
        -11    1    4    4    0    0  0.17152266876E+02 -0.48495630294E+01  0.15337391069E+01  0.17890524768E+02  0.51100000000E-03 0.  1.
         12    1    4    4    0    0  0.39767436062E+01 -0.10529356151E+02 -0.19371473046E+02  0.22403923733E+02  0.00000000000E+00 0. -1.
</event>
<event>
 8    1  0.5829710E-012  0.9118800E+02  0.7816164E-02  0.1184000E+00
        -11   -1    0    0    0    0  0.00000000000E+00  0.00000000000E+00  0.45593999997E+02  0.45594000000E+02  0.51100000000E-03 0. -1.
         11   -1    0    0    0    0 -0.00000000000E+00 -0.00000000000E+00 -0.45593999997E+02  0.45594000000E+02  0.51100000000E-03 0.  1.
         23    2    1    2    0    0 -0.71054273576E-14  0.00000000000E+00  0.00000000000E+00  0.91188000000E+02  0.91188000000E+02 0.  0.
    9900012    2    3    3    0    0 -0.28319850995E+02 -0.19999242744E+02  0.21241044733E+02  0.50528860166E+02  0.30000000961E+02 0.  0.
        -12    1    3    3    0    0  0.28319850995E+02  0.19999242744E+02 -0.21241044733E+02  0.40659139834E+02  0.00000000000E+00 0.  1.
         11    1    4    4    0    0 -0.29226127518E+02 -0.18591924476E+02  0.19891461325E+02  0.39943665572E+02  0.51100000000E-03 0. -1.
        -11    1    4    4    0    0 -0.15105050141E+01  0.75740718391E+00  0.52479599279E+01  0.55132907330E+01  0.51100000000E-03 0.  1.
        -12    1    4    4    0    0  0.24167815376E+01 -0.21647254517E+01 -0.38983765203E+01  0.50719038611E+01  0.00000000000E+00 0.  1.
</event>
<event>
 8    1  0.5829710E-012  0.9118800E+02  0.7816164E-02  0.1184000E+00
        -11   -1    0    0    0    0  0.00000000000E+00  0.00000000000E+00  0.45593999997E+02  0.45594000000E+02  0.51100000000E-03 0. -1.
         11   -1    0    0    0    0 -0.00000000000E+00 -0.00000000000E+00 -0.45593999997E+02  0.45594000000E+02  0.51100000000E-03 0.  1.
         23    2    1    2    0    0 -0.71054273576E-14  0.00000000000E+00  0.17763568394E-14  0.91188000000E+02  0.91188000000E+02 0.  0.
    9900012    2    3    3    0    0  0.25325313532E+02  0.31300274819E+02 -0.56645526939E+01  0.50528857529E+02  0.29999992947E+02 0.  0.
         12    1    3    3    0    0 -0.25325313532E+02 -0.31300274819E+02  0.56645526939E+01  0.40659142471E+02  0.00000000000E+00 0. -1.
         11    1    4    4    0    0  0.88001532770E+00  0.69912600717E+00  0.29351928504E+01  0.31430178938E+01  0.51100000000E-03 0. -1.
        -11    1    4    4    0    0  0.16934003449E+02  0.23184972042E+02  0.60384219578E+01  0.29338812884E+02  0.51100000000E-03 0.  1.
        -12    1    4    4    0    0  0.75112947550E+01  0.74161767695E+01 -0.14638167502E+02  0.18047026752E+02  0.00000000000E+00 0.  1.
</event>
<event>
 8    1  0.5829710E-012  0.9118800E+02  0.7816164E-02  0.1184000E+00
        -11   -1    0    0    0    0  0.00000000000E+00  0.00000000000E+00  0.45593999997E+02  0.45594000000E+02  0.51100000000E-03 0. -1.
         11   -1    0    0    0    0 -0.00000000000E+00 -0.00000000000E+00 -0.45593999997E+02  0.45594000000E+02  0.51100000000E-03 0.  1.
         23    2    1    2    0    0  0.00000000000E+00  0.17763568394E-14  0.00000000000E+00  0.91188000000E+02  0.91188000000E+02 0.  0.
    9900012    2    3    3    0    0 -0.17458890368E+02 -0.43445055737E+01  0.36462004925E+02  0.50528863454E+02  0.30000010954E+02 0.  0.
        -12    1    3    3    0    0  0.17458890368E+02  0.43445055737E+01 -0.36462004925E+02  0.40659136546E+02  0.00000000000E+00 0.  1.
         11    1    4    4    0    0 -0.91445830342E+01 -0.30770970463E+01  0.71567326184E+01  0.12012940820E+02  0.51100000000E-03 0. -1.
        -11    1    4    4    0    0  0.14359893274E+01 -0.49554259314E+01 -0.19902560807E+01  0.55298671808E+01  0.51100000000E-03 0.  1.
         12    1    4    4    0    0 -0.97502966608E+01  0.36880174039E+01  0.31295528387E+02  0.32986055453E+02  0.00000000000E+00 0. -1.
</event>
<event>
 8    1  0.5829710E-012  0.9118800E+02  0.7816164E-02  0.1184000E+00
        -11   -1    0    0    0    0  0.00000000000E+00  0.00000000000E+00  0.45593999997E+02  0.45594000000E+02  0.51100000000E-03 0. -1.
         11   -1    0    0    0    0 -0.00000000000E+00 -0.00000000000E+00 -0.45593999997E+02  0.45594000000E+02  0.51100000000E-03 0.  1.
         23    2    1    2    0    0  0.88817841970E-15 -0.44408920985E-15  0.00000000000E+00  0.91188000000E+02  0.91188000000E+02 0.  0.
    9900012    2    3    3    0    0 -0.26154786805E+01 -0.25727482433E+01 -0.40493280830E+02  0.50528861364E+02  0.30000004601E+02 0.  0.
         12    1    3    3    0    0  0.26154786805E+01  0.25727482433E+01  0.40493280830E+02  0.40659138636E+02  0.00000000000E+00 0. -1.
         11    1    4    4    0    0 -0.74229876535E+01 -0.39207723399E+01 -0.53003650492E+01  0.99280950520E+01  0.51100000000E-03 0. -1.
        -11    1    4    4    0    0  0.88334614871E+01  0.15159940201E+01 -0.52481593524E+01  0.10386118455E+02  0.51100000000E-03 0.  1.
        -12    1    4    4    0    0 -0.40259525141E+01 -0.16796992352E+00 -0.29944756429E+02  0.30214647857E+02  0.00000000000E+00 0.  1.
</event>
<event>
 8    1  0.5829710E-012  0.9118800E+02  0.7816164E-02  0.1184000E+00
        -11   -1    0    0    0    0  0.00000000000E+00  0.00000000000E+00  0.45593999997E+02  0.45594000000E+02  0.51100000000E-03 0.  1.
         11   -1    0    0    0    0 -0.00000000000E+00 -0.00000000000E+00 -0.45593999997E+02  0.45594000000E+02  0.51100000000E-03 0. -1.
         23    2    1    2    0    0  0.00000000000E+00  0.71054273576E-14  0.00000000000E+00  0.91188000000E+02  0.91188000000E+02 0.  0.
    9900012    2    3    3    0    0  0.10832112212E+02  0.34819907292E+02  0.17983457972E+02  0.50528863764E+02  0.30000011898E+02 0.  0.
        -12    1    3    3    0    0 -0.10832112212E+02 -0.34819907292E+02 -0.17983457972E+02  0.40659136236E+02  0.00000000000E+00 0.  1.
         11    1    4    4    0    0  0.27860769186E+01  0.22620778856E+01 -0.71900286331E+00  0.36600800996E+01  0.51100000000E-03 0. -1.
        -11    1    4    4    0    0  0.88355015500E+01 -0.14316487468E+01  0.45691255556E+01  0.10049508166E+02  0.51100000000E-03 0.  1.
         12    1    4    4    0    0 -0.78946625687E+00  0.33989478153E+02  0.14133335280E+02  0.36819275499E+02  0.00000000000E+00 0. -1.
</event>
<event>
 8    1  0.5829710E-012  0.9118800E+02  0.7816164E-02  0.1184000E+00
        -11   -1    0    0    0    0  0.00000000000E+00  0.00000000000E+00  0.45593999997E+02  0.45594000000E+02  0.51100000000E-03 0. -1.
         11   -1    0    0    0    0 -0.00000000000E+00 -0.00000000000E+00 -0.45593999997E+02  0.45594000000E+02  0.51100000000E-03 0.  1.
         23    2    1    2    0    0  0.00000000000E+00  0.00000000000E+00  0.00000000000E+00  0.91188000000E+02  0.91188000000E+02 0.  0.
    9900012    2    3    3    0    0  0.80269906943E+01  0.20771075631E+02 -0.34019071691E+02  0.50528838656E+02  0.29999935579E+02 0.  0.
         12    1    3    3    0    0 -0.80269906943E+01 -0.20771075631E+02  0.34019071691E+02  0.40659161344E+02  0.00000000000E+00 0. -1.
         11    1    4    4    0    0  0.13540857354E+01 -0.26572126302E+01 -0.10820719237E+02  0.11224183364E+02  0.51100000000E-03 0. -1.
        -11    1    4    4    0    0 -0.42865758233E+01  0.80702335673E+01  0.33209423503E+00  0.91440521084E+01  0.51100000000E-03 0.  1.
        -12    1    4    4    0    0  0.10959480782E+02  0.15358054694E+02 -0.23530446689E+02  0.30160603184E+02  0.00000000000E+00 0.  1.
</event>
<event>
 8    1  0.5829710E-012  0.9118800E+02  0.7816164E-02  0.1184000E+00
        -11   -1    0    0    0    0  0.00000000000E+00  0.00000000000E+00  0.45593999997E+02  0.45594000000E+02  0.51100000000E-03 0. -1.
         11   -1    0    0    0    0 -0.00000000000E+00 -0.00000000000E+00 -0.45593999997E+02  0.45594000000E+02  0.51100000000E-03 0.  1.
         23    2    1    2    0    0 -0.88817841970E-15 -0.35527136788E-14  0.00000000000E+00  0.91188000000E+02  0.91188000000E+02 0.  0.
    9900012    2    3    3    0    0 -0.68950554839E+01  0.23044105646E+02 -0.32780989516E+02  0.50528857500E+02  0.29999992857E+02 0.  0.
         12    1    3    3    0    0  0.68950554839E+01 -0.23044105646E+02  0.32780989516E+02  0.40659142500E+02  0.00000000000E+00 0. -1.
         11    1    4    4    0    0 -0.38323347490E+01  0.25905453581E+01 -0.16779102574E+01  0.49206806413E+01  0.51100000000E-03 0. -1.
        -11    1    4    4    0    0 -0.13386728297E+02  0.12678394386E+02 -0.25629852795E+02  0.31572702343E+02  0.51100000000E-03 0.  1.
         12    1    4    4    0    0  0.10324007562E+02  0.77751659019E+01 -0.54732264640E+01  0.14035474515E+02  0.00000000000E+00 0. -1.
</event>
<event>
 8    1  0.5829710E-012  0.9118800E+02  0.7816164E-02  0.1184000E+00
        -11   -1    0    0    0    0  0.00000000000E+00  0.00000000000E+00  0.45593999997E+02  0.45594000000E+02  0.51100000000E-03 0. -1.
         11   -1    0    0    0    0 -0.00000000000E+00 -0.00000000000E+00 -0.45593999997E+02  0.45594000000E+02  0.51100000000E-03 0.  1.
         23    2    1    2    0    0  0.35527136788E-14  0.00000000000E+00 -0.35527136788E-14  0.91188000000E+02  0.91188000000E+02 0.  0.
    9900012    2    3    3    0    0 -0.11340872130E+02 -0.25007434970E+02  0.29986302552E+02  0.50528861726E+02  0.30000005701E+02 0.  0.
        -12    1    3    3    0    0  0.11340872130E+02  0.25007434970E+02 -0.29986302552E+02  0.40659138274E+02  0.00000000000E+00 0.  1.
         11    1    4    4    0    0 -0.86586235530E+01 -0.73150120436E+01  0.95584640411E+01  0.14827184430E+02  0.51100000000E-03 0. -1.
        -11    1    4    4    0    0  0.35222931619E+01 -0.13013637443E+02  0.23702881638E+02  0.27268808313E+02  0.51100000000E-03 0.  1.
         12    1    4    4    0    0 -0.62045417387E+01 -0.46787854837E+01 -0.32750431269E+01  0.84328689823E+01  0.00000000000E+00 0. -1.
</event>
<event>
 8    1  0.5829710E-012  0.9118800E+02  0.7816164E-02  0.1184000E+00
        -11   -1    0    0    0    0  0.00000000000E+00  0.00000000000E+00  0.45593999997E+02  0.45594000000E+02  0.51100000000E-03 0. -1.
         11   -1    0    0    0    0 -0.00000000000E+00 -0.00000000000E+00 -0.45593999997E+02  0.45594000000E+02  0.51100000000E-03 0.  1.
         23    2    1    2    0    0  0.44408920985E-15  0.00000000000E+00  0.00000000000E+00  0.91188000000E+02  0.91188000000E+02 0.  0.
    9900012    2    3    3    0    0  0.35137389318E+01  0.16243282780E+02  0.37107572686E+02  0.50528898345E+02  0.30000117009E+02 0.  0.
        -12    1    3    3    0    0 -0.35137389318E+01 -0.16243282780E+02 -0.37107572686E+02  0.40659101655E+02  0.00000000000E+00 0.  1.
         11    1    4    4    0    0  0.79678635014E+01 -0.18632861934E+01  0.34792261160E+01  0.88917770352E+01  0.51100000000E-03 0. -1.
        -11    1    4    4    0    0 -0.32563557848E+01  0.22711456512E+01 -0.49357064737E+00  0.40006959159E+01  0.51100000000E-03 0.  1.
        -12    1    4    4    0    0 -0.11977687848E+01  0.15835423323E+02  0.34121917217E+02  0.37636425394E+02  0.00000000000E+00 0.  1.
</event>
<event>
 8    1  0.5829710E-012  0.9118800E+02  0.7816164E-02  0.1184000E+00
        -11   -1    0    0    0    0  0.00000000000E+00  0.00000000000E+00  0.45593999997E+02  0.45594000000E+02  0.51100000000E-03 0. -1.
         11   -1    0    0    0    0 -0.00000000000E+00 -0.00000000000E+00 -0.45593999997E+02  0.45594000000E+02  0.51100000000E-03 0.  1.
         23    2    1    2    0    0 -0.35527136788E-14  0.35527136788E-14  0.00000000000E+00  0.91188000000E+02  0.91188000000E+02 0.  0.
    9900012    2    3    3    0    0  0.15488637226E+02 -0.29241277834E+02 -0.23626594237E+02  0.50528853824E+02  0.29999981685E+02 0.  0.
         12    1    3    3    0    0 -0.15488637226E+02  0.29241277834E+02  0.23626594237E+02  0.40659146176E+02  0.00000000000E+00 0. -1.
         11    1    4    4    0    0 -0.89837618153E+00 -0.13767729594E+02  0.72728249574E+00  0.13816164375E+02  0.51100000000E-03 0. -1.
        -11    1    4    4    0    0 -0.82773256778E+00  0.22055319744E+01 -0.43507376602E+01  0.49475681848E+01  0.51100000000E-03 0.  1.
         12    1    4    4    0    0  0.17214745975E+02 -0.17679080214E+02 -0.20003139072E+02  0.31765121265E+02  0.00000000000E+00 0. -1.
</event>
<event>
 8    1  0.5829710E-012  0.9118800E+02  0.7816164E-02  0.1184000E+00
        -11   -1    0    0    0    0  0.00000000000E+00  0.00000000000E+00  0.45593999997E+02  0.45594000000E+02  0.51100000000E-03 0. -1.
         11   -1    0    0    0    0 -0.00000000000E+00 -0.00000000000E+00 -0.45593999997E+02  0.45594000000E+02  0.51100000000E-03 0.  1.
         23    2    1    2    0    0  0.88817841970E-15  0.00000000000E+00 -0.71054273576E-14  0.91188000000E+02  0.91188000000E+02 0.  0.
    9900012    2    3    3    0    0 -0.51704681230E+01  0.23077580484E+02  0.33073518138E+02  0.50528855105E+02  0.29999985576E+02 0.  0.
        -12    1    3    3    0    0  0.51704681230E+01 -0.23077580484E+02 -0.33073518138E+02  0.40659144895E+02  0.00000000000E+00 0.  1.
         11    1    4    4    0    0 -0.20541360533E+01  0.26764309265E+01  0.11421608007E+02  0.11909487275E+02  0.51100000000E-03 0. -1.
        -11    1    4    4    0    0 -0.10036203633E+02 -0.30102083842E+00  0.53609031490E+01  0.11382235270E+02  0.51100000000E-03 0.  1.
        -12    1    4    4    0    0  0.69198715638E+01  0.20702170396E+02  0.16291006982E+02  0.27237132559E+02  0.00000000000E+00 0.  1.
</event>
<event>
 8    1  0.5829710E-012  0.9118800E+02  0.7816164E-02  0.1184000E+00
        -11   -1    0    0    0    0  0.00000000000E+00  0.00000000000E+00  0.45593999997E+02  0.45594000000E+02  0.51100000000E-03 0. -1.
         11   -1    0    0    0    0 -0.00000000000E+00 -0.00000000000E+00 -0.45593999997E+02  0.45594000000E+02  0.51100000000E-03 0.  1.
         23    2    1    2    0    0 -0.88817841970E-15  0.00000000000E+00  0.00000000000E+00  0.91188000000E+02  0.91188000000E+02 0.  0.
    9900012    2    3    3    0    0 -0.60562423138E+01  0.15156599145E+02  0.37239294092E+02  0.50528860891E+02  0.30000003164E+02 0.  0.
        -12    1    3    3    0    0  0.60562423138E+01 -0.15156599145E+02 -0.37239294092E+02  0.40659139109E+02  0.00000000000E+00 0.  1.
         11    1    4    4    0    0 -0.37184056898E+00  0.51965025574E+01  0.20321649043E+02  0.20978830385E+02  0.51100000000E-03 0. -1.
        -11    1    4    4    0    0  0.50937638550E+01  0.12097367002E+02  0.77759086366E+01  0.15256391250E+02  0.51100000000E-03 0.  1.
         12    1    4    4    0    0 -0.10778165600E+02 -0.21372704150E+01  0.91417364127E+01  0.14293639255E+02  0.00000000000E+00 0. -1.
</event>
<event>
 8    1  0.5829710E-012  0.9118800E+02  0.7816164E-02  0.1184000E+00
        -11   -1    0    0    0    0  0.00000000000E+00  0.00000000000E+00  0.45593999997E+02  0.45594000000E+02  0.51100000000E-03 0. -1.
         11   -1    0    0    0    0 -0.00000000000E+00 -0.00000000000E+00 -0.45593999997E+02  0.45594000000E+02  0.51100000000E-03 0.  1.
         23    2    1    2    0    0  0.00000000000E+00  0.00000000000E+00  0.00000000000E+00  0.91188000000E+02  0.91188000000E+02 0.  0.
    9900012    2    3    3    0    0  0.10275778601E+02 -0.28122739843E+01 -0.39238567703E+02  0.50528859500E+02  0.29999998937E+02 0.  0.
         12    1    3    3    0    0 -0.10275778601E+02  0.28122739843E+01  0.39238567703E+02  0.40659140500E+02  0.00000000000E+00 0. -1.
         11    1    4    4    0    0  0.88545506379E+01 -0.30385310569E+01 -0.24433155286E+02  0.26165145050E+02  0.51100000000E-03 0. -1.
        -11    1    4    4    0    0  0.62111215540E+01 -0.33188291375E+01 -0.16689056896E+02  0.18114007788E+02  0.51100000000E-03 0.  1.
         12    1    4    4    0    0 -0.47898935907E+01  0.35450862101E+01  0.18836444792E+01  0.62497066628E+01  0.00000000000E+00 0. -1.
</event>
<event>
 8    1  0.5829710E-012  0.9118800E+02  0.7816164E-02  0.1184000E+00
        -11   -1    0    0    0    0  0.00000000000E+00  0.00000000000E+00  0.45593999997E+02  0.45594000000E+02  0.51100000000E-03 0.  1.
         11   -1    0    0    0    0 -0.00000000000E+00 -0.00000000000E+00 -0.45593999997E+02  0.45594000000E+02  0.51100000000E-03 0. -1.
         23    2    1    2    0    0  0.00000000000E+00  0.00000000000E+00 -0.35527136788E-14  0.91188000000E+02  0.91188000000E+02 0.  0.
    9900012    2    3    3    0    0 -0.29446771338E+02  0.17545017657E+02 -0.21868337218E+02  0.50528878520E+02  0.30000056750E+02 0.  0.
         12    1    3    3    0    0  0.29446771338E+02 -0.17545017657E+02  0.21868337218E+02  0.40659121480E+02  0.00000000000E+00 0. -1.
         11    1    4    4    0    0 -0.11157905684E+02  0.71841633896E+00 -0.19612938024E+01  0.11351724756E+02  0.51100000000E-03 0. -1.
        -11    1    4    4    0    0 -0.21953645428E+02  0.19025881672E+02 -0.19257705511E+02  0.34854066374E+02  0.51100000000E-03 0.  1.
         12    1    4    4    0    0  0.36647797741E+01 -0.21992803544E+01 -0.64933790487E+00  0.43230873903E+01  0.00000000000E+00 0. -1.
</event>
<event>
 8    1  0.5829710E-012  0.9118800E+02  0.7816164E-02  0.1184000E+00
        -11   -1    0    0    0    0  0.00000000000E+00  0.00000000000E+00  0.45593999997E+02  0.45594000000E+02  0.51100000000E-03 0. -1.
         11   -1    0    0    0    0 -0.00000000000E+00 -0.00000000000E+00 -0.45593999997E+02  0.45594000000E+02  0.51100000000E-03 0.  1.
         23    2    1    2    0    0  0.44408920985E-15  0.00000000000E+00  0.00000000000E+00  0.91188000000E+02  0.91188000000E+02 0.  0.
    9900012    2    3    3    0    0 -0.30557138325E+01  0.71822152447E+01  0.39902864801E+02  0.50528926939E+02  0.30000203923E+02 0.  0.
        -12    1    3    3    0    0  0.30557138325E+01 -0.71822152447E+01 -0.39902864801E+02  0.40659073061E+02  0.00000000000E+00 0.  1.
         11    1    4    4    0    0 -0.44890926467E+00  0.96879084033E+01  0.10298524355E+02  0.14146260740E+02  0.51100000000E-03 0. -1.
        -11    1    4    4    0    0 -0.28643228981E+01  0.77895319377E+01  0.49491704471E+01  0.96630969077E+01  0.51100000000E-03 0.  1.
        -12    1    4    4    0    0  0.25751833031E+00 -0.10295225096E+02  0.24655169999E+02  0.26719569292E+02  0.00000000000E+00 0.  1.
</event>
<event>
 8    1  0.5829710E-012  0.9118800E+02  0.7816164E-02  0.1184000E+00
        -11   -1    0    0    0    0  0.00000000000E+00  0.00000000000E+00  0.45593999997E+02  0.45594000000E+02  0.51100000000E-03 0. -1.
         11   -1    0    0    0    0 -0.00000000000E+00 -0.00000000000E+00 -0.45593999997E+02  0.45594000000E+02  0.51100000000E-03 0.  1.
         23    2    1    2    0    0  0.00000000000E+00  0.00000000000E+00 -0.71054273576E-14  0.91188000000E+02  0.91188000000E+02 0.  0.
    9900012    2    3    3    0    0 -0.31154604633E+02  0.11642569291E+02 -0.23388184221E+02  0.50528856247E+02  0.29999989050E+02 0.  0.
         12    1    3    3    0    0  0.31154604633E+02 -0.11642569291E+02  0.23388184221E+02  0.40659143753E+02  0.00000000000E+00 0. -1.
         11    1    4    4    0    0 -0.64856169255E+01  0.88203243970E+00  0.38794294366E+00  0.65568062437E+01  0.51100000000E-03 0. -1.
        -11    1    4    4    0    0 -0.23708889636E+02  0.11434137688E+02 -0.71109663391E+01  0.27265670631E+02  0.51100000000E-03 0.  1.
        -12    1    4    4    0    0 -0.96009807190E+00 -0.67360083710E+00 -0.16665160826E+02  0.16706379373E+02  0.00000000000E+00 0.  1.
</event>
<event>
 8    1  0.5829710E-012  0.9118800E+02  0.7816164E-02  0.1184000E+00
        -11   -1    0    0    0    0  0.00000000000E+00  0.00000000000E+00  0.45593999997E+02  0.45594000000E+02  0.51100000000E-03 0. -1.
         11   -1    0    0    0    0 -0.00000000000E+00 -0.00000000000E+00 -0.45593999997E+02  0.45594000000E+02  0.51100000000E-03 0.  1.
         23    2    1    2    0    0  0.00000000000E+00  0.35527136788E-14  0.35527136788E-14  0.91188000000E+02  0.91188000000E+02 0.  0.
    9900012    2    3    3    0    0  0.29567091585E+01 -0.26149402360E+02  0.30994075014E+02  0.50528855164E+02  0.29999985755E+02 0.  0.
        -12    1    3    3    0    0 -0.29567091585E+01  0.26149402360E+02 -0.30994075014E+02  0.40659144836E+02  0.00000000000E+00 0.  1.
         11    1    4    4    0    0 -0.13711088154E+01 -0.31473273152E+02  0.22592587952E+02  0.38766891711E+02  0.51100000000E-03 0. -1.
        -11    1    4    4    0    0 -0.60749595423E+00  0.22174312745E+01  0.32491284540E+01  0.39803126464E+01  0.51100000000E-03 0.  1.
        -12    1    4    4    0    0  0.49353139282E+01  0.31064395173E+01  0.51523586080E+01  0.77816508062E+01  0.00000000000E+00 0.  1.
</event>
<event>
 8    1  0.5829710E-012  0.9118800E+02  0.7816164E-02  0.1184000E+00
        -11   -1    0    0    0    0  0.00000000000E+00  0.00000000000E+00  0.45593999997E+02  0.45594000000E+02  0.51100000000E-03 0. -1.
         11   -1    0    0    0    0 -0.00000000000E+00 -0.00000000000E+00 -0.45593999997E+02  0.45594000000E+02  0.51100000000E-03 0.  1.
         23    2    1    2    0    0  0.00000000000E+00  0.00000000000E+00  0.00000000000E+00  0.91188000000E+02  0.91188000000E+02 0.  0.
    9900012    2    3    3    0    0  0.16883745558E+02  0.17279685953E+02  0.32703473201E+02  0.50528861174E+02  0.30000004024E+02 0.  0.
        -12    1    3    3    0    0 -0.16883745558E+02 -0.17279685953E+02 -0.32703473201E+02  0.40659138826E+02  0.00000000000E+00 0.  1.
         11    1    4    4    0    0  0.56851340138E+01  0.15533251904E+02  0.51607744501E+01  0.17327326876E+02  0.51100000000E-03 0. -1.
        -11    1    4    4    0    0 -0.35975382860E+01 -0.26567220155E+00  0.52538119841E+01  0.63730215803E+01  0.51100000000E-03 0.  1.
         12    1    4    4    0    0  0.14796149830E+02  0.20121062501E+01  0.22288886766E+02  0.26828512718E+02  0.00000000000E+00 0. -1.
</event>
<event>
 8    1  0.5829710E-012  0.9118800E+02  0.7816164E-02  0.1184000E+00
        -11   -1    0    0    0    0  0.00000000000E+00  0.00000000000E+00  0.45593999997E+02  0.45594000000E+02  0.51100000000E-03 0. -1.
         11   -1    0    0    0    0 -0.00000000000E+00 -0.00000000000E+00 -0.45593999997E+02  0.45594000000E+02  0.51100000000E-03 0.  1.
         23    2    1    2    0    0  0.00000000000E+00  0.17763568394E-14  0.00000000000E+00  0.91188000000E+02  0.91188000000E+02 0.  0.
    9900012    2    3    3    0    0 -0.79485836879E+01  0.14079114481E+02  0.37306356286E+02  0.50528859988E+02  0.30000000418E+02 0.  0.
        -12    1    3    3    0    0  0.79485836879E+01 -0.14079114481E+02 -0.37306356286E+02  0.40659140012E+02  0.00000000000E+00 0.  1.
         11    1    4    4    0    0  0.64362914687E+01  0.10687460831E+00  0.11373103916E+02  0.13068464446E+02  0.51100000000E-03 0.  1.
        -11    1    4    4    0    0 -0.57055182368E+00  0.40345009297E+01  0.18407542397E+02  0.18853125590E+02  0.51100000000E-03 0. -1.
         12    1    4    4    0    0 -0.13814323333E+02  0.99377389426E+01  0.75257099734E+01  0.18607269951E+02  0.00000000000E+00 0. -1.
</event>
<event>
 8    1  0.7297899E-012  0.9118800E+02  0.7816164E-02  0.1184000E+00
        -11   -1    0    0    0    0  0.00000000000E+00  0.00000000000E+00  0.45593999997E+02  0.45594000000E+02  0.51100000000E-03 0. -1.
         11   -1    0    0    0    0 -0.00000000000E+00 -0.00000000000E+00 -0.45593999997E+02  0.45594000000E+02  0.51100000000E-03 0.  1.
         23    2    1    2    0    0  0.88817841970E-15 -0.35527136788E-14  0.35527136788E-14  0.91188000000E+02  0.91188000000E+02 0.  0.
    9900012    2    3    3    0    0 -0.20431616615E+01  0.30799902920E+02 -0.26464273814E+02  0.50528851977E+02  0.29999976069E+02 0.  0.
         12    1    3    3    0    0  0.20431616615E+01 -0.30799902920E+02  0.26464273814E+02  0.40659148023E+02  0.00000000000E+00 0. -1.
         11    1    4    4    0    0 -0.34028569124E+01  0.77477228975E+01  0.47228920484E+01  0.96908387060E+01  0.51100000000E-03 0. -1.
        -11    1    4    4    0    0 -0.55292302013E+01  0.11245593374E+02 -0.17196689457E+02  0.21278202121E+02  0.51100000000E-03 0.  1.
        -12    1    4    4    0    0  0.68889254522E+01  0.11806586649E+02 -0.13990476405E+02  0.19559811150E+02  0.00000000000E+00 0.  1.
</event>
<event>
 8    1  0.5829710E-012  0.9118800E+02  0.7816164E-02  0.1184000E+00
        -11   -1    0    0    0    0  0.00000000000E+00  0.00000000000E+00  0.45593999997E+02  0.45594000000E+02  0.51100000000E-03 0. -1.
         11   -1    0    0    0    0 -0.00000000000E+00 -0.00000000000E+00 -0.45593999997E+02  0.45594000000E+02  0.51100000000E-03 0.  1.
         23    2    1    2    0    0  0.35527136788E-14  0.00000000000E+00  0.00000000000E+00  0.91188000000E+02  0.91188000000E+02 0.  0.
    9900012    2    3    3    0    0 -0.24673945213E+02  0.24016440967E+02  0.21623427695E+02  0.50528860383E+02  0.30000001621E+02 0.  0.
        -12    1    3    3    0    0  0.24673945213E+02 -0.24016440967E+02 -0.21623427695E+02  0.40659139617E+02  0.00000000000E+00 0.  1.
         11    1    4    4    0    0  0.95206481808E-01  0.24991203586E+01  0.39889033206E+01  0.47080799486E+01  0.51100000000E-03 0. -1.
        -11    1    4    4    0    0  0.29675002846E+01  0.67063316333E+01  0.11720965042E+02  0.13826133360E+02  0.51100000000E-03 0.  1.
         12    1    4    4    0    0 -0.27736651979E+02  0.14810988975E+02  0.59135593319E+01  0.31994647074E+02  0.00000000000E+00 0. -1.
</event>
<event>
 8    1  0.5829710E-012  0.9118800E+02  0.7816164E-02  0.1184000E+00
        -11   -1    0    0    0    0  0.00000000000E+00  0.00000000000E+00  0.45593999997E+02  0.45594000000E+02  0.51100000000E-03 0. -1.
         11   -1    0    0    0    0 -0.00000000000E+00 -0.00000000000E+00 -0.45593999997E+02  0.45594000000E+02  0.51100000000E-03 0.  1.
         23    2    1    2    0    0  0.00000000000E+00  0.00000000000E+00  0.00000000000E+00  0.91188000000E+02  0.91188000000E+02 0.  0.
    9900012    2    3    3    0    0 -0.31191634952E+02 -0.41055390033E+01 -0.25756396136E+02  0.50528862240E+02  0.30000007264E+02 0.  0.
         12    1    3    3    0    0  0.31191634952E+02  0.41055390033E+01  0.25756396136E+02  0.40659137760E+02  0.00000000000E+00 0. -1.
         11    1    4    4    0    0 -0.16306098914E+02 -0.15555839197E+01 -0.64384110717E+01  0.17600052288E+02  0.51100000000E-03 0. -1.
        -11    1    4    4    0    0 -0.19501537252E+02  0.26289778850E+01 -0.13366914208E+02  0.23788566069E+02  0.51100000000E-03 0.  1.
        -12    1    4    4    0    0  0.46160012146E+01 -0.51789329687E+01 -0.59510708570E+01  0.91402438836E+01  0.00000000000E+00 0.  1.
</event>
<event>
 8    1  0.5829710E-012  0.9118800E+02  0.7816164E-02  0.1184000E+00
        -11   -1    0    0    0    0  0.00000000000E+00  0.00000000000E+00  0.45593999997E+02  0.45594000000E+02  0.51100000000E-03 0. -1.
         11   -1    0    0    0    0 -0.00000000000E+00 -0.00000000000E+00 -0.45593999997E+02  0.45594000000E+02  0.51100000000E-03 0.  1.
         23    2    1    2    0    0 -0.17763568394E-14  0.17763568394E-14 -0.71054273576E-14  0.91188000000E+02  0.91188000000E+02 0.  0.
    9900012    2    3    3    0    0  0.11836618687E+02 -0.68973546701E+01  0.38281679600E+02  0.50528855440E+02  0.29999986594E+02 0.  0.
        -12    1    3    3    0    0 -0.11836618687E+02  0.68973546701E+01 -0.38281679600E+02  0.40659144560E+02  0.00000000000E+00 0.  1.
         11    1    4    4    0    0  0.46441341193E+01 -0.90795106182E+01  0.14231844020E+02  0.17508594440E+02  0.51100000000E-03 0. -1.
        -11    1    4    4    0    0  0.94122681236E+01 -0.67490652432E+01  0.66986896620E+01  0.13379578332E+02  0.51100000000E-03 0.  1.
        -12    1    4    4    0    0 -0.22197835559E+01  0.89312211912E+01  0.17351145918E+02  0.19640682668E+02  0.00000000000E+00 0.  1.
</event>
<event>
 8    1  0.5829710E-012  0.9118800E+02  0.7816164E-02  0.1184000E+00
        -11   -1    0    0    0    0  0.00000000000E+00  0.00000000000E+00  0.45593999997E+02  0.45594000000E+02  0.51100000000E-03 0. -1.
         11   -1    0    0    0    0 -0.00000000000E+00 -0.00000000000E+00 -0.45593999997E+02  0.45594000000E+02  0.51100000000E-03 0.  1.
         23    2    1    2    0    0 -0.55511151231E-15 -0.17763568394E-14  0.00000000000E+00  0.91188000000E+02  0.91188000000E+02 0.  0.
    9900012    2    3    3    0    0 -0.74730713171E+00 -0.12399274028E+02  0.38715315322E+02  0.50528731624E+02  0.29999610241E+02 0.  0.
        -12    1    3    3    0    0  0.74730713171E+00  0.12399274028E+02 -0.38715315322E+02  0.40659268376E+02  0.00000000000E+00 0.  1.
         11    1    4    4    0    0 -0.46545083178E+01 -0.12886789088E+02  0.10643625642E+02  0.17349943739E+02  0.51100000000E-03 0. -1.
        -11    1    4    4    0    0 -0.20330938126E+01 -0.41148249628E+01  0.51806547304E+00  0.46188361111E+01  0.51100000000E-03 0.  1.
         12    1    4    4    0    0  0.59402949987E+01  0.46023400229E+01  0.27553624207E+02  0.28559951774E+02  0.00000000000E+00 0. -1.
</event>
<event>
 8    1  0.5829710E-012  0.9118800E+02  0.7816164E-02  0.1184000E+00
        -11   -1    0    0    0    0  0.00000000000E+00  0.00000000000E+00  0.45593999997E+02  0.45594000000E+02  0.51100000000E-03 0. -1.
         11   -1    0    0    0    0 -0.00000000000E+00 -0.00000000000E+00 -0.45593999997E+02  0.45594000000E+02  0.51100000000E-03 0.  1.
         23    2    1    2    0    0  0.00000000000E+00 -0.88817841970E-15  0.00000000000E+00  0.91188000000E+02  0.91188000000E+02 0.  0.
    9900012    2    3    3    0    0  0.39300877295E+02  0.42149435664E+01 -0.95310835370E+01  0.50528852704E+02  0.29999978279E+02 0.  0.
         12    1    3    3    0    0 -0.39300877295E+02 -0.42149435664E+01  0.95310835370E+01  0.40659147296E+02  0.00000000000E+00 0. -1.
         11    1    4    4    0    0  0.51145479412E+01 -0.16001503849E+01 -0.10997491514E+02  0.12233719866E+02  0.51100000000E-03 0. -1.
        -11    1    4    4    0    0  0.32883762008E+02  0.29705681710E+01 -0.26510458730E+01  0.33123920715E+02  0.51100000000E-03 0.  1.
        -12    1    4    4    0    0  0.13025673464E+01  0.28445257803E+01  0.41174538504E+01  0.51712121226E+01  0.00000000000E+00 0.  1.
</event>
<event>
 8    1  0.5829710E-012  0.9118800E+02  0.7816164E-02  0.1184000E+00
        -11   -1    0    0    0    0  0.00000000000E+00  0.00000000000E+00  0.45593999997E+02  0.45594000000E+02  0.51100000000E-03 0. -1.
         11   -1    0    0    0    0 -0.00000000000E+00 -0.00000000000E+00 -0.45593999997E+02  0.45594000000E+02  0.51100000000E-03 0.  1.
         23    2    1    2    0    0  0.88817841970E-15  0.00000000000E+00  0.00000000000E+00  0.91188000000E+02  0.91188000000E+02 0.  0.
    9900012    2    3    3    0    0  0.15188879340E+01 -0.28363172756E+02  0.29092771778E+02  0.50528856391E+02  0.29999989485E+02 0.  0.
        -12    1    3    3    0    0 -0.15188879340E+01  0.28363172756E+02 -0.29092771778E+02  0.40659143609E+02  0.00000000000E+00 0.  1.
         11    1    4    4    0    0 -0.89150453176E+01 -0.87722944806E+01  0.48392157408E+01  0.13410786432E+02  0.51100000000E-03 0. -1.
        -11    1    4    4    0    0 -0.14510135886E+01 -0.72143642315E+01 -0.60372181849E-01  0.73590853209E+01  0.51100000000E-03 0.  1.
         12    1    4    4    0    0  0.11884946840E+02 -0.12376514044E+02  0.24313928219E+02  0.29758984638E+02  0.00000000000E+00 0. -1.
</event>
<event>
 8    1  0.5829710E-012  0.9118800E+02  0.7816164E-02  0.1184000E+00
        -11   -1    0    0    0    0  0.00000000000E+00  0.00000000000E+00  0.45593999997E+02  0.45594000000E+02  0.51100000000E-03 0. -1.
         11   -1    0    0    0    0 -0.00000000000E+00 -0.00000000000E+00 -0.45593999997E+02  0.45594000000E+02  0.51100000000E-03 0.  1.
         23    2    1    2    0    0  0.00000000000E+00  0.00000000000E+00  0.00000000000E+00  0.91188000000E+02  0.91188000000E+02 0.  0.
    9900012    2    3    3    0    0 -0.20076507929E+02 -0.15864735673E+02 -0.31597609331E+02  0.50528869118E+02  0.30000028172E+02 0.  0.
         12    1    3    3    0    0  0.20076507929E+02  0.15864735673E+02  0.31597609331E+02  0.40659130882E+02  0.00000000000E+00 0. -1.
         11    1    4    4    0    0 -0.11596964449E+02 -0.23968936360E+01 -0.72324278314E+00  0.11864137723E+02  0.51100000000E-03 0. -1.
        -11    1    4    4    0    0 -0.97466661373E+01 -0.26597488494E+01 -0.23328803377E+02  0.25422526074E+02  0.51100000000E-03 0.  1.
         12    1    4    4    0    0  0.12671226574E+01 -0.10808093188E+02 -0.75455631712E+01  0.13242205321E+02  0.00000000000E+00 0. -1.
</event>
<event>
 8    1  0.5829710E-012  0.9118800E+02  0.7816164E-02  0.1184000E+00
        -11   -1    0    0    0    0  0.00000000000E+00  0.00000000000E+00  0.45593999997E+02  0.45594000000E+02  0.51100000000E-03 0. -1.
         11   -1    0    0    0    0 -0.00000000000E+00 -0.00000000000E+00 -0.45593999997E+02  0.45594000000E+02  0.51100000000E-03 0.  1.
         23    2    1    2    0    0  0.00000000000E+00  0.35527136788E-14  0.00000000000E+00  0.91188000000E+02  0.91188000000E+02 0.  0.
    9900012    2    3    3    0    0 -0.16020665847E+02  0.27697267508E+02  0.25087266873E+02  0.50528790456E+02  0.29999789070E+02 0.  0.
        -12    1    3    3    0    0  0.16020665847E+02 -0.27697267508E+02 -0.25087266873E+02  0.40659209544E+02  0.00000000000E+00 0.  1.
         11    1    4    4    0    0 -0.15675913704E+02  0.20336352050E+02  0.74923146568E+01  0.26747640351E+02  0.51100000000E-03 0. -1.
        -11    1    4    4    0    0  0.23127446005E+01 -0.84868283094E+00 -0.14598258977E+01  0.28635890151E+01  0.51100000000E-03 0.  1.
         12    1    4    4    0    0 -0.26574967434E+01  0.82095982886E+01  0.19054778114E+02  0.20917561090E+02  0.00000000000E+00 0. -1.
</event>
<event>
 8    1  0.5829710E-012  0.9118800E+02  0.7816164E-02  0.1184000E+00
        -11   -1    0    0    0    0  0.00000000000E+00  0.00000000000E+00  0.45593999997E+02  0.45594000000E+02  0.51100000000E-03 0. -1.
         11   -1    0    0    0    0 -0.00000000000E+00 -0.00000000000E+00 -0.45593999997E+02  0.45594000000E+02  0.51100000000E-03 0.  1.
         23    2    1    2    0    0  0.00000000000E+00 -0.35527136788E-14  0.35527136788E-14  0.91188000000E+02  0.91188000000E+02 0.  0.
    9900012    2    3    3    0    0  0.30525126098E+02  0.17410708657E+02  0.20451148361E+02  0.50528861193E+02  0.30000004082E+02 0.  0.
        -12    1    3    3    0    0 -0.30525126098E+02 -0.17410708657E+02 -0.20451148361E+02  0.40659138807E+02  0.00000000000E+00 0.  1.
         11    1    4    4    0    0  0.18331967238E+02  0.21441124004E+02  0.15948351114E+02  0.32405751417E+02  0.51100000000E-03 0. -1.
        -11    1    4    4    0    0 -0.50351570065E-01  0.31177124241E+01  0.20590332308E+01  0.37366139948E+01  0.51100000000E-03 0.  1.
         12    1    4    4    0    0  0.12243510430E+02 -0.71481277714E+01  0.24437640161E+01  0.14386495781E+02  0.00000000000E+00 0. -1.
</event>
<event>
 8    1  0.8513317E-012  0.9118800E+02  0.7816164E-02  0.1184000E+00
        -11   -1    0    0    0    0  0.00000000000E+00  0.00000000000E+00  0.45593999997E+02  0.45594000000E+02  0.51100000000E-03 0. -1.
         11   -1    0    0    0    0 -0.00000000000E+00 -0.00000000000E+00 -0.45593999997E+02  0.45594000000E+02  0.51100000000E-03 0.  1.
         23    2    1    2    0    0  0.00000000000E+00  0.00000000000E+00  0.00000000000E+00  0.91188000000E+02  0.91188000000E+02 0.  0.
    9900012    2    3    3    0    0  0.18131915551E+02  0.93293158619E+01 -0.35176161632E+02  0.50528870113E+02  0.30000031197E+02 0.  0.
         12    1    3    3    0    0 -0.18131915551E+02 -0.93293158619E+01  0.35176161632E+02  0.40659129887E+02  0.00000000000E+00 0. -1.
         11    1    4    4    0    0  0.53553331423E+01 -0.31116250575E+01 -0.14438064738E+02  0.15710490674E+02  0.51100000000E-03 0. -1.
        -11    1    4    4    0    0  0.28176387627E+01  0.48601700047E+01 -0.21555727431E+02  0.22275765441E+02  0.51100000000E-03 0.  1.
         12    1    4    4    0    0  0.99589436462E+01  0.75807709147E+01  0.81763053748E+00  0.12542613998E+02  0.00000000000E+00 0. -1.
</event>
<event>
 8    1  0.5829710E-012  0.9118800E+02  0.7816164E-02  0.1184000E+00
        -11   -1    0    0    0    0  0.00000000000E+00  0.00000000000E+00  0.45593999997E+02  0.45594000000E+02  0.51100000000E-03 0. -1.
         11   -1    0    0    0    0 -0.00000000000E+00 -0.00000000000E+00 -0.45593999997E+02  0.45594000000E+02  0.51100000000E-03 0.  1.
         23    2    1    2    0    0 -0.35527136788E-14 -0.14432899320E-14  0.00000000000E+00  0.91188000000E+02  0.91188000000E+02 0.  0.
    9900012    2    3    3    0    0 -0.26098826691E+02  0.82922102006E+00 -0.31166161977E+02  0.50528855708E+02  0.29999987410E+02 0.  0.
         12    1    3    3    0    0  0.26098826691E+02 -0.82922102006E+00  0.31166161977E+02  0.40659144292E+02  0.00000000000E+00 0. -1.
         11    1    4    4    0    0  0.24682757109E+01 -0.28463878158E+01 -0.14938913836E+01  0.40529027018E+01  0.51100000000E-03 0. -1.
        -11    1    4    4    0    0 -0.91414606732E+01 -0.69804394308E+01 -0.31672056462E+01  0.11929963527E+02  0.51100000000E-03 0.  1.
        -12    1    4    4    0    0 -0.19425641729E+02  0.10656048267E+02 -0.26505064948E+02  0.34545989479E+02  0.00000000000E+00 0.  1.
</event>
<event>
 8    1  0.5829710E-012  0.9118800E+02  0.7816164E-02  0.1184000E+00
        -11   -1    0    0    0    0  0.00000000000E+00  0.00000000000E+00  0.45593999997E+02  0.45594000000E+02  0.51100000000E-03 0. -1.
         11   -1    0    0    0    0 -0.00000000000E+00 -0.00000000000E+00 -0.45593999997E+02  0.45594000000E+02  0.51100000000E-03 0.  1.
         23    2    1    2    0    0  0.44408920985E-15  0.22204460493E-15  0.00000000000E+00  0.91188000000E+02  0.91188000000E+02 0.  0.
    9900012    2    3    3    0    0 -0.28693812973E+01  0.16595837596E+01  0.40523785600E+02  0.50528871054E+02  0.30000034055E+02 0.  0.
        -12    1    3    3    0    0  0.28693812973E+01 -0.16595837596E+01 -0.40523785600E+02  0.40659128946E+02  0.00000000000E+00 0.  1.
         11    1    4    4    0    0 -0.74258536854E+01  0.13748851572E+00  0.16109091851E+02  0.17738800596E+02  0.51100000000E-03 0. -1.
        -11    1    4    4    0    0  0.73056648499E+01  0.84239089860E+01  0.54277719588E+01  0.12401439038E+02  0.51100000000E-03 0.  1.
         12    1    4    4    0    0 -0.27491924618E+01 -0.69018137421E+01  0.18986921790E+02  0.20388631420E+02  0.00000000000E+00 0. -1.
</event>
<event>
 8    1  0.5829710E-012  0.9118800E+02  0.7816164E-02  0.1184000E+00
        -11   -1    0    0    0    0  0.00000000000E+00  0.00000000000E+00  0.45593999997E+02  0.45594000000E+02  0.51100000000E-03 0. -1.
         11   -1    0    0    0    0 -0.00000000000E+00 -0.00000000000E+00 -0.45593999997E+02  0.45594000000E+02  0.51100000000E-03 0.  1.
         23    2    1    2    0    0  0.00000000000E+00  0.00000000000E+00  0.00000000000E+00  0.91188000000E+02  0.91188000000E+02 0.  0.
    9900012    2    3    3    0    0 -0.17193363545E+02  0.34018740074E+02 -0.14152038170E+02  0.50528848379E+02  0.29999965131E+02 0.  0.
         12    1    3    3    0    0  0.17193363545E+02 -0.34018740074E+02  0.14152038170E+02  0.40659151621E+02  0.00000000000E+00 0. -1.
         11    1    4    4    0    0  0.52888183506E+01  0.81615884932E+01  0.84818594945E+00  0.97623022871E+01  0.51100000000E-03 0. -1.
        -11    1    4    4    0    0 -0.91336945101E+01  0.21497899489E+02 -0.60994313383E+01  0.24140984254E+02  0.51100000000E-03 0.  1.
        -12    1    4    4    0    0 -0.13348487386E+02  0.43592520922E+01 -0.89007927809E+01  0.16625561838E+02  0.00000000000E+00 0.  1.
</event>
<event>
 8    1  0.5829710E-012  0.9118800E+02  0.7816164E-02  0.1184000E+00
        -11   -1    0    0    0    0  0.00000000000E+00  0.00000000000E+00  0.45593999997E+02  0.45594000000E+02  0.51100000000E-03 0. -1.
         11   -1    0    0    0    0 -0.00000000000E+00 -0.00000000000E+00 -0.45593999997E+02  0.45594000000E+02  0.51100000000E-03 0.  1.
         23    2    1    2    0    0  0.00000000000E+00  0.00000000000E+00  0.00000000000E+00  0.91188000000E+02  0.91188000000E+02 0.  0.
    9900012    2    3    3    0    0 -0.14220813539E+02  0.24540133492E+02 -0.29132725674E+02  0.50528863331E+02  0.30000010580E+02 0.  0.
         12    1    3    3    0    0  0.14220813539E+02 -0.24540133492E+02  0.29132725674E+02  0.40659136669E+02  0.00000000000E+00 0. -1.
         11    1    4    4    0    0 -0.27141505439E+01  0.86948507920E+01  0.38495239639E+01  0.98886742529E+01  0.51100000000E-03 0. -1.
        -11    1    4    4    0    0  0.24898215858E+01  0.62647405075E+01 -0.83198040105E+01  0.10708189585E+02  0.51100000000E-03 0.  1.
         12    1    4    4    0    0 -0.13996484581E+02  0.95805421925E+01 -0.24662445627E+02  0.29931999493E+02  0.00000000000E+00 0. -1.
</event>
<event>
 8    1  0.5829710E-012  0.9118800E+02  0.7816164E-02  0.1184000E+00
        -11   -1    0    0    0    0  0.00000000000E+00  0.00000000000E+00  0.45593999997E+02  0.45594000000E+02  0.51100000000E-03 0. -1.
         11   -1    0    0    0    0 -0.00000000000E+00 -0.00000000000E+00 -0.45593999997E+02  0.45594000000E+02  0.51100000000E-03 0.  1.
         23    2    1    2    0    0  0.00000000000E+00 -0.35527136788E-14  0.00000000000E+00  0.91188000000E+02  0.91188000000E+02 0.  0.
    9900012    2    3    3    0    0 -0.37870008772E+01  0.20228766116E+02  0.35065980325E+02  0.50528839527E+02  0.29999938226E+02 0.  0.
        -12    1    3    3    0    0  0.37870008772E+01 -0.20228766116E+02 -0.35065980325E+02  0.40659160473E+02  0.00000000000E+00 0.  1.
         11    1    4    4    0    0 -0.74403788437E+01 -0.18594049599E+01  0.56520648707E+01  0.95269334892E+01  0.51100000000E-03 0. -1.
        -11    1    4    4    0    0  0.31642368657E+01  0.12099726612E+02  0.31481484250E+01  0.12896767727E+02  0.51100000000E-03 0.  1.
         12    1    4    4    0    0  0.48914110079E+00  0.99884444636E+01  0.26265767030E+02  0.28105138311E+02  0.00000000000E+00 0. -1.
</event>
<event>
 8    1  0.5829710E-012  0.9118800E+02  0.7816164E-02  0.1184000E+00
        -11   -1    0    0    0    0  0.00000000000E+00  0.00000000000E+00  0.45593999997E+02  0.45594000000E+02  0.51100000000E-03 0. -1.
         11   -1    0    0    0    0 -0.00000000000E+00 -0.00000000000E+00 -0.45593999997E+02  0.45594000000E+02  0.51100000000E-03 0.  1.
         23    2    1    2    0    0 -0.35527136788E-14  0.00000000000E+00  0.00000000000E+00  0.91188000000E+02  0.91188000000E+02 0.  0.
    9900012    2    3    3    0    0  0.22711319577E+02 -0.90825781195E+01 -0.32478739584E+02  0.50528858504E+02  0.29999995909E+02 0.  0.
         12    1    3    3    0    0 -0.22711319577E+02  0.90825781195E+01  0.32478739584E+02  0.40659141496E+02  0.00000000000E+00 0. -1.
         11    1    4    4    0    0 -0.45361766447E+00 -0.26607200791E+00  0.27807765705E-01  0.52662779254E+00  0.51100000000E-03 0. -1.
        -11    1    4    4    0    0  0.27733887493E+02 -0.10736928930E+01 -0.18488197975E+02  0.33348685080E+02  0.51100000000E-03 0.  1.
        -12    1    4    4    0    0 -0.45689502514E+01 -0.77428132185E+01 -0.14018349374E+02  0.16653545632E+02  0.00000000000E+00 0.  1.
</event>
<event>
 8    1  0.5829710E-012  0.9118800E+02  0.7816164E-02  0.1184000E+00
        -11   -1    0    0    0    0  0.00000000000E+00  0.00000000000E+00  0.45593999997E+02  0.45594000000E+02  0.51100000000E-03 0. -1.
         11   -1    0    0    0    0 -0.00000000000E+00 -0.00000000000E+00 -0.45593999997E+02  0.45594000000E+02  0.51100000000E-03 0.  1.
         23    2    1    2    0    0  0.22204460493E-15 -0.88817841970E-15  0.71054273576E-14  0.91188000000E+02  0.91188000000E+02 0.  0.
    9900012    2    3    3    0    0 -0.15029623972E+01 -0.72633104758E+01  0.39976888637E+02  0.50528853426E+02  0.29999980472E+02 0.  0.
        -12    1    3    3    0    0  0.15029623972E+01  0.72633104758E+01 -0.39976888637E+02  0.40659146574E+02  0.00000000000E+00 0.  1.
         11    1    4    4    0    0 -0.11857878459E+01  0.21203639878E+01  0.16164270071E+02  0.16345814861E+02  0.51100000000E-03 0. -1.
        -11    1    4    4    0    0  0.61778848143E+01  0.48155656815E+01  0.13045100254E+02  0.15216128762E+02  0.51100000000E-03 0.  1.
        -12    1    4    4    0    0 -0.64950593656E+01 -0.14199240145E+02  0.10767518312E+02  0.18966909803E+02  0.00000000000E+00 0.  1.
</event>
<event>
 8    1  0.5829710E-012  0.9118800E+02  0.7816164E-02  0.1184000E+00
        -11   -1    0    0    0    0  0.00000000000E+00  0.00000000000E+00  0.45593999997E+02  0.45594000000E+02  0.51100000000E-03 0. -1.
         11   -1    0    0    0    0 -0.00000000000E+00 -0.00000000000E+00 -0.45593999997E+02  0.45594000000E+02  0.51100000000E-03 0.  1.
         23    2    1    2    0    0  0.00000000000E+00  0.00000000000E+00  0.00000000000E+00  0.91188000000E+02  0.91188000000E+02 0.  0.
    9900012    2    3    3    0    0  0.91831412542E+01  0.12530000251E+02  0.37574393091E+02  0.50528855817E+02  0.29999987740E+02 0.  0.
        -12    1    3    3    0    0 -0.91831412542E+01 -0.12530000251E+02 -0.37574393091E+02  0.40659144183E+02  0.00000000000E+00 0.  1.
         11    1    4    4    0    0  0.93669401716E+01 -0.55336315700E+01  0.19416311493E+02  0.22256545077E+02  0.51100000000E-03 0. -1.
        -11    1    4    4    0    0  0.20123294584E+01  0.13706154610E+01  0.85434860890E+01  0.88836485413E+01  0.51100000000E-03 0.  1.
        -12    1    4    4    0    0 -0.21961283758E+01  0.16693016360E+02  0.96145955090E+01  0.19388662198E+02  0.00000000000E+00 0.  1.
</event>
<event>
 8    1  0.5829710E-012  0.9118800E+02  0.7816164E-02  0.1184000E+00
        -11   -1    0    0    0    0  0.00000000000E+00  0.00000000000E+00  0.45593999997E+02  0.45594000000E+02  0.51100000000E-03 0.  1.
         11   -1    0    0    0    0 -0.00000000000E+00 -0.00000000000E+00 -0.45593999997E+02  0.45594000000E+02  0.51100000000E-03 0. -1.
         23    2    1    2    0    0 -0.71054273576E-14 -0.17763568394E-14 -0.17763568394E-14  0.91188000000E+02  0.91188000000E+02 0.  0.
    9900012    2    3    3    0    0  0.39097700811E+02  0.55758667895E+01  0.96667647590E+01  0.50528845556E+02  0.29999956553E+02 0.  0.
         12    1    3    3    0    0 -0.39097700811E+02 -0.55758667895E+01 -0.96667647590E+01  0.40659154444E+02  0.00000000000E+00 0. -1.
         11    1    4    4    0    0  0.17539332843E+02 -0.15669546421E+01  0.13328239412E+02  0.22084508360E+02  0.51100000000E-03 0. -1.
        -11    1    4    4    0    0  0.22806269106E+02  0.50535753163E+01  0.78810363237E+00  0.23372754258E+02  0.51100000000E-03 0.  1.
         12    1    4    4    0    0 -0.12479011377E+01  0.20892461153E+01 -0.44495782853E+01  0.50715829380E+01  0.00000000000E+00 0. -1.
</event>
<event>
 8    1  0.5829710E-012  0.9118800E+02  0.7816164E-02  0.1184000E+00
        -11   -1    0    0    0    0  0.00000000000E+00  0.00000000000E+00  0.45593999997E+02  0.45594000000E+02  0.51100000000E-03 0. -1.
         11   -1    0    0    0    0 -0.00000000000E+00 -0.00000000000E+00 -0.45593999997E+02  0.45594000000E+02  0.51100000000E-03 0.  1.
         23    2    1    2    0    0  0.35527136788E-14  0.00000000000E+00  0.35527136788E-14  0.91188000000E+02  0.91188000000E+02 0.  0.
    9900012    2    3    3    0    0  0.28495020784E+02 -0.40261822784E+01 -0.28722636258E+02  0.50528853590E+02  0.29999980972E+02 0.  0.
         12    1    3    3    0    0 -0.28495020784E+02  0.40261822784E+01  0.28722636258E+02  0.40659146410E+02  0.00000000000E+00 0. -1.
         11    1    4    4    0    0  0.38943537812E+01  0.51884781864E+00 -0.13004543836E+02  0.13585041593E+02  0.51100000000E-03 0. -1.
        -11    1    4    4    0    0  0.22137884816E+02  0.32453320892E+01 -0.41103280283E+01  0.22748910331E+02  0.51100000000E-03 0.  1.
         12    1    4    4    0    0  0.24627821866E+01 -0.77903621862E+01 -0.11607764393E+02  0.14194901665E+02  0.00000000000E+00 0. -1.
</event>
<event>
 8    1  0.5829710E-012  0.9118800E+02  0.7816164E-02  0.1184000E+00
        -11   -1    0    0    0    0  0.00000000000E+00  0.00000000000E+00  0.45593999997E+02  0.45594000000E+02  0.51100000000E-03 0.  1.
         11   -1    0    0    0    0 -0.00000000000E+00 -0.00000000000E+00 -0.45593999997E+02  0.45594000000E+02  0.51100000000E-03 0. -1.
         23    2    1    2    0    0 -0.35527136788E-14  0.71054273576E-14  0.00000000000E+00  0.91188000000E+02  0.91188000000E+02 0.  0.
    9900012    2    3    3    0    0  0.22326574572E+02 -0.33019513767E+02  0.80250639462E+01  0.50528857450E+02  0.29999992705E+02 0.  0.
         12    1    3    3    0    0 -0.22326574572E+02  0.33019513767E+02 -0.80250639462E+01  0.40659142550E+02  0.00000000000E+00 0. -1.
         11    1    4    4    0    0  0.90736462040E+01 -0.39593465473E+01 -0.47451227026E+01  0.10978327297E+02  0.51100000000E-03 0.  1.
        -11    1    4    4    0    0  0.50012305721E+01  0.35074865195E+00 -0.22683199230E+01  0.55027817862E+01  0.51100000000E-03 0. -1.
        -12    1    4    4    0    0  0.82516977959E+01 -0.29410915872E+02  0.15038506572E+02  0.34047748367E+02  0.00000000000E+00 0.  1.
</event>
<event>
 8    1  0.5829710E-012  0.9118800E+02  0.7816164E-02  0.1184000E+00
        -11   -1    0    0    0    0  0.00000000000E+00  0.00000000000E+00  0.45593999997E+02  0.45594000000E+02  0.51100000000E-03 0. -1.
         11   -1    0    0    0    0 -0.00000000000E+00 -0.00000000000E+00 -0.45593999997E+02  0.45594000000E+02  0.51100000000E-03 0.  1.
         23    2    1    2    0    0  0.88817841970E-15 -0.35527136788E-14  0.00000000000E+00  0.91188000000E+02  0.91188000000E+02 0.  0.
    9900012    2    3    3    0    0  0.55716494218E+01 -0.22566367694E+02  0.33359881223E+02  0.50528857075E+02  0.29999991567E+02 0.  0.
        -12    1    3    3    0    0 -0.55716494218E+01  0.22566367694E+02 -0.33359881223E+02  0.40659142925E+02  0.00000000000E+00 0.  1.
         11    1    4    4    0    0  0.14953907903E+02 -0.77839801152E+01  0.24751887811E+02  0.29947715413E+02  0.51100000000E-03 0. -1.
        -11    1    4    4    0    0 -0.16591691749E+01 -0.29249455088E+00  0.25974993923E+01  0.30960295165E+01  0.51100000000E-03 0.  1.
        -12    1    4    4    0    0 -0.77230893065E+01 -0.14489893028E+02  0.60104940195E+01  0.17485112146E+02  0.00000000000E+00 0.  1.
</event>
<event>
 8    1  0.5829710E-012  0.9118800E+02  0.7816164E-02  0.1184000E+00
        -11   -1    0    0    0    0  0.00000000000E+00  0.00000000000E+00  0.45593999997E+02  0.45594000000E+02  0.51100000000E-03 0. -1.
         11   -1    0    0    0    0 -0.00000000000E+00 -0.00000000000E+00 -0.45593999997E+02  0.45594000000E+02  0.51100000000E-03 0.  1.
         23    2    1    2    0    0  0.88817841970E-15  0.00000000000E+00  0.00000000000E+00  0.91188000000E+02  0.91188000000E+02 0.  0.
    9900012    2    3    3    0    0 -0.66907657703E+01 -0.29565506860E+02  0.27097592138E+02  0.50528867665E+02  0.30000023756E+02 0.  0.
        -12    1    3    3    0    0  0.66907657703E+01  0.29565506860E+02 -0.27097592138E+02  0.40659132335E+02  0.00000000000E+00 0.  1.
         11    1    4    4    0    0  0.15154485454E+00 -0.35028621955E+01  0.16915202678E+02  0.17274753002E+02  0.51100000000E-03 0. -1.
        -11    1    4    4    0    0 -0.10121295928E+01  0.20351065277E+00 -0.30865790214E+01  0.32546571579E+01  0.51100000000E-03 0.  1.
        -12    1    4    4    0    0 -0.58301810320E+01 -0.26266155318E+02  0.13268968482E+02  0.29999457505E+02  0.00000000000E+00 0.  1.
</event>
<event>
 8    1  0.5829710E-012  0.9118800E+02  0.7816164E-02  0.1184000E+00
        -11   -1    0    0    0    0  0.00000000000E+00  0.00000000000E+00  0.45593999997E+02  0.45594000000E+02  0.51100000000E-03 0. -1.
         11   -1    0    0    0    0 -0.00000000000E+00 -0.00000000000E+00 -0.45593999997E+02  0.45594000000E+02  0.51100000000E-03 0.  1.
         23    2    1    2    0    0 -0.35527136788E-14  0.00000000000E+00  0.00000000000E+00  0.91188000000E+02  0.91188000000E+02 0.  0.
    9900012    2    3    3    0    0 -0.24578378841E+02 -0.33751827238E+01 -0.32212988854E+02  0.50528865531E+02  0.30000017269E+02 0.  0.
         12    1    3    3    0    0  0.24578378841E+02  0.33751827238E+01  0.32212988854E+02  0.40659134469E+02  0.00000000000E+00 0. -1.
         11    1    4    4    0    0 -0.17251406413E+02  0.41846516590E+01 -0.57266692281E+01  0.18652535309E+02  0.51100000000E-03 0. -1.
        -11    1    4    4    0    0  0.21936735838E+01 -0.76716105740E+01 -0.14687859296E+02  0.16715233278E+02  0.51100000000E-03 0.  1.
         12    1    4    4    0    0 -0.95206460109E+01  0.11177619115E+00 -0.11798460330E+02  0.15161096944E+02  0.00000000000E+00 0. -1.
</event>
<event>
 8    1  0.5829710E-012  0.9118800E+02  0.7816164E-02  0.1184000E+00
        -11   -1    0    0    0    0  0.00000000000E+00  0.00000000000E+00  0.45593999997E+02  0.45594000000E+02  0.51100000000E-03 0.  1.
         11   -1    0    0    0    0 -0.00000000000E+00 -0.00000000000E+00 -0.45593999997E+02  0.45594000000E+02  0.51100000000E-03 0. -1.
         23    2    1    2    0    0  0.00000000000E+00  0.00000000000E+00  0.11102230246E-14  0.91188000000E+02  0.91188000000E+02 0.  0.
    9900012    2    3    3    0    0  0.22839760056E+02 -0.33632561777E+02  0.60159994200E+00  0.50528858671E+02  0.29999996418E+02 0.  0.
         12    1    3    3    0    0 -0.22839760056E+02  0.33632561777E+02 -0.60159994200E+00  0.40659141329E+02  0.00000000000E+00 0. -1.
         11    1    4    4    0    0  0.15670492760E+02 -0.18491970858E+02 -0.23644361462E+01  0.24353806440E+02  0.51100000000E-03 0. -1.
        -11    1    4    4    0    0  0.22247837083E+01 -0.84239095939E+01 -0.83831135085E+01  0.12090843964E+02  0.51100000000E-03 0.  1.
        -12    1    4    4    0    0  0.49444835876E+01 -0.67166813253E+01  0.11349149597E+02  0.14084208268E+02  0.00000000000E+00 0.  1.
</event>
<event>
 8    1  0.5829710E-012  0.9118800E+02  0.7816164E-02  0.1184000E+00
        -11   -1    0    0    0    0  0.00000000000E+00  0.00000000000E+00  0.45593999997E+02  0.45594000000E+02  0.51100000000E-03 0. -1.
         11   -1    0    0    0    0 -0.00000000000E+00 -0.00000000000E+00 -0.45593999997E+02  0.45594000000E+02  0.51100000000E-03 0.  1.
         23    2    1    2    0    0  0.00000000000E+00 -0.17763568394E-14 -0.35527136788E-14  0.91188000000E+02  0.91188000000E+02 0.  0.
    9900012    2    3    3    0    0  0.26407297172E+02 -0.15250901608E+02 -0.26893055820E+02  0.50528784622E+02  0.29999771337E+02 0.  0.
         12    1    3    3    0    0 -0.26407297172E+02  0.15250901608E+02  0.26893055820E+02  0.40659215378E+02  0.00000000000E+00 0. -1.
         11    1    4    4    0    0  0.14699159395E+02 -0.32240308557E+01 -0.39751589158E+01  0.15564753469E+02  0.51100000000E-03 0. -1.
        -11    1    4    4    0    0  0.61390545857E+01 -0.11906604384E+00  0.22745980120E+01  0.65479740612E+01  0.51100000000E-03 0.  1.
        -12    1    4    4    0    0  0.55690831911E+01 -0.11907804709E+02 -0.25192494916E+02  0.28416057092E+02  0.00000000000E+00 0.  1.
</event>
<event>
 8    1  0.5829710E-012  0.9118800E+02  0.7816164E-02  0.1184000E+00
        -11   -1    0    0    0    0  0.00000000000E+00  0.00000000000E+00  0.45593999997E+02  0.45594000000E+02  0.51100000000E-03 0. -1.
         11   -1    0    0    0    0 -0.00000000000E+00 -0.00000000000E+00 -0.45593999997E+02  0.45594000000E+02  0.51100000000E-03 0.  1.
         23    2    1    2    0    0  0.00000000000E+00  0.17763568394E-14 -0.71054273576E-14  0.91188000000E+02  0.91188000000E+02 0.  0.
    9900012    2    3    3    0    0  0.17663305156E+02 -0.12333097227E+02  0.34482848806E+02  0.50528874357E+02  0.30000044096E+02 0.  0.
        -12    1    3    3    0    0 -0.17663305156E+02  0.12333097227E+02 -0.34482848806E+02  0.40659125643E+02  0.00000000000E+00 0.  1.
         11    1    4    4    0    0  0.19999497946E+00 -0.18597116605E+01  0.33582981642E+01  0.38440463412E+01  0.51100000000E-03 0. -1.
        -11    1    4    4    0    0 -0.37900961485E+01 -0.21289060345E+01  0.21451517588E+02  0.21887546158E+02  0.51100000000E-03 0.  1.
         12    1    4    4    0    0  0.21253406325E+02 -0.83444795319E+01  0.96730330541E+01  0.24797281858E+02  0.00000000000E+00 0. -1.
</event>
<event>
 8    1  0.5829710E-012  0.9118800E+02  0.7816164E-02  0.1184000E+00
        -11   -1    0    0    0    0  0.00000000000E+00  0.00000000000E+00  0.45593999997E+02  0.45594000000E+02  0.51100000000E-03 0. -1.
         11   -1    0    0    0    0 -0.00000000000E+00 -0.00000000000E+00 -0.45593999997E+02  0.45594000000E+02  0.51100000000E-03 0.  1.
         23    2    1    2    0    0  0.00000000000E+00  0.17763568394E-14  0.71054273576E-14  0.91188000000E+02  0.91188000000E+02 0.  0.
    9900012    2    3    3    0    0  0.10715218013E+02  0.12997749113E+02  0.37005520115E+02  0.50528857140E+02  0.29999991763E+02 0.  0.
        -12    1    3    3    0    0 -0.10715218013E+02 -0.12997749113E+02 -0.37005520115E+02  0.40659142860E+02  0.00000000000E+00 0.  1.
         11    1    4    4    0    0 -0.17046597330E+01  0.12868514385E+02  0.16231055573E+02  0.20783447562E+02  0.51100000000E-03 0. -1.
        -11    1    4    4    0    0 -0.77941951332E+00 -0.88883913779E+00 -0.26147220875E+01  0.28695472895E+01  0.51100000000E-03 0.  1.
         12    1    4    4    0    0  0.13199297260E+02  0.10180738659E+01  0.23389186630E+02  0.26875862289E+02  0.00000000000E+00 0. -1.
</event>
<event>
 8    1  0.5829710E-012  0.9118800E+02  0.7816164E-02  0.1184000E+00
        -11   -1    0    0    0    0  0.00000000000E+00  0.00000000000E+00  0.45593999997E+02  0.45594000000E+02  0.51100000000E-03 0.  1.
         11   -1    0    0    0    0 -0.00000000000E+00 -0.00000000000E+00 -0.45593999997E+02  0.45594000000E+02  0.51100000000E-03 0. -1.
         23    2    1    2    0    0  0.00000000000E+00  0.00000000000E+00  0.00000000000E+00  0.91188000000E+02  0.91188000000E+02 0.  0.
    9900012    2    3    3    0    0  0.83500455574E+01 -0.38619850035E+02  0.95890196915E+01  0.50528863558E+02  0.30000011271E+02 0.  0.
         12    1    3    3    0    0 -0.83500455574E+01  0.38619850035E+02 -0.95890196915E+01  0.40659136442E+02  0.00000000000E+00 0. -1.
         11    1    4    4    0    0  0.22914780284E+01 -0.20004783102E+01 -0.42341145763E+01  0.52134932177E+01  0.51100000000E-03 0. -1.
        -11    1    4    4    0    0  0.67080093396E+01 -0.19969851707E+02 -0.34143011558E+01  0.21341270326E+02  0.51100000000E-03 0.  1.
        -12    1    4    4    0    0 -0.64944181061E+00 -0.16649520019E+02  0.17237435424E+02  0.23974100014E+02  0.00000000000E+00 0.  1.
</event>
<event>
 8    1  0.5829710E-012  0.9118800E+02  0.7816164E-02  0.1184000E+00
        -11   -1    0    0    0    0  0.00000000000E+00  0.00000000000E+00  0.45593999997E+02  0.45594000000E+02  0.51100000000E-03 0. -1.
         11   -1    0    0    0    0 -0.00000000000E+00 -0.00000000000E+00 -0.45593999997E+02  0.45594000000E+02  0.51100000000E-03 0.  1.
         23    2    1    2    0    0 -0.35527136788E-14  0.44408920985E-15  0.00000000000E+00  0.91188000000E+02  0.91188000000E+02 0.  0.
    9900012    2    3    3    0    0 -0.19103626790E+02 -0.17824785940E+01 -0.35847452215E+02  0.50528860600E+02  0.30000002279E+02 0.  0.
         12    1    3    3    0    0  0.19103626790E+02  0.17824785940E+01  0.35847452215E+02  0.40659139400E+02  0.00000000000E+00 0. -1.
         11    1    4    4    0    0  0.24782481259E+01  0.68995672769E+01 -0.10509055739E+02  0.12813508309E+02  0.51100000000E-03 0. -1.
        -11    1    4    4    0    0  0.16248354167E+01 -0.39037594622E+01 -0.42732783292E+01  0.60116832926E+01  0.51100000000E-03 0.  1.
        -12    1    4    4    0    0 -0.23206710333E+02 -0.47782864087E+01 -0.21065118146E+02  0.31703668999E+02  0.00000000000E+00 0.  1.
</event>
<event>
 8    1  0.5829710E-012  0.9118800E+02  0.7816164E-02  0.1184000E+00
        -11   -1    0    0    0    0  0.00000000000E+00  0.00000000000E+00  0.45593999997E+02  0.45594000000E+02  0.51100000000E-03 0. -1.
         11   -1    0    0    0    0 -0.00000000000E+00 -0.00000000000E+00 -0.45593999997E+02  0.45594000000E+02  0.51100000000E-03 0.  1.
         23    2    1    2    0    0 -0.17763568394E-14  0.35527136788E-14  0.00000000000E+00  0.91188000000E+02  0.91188000000E+02 0.  0.
    9900012    2    3    3    0    0 -0.13810402669E+02  0.31800425346E+02 -0.21240821123E+02  0.50528846590E+02  0.29999959694E+02 0.  0.
         12    1    3    3    0    0  0.13810402669E+02 -0.31800425346E+02  0.21240821123E+02  0.40659153410E+02  0.00000000000E+00 0. -1.
         11    1    4    4    0    0  0.16246221618E+01 -0.67823627405E+00 -0.99097596002E+01  0.10064926090E+02  0.51100000000E-03 0. -1.
        -11    1    4    4    0    0  0.75490871000E+00  0.11575260131E+02 -0.73334493818E+01  0.13723556913E+02  0.51100000000E-03 0.  1.
         12    1    4    4    0    0 -0.16189933541E+02  0.20903401489E+02 -0.39976121408E+01  0.26740363586E+02  0.00000000000E+00 0. -1.
</event>
<event>
 8    1  0.5829710E-012  0.9118800E+02  0.7816164E-02  0.1184000E+00
        -11   -1    0    0    0    0  0.00000000000E+00  0.00000000000E+00  0.45593999997E+02  0.45594000000E+02  0.51100000000E-03 0. -1.
         11   -1    0    0    0    0 -0.00000000000E+00 -0.00000000000E+00 -0.45593999997E+02  0.45594000000E+02  0.51100000000E-03 0.  1.
         23    2    1    2    0    0  0.00000000000E+00  0.35527136788E-14 -0.35527136788E-14  0.91188000000E+02  0.91188000000E+02 0.  0.
    9900012    2    3    3    0    0  0.33583072874E+01 -0.29042214713E+02  0.28256596221E+02  0.50528884254E+02  0.30000074178E+02 0.  0.
        -12    1    3    3    0    0 -0.33583072874E+01  0.29042214713E+02 -0.28256596221E+02  0.40659115746E+02  0.00000000000E+00 0.  1.
         11    1    4    4    0    0 -0.34349597792E+01 -0.81293167471E+01  0.10969313888E+02  0.14078728171E+02  0.51100000000E-03 0. -1.
        -11    1    4    4    0    0  0.33233199863E+01 -0.25573821988E+02  0.16426380303E+02  0.30575983990E+02  0.51100000000E-03 0.  1.
        -12    1    4    4    0    0  0.34699470803E+01  0.46609240223E+01  0.86090202987E+00  0.58741720937E+01  0.00000000000E+00 0.  1.
</event>
<event>
 8    1  0.5829710E-012  0.9118800E+02  0.7816164E-02  0.1184000E+00
        -11   -1    0    0    0    0  0.00000000000E+00  0.00000000000E+00  0.45593999997E+02  0.45594000000E+02  0.51100000000E-03 0. -1.
         11   -1    0    0    0    0 -0.00000000000E+00 -0.00000000000E+00 -0.45593999997E+02  0.45594000000E+02  0.51100000000E-03 0.  1.
         23    2    1    2    0    0  0.00000000000E+00  0.35527136788E-14  0.00000000000E+00  0.91188000000E+02  0.91188000000E+02 0.  0.
    9900012    2    3    3    0    0 -0.56296307788E+01 -0.25127967286E+02  0.31465201353E+02  0.50528851229E+02  0.29999973795E+02 0.  0.
        -12    1    3    3    0    0  0.56296307788E+01  0.25127967286E+02 -0.31465201353E+02  0.40659148771E+02  0.00000000000E+00 0.  1.
         11    1    4    4    0    0 -0.11987029007E+02 -0.48453833191E+01  0.20375137054E+02  0.24131158575E+02  0.51100000000E-03 0. -1.
        -11    1    4    4    0    0  0.15763679700E+01 -0.87465809120E+00  0.52844494435E+01  0.55834907482E+01  0.51100000000E-03 0.  1.
        -12    1    4    4    0    0  0.47810302581E+01 -0.19407925876E+02  0.58056148554E+01  0.20814201906E+02  0.00000000000E+00 0.  1.
</event>
<event>
 8    1  0.5829710E-012  0.9118800E+02  0.7816164E-02  0.1184000E+00
        -11   -1    0    0    0    0  0.00000000000E+00  0.00000000000E+00  0.45593999997E+02  0.45594000000E+02  0.51100000000E-03 0. -1.
         11   -1    0    0    0    0 -0.00000000000E+00 -0.00000000000E+00 -0.45593999997E+02  0.45594000000E+02  0.51100000000E-03 0.  1.
         23    2    1    2    0    0 -0.17763568394E-14 -0.17763568394E-14  0.00000000000E+00  0.91188000000E+02  0.91188000000E+02 0.  0.
    9900012    2    3    3    0    0 -0.12631271753E+02 -0.15919889908E+02 -0.35216101627E+02  0.50528859151E+02  0.29999997875E+02 0.  0.
         12    1    3    3    0    0  0.12631271753E+02  0.15919889908E+02  0.35216101627E+02  0.40659140849E+02  0.00000000000E+00 0. -1.
         11    1    4    4    0    0 -0.46482508350E+01 -0.11182973020E+01 -0.16256822553E+01  0.50497195701E+01  0.51100000000E-03 0. -1.
        -11    1    4    4    0    0 -0.13827302683E+02 -0.25921279564E+01 -0.71629278666E+01  0.15786733757E+02  0.51100000000E-03 0.  1.
        -12    1    4    4    0    0  0.58442817647E+01 -0.12209464650E+02 -0.26427491505E+02  0.29692405824E+02  0.00000000000E+00 0.  1.
</event>
<event>
 8    1  0.5829710E-012  0.9118800E+02  0.7816164E-02  0.1184000E+00
        -11   -1    0    0    0    0  0.00000000000E+00  0.00000000000E+00  0.45593999997E+02  0.45594000000E+02  0.51100000000E-03 0. -1.
         11   -1    0    0    0    0 -0.00000000000E+00 -0.00000000000E+00 -0.45593999997E+02  0.45594000000E+02  0.51100000000E-03 0.  1.
         23    2    1    2    0    0  0.00000000000E+00 -0.17763568394E-14  0.00000000000E+00  0.91188000000E+02  0.91188000000E+02 0.  0.
    9900012    2    3    3    0    0  0.21240672856E+02  0.15478454460E+02  0.31022840812E+02  0.50528863414E+02  0.30000010835E+02 0.  0.
        -12    1    3    3    0    0 -0.21240672856E+02 -0.15478454460E+02 -0.31022840812E+02  0.40659136586E+02  0.00000000000E+00 0.  1.
         11    1    4    4    0    0  0.32696748204E+01  0.47243965592E+01  0.10103523498E+02  0.11622903407E+02  0.51100000000E-03 0. -1.
        -11    1    4    4    0    0 -0.15178395664E+01  0.13019819175E+02  0.70977901230E+01  0.14906312528E+02  0.51100000000E-03 0.  1.
        -12    1    4    4    0    0  0.19488837602E+02 -0.22657612745E+01  0.13821527191E+02  0.23999647479E+02  0.00000000000E+00 0.  1.
</event>
<event>
 8    1  0.5829710E-012  0.9118800E+02  0.7816164E-02  0.1184000E+00
        -11   -1    0    0    0    0  0.00000000000E+00  0.00000000000E+00  0.45593999997E+02  0.45594000000E+02  0.51100000000E-03 0. -1.
         11   -1    0    0    0    0 -0.00000000000E+00 -0.00000000000E+00 -0.45593999997E+02  0.45594000000E+02  0.51100000000E-03 0.  1.
         23    2    1    2    0    0  0.00000000000E+00  0.00000000000E+00  0.00000000000E+00  0.91188000000E+02  0.91188000000E+02 0.  0.
    9900012    2    3    3    0    0  0.13094456666E+02 -0.37327475732E+02  0.94000040470E+01  0.50528864299E+02  0.30000013522E+02 0.  0.
        -12    1    3    3    0    0 -0.13094456666E+02  0.37327475732E+02 -0.94000040470E+01  0.40659135701E+02  0.00000000000E+00 0.  1.
         11    1    4    4    0    0  0.27271222369E+01 -0.92130460921E-01 -0.60675241203E+01  0.66528590041E+01  0.51100000000E-03 0. -1.
        -11    1    4    4    0    0 -0.28674849712E+01 -0.11423981772E+02  0.22129026563E+01  0.11984438578E+02  0.51100000000E-03 0.  1.
         12    1    4    4    0    0  0.13234819401E+02 -0.25811363499E+02  0.13254625511E+02  0.31891566717E+02  0.00000000000E+00 0. -1.
</event>
<event>
 8    1  0.5829710E-012  0.9118800E+02  0.7816164E-02  0.1184000E+00
        -11   -1    0    0    0    0  0.00000000000E+00  0.00000000000E+00  0.45593999997E+02  0.45594000000E+02  0.51100000000E-03 0.  1.
         11   -1    0    0    0    0 -0.00000000000E+00 -0.00000000000E+00 -0.45593999997E+02  0.45594000000E+02  0.51100000000E-03 0. -1.
         23    2    1    2    0    0 -0.35527136788E-14 -0.35527136788E-14  0.17763568394E-14  0.91188000000E+02  0.91188000000E+02 0.  0.
    9900012    2    3    3    0    0  0.27355862076E+02  0.28504799071E+02 -0.96072189029E+01  0.50528863081E+02  0.30000009820E+02 0.  0.
         12    1    3    3    0    0 -0.27355862076E+02 -0.28504799071E+02  0.96072189029E+01  0.40659136919E+02  0.00000000000E+00 0. -1.
         11    1    4    4    0    0 -0.29919109703E+01  0.92060826172E+01  0.16405843862E+01  0.98180958336E+01  0.51100000000E-03 0. -1.
        -11    1    4    4    0    0  0.21967071958E+02  0.20739697357E+02 -0.11161586240E+02  0.32206650005E+02  0.51100000000E-03 0.  1.
        -12    1    4    4    0    0  0.83807010876E+01 -0.14409809036E+01 -0.86217049493E-01  0.85041172419E+01  0.00000000000E+00 0.  1.
</event>
<event>
 8    1  0.5829710E-012  0.9118800E+02  0.7816164E-02  0.1184000E+00
        -11   -1    0    0    0    0  0.00000000000E+00  0.00000000000E+00  0.45593999997E+02  0.45594000000E+02  0.51100000000E-03 0. -1.
         11   -1    0    0    0    0 -0.00000000000E+00 -0.00000000000E+00 -0.45593999997E+02  0.45594000000E+02  0.51100000000E-03 0.  1.
         23    2    1    2    0    0  0.00000000000E+00  0.00000000000E+00  0.00000000000E+00  0.91188000000E+02  0.91188000000E+02 0.  0.
    9900012    2    3    3    0    0 -0.20668008234E+02  0.21514204348E+01  0.34948112826E+02  0.50528858785E+02  0.29999996762E+02 0.  0.
        -12    1    3    3    0    0  0.20668008234E+02 -0.21514204348E+01 -0.34948112826E+02  0.40659141215E+02  0.00000000000E+00 0.  1.
         11    1    4    4    0    0 -0.16901419099E+02  0.86316730240E+01  0.34100130556E+02  0.39025410324E+02  0.51100000000E-03 0. -1.
        -11    1    4    4    0    0 -0.21190648422E+01 -0.46892191648E+01  0.46854839864E+01  0.69593801900E+01  0.51100000000E-03 0.  1.
        -12    1    4    4    0    0 -0.16475242932E+01 -0.17910334245E+01 -0.38375017164E+01  0.45440682706E+01  0.00000000000E+00 0.  1.
</event>
<event>
 8    1  0.5829710E-012  0.9118800E+02  0.7816164E-02  0.1184000E+00
        -11   -1    0    0    0    0  0.00000000000E+00  0.00000000000E+00  0.45593999997E+02  0.45594000000E+02  0.51100000000E-03 0. -1.
         11   -1    0    0    0    0 -0.00000000000E+00 -0.00000000000E+00 -0.45593999997E+02  0.45594000000E+02  0.51100000000E-03 0.  1.
         23    2    1    2    0    0 -0.17763568394E-14  0.00000000000E+00  0.71054273576E-14  0.91188000000E+02  0.91188000000E+02 0.  0.
    9900012    2    3    3    0    0 -0.11276902420E+02  0.13962338946E+02  0.36483557145E+02  0.50528863524E+02  0.30000011167E+02 0.  0.
        -12    1    3    3    0    0  0.11276902420E+02 -0.13962338946E+02 -0.36483557145E+02  0.40659136476E+02  0.00000000000E+00 0.  1.
         11    1    4    4    0    0 -0.43413562051E+01  0.57617553048E+01  0.25349510664E+01  0.76466446931E+01  0.51100000000E-03 0. -1.
        -11    1    4    4    0    0 -0.25110674417E+01 -0.47379149604E+00 -0.34180179793E+01  0.42676439924E+01  0.51100000000E-03 0.  1.
         12    1    4    4    0    0 -0.44244787731E+01  0.86743751375E+01  0.37366624058E+02  0.38614574838E+02  0.00000000000E+00 0. -1.
</event>
<event>
 8    1  0.5829710E-012  0.9118800E+02  0.7816164E-02  0.1184000E+00
        -11   -1    0    0    0    0  0.00000000000E+00  0.00000000000E+00  0.45593999997E+02  0.45594000000E+02  0.51100000000E-03 0. -1.
         11   -1    0    0    0    0 -0.00000000000E+00 -0.00000000000E+00 -0.45593999997E+02  0.45594000000E+02  0.51100000000E-03 0.  1.
         23    2    1    2    0    0 -0.44408920985E-15 -0.35527136788E-14  0.35527136788E-14  0.91188000000E+02  0.91188000000E+02 0.  0.
    9900012    2    3    3    0    0 -0.14058164641E+01 -0.31954036851E+02 -0.25102369094E+02  0.50528859267E+02  0.29999998228E+02 0.  0.
         12    1    3    3    0    0  0.14058164641E+01  0.31954036851E+02  0.25102369094E+02  0.40659140733E+02  0.00000000000E+00 0. -1.
         11    1    4    4    0    0  0.20670692887E+01 -0.16976519123E+02  0.21284431750E+01  0.17233840186E+02  0.51100000000E-03 0. -1.
        -11    1    4    4    0    0  0.41993430263E+01 -0.54097104633E+01 -0.86700688528E+01  0.11048508647E+02  0.51100000000E-03 0.  1.
        -12    1    4    4    0    0 -0.76722287791E+01 -0.95678072653E+01 -0.18560743416E+02  0.22246510434E+02  0.00000000000E+00 0.  1.
</event>
<event>
 8    1  0.5829710E-012  0.9118800E+02  0.7816164E-02  0.1184000E+00
        -11   -1    0    0    0    0  0.00000000000E+00  0.00000000000E+00  0.45593999997E+02  0.45594000000E+02  0.51100000000E-03 0. -1.
         11   -1    0    0    0    0 -0.00000000000E+00 -0.00000000000E+00 -0.45593999997E+02  0.45594000000E+02  0.51100000000E-03 0.  1.
         23    2    1    2    0    0  0.00000000000E+00  0.88817841970E-15  0.00000000000E+00  0.91188000000E+02  0.91188000000E+02 0.  0.
    9900012    2    3    3    0    0 -0.93128436242E+01  0.55949082820E+01  0.39180921116E+02  0.50528725111E+02  0.29999590444E+02 0.  0.
        -12    1    3    3    0    0  0.93128436242E+01 -0.55949082820E+01 -0.39180921116E+02  0.40659274889E+02  0.00000000000E+00 0.  1.
         11    1    4    4    0    0  0.48921800584E+01 -0.72706614986E+01  0.13856051592E+02  0.16394697628E+02  0.51100000000E-03 0. -1.
        -11    1    4    4    0    0 -0.12813547454E+01  0.36041102350E+00  0.11167816842E+02  0.11246861756E+02  0.51100000000E-03 0.  1.
        -12    1    4    4    0    0 -0.12923668937E+02  0.12505158757E+02  0.14157052682E+02  0.22887165726E+02  0.00000000000E+00 0.  1.
</event>
<event>
 8    1  0.5829710E-012  0.9118800E+02  0.7816164E-02  0.1184000E+00
        -11   -1    0    0    0    0  0.00000000000E+00  0.00000000000E+00  0.45593999997E+02  0.45594000000E+02  0.51100000000E-03 0. -1.
         11   -1    0    0    0    0 -0.00000000000E+00 -0.00000000000E+00 -0.45593999997E+02  0.45594000000E+02  0.51100000000E-03 0.  1.
         23    2    1    2    0    0  0.00000000000E+00  0.00000000000E+00  0.00000000000E+00  0.91188000000E+02  0.91188000000E+02 0.  0.
    9900012    2    3    3    0    0  0.17362052837E+02  0.19393851383E+02  0.31234660195E+02  0.50528851611E+02  0.29999974958E+02 0.  0.
        -12    1    3    3    0    0 -0.17362052837E+02 -0.19393851383E+02 -0.31234660195E+02  0.40659148389E+02  0.00000000000E+00 0.  1.
         11    1    4    4    0    0  0.31562829213E+01  0.11007211295E+02  0.26599499276E+02  0.28959526660E+02  0.51100000000E-03 0.  1.
        -11    1    4    4    0    0  0.13139748368E+01  0.34075507488E+01  0.66661131257E+01  0.76009865440E+01  0.51100000000E-03 0. -1.
        -12    1    4    4    0    0  0.12891795079E+02  0.49790893393E+01 -0.20309522062E+01  0.13968338408E+02  0.00000000000E+00 0.  1.
</event>
<event>
 8    1  0.5829710E-012  0.9118800E+02  0.7816164E-02  0.1184000E+00
        -11   -1    0    0    0    0  0.00000000000E+00  0.00000000000E+00  0.45593999997E+02  0.45594000000E+02  0.51100000000E-03 0. -1.
         11   -1    0    0    0    0 -0.00000000000E+00 -0.00000000000E+00 -0.45593999997E+02  0.45594000000E+02  0.51100000000E-03 0.  1.
         23    2    1    2    0    0 -0.88817841970E-15  0.17763568394E-14  0.00000000000E+00  0.91188000000E+02  0.91188000000E+02 0.  0.
    9900012    2    3    3    0    0 -0.59034183653E+01  0.12087637696E+02  0.38369325267E+02  0.50528850293E+02  0.29999970952E+02 0.  0.
        -12    1    3    3    0    0  0.59034183653E+01 -0.12087637696E+02 -0.38369325267E+02  0.40659149707E+02  0.00000000000E+00 0.  1.
         11    1    4    4    0    0 -0.50322621250E+00  0.89054397280E+01  0.13523351287E+02  0.16200034681E+02  0.51100000000E-03 0. -1.
        -11    1    4    4    0    0  0.88605880552E+01 -0.75630680474E+00  0.94841749877E+01  0.13001215179E+02  0.51100000000E-03 0.  1.
         12    1    4    4    0    0 -0.14260780208E+02  0.39385047725E+01  0.15361798991E+02  0.21327600433E+02  0.00000000000E+00 0. -1.
</event>
<event>
 8    1  0.5829710E-012  0.9118800E+02  0.7816164E-02  0.1184000E+00
        -11   -1    0    0    0    0  0.00000000000E+00  0.00000000000E+00  0.45593999997E+02  0.45594000000E+02  0.51100000000E-03 0.  1.
         11   -1    0    0    0    0 -0.00000000000E+00 -0.00000000000E+00 -0.45593999997E+02  0.45594000000E+02  0.51100000000E-03 0. -1.
         23    2    1    2    0    0  0.71054273576E-14  0.00000000000E+00  0.00000000000E+00  0.91188000000E+02  0.91188000000E+02 0.  0.
    9900012    2    3    3    0    0 -0.32430286540E+02  0.15087006795E+02  0.19334553346E+02  0.50528853278E+02  0.29999980023E+02 0.  0.
        -12    1    3    3    0    0  0.32430286540E+02 -0.15087006795E+02 -0.19334553346E+02  0.40659146722E+02  0.00000000000E+00 0.  1.
         11    1    4    4    0    0 -0.68758558243E+01  0.63617863840E+01  0.34898331947E+01  0.99964321285E+01  0.51100000000E-03 0. -1.
        -11    1    4    4    0    0  0.27436101297E+01  0.85775982028E+01  0.36055374713E+01  0.97006436998E+01  0.51100000000E-03 0.  1.
         12    1    4    4    0    0 -0.28298040846E+02  0.14762220842E+00  0.12239182680E+02  0.30831777449E+02  0.00000000000E+00 0. -1.
</event>
<event>
 8    1  0.5829710E-012  0.9118800E+02  0.7816164E-02  0.1184000E+00
        -11   -1    0    0    0    0  0.00000000000E+00  0.00000000000E+00  0.45593999997E+02  0.45594000000E+02  0.51100000000E-03 0.  1.
         11   -1    0    0    0    0 -0.00000000000E+00 -0.00000000000E+00 -0.45593999997E+02  0.45594000000E+02  0.51100000000E-03 0. -1.
         23    2    1    2    0    0 -0.88817841970E-15  0.00000000000E+00 -0.88817841970E-15  0.91188000000E+02  0.91188000000E+02 0.  0.
    9900012    2    3    3    0    0 -0.51421829311E+01  0.39631585747E+02 -0.74875129222E+01  0.50528837639E+02  0.29999932487E+02 0.  0.
        -12    1    3    3    0    0  0.51421829311E+01 -0.39631585747E+02  0.74875129222E+01  0.40659162361E+02  0.00000000000E+00 0.  1.
         11    1    4    4    0    0  0.35474303065E+01  0.31239468829E+00 -0.21273676171E+01  0.41481978569E+01  0.51100000000E-03 0. -1.
        -11    1    4    4    0    0  0.19583517655E+01  0.66628768450E+01  0.70148139865E+01  0.98710022295E+01  0.51100000000E-03 0.  1.
         12    1    4    4    0    0 -0.10647965003E+02  0.32656314214E+02 -0.12374959292E+02  0.36509637553E+02  0.00000000000E+00 0. -1.
</event>
<event>
 8    1  0.5829710E-012  0.9118800E+02  0.7816164E-02  0.1184000E+00
        -11   -1    0    0    0    0  0.00000000000E+00  0.00000000000E+00  0.45593999997E+02  0.45594000000E+02  0.51100000000E-03 0. -1.
         11   -1    0    0    0    0 -0.00000000000E+00 -0.00000000000E+00 -0.45593999997E+02  0.45594000000E+02  0.51100000000E-03 0.  1.
         23    2    1    2    0    0  0.00000000000E+00  0.00000000000E+00  0.00000000000E+00  0.91188000000E+02  0.91188000000E+02 0.  0.
    9900012    2    3    3    0    0  0.12165796509E+02 -0.16305164876E+02 -0.35203729826E+02  0.50528836211E+02  0.29999928146E+02 0.  0.
         12    1    3    3    0    0 -0.12165796509E+02  0.16305164876E+02  0.35203729826E+02  0.40659163789E+02  0.00000000000E+00 0. -1.
         11    1    4    4    0    0 -0.12795519760E+01 -0.24585868034E+01 -0.19339700861E+01  0.33796660906E+01  0.51100000000E-03 0. -1.
        -11    1    4    4    0    0  0.10468765848E+00 -0.14058865072E+02 -0.30411558136E+02  0.33504111914E+02  0.51100000000E-03 0.  1.
         12    1    4    4    0    0  0.13340660826E+02  0.21228699910E+00 -0.28582016048E+01  0.13645058207E+02  0.00000000000E+00 0. -1.
</event>
<event>
 8    1  0.5829710E-012  0.9118800E+02  0.7816164E-02  0.1184000E+00
        -11   -1    0    0    0    0  0.00000000000E+00  0.00000000000E+00  0.45593999997E+02  0.45594000000E+02  0.51100000000E-03 0. -1.
         11   -1    0    0    0    0 -0.00000000000E+00 -0.00000000000E+00 -0.45593999997E+02  0.45594000000E+02  0.51100000000E-03 0.  1.
         23    2    1    2    0    0 -0.17763568394E-14  0.88817841970E-15  0.00000000000E+00  0.91188000000E+02  0.91188000000E+02 0.  0.
    9900012    2    3    3    0    0 -0.14958885183E+02 -0.63455372315E+01  0.37271056223E+02  0.50528859322E+02  0.29999998395E+02 0.  0.
        -12    1    3    3    0    0  0.14958885183E+02  0.63455372315E+01 -0.37271056223E+02  0.40659140678E+02  0.00000000000E+00 0.  1.
         11    1    4    4    0    0  0.50482626407E+01  0.49215726306E+00  0.26466752821E+01  0.57211943483E+01  0.51100000000E-03 0. -1.
        -11    1    4    4    0    0 -0.55614081478E+01 -0.11771402027E+02  0.13610987232E+02  0.18834918103E+02  0.51100000000E-03 0.  1.
        -12    1    4    4    0    0 -0.14445739676E+02  0.49337075329E+01  0.21013393710E+02  0.25972746870E+02  0.00000000000E+00 0.  1.
</event>
<event>
 8    1  0.5829710E-012  0.9118800E+02  0.7816164E-02  0.1184000E+00
        -11   -1    0    0    0    0  0.00000000000E+00  0.00000000000E+00  0.45593999997E+02  0.45594000000E+02  0.51100000000E-03 0. -1.
         11   -1    0    0    0    0 -0.00000000000E+00 -0.00000000000E+00 -0.45593999997E+02  0.45594000000E+02  0.51100000000E-03 0.  1.
         23    2    1    2    0    0  0.00000000000E+00  0.00000000000E+00  0.71054273576E-14  0.91188000000E+02  0.91188000000E+02 0.  0.
    9900012    2    3    3    0    0  0.55207858952E+01 -0.11250756756E+02 -0.38679538352E+02  0.50528864598E+02  0.30000014433E+02 0.  0.
         12    1    3    3    0    0 -0.55207858952E+01  0.11250756756E+02  0.38679538352E+02  0.40659135402E+02  0.00000000000E+00 0. -1.
         11    1    4    4    0    0  0.85857350935E+01 -0.66895032710E+01 -0.28814560867E+02  0.30801675593E+02  0.51100000000E-03 0.  1.
        -11    1    4    4    0    0  0.40926749784E+01  0.30139578152E+01 -0.74674636417E+01  0.90331026614E+01  0.51100000000E-03 0. -1.
        -12    1    4    4    0    0 -0.71576241766E+01 -0.75752113001E+01 -0.23975138430E+01  0.10694086344E+02  0.00000000000E+00 0.  1.
</event>
<event>
 8    1  0.5829710E-012  0.9118800E+02  0.7816164E-02  0.1184000E+00
        -11   -1    0    0    0    0  0.00000000000E+00  0.00000000000E+00  0.45593999997E+02  0.45594000000E+02  0.51100000000E-03 0. -1.
         11   -1    0    0    0    0 -0.00000000000E+00 -0.00000000000E+00 -0.45593999997E+02  0.45594000000E+02  0.51100000000E-03 0.  1.
         23    2    1    2    0    0  0.44408920985E-15  0.00000000000E+00 -0.71054273576E-14  0.91188000000E+02  0.91188000000E+02 0.  0.
    9900012    2    3    3    0    0 -0.36975823175E+01 -0.18279364108E+02  0.36129747163E+02  0.50528857151E+02  0.29999991796E+02 0.  0.
        -12    1    3    3    0    0  0.36975823175E+01  0.18279364108E+02 -0.36129747163E+02  0.40659142849E+02  0.00000000000E+00 0.  1.
         11    1    4    4    0    0 -0.46001544952E+01 -0.24384228764E+02  0.33947036894E+02  0.42049415548E+02  0.51100000000E-03 0. -1.
        -11    1    4    4    0    0 -0.50497819698E+00 -0.80829866242E+00  0.89589940967E+00  0.13080465284E+01  0.51100000000E-03 0.  1.
        -12    1    4    4    0    0  0.14075503747E+01  0.69131633186E+01  0.12868108594E+01  0.71713950745E+01  0.00000000000E+00 0.  1.
</event>
<event>
 8    1  0.5829710E-012  0.9118800E+02  0.7816164E-02  0.1184000E+00
        -11   -1    0    0    0    0  0.00000000000E+00  0.00000000000E+00  0.45593999997E+02  0.45594000000E+02  0.51100000000E-03 0. -1.
         11   -1    0    0    0    0 -0.00000000000E+00 -0.00000000000E+00 -0.45593999997E+02  0.45594000000E+02  0.51100000000E-03 0.  1.
         23    2    1    2    0    0 -0.88817841970E-15  0.77715611724E-15  0.71054273576E-14  0.91188000000E+02  0.91188000000E+02 0.  0.
    9900012    2    3    3    0    0  0.49620931425E+01 -0.85867761866E+00  0.40346076922E+02  0.50528860577E+02  0.30000002209E+02 0.  0.
        -12    1    3    3    0    0 -0.49620931425E+01  0.85867761866E+00 -0.40346076922E+02  0.40659139423E+02  0.00000000000E+00 0.  1.
         11    1    4    4    0    0  0.58896489983E+01  0.82872132954E+01  0.55317326372E+01  0.11574365458E+02  0.51100000000E-03 0. -1.
        -11    1    4    4    0    0 -0.62019316607E+01 -0.46459798764E+01  0.75374876603E+01  0.10810310163E+02  0.51100000000E-03 0.  1.
        -12    1    4    4    0    0  0.52743758049E+01 -0.44999110377E+01  0.27276856625E+02  0.28144184956E+02  0.00000000000E+00 0.  1.
</event>
<event>
 8    1  0.5829710E-012  0.9118800E+02  0.7816164E-02  0.1184000E+00
        -11   -1    0    0    0    0  0.00000000000E+00  0.00000000000E+00  0.45593999997E+02  0.45594000000E+02  0.51100000000E-03 0.  1.
         11   -1    0    0    0    0 -0.00000000000E+00 -0.00000000000E+00 -0.45593999997E+02  0.45594000000E+02  0.51100000000E-03 0. -1.
         23    2    1    2    0    0  0.00000000000E+00 -0.71054273576E-14  0.17763568394E-14  0.91188000000E+02  0.91188000000E+02 0.  0.
    9900012    2    3    3    0    0 -0.19362519147E+02  0.34715121123E+02  0.85510422679E+01  0.50528842284E+02  0.29999946607E+02 0.  0.
         12    1    3    3    0    0  0.19362519147E+02 -0.34715121123E+02 -0.85510422679E+01  0.40659157716E+02  0.00000000000E+00 0. -1.
         11    1    4    4    0    0 -0.92919579514E+01  0.35783945365E+01  0.11833691886E+01  0.10027250517E+02  0.51100000000E-03 0. -1.
        -11    1    4    4    0    0  0.40758241221E+01  0.14529568574E+02  0.10609159521E+02  0.18446543612E+02  0.51100000000E-03 0.  1.
         12    1    4    4    0    0 -0.14146385317E+02  0.16607158013E+02 -0.32414864413E+01  0.22055048156E+02  0.00000000000E+00 0. -1.
</event>
<event>
 8    1  0.5829710E-012  0.9118800E+02  0.7816164E-02  0.1184000E+00
        -11   -1    0    0    0    0  0.00000000000E+00  0.00000000000E+00  0.45593999997E+02  0.45594000000E+02  0.51100000000E-03 0. -1.
         11   -1    0    0    0    0 -0.00000000000E+00 -0.00000000000E+00 -0.45593999997E+02  0.45594000000E+02  0.51100000000E-03 0.  1.
         23    2    1    2    0    0  0.00000000000E+00  0.00000000000E+00  0.71054273576E-14  0.91188000000E+02  0.91188000000E+02 0.  0.
    9900012    2    3    3    0    0 -0.25793005313E+02 -0.74568646815E+01  0.30533290946E+02  0.50528858224E+02  0.29999995058E+02 0.  0.
        -12    1    3    3    0    0  0.25793005313E+02  0.74568646815E+01 -0.30533290946E+02  0.40659141776E+02  0.00000000000E+00 0.  1.
         11    1    4    4    0    0 -0.15744295690E+02 -0.85640384288E+01  0.46923681484E+01  0.18526843230E+02  0.51100000000E-03 0. -1.
        -11    1    4    4    0    0 -0.41501245844E+00 -0.59221524611E+01  0.41318074846E+01  0.72329771508E+01  0.51100000000E-03 0.  1.
         12    1    4    4    0    0 -0.96336971646E+01  0.70293262084E+01  0.21709115313E+02  0.24769037843E+02  0.00000000000E+00 0. -1.
</event>
<event>
 8    1  0.5829710E-012  0.9118800E+02  0.7816164E-02  0.1184000E+00
        -11   -1    0    0    0    0  0.00000000000E+00  0.00000000000E+00  0.45593999997E+02  0.45594000000E+02  0.51100000000E-03 0.  1.
         11   -1    0    0    0    0 -0.00000000000E+00 -0.00000000000E+00 -0.45593999997E+02  0.45594000000E+02  0.51100000000E-03 0. -1.
         23    2    1    2    0    0 -0.71054273576E-14 -0.17763568394E-14  0.00000000000E+00  0.91188000000E+02  0.91188000000E+02 0.  0.
    9900012    2    3    3    0    0  0.36570382523E+02 -0.12533214056E+02 -0.12597293995E+02  0.50528854062E+02  0.29999982406E+02 0.  0.
         12    1    3    3    0    0 -0.36570382523E+02  0.12533214056E+02  0.12597293995E+02  0.40659145938E+02  0.00000000000E+00 0. -1.
         11    1    4    4    0    0  0.78652514984E+01 -0.11457059797E+02  0.28108070722E+01  0.14178400367E+02  0.51100000000E-03 0. -1.
        -11    1    4    4    0    0 -0.30808266056E+00 -0.12517116047E+01 -0.55652369457E+01  0.57125790489E+01  0.51100000000E-03 0.  1.
        -12    1    4    4    0    0  0.29013213685E+02  0.17555734519E+00 -0.98428641213E+01  0.30637874646E+02  0.00000000000E+00 0.  1.
</event>
<event>
 8    1  0.5829710E-012  0.9118800E+02  0.7816164E-02  0.1184000E+00
        -11   -1    0    0    0    0  0.00000000000E+00  0.00000000000E+00  0.45593999997E+02  0.45594000000E+02  0.51100000000E-03 0. -1.
         11   -1    0    0    0    0 -0.00000000000E+00 -0.00000000000E+00 -0.45593999997E+02  0.45594000000E+02  0.51100000000E-03 0.  1.
         23    2    1    2    0    0 -0.35527136788E-14  0.35527136788E-14  0.35527136788E-14  0.91188000000E+02  0.91188000000E+02 0.  0.
    9900012    2    3    3    0    0  0.26963845686E+02 -0.14745301453E+02 -0.26621234633E+02  0.50528892502E+02  0.30000099249E+02 0.  0.
         12    1    3    3    0    0 -0.26963845686E+02  0.14745301453E+02  0.26621234633E+02  0.40659107498E+02  0.00000000000E+00 0. -1.
         11    1    4    4    0    0  0.94861265240E+01 -0.10975894911E+02 -0.48918535713E+00  0.14515376954E+02  0.51100000000E-03 0. -1.
        -11    1    4    4    0    0  0.91017774896E+01  0.60326980615E+01 -0.70981690892E+01  0.13023816800E+02  0.51100000000E-03 0.  1.
        -12    1    4    4    0    0  0.83759416726E+01 -0.98021046033E+01 -0.19033880187E+02  0.22989698748E+02  0.00000000000E+00 0.  1.
</event>
<event>
 8    1  0.5829710E-012  0.9118800E+02  0.7816164E-02  0.1184000E+00
        -11   -1    0    0    0    0  0.00000000000E+00  0.00000000000E+00  0.45593999997E+02  0.45594000000E+02  0.51100000000E-03 0. -1.
         11   -1    0    0    0    0 -0.00000000000E+00 -0.00000000000E+00 -0.45593999997E+02  0.45594000000E+02  0.51100000000E-03 0.  1.
         23    2    1    2    0    0 -0.17763568394E-14  0.00000000000E+00  0.00000000000E+00  0.91188000000E+02  0.91188000000E+02 0.  0.
    9900012    2    3    3    0    0 -0.13658768514E+02  0.35480051080E+02  0.14414219652E+02  0.50528859452E+02  0.29999998790E+02 0.  0.
        -12    1    3    3    0    0  0.13658768514E+02 -0.35480051080E+02 -0.14414219652E+02  0.40659140548E+02  0.00000000000E+00 0.  1.
         11    1    4    4    0    0 -0.70005556527E+01 -0.49963729891E-01 -0.14242974818E+01  0.71441514121E+01  0.51100000000E-03 0. -1.
        -11    1    4    4    0    0 -0.70016241648E+01  0.57803312630E+01 -0.11054683724E+01  0.91464217615E+01  0.51100000000E-03 0.  1.
        -12    1    4    4    0    0  0.34341130381E+00  0.29749683546E+02  0.16943985506E+02  0.34238286278E+02  0.00000000000E+00 0.  1.
</event>
<event>
 8    1  0.5829710E-012  0.9118800E+02  0.7816164E-02  0.1184000E+00
        -11   -1    0    0    0    0  0.00000000000E+00  0.00000000000E+00  0.45593999997E+02  0.45594000000E+02  0.51100000000E-03 0. -1.
         11   -1    0    0    0    0 -0.00000000000E+00 -0.00000000000E+00 -0.45593999997E+02  0.45594000000E+02  0.51100000000E-03 0.  1.
         23    2    1    2    0    0 -0.71054273576E-14  0.00000000000E+00  0.00000000000E+00  0.91188000000E+02  0.91188000000E+02 0.  0.
    9900012    2    3    3    0    0  0.37529515746E+02 -0.13740210099E+02  0.74772262021E+01  0.50528845589E+02  0.29999956653E+02 0.  0.
        -12    1    3    3    0    0 -0.37529515746E+02  0.13740210099E+02 -0.74772262021E+01  0.40659154411E+02  0.00000000000E+00 0.  1.
         11    1    4    4    0    0  0.81742124853E-01 -0.22186350254E+01  0.50884388480E+01  0.55516874301E+01  0.51100000000E-03 0. -1.
        -11    1    4    4    0    0 -0.26142985381E+01  0.47654904875E-01 -0.16358146530E+01  0.30842693910E+01  0.51100000000E-03 0.  1.
         12    1    4    4    0    0  0.40062072160E+02 -0.11569229978E+02  0.40246020071E+01  0.41892888768E+02  0.00000000000E+00 0. -1.
</event>
<event>
 8    1  0.5829710E-012  0.9118800E+02  0.7816164E-02  0.1184000E+00
        -11   -1    0    0    0    0  0.00000000000E+00  0.00000000000E+00  0.45593999997E+02  0.45594000000E+02  0.51100000000E-03 0. -1.
         11   -1    0    0    0    0 -0.00000000000E+00 -0.00000000000E+00 -0.45593999997E+02  0.45594000000E+02  0.51100000000E-03 0.  1.
         23    2    1    2    0    0  0.00000000000E+00  0.00000000000E+00  0.00000000000E+00  0.91188000000E+02  0.91188000000E+02 0.  0.
    9900012    2    3    3    0    0  0.27593395768E+02 -0.63038813399E+01 -0.29189577261E+02  0.50528857969E+02  0.29999994283E+02 0.  0.
         12    1    3    3    0    0 -0.27593395768E+02  0.63038813399E+01  0.29189577261E+02  0.40659142031E+02  0.00000000000E+00 0. -1.
         11    1    4    4    0    0  0.16840474401E+02  0.19326227261E+01  0.51885127425E-01  0.16951085540E+02  0.51100000000E-03 0. -1.
        -11    1    4    4    0    0  0.44038568120E+01  0.85652736712E+00 -0.40129121231E+01  0.60192240298E+01  0.51100000000E-03 0.  1.
        -12    1    4    4    0    0  0.63490645552E+01 -0.90930314331E+01 -0.25228550266E+02  0.27558548399E+02  0.00000000000E+00 0.  1.
</event>
<event>
 8    1  0.5829710E-012  0.9118800E+02  0.7816164E-02  0.1184000E+00
        -11   -1    0    0    0    0  0.00000000000E+00  0.00000000000E+00  0.45593999997E+02  0.45594000000E+02  0.51100000000E-03 0. -1.
         11   -1    0    0    0    0 -0.00000000000E+00 -0.00000000000E+00 -0.45593999997E+02  0.45594000000E+02  0.51100000000E-03 0.  1.
         23    2    1    2    0    0  0.35527136788E-14  0.17763568394E-14  0.00000000000E+00  0.91188000000E+02  0.91188000000E+02 0.  0.
    9900012    2    3    3    0    0  0.77821601859E+01  0.14539145653E+02  0.37164723437E+02  0.50528862754E+02  0.30000008826E+02 0.  0.
        -12    1    3    3    0    0 -0.77821601859E+01 -0.14539145653E+02 -0.37164723437E+02  0.40659137246E+02  0.00000000000E+00 0.  1.
         11    1    4    4    0    0  0.65959198401E+01  0.87753935063E+01  0.19062576140E+02  0.21997624851E+02  0.51100000000E-03 0. -1.
        -11    1    4    4    0    0  0.92076269116E+01 -0.70254714125E+00  0.15271366540E+02  0.17846248965E+02  0.51100000000E-03 0.  1.
         12    1    4    4    0    0 -0.80213865659E+01  0.64662992876E+01  0.28307807565E+01  0.10684988938E+02  0.00000000000E+00 0. -1.
</event>
<event>
 8    1  0.6295190E-012  0.9118800E+02  0.7816164E-02  0.1184000E+00
        -11   -1    0    0    0    0  0.00000000000E+00  0.00000000000E+00  0.45593999997E+02  0.45594000000E+02  0.51100000000E-03 0. -1.
         11   -1    0    0    0    0 -0.00000000000E+00 -0.00000000000E+00 -0.45593999997E+02  0.45594000000E+02  0.51100000000E-03 0.  1.
         23    2    1    2    0    0  0.00000000000E+00  0.00000000000E+00  0.71054273576E-14  0.91188000000E+02  0.91188000000E+02 0.  0.
    9900012    2    3    3    0    0  0.85658887404E+01 -0.21052525602E+02 -0.33713235323E+02  0.50528861788E+02  0.30000005892E+02 0.  0.
         12    1    3    3    0    0 -0.85658887404E+01  0.21052525602E+02  0.33713235323E+02  0.40659138212E+02  0.00000000000E+00 0. -1.
         11    1    4    4    0    0  0.76511694694E+01 -0.95875793960E+01 -0.14303586288E+01  0.12349412901E+02  0.51100000000E-03 0. -1.
        -11    1    4    4    0    0  0.59645205269E+01 -0.10704857513E+02 -0.11594572339E+02  0.16870198205E+02  0.51100000000E-03 0.  1.
         12    1    4    4    0    0 -0.50498012559E+01 -0.76008869258E+00 -0.20688304355E+02  0.21309250682E+02  0.00000000000E+00 0. -1.
</event>
<event>
 8    1  0.5829710E-012  0.9118800E+02  0.7816164E-02  0.1184000E+00
        -11   -1    0    0    0    0  0.00000000000E+00  0.00000000000E+00  0.45593999997E+02  0.45594000000E+02  0.51100000000E-03 0. -1.
         11   -1    0    0    0    0 -0.00000000000E+00 -0.00000000000E+00 -0.45593999997E+02  0.45594000000E+02  0.51100000000E-03 0.  1.
         23    2    1    2    0    0 -0.71054273576E-14  0.17763568394E-14 -0.17763568394E-14  0.91188000000E+02  0.91188000000E+02 0.  0.
    9900012    2    3    3    0    0  0.37480198453E+02  0.99624130503E+01  0.12212716243E+02  0.50528863414E+02  0.30000010834E+02 0.  0.
        -12    1    3    3    0    0 -0.37480198453E+02 -0.99624130503E+01 -0.12212716243E+02  0.40659136586E+02  0.00000000000E+00 0.  1.
         11    1    4    4    0    0  0.13649527674E+02 -0.90614004540E+01  0.26387733266E+01  0.16594628915E+02  0.51100000000E-03 0. -1.
        -11    1    4    4    0    0 -0.22723947904E+00 -0.61258065517E-01  0.23833362311E+01  0.23949284296E+01  0.51100000000E-03 0.  1.
         12    1    4    4    0    0  0.24057910258E+02  0.19085071570E+02  0.71906066851E+01  0.31539306069E+02  0.00000000000E+00 0. -1.
</event>
<event>
 8    1  0.5829710E-012  0.9118800E+02  0.7816164E-02  0.1184000E+00
        -11   -1    0    0    0    0  0.00000000000E+00  0.00000000000E+00  0.45593999997E+02  0.45594000000E+02  0.51100000000E-03 0. -1.
         11   -1    0    0    0    0 -0.00000000000E+00 -0.00000000000E+00 -0.45593999997E+02  0.45594000000E+02  0.51100000000E-03 0.  1.
         23    2    1    2    0    0  0.00000000000E+00 -0.35527136788E-14  0.35527136788E-14  0.91188000000E+02  0.91188000000E+02 0.  0.
    9900012    2    3    3    0    0  0.60831204173E+01  0.25398604130E+02  0.31162034487E+02  0.50528857865E+02  0.29999993966E+02 0.  0.
        -12    1    3    3    0    0 -0.60831204173E+01 -0.25398604130E+02 -0.31162034487E+02  0.40659142135E+02  0.00000000000E+00 0.  1.
         11    1    4    4    0    0 -0.30636659288E+01  0.12489898756E+01  0.17042786860E+02  0.17360950689E+02  0.51100000000E-03 0. -1.
        -11    1    4    4    0    0  0.57746177305E+00 -0.17759872753E+01 -0.82400032526E+00  0.20412176999E+01  0.51100000000E-03 0.  1.
         12    1    4    4    0    0  0.85693245731E+01  0.25925601530E+02  0.14943247953E+02  0.31126689475E+02  0.00000000000E+00 0. -1.
</event>
<event>
 8    1  0.5829710E-012  0.9118800E+02  0.7816164E-02  0.1184000E+00
        -11   -1    0    0    0    0  0.00000000000E+00  0.00000000000E+00  0.45593999997E+02  0.45594000000E+02  0.51100000000E-03 0. -1.
         11   -1    0    0    0    0 -0.00000000000E+00 -0.00000000000E+00 -0.45593999997E+02  0.45594000000E+02  0.51100000000E-03 0.  1.
         23    2    1    2    0    0  0.00000000000E+00  0.00000000000E+00 -0.22204460493E-15  0.91188000000E+02  0.91188000000E+02 0.  0.
    9900012    2    3    3    0    0  0.32046150169E+02  0.24982656452E+02  0.14413956137E+01  0.50528849918E+02  0.29999969811E+02 0.  0.
         12    1    3    3    0    0 -0.32046150169E+02 -0.24982656452E+02 -0.14413956137E+01  0.40659150082E+02  0.00000000000E+00 0. -1.
         11    1    4    4    0    0  0.17879090650E+02  0.12261317000E+02  0.88858803993E+01  0.23429909257E+02  0.51100000000E-03 0.  1.
        -11    1    4    4    0    0 -0.40383675568E+01  0.27879431267E+01 -0.33977361015E+01  0.59687226672E+01  0.51100000000E-03 0. -1.
         12    1    4    4    0    0  0.18205427076E+02  0.99333963260E+01 -0.40467486841E+01  0.21130217994E+02  0.00000000000E+00 0. -1.
</event>
<event>
 8    1  0.5829710E-012  0.9118800E+02  0.7816164E-02  0.1184000E+00
        -11   -1    0    0    0    0  0.00000000000E+00  0.00000000000E+00  0.45593999997E+02  0.45594000000E+02  0.51100000000E-03 0. -1.
         11   -1    0    0    0    0 -0.00000000000E+00 -0.00000000000E+00 -0.45593999997E+02  0.45594000000E+02  0.51100000000E-03 0.  1.
         23    2    1    2    0    0  0.00000000000E+00  0.88817841970E-15 -0.35527136788E-14  0.91188000000E+02  0.91188000000E+02 0.  0.
    9900012    2    3    3    0    0 -0.35402412056E+02 -0.59158318368E+01  0.19100771014E+02  0.50528839912E+02  0.29999939396E+02 0.  0.
        -12    1    3    3    0    0  0.35402412056E+02  0.59158318368E+01 -0.19100771014E+02  0.40659160088E+02  0.00000000000E+00 0.  1.
         11    1    4    4    0    0 -0.26384537785E+02 -0.70865245644E+01  0.29565599669E+01  0.27479154129E+02  0.51100000000E-03 0.  1.
        -11    1    4    4    0    0  0.34426972913E+01 -0.13055586143E+01  0.28047106304E+01  0.46285040689E+01  0.51100000000E-03 0. -1.
         12    1    4    4    0    0 -0.12460571563E+02  0.24762513419E+01  0.13339500417E+02  0.18421181714E+02  0.00000000000E+00 0. -1.
</event>
<event>
 8    1  0.5829710E-012  0.9118800E+02  0.7816164E-02  0.1184000E+00
        -11   -1    0    0    0    0  0.00000000000E+00  0.00000000000E+00  0.45593999997E+02  0.45594000000E+02  0.51100000000E-03 0. -1.
         11   -1    0    0    0    0 -0.00000000000E+00 -0.00000000000E+00 -0.45593999997E+02  0.45594000000E+02  0.51100000000E-03 0.  1.
         23    2    1    2    0    0  0.00000000000E+00  0.00000000000E+00  0.00000000000E+00  0.91188000000E+02  0.91188000000E+02 0.  0.
    9900012    2    3    3    0    0  0.73163857246E+01 -0.63484302876E+01  0.39488373049E+02  0.50528884500E+02  0.30000074925E+02 0.  0.
        -12    1    3    3    0    0 -0.73163857246E+01  0.63484302876E+01 -0.39488373049E+02  0.40659115500E+02  0.00000000000E+00 0.  1.
         11    1    4    4    0    0 -0.66973261850E+01  0.26800677888E+01  0.61227364577E+01  0.94617568861E+01  0.51100000000E-03 0.  1.
        -11    1    4    4    0    0  0.26410586760E+01  0.49592607114E+01  0.10897181558E+02  0.12260425111E+02  0.51100000000E-03 0. -1.
         12    1    4    4    0    0  0.11372653234E+02 -0.13987758788E+02  0.22468455034E+02  0.28806702503E+02  0.00000000000E+00 0. -1.
</event>
<event>
 8    1  0.5829710E-012  0.9118800E+02  0.7816164E-02  0.1184000E+00
        -11   -1    0    0    0    0  0.00000000000E+00  0.00000000000E+00  0.45593999997E+02  0.45594000000E+02  0.51100000000E-03 0. -1.
         11   -1    0    0    0    0 -0.00000000000E+00 -0.00000000000E+00 -0.45593999997E+02  0.45594000000E+02  0.51100000000E-03 0.  1.
         23    2    1    2    0    0  0.00000000000E+00  0.00000000000E+00  0.00000000000E+00  0.91188000000E+02  0.91188000000E+02 0.  0.
    9900012    2    3    3    0    0 -0.16122786345E+02 -0.21962734917E+02 -0.30180448806E+02  0.50528862593E+02  0.30000008337E+02 0.  0.
         12    1    3    3    0    0  0.16122786345E+02  0.21962734917E+02  0.30180448806E+02  0.40659137407E+02  0.00000000000E+00 0. -1.
         11    1    4    4    0    0 -0.44368125717E+01 -0.50996454631E+01 -0.76326377381E+01  0.10195530822E+02  0.51100000000E-03 0. -1.
        -11    1    4    4    0    0 -0.18430163435E+02 -0.14038648618E+02 -0.23451988721E+02  0.32965896840E+02  0.51100000000E-03 0.  1.
         12    1    4    4    0    0  0.67441896611E+01 -0.28244408364E+01  0.90417765381E+00  0.73674349303E+01  0.00000000000E+00 0. -1.
</event>
<event>
 8    1  0.5829710E-012  0.9118800E+02  0.7816164E-02  0.1184000E+00
        -11   -1    0    0    0    0  0.00000000000E+00  0.00000000000E+00  0.45593999997E+02  0.45594000000E+02  0.51100000000E-03 0. -1.
         11   -1    0    0    0    0 -0.00000000000E+00 -0.00000000000E+00 -0.45593999997E+02  0.45594000000E+02  0.51100000000E-03 0.  1.
         23    2    1    2    0    0  0.71054273576E-14 -0.35527136788E-14  0.17763568394E-14  0.91188000000E+02  0.91188000000E+02 0.  0.
    9900012    2    3    3    0    0  0.37217291820E+02 -0.13357036640E+02  0.94672168171E+01  0.50528862866E+02  0.30000009167E+02 0.  0.
         12    1    3    3    0    0 -0.37217291820E+02  0.13357036640E+02 -0.94672168171E+01  0.40659137134E+02  0.00000000000E+00 0. -1.
         11    1    4    4    0    0  0.14686060398E+01 -0.46653468035E+01  0.22090813814E+01  0.53667779261E+01  0.51100000000E-03 0. -1.
        -11    1    4    4    0    0  0.13224732275E+02 -0.12421193563E+02  0.12120521908E+02  0.21819409819E+02  0.51100000000E-03 0.  1.
        -12    1    4    4    0    0  0.22523953506E+02  0.37295037267E+01 -0.48623864722E+01  0.23342675121E+02  0.00000000000E+00 0.  1.
</event>
<event>
 8    1  0.5829710E-012  0.9118800E+02  0.7816164E-02  0.1184000E+00
        -11   -1    0    0    0    0  0.00000000000E+00  0.00000000000E+00  0.45593999997E+02  0.45594000000E+02  0.51100000000E-03 0. -1.
         11   -1    0    0    0    0 -0.00000000000E+00 -0.00000000000E+00 -0.45593999997E+02  0.45594000000E+02  0.51100000000E-03 0.  1.
         23    2    1    2    0    0  0.17763568394E-14  0.00000000000E+00  0.00000000000E+00  0.91188000000E+02  0.91188000000E+02 0.  0.
    9900012    2    3    3    0    0 -0.13391292025E+02  0.15729250671E+02 -0.35020425216E+02  0.50528853291E+02  0.29999980063E+02 0.  0.
         12    1    3    3    0    0  0.13391292025E+02 -0.15729250671E+02  0.35020425216E+02  0.40659146709E+02  0.00000000000E+00 0. -1.
         11    1    4    4    0    0 -0.10888458487E+02  0.11186925837E+02 -0.35614278903E+01  0.16012170583E+02  0.51100000000E-03 0. -1.
        -11    1    4    4    0    0 -0.45268423224E+01 -0.34729900229E+01 -0.98915874691E+01  0.11419170899E+02  0.51100000000E-03 0.  1.
        -12    1    4    4    0    0  0.20240087845E+01  0.80153148576E+01 -0.21567409857E+02  0.23097511809E+02  0.00000000000E+00 0.  1.
</event>
<event>
 8    1  0.5829710E-012  0.9118800E+02  0.7816164E-02  0.1184000E+00
        -11   -1    0    0    0    0  0.00000000000E+00  0.00000000000E+00  0.45593999997E+02  0.45594000000E+02  0.51100000000E-03 0. -1.
         11   -1    0    0    0    0 -0.00000000000E+00 -0.00000000000E+00 -0.45593999997E+02  0.45594000000E+02  0.51100000000E-03 0.  1.
         23    2    1    2    0    0  0.44408920985E-15  0.35527136788E-14  0.00000000000E+00  0.91188000000E+02  0.91188000000E+02 0.  0.
    9900012    2    3    3    0    0 -0.28157325391E+01  0.12579102923E+02  0.38561686155E+02  0.50528858110E+02  0.29999994712E+02 0.  0.
        -12    1    3    3    0    0  0.28157325391E+01 -0.12579102923E+02 -0.38561686155E+02  0.40659141890E+02  0.00000000000E+00 0.  1.
         11    1    4    4    0    0 -0.47011534589E+00 -0.14270219846E+01  0.14429387983E+02  0.14507399422E+02  0.51100000000E-03 0. -1.
        -11    1    4    4    0    0  0.48782526082E+01 -0.46466213638E+01  0.58479685469E+01  0.89211644416E+01  0.51100000000E-03 0.  1.
         12    1    4    4    0    0 -0.72238698013E+01  0.18652746271E+02  0.18284329626E+02  0.27100294246E+02  0.00000000000E+00 0. -1.
</event>
<event>
 8    1  0.5829710E-012  0.9118800E+02  0.7816164E-02  0.1184000E+00
        -11   -1    0    0    0    0  0.00000000000E+00  0.00000000000E+00  0.45593999997E+02  0.45594000000E+02  0.51100000000E-03 0. -1.
         11   -1    0    0    0    0 -0.00000000000E+00 -0.00000000000E+00 -0.45593999997E+02  0.45594000000E+02  0.51100000000E-03 0.  1.
         23    2    1    2    0    0  0.00000000000E+00  0.17763568394E-14  0.00000000000E+00  0.91188000000E+02  0.91188000000E+02 0.  0.
    9900012    2    3    3    0    0 -0.12793981899E+02  0.11329960164E+02  0.36893244311E+02  0.50528862701E+02  0.30000008665E+02 0.  0.
        -12    1    3    3    0    0  0.12793981899E+02 -0.11329960164E+02 -0.36893244311E+02  0.40659137299E+02  0.00000000000E+00 0.  1.
         11    1    4    4    0    0 -0.18887905157E+01 -0.54008430962E+01  0.71708236449E+01  0.91737313984E+01  0.51100000000E-03 0. -1.
        -11    1    4    4    0    0 -0.12018739292E+02  0.74322245206E+00  0.17299146180E+02  0.21077545697E+02  0.51100000000E-03 0.  1.
         12    1    4    4    0    0  0.11135479087E+01  0.15987580808E+02  0.12423274485E+02  0.20277585605E+02  0.00000000000E+00 0. -1.
</event>
<event>
 8    1  0.5829710E-012  0.9118800E+02  0.7816164E-02  0.1184000E+00
        -11   -1    0    0    0    0  0.00000000000E+00  0.00000000000E+00  0.45593999997E+02  0.45594000000E+02  0.51100000000E-03 0. -1.
         11   -1    0    0    0    0 -0.00000000000E+00 -0.00000000000E+00 -0.45593999997E+02  0.45594000000E+02  0.51100000000E-03 0.  1.
         23    2    1    2    0    0  0.00000000000E+00  0.00000000000E+00 -0.35527136788E-14  0.91188000000E+02  0.91188000000E+02 0.  0.
    9900012    2    3    3    0    0  0.32812437404E+02 -0.15191504937E+02  0.18593743851E+02  0.50528865958E+02  0.30000018566E+02 0.  0.
        -12    1    3    3    0    0 -0.32812437404E+02  0.15191504937E+02 -0.18593743851E+02  0.40659134042E+02  0.00000000000E+00 0.  1.
         11    1    4    4    0    0  0.90572600660E+01 -0.18923165206E+01  0.12319091162E+02  0.15406973390E+02  0.51100000000E-03 0. -1.
        -11    1    4    4    0    0  0.20913825338E+02 -0.10131902248E+01  0.79582188006E+01  0.22399729718E+02  0.51100000000E-03 0.  1.
         12    1    4    4    0    0  0.28413519998E+01 -0.12285998191E+02 -0.16835661110E+01  0.12722162850E+02  0.00000000000E+00 0. -1.
</event>
<event>
 8    1  0.5829710E-012  0.9118800E+02  0.7816164E-02  0.1184000E+00
        -11   -1    0    0    0    0  0.00000000000E+00  0.00000000000E+00  0.45593999997E+02  0.45594000000E+02  0.51100000000E-03 0. -1.
         11   -1    0    0    0    0 -0.00000000000E+00 -0.00000000000E+00 -0.45593999997E+02  0.45594000000E+02  0.51100000000E-03 0.  1.
         23    2    1    2    0    0  0.35527136788E-14  0.35527136788E-14  0.00000000000E+00  0.91188000000E+02  0.91188000000E+02 0.  0.
    9900012    2    3    3    0    0  0.27978536070E+02  0.29149180133E+02 -0.45488756435E+01  0.50528862618E+02  0.30000008412E+02 0.  0.
         12    1    3    3    0    0 -0.27978536070E+02 -0.29149180133E+02  0.45488756435E+01  0.40659137382E+02  0.00000000000E+00 0. -1.
         11    1    4    4    0    0 -0.29966758298E+01  0.47342090703E+01  0.10165593747E+01  0.56944002998E+01  0.51100000000E-03 0. -1.
        -11    1    4    4    0    0 -0.52225547096E+00  0.86052638484E+01  0.18568641513E+01  0.88188015861E+01  0.51100000000E-03 0.  1.
         12    1    4    4    0    0  0.31497467371E+02  0.15809707215E+02 -0.74222991696E+01  0.36015660732E+02  0.00000000000E+00 0. -1.
</event>
<event>
 8    1  0.5829710E-012  0.9118800E+02  0.7816164E-02  0.1184000E+00
        -11   -1    0    0    0    0  0.00000000000E+00  0.00000000000E+00  0.45593999997E+02  0.45594000000E+02  0.51100000000E-03 0. -1.
         11   -1    0    0    0    0 -0.00000000000E+00 -0.00000000000E+00 -0.45593999997E+02  0.45594000000E+02  0.51100000000E-03 0.  1.
         23    2    1    2    0    0  0.00000000000E+00 -0.35527136788E-14 -0.71054273576E-14  0.91188000000E+02  0.91188000000E+02 0.  0.
    9900012    2    3    3    0    0  0.18616397001E+02  0.23909991176E+02  0.27109079829E+02  0.50528928140E+02  0.30000207575E+02 0.  0.
        -12    1    3    3    0    0 -0.18616397001E+02 -0.23909991176E+02 -0.27109079829E+02  0.40659071860E+02  0.00000000000E+00 0.  1.
         11    1    4    4    0    0  0.46037507222E+00 -0.34105044017E+01  0.83147478669E+01  0.89988064671E+01  0.51100000000E-03 0. -1.
        -11    1    4    4    0    0  0.14829102768E+02  0.13305296348E+02  0.18400135677E+02  0.27120069930E+02  0.51100000000E-03 0.  1.
         12    1    4    4    0    0  0.33269191613E+01  0.14015199229E+02  0.39419628426E+00  0.14410051743E+02  0.00000000000E+00 0. -1.
</event>
<event>
 8    1  0.5829710E-012  0.9118800E+02  0.7816164E-02  0.1184000E+00
        -11   -1    0    0    0    0  0.00000000000E+00  0.00000000000E+00  0.45593999997E+02  0.45594000000E+02  0.51100000000E-03 0. -1.
         11   -1    0    0    0    0 -0.00000000000E+00 -0.00000000000E+00 -0.45593999997E+02  0.45594000000E+02  0.51100000000E-03 0.  1.
         23    2    1    2    0    0  0.17763568394E-14 -0.17763568394E-14  0.00000000000E+00  0.91188000000E+02  0.91188000000E+02 0.  0.
    9900012    2    3    3    0    0 -0.12842253483E+02  0.26174081458E+01  0.38488854799E+02  0.50528852891E+02  0.29999978848E+02 0.  0.
        -12    1    3    3    0    0  0.12842253483E+02 -0.26174081458E+01 -0.38488854799E+02  0.40659147109E+02  0.00000000000E+00 0.  1.
         11    1    4    4    0    0 -0.30079267746E+00  0.49060348396E+00  0.16000633599E-02  0.57547444306E+00  0.51100000000E-03 0. -1.
        -11    1    4    4    0    0 -0.11234796702E+02  0.59535820349E+01  0.15654445030E+01  0.12810792822E+02  0.51100000000E-03 0.  1.
         12    1    4    4    0    0 -0.13066641029E+01 -0.38267773730E+01  0.36921810232E+02  0.37142585626E+02  0.00000000000E+00 0. -1.
</event>
<event>
 8    1  0.5829710E-012  0.9118800E+02  0.7816164E-02  0.1184000E+00
        -11   -1    0    0    0    0  0.00000000000E+00  0.00000000000E+00  0.45593999997E+02  0.45594000000E+02  0.51100000000E-03 0. -1.
         11   -1    0    0    0    0 -0.00000000000E+00 -0.00000000000E+00 -0.45593999997E+02  0.45594000000E+02  0.51100000000E-03 0.  1.
         23    2    1    2    0    0 -0.35527136788E-14  0.00000000000E+00  0.00000000000E+00  0.91188000000E+02  0.91188000000E+02 0.  0.
    9900012    2    3    3    0    0 -0.29944778965E+02 -0.27482177887E+02  0.10985094242E+01  0.50528848365E+02  0.29999965091E+02 0.  0.
        -12    1    3    3    0    0  0.29944778965E+02  0.27482177887E+02 -0.10985094242E+01  0.40659151635E+02  0.00000000000E+00 0.  1.
         11    1    4    4    0    0  0.86867586058E+00 -0.10149029284E+02  0.56217822822E+00  0.10201638975E+02  0.51100000000E-03 0. -1.
        -11    1    4    4    0    0 -0.89828006993E+01 -0.15190412026E+02 -0.35843364717E+01  0.18007964742E+02  0.51100000000E-03 0.  1.
        -12    1    4    4    0    0 -0.21830654127E+02 -0.21427365764E+01  0.41206676677E+01  0.22319244648E+02  0.00000000000E+00 0.  1.
</event>
<event>
 8    1  0.5829710E-012  0.9118800E+02  0.7816164E-02  0.1184000E+00
        -11   -1    0    0    0    0  0.00000000000E+00  0.00000000000E+00  0.45593999997E+02  0.45594000000E+02  0.51100000000E-03 0. -1.
         11   -1    0    0    0    0 -0.00000000000E+00 -0.00000000000E+00 -0.45593999997E+02  0.45594000000E+02  0.51100000000E-03 0.  1.
         23    2    1    2    0    0 -0.17763568394E-14  0.35527136788E-14 -0.71054273576E-14  0.91188000000E+02  0.91188000000E+02 0.  0.
    9900012    2    3    3    0    0  0.10759095630E+02 -0.20998472434E+02  0.33113014046E+02  0.50528859791E+02  0.29999999820E+02 0.  0.
        -12    1    3    3    0    0 -0.10759095630E+02  0.20998472434E+02 -0.33113014046E+02  0.40659140209E+02  0.00000000000E+00 0.  1.
         11    1    4    4    0    0  0.15086758271E+02 -0.75429682768E+01  0.16955668796E+02  0.23916549712E+02  0.51100000000E-03 0. -1.
        -11    1    4    4    0    0 -0.52200585370E+01 -0.74309383915E+00 -0.87023720073E+00  0.53440165260E+01  0.51100000000E-03 0.  1.
         12    1    4    4    0    0  0.89239589674E+00 -0.12712410318E+02  0.17027582451E+02  0.21268293553E+02  0.00000000000E+00 0. -1.
</event>
<event>
 8    1  0.5829710E-012  0.9118800E+02  0.7816164E-02  0.1184000E+00
        -11   -1    0    0    0    0  0.00000000000E+00  0.00000000000E+00  0.45593999997E+02  0.45594000000E+02  0.51100000000E-03 0. -1.
         11   -1    0    0    0    0 -0.00000000000E+00 -0.00000000000E+00 -0.45593999997E+02  0.45594000000E+02  0.51100000000E-03 0.  1.
         23    2    1    2    0    0  0.00000000000E+00  0.00000000000E+00  0.00000000000E+00  0.91188000000E+02  0.91188000000E+02 0.  0.
    9900012    2    3    3    0    0 -0.18593865327E+02 -0.78109267463E+01 -0.35304732835E+02  0.50528848939E+02  0.29999966835E+02 0.  0.
         12    1    3    3    0    0  0.18593865327E+02  0.78109267463E+01  0.35304732835E+02  0.40659151061E+02  0.00000000000E+00 0. -1.
         11    1    4    4    0    0  0.34400665542E+01  0.40683258539E+01 -0.20853947539E+02  0.21523765037E+02  0.51100000000E-03 0.  1.
        -11    1    4    4    0    0 -0.56069990457E+01 -0.42418693754E+01 -0.38537668860E+01  0.80176937812E+01  0.51100000000E-03 0. -1.
        -12    1    4    4    0    0 -0.16426932835E+02 -0.76373832248E+01 -0.10597018410E+02  0.20987390121E+02  0.00000000000E+00 0.  1.
</event>
<event>
 8    1  0.5829710E-012  0.9118800E+02  0.7816164E-02  0.1184000E+00
        -11   -1    0    0    0    0  0.00000000000E+00  0.00000000000E+00  0.45593999997E+02  0.45594000000E+02  0.51100000000E-03 0. -1.
         11   -1    0    0    0    0 -0.00000000000E+00 -0.00000000000E+00 -0.45593999997E+02  0.45594000000E+02  0.51100000000E-03 0.  1.
         23    2    1    2    0    0  0.35527136788E-14 -0.35527136788E-14  0.00000000000E+00  0.91188000000E+02  0.91188000000E+02 0.  0.
    9900012    2    3    3    0    0 -0.27557955310E+02  0.22009715699E+02 -0.20231098111E+02  0.50528858140E+02  0.29999994804E+02 0.  0.
         12    1    3    3    0    0  0.27557955310E+02 -0.22009715699E+02  0.20231098111E+02  0.40659141860E+02  0.00000000000E+00 0. -1.
         11    1    4    4    0    0 -0.18092822821E+00  0.11139938117E+02 -0.63046647193E+01  0.12801552787E+02  0.51100000000E-03 0. -1.
        -11    1    4    4    0    0 -0.19614101320E+01  0.79190920883E+01 -0.80781796284E+01  0.11481120833E+02  0.51100000000E-03 0.  1.
         12    1    4    4    0    0 -0.25415616949E+02  0.29506854934E+01 -0.58482537628E+01  0.26246184520E+02  0.00000000000E+00 0. -1.
</event>
<event>
 8    1  0.5829710E-012  0.9118800E+02  0.7816164E-02  0.1184000E+00
        -11   -1    0    0    0    0  0.00000000000E+00  0.00000000000E+00  0.45593999997E+02  0.45594000000E+02  0.51100000000E-03 0. -1.
         11   -1    0    0    0    0 -0.00000000000E+00 -0.00000000000E+00 -0.45593999997E+02  0.45594000000E+02  0.51100000000E-03 0.  1.
         23    2    1    2    0    0  0.00000000000E+00  0.17763568394E-14  0.71054273576E-14  0.91188000000E+02  0.91188000000E+02 0.  0.
    9900012    2    3    3    0    0  0.14404003490E+02  0.15161639782E+02  0.34868539460E+02  0.50528859804E+02  0.29999999859E+02 0.  0.
        -12    1    3    3    0    0 -0.14404003490E+02 -0.15161639782E+02 -0.34868539460E+02  0.40659140196E+02  0.00000000000E+00 0.  1.
         11    1    4    4    0    0  0.13672432539E+01 -0.14584419984E+01 -0.39181156206E+01  0.43986404098E+01  0.51100000000E-03 0. -1.
        -11    1    4    4    0    0  0.84087155035E+00 -0.13516426360E+01  0.96976188831E+01  0.98274012354E+01  0.51100000000E-03 0.  1.
         12    1    4    4    0    0  0.12195888686E+02  0.17971724416E+02  0.29089036198E+02  0.36302818158E+02  0.00000000000E+00 0. -1.
</event>
<event>
 8    1  0.5829710E-012  0.9118800E+02  0.7816164E-02  0.1184000E+00
        -11   -1    0    0    0    0  0.00000000000E+00  0.00000000000E+00  0.45593999997E+02  0.45594000000E+02  0.51100000000E-03 0. -1.
         11   -1    0    0    0    0 -0.00000000000E+00 -0.00000000000E+00 -0.45593999997E+02  0.45594000000E+02  0.51100000000E-03 0.  1.
         23    2    1    2    0    0  0.00000000000E+00  0.00000000000E+00  0.00000000000E+00  0.91188000000E+02  0.91188000000E+02 0.  0.
    9900012    2    3    3    0    0 -0.88549392942E+01  0.39523456440E+02 -0.35568138114E+01  0.50528874538E+02  0.30000044645E+02 0.  0.
         12    1    3    3    0    0  0.88549392942E+01 -0.39523456440E+02  0.35568138114E+01  0.40659125462E+02  0.00000000000E+00 0. -1.
         11    1    4    4    0    0  0.79262562066E+01  0.24531672609E+02 -0.29308421364E+01  0.25946451286E+02  0.51100000000E-03 0. -1.
        -11    1    4    4    0    0 -0.28190341646E+01  0.89091761646E+01 -0.17560313360E+00  0.93461869377E+01  0.51100000000E-03 0.  1.
         12    1    4    4    0    0 -0.13962161336E+02  0.60826076665E+01 -0.45036854135E+00  0.15236236314E+02  0.00000000000E+00 0. -1.
</event>
<event>
 8    1  0.5829710E-012  0.9118800E+02  0.7816164E-02  0.1184000E+00
        -11   -1    0    0    0    0  0.00000000000E+00  0.00000000000E+00  0.45593999997E+02  0.45594000000E+02  0.51100000000E-03 0. -1.
         11   -1    0    0    0    0 -0.00000000000E+00 -0.00000000000E+00 -0.45593999997E+02  0.45594000000E+02  0.51100000000E-03 0.  1.
         23    2    1    2    0    0  0.00000000000E+00  0.17763568394E-14  0.00000000000E+00  0.91188000000E+02  0.91188000000E+02 0.  0.
    9900012    2    3    3    0    0 -0.10372729224E+02 -0.89050385294E+01 -0.38291935008E+02  0.50528861920E+02  0.30000006293E+02 0.  0.
         12    1    3    3    0    0  0.10372729224E+02  0.89050385294E+01  0.38291935008E+02  0.40659138080E+02  0.00000000000E+00 0. -1.
         11    1    4    4    0    0 -0.53977305855E+01  0.35288342601E+01 -0.79052534620E+01  0.10202019372E+02  0.51100000000E-03 0. -1.
        -11    1    4    4    0    0  0.13240136154E+01  0.46311442614E+01  0.10906948935E+00  0.48179254496E+01  0.51100000000E-03 0.  1.
         12    1    4    4    0    0 -0.62990122542E+01 -0.17065017051E+02 -0.30495751035E+02  0.35508917098E+02  0.00000000000E+00 0. -1.
</event>
<event>
 8    1  0.5829710E-012  0.9118800E+02  0.7816164E-02  0.1184000E+00
        -11   -1    0    0    0    0  0.00000000000E+00  0.00000000000E+00  0.45593999997E+02  0.45594000000E+02  0.51100000000E-03 0. -1.
         11   -1    0    0    0    0 -0.00000000000E+00 -0.00000000000E+00 -0.45593999997E+02  0.45594000000E+02  0.51100000000E-03 0.  1.
         23    2    1    2    0    0 -0.88817841970E-15  0.55511151231E-16  0.00000000000E+00  0.91188000000E+02  0.91188000000E+02 0.  0.
    9900012    2    3    3    0    0 -0.62615550788E+01 -0.14734713246E+00  0.40173833724E+02  0.50528859586E+02  0.29999999197E+02 0.  0.
        -12    1    3    3    0    0  0.62615550788E+01  0.14734713246E+00 -0.40173833724E+02  0.40659140414E+02  0.00000000000E+00 0.  1.
         11    1    4    4    0    0 -0.29945539105E+01 -0.14199530838E+01  0.15504123738E+02  0.15854383401E+02  0.51100000000E-03 0. -1.
        -11    1    4    4    0    0  0.51004744245E+01 -0.28011933118E+01  0.24691549760E+02  0.25367974951E+02  0.51100000000E-03 0.  1.
        -12    1    4    4    0    0 -0.83674755928E+01  0.40737992632E+01 -0.21839774117E-01  0.93065012334E+01  0.00000000000E+00 0.  1.
</event>
<event>
 8    1  0.5829710E-012  0.9118800E+02  0.7816164E-02  0.1184000E+00
        -11   -1    0    0    0    0  0.00000000000E+00  0.00000000000E+00  0.45593999997E+02  0.45594000000E+02  0.51100000000E-03 0.  1.
         11   -1    0    0    0    0 -0.00000000000E+00 -0.00000000000E+00 -0.45593999997E+02  0.45594000000E+02  0.51100000000E-03 0. -1.
         23    2    1    2    0    0  0.00000000000E+00 -0.71054273576E-14  0.00000000000E+00  0.91188000000E+02  0.91188000000E+02 0.  0.
    9900012    2    3    3    0    0 -0.52681368878E+01 -0.35662312567E+02  0.18804574773E+02  0.50528857900E+02  0.29999994074E+02 0.  0.
        -12    1    3    3    0    0  0.52681368878E+01  0.35662312567E+02 -0.18804574773E+02  0.40659142100E+02  0.00000000000E+00 0.  1.
         11    1    4    4    0    0  0.13291451734E+01 -0.26503513680E+02  0.42025562457E+01  0.26867533261E+02  0.51100000000E-03 0.  1.
        -11    1    4    4    0    0  0.14041883155E+01 -0.92232331992E+01  0.34744720058E+01  0.99554875045E+01  0.51100000000E-03 0. -1.
        -12    1    4    4    0    0 -0.80014703767E+01  0.64434312450E-01  0.11127546522E+02  0.13705837135E+02  0.00000000000E+00 0.  1.
</event>
<event>
 8    1  0.5829710E-012  0.9118800E+02  0.7816164E-02  0.1184000E+00
        -11   -1    0    0    0    0  0.00000000000E+00  0.00000000000E+00  0.45593999997E+02  0.45594000000E+02  0.51100000000E-03 0. -1.
         11   -1    0    0    0    0 -0.00000000000E+00 -0.00000000000E+00 -0.45593999997E+02  0.45594000000E+02  0.51100000000E-03 0.  1.
         23    2    1    2    0    0  0.00000000000E+00  0.71054273576E-14  0.44408920985E-15  0.91188000000E+02  0.91188000000E+02 0.  0.
    9900012    2    3    3    0    0  0.21433057257E+02  0.34507020623E+02 -0.17478373846E+01  0.50528863866E+02  0.30000012207E+02 0.  0.
        -12    1    3    3    0    0 -0.21433057257E+02 -0.34507020623E+02  0.17478373846E+01  0.40659136134E+02  0.00000000000E+00 0.  1.
         11    1    4    4    0    0  0.11949849816E+01 -0.22439541403E+01  0.18394422772E+01  0.31379718677E+01  0.51100000000E-03 0. -1.
        -11    1    4    4    0    0 -0.43493648331E+01  0.22727228481E+01 -0.32256005150E+00  0.49179557587E+01  0.51100000000E-03 0.  1.
         12    1    4    4    0    0  0.24587437109E+02  0.34478251915E+02 -0.32647196103E+01  0.42472936240E+02  0.00000000000E+00 0. -1.
</event>
<event>
 8    1  0.5829710E-012  0.9118800E+02  0.7816164E-02  0.1184000E+00
        -11   -1    0    0    0    0  0.00000000000E+00  0.00000000000E+00  0.45593999997E+02  0.45594000000E+02  0.51100000000E-03 0. -1.
         11   -1    0    0    0    0 -0.00000000000E+00 -0.00000000000E+00 -0.45593999997E+02  0.45594000000E+02  0.51100000000E-03 0.  1.
         23    2    1    2    0    0  0.00000000000E+00  0.00000000000E+00  0.00000000000E+00  0.91188000000E+02  0.91188000000E+02 0.  0.
    9900012    2    3    3    0    0  0.17493159978E+02  0.41054426540E+01  0.36473276630E+02  0.50528865559E+02  0.30000017352E+02 0.  0.
        -12    1    3    3    0    0 -0.17493159978E+02 -0.41054426540E+01 -0.36473276630E+02  0.40659134441E+02  0.00000000000E+00 0.  1.
         11    1    4    4    0    0  0.10006804276E+02 -0.13141427128E+01  0.23879608267E+02  0.25924868257E+02  0.51100000000E-03 0. -1.
        -11    1    4    4    0    0 -0.38498875352E+01  0.82281875794E+01  0.78219802694E+01  0.11987830516E+02  0.51100000000E-03 0.  1.
         12    1    4    4    0    0  0.11336243237E+02 -0.28086022126E+01  0.47716880937E+01  0.12616166786E+02  0.00000000000E+00 0. -1.
</event>
<event>
 8    1  0.5829710E-012  0.9118800E+02  0.7816164E-02  0.1184000E+00
        -11   -1    0    0    0    0  0.00000000000E+00  0.00000000000E+00  0.45593999997E+02  0.45594000000E+02  0.51100000000E-03 0. -1.
         11   -1    0    0    0    0 -0.00000000000E+00 -0.00000000000E+00 -0.45593999997E+02  0.45594000000E+02  0.51100000000E-03 0.  1.
         23    2    1    2    0    0  0.00000000000E+00  0.00000000000E+00  0.71054273576E-14  0.91188000000E+02  0.91188000000E+02 0.  0.
    9900012    2    3    3    0    0 -0.21024454172E+02  0.10353116358E+02 -0.33225757421E+02  0.50528860219E+02  0.30000001122E+02 0.  0.
         12    1    3    3    0    0  0.21024454172E+02 -0.10353116358E+02  0.33225757421E+02  0.40659139781E+02  0.00000000000E+00 0. -1.
         11    1    4    4    0    0 -0.23203746054E+02  0.13921070573E+02 -0.27311097247E+02  0.38446145060E+02  0.51100000000E-03 0. -1.
        -11    1    4    4    0    0  0.24405965463E+00  0.24681008907E+01  0.10252557164E+01  0.26836983189E+01  0.51100000000E-03 0.  1.
        -12    1    4    4    0    0  0.19352322279E+01 -0.60360551055E+01 -0.69399158899E+01  0.93990168407E+01  0.00000000000E+00 0.  1.
</event>
<event>
 8    1  0.5829710E-012  0.9118800E+02  0.7816164E-02  0.1184000E+00
        -11   -1    0    0    0    0  0.00000000000E+00  0.00000000000E+00  0.45593999997E+02  0.45594000000E+02  0.51100000000E-03 0. -1.
         11   -1    0    0    0    0 -0.00000000000E+00 -0.00000000000E+00 -0.45593999997E+02  0.45594000000E+02  0.51100000000E-03 0.  1.
         23    2    1    2    0    0  0.35527136788E-14  0.35527136788E-14  0.17763568394E-14  0.91188000000E+02  0.91188000000E+02 0.  0.
    9900012    2    3    3    0    0 -0.27554190822E+02 -0.26744785205E+02  0.13365953008E+02  0.50528859978E+02  0.30000000389E+02 0.  0.
        -12    1    3    3    0    0  0.27554190822E+02  0.26744785205E+02 -0.13365953008E+02  0.40659140022E+02  0.00000000000E+00 0.  1.
         11    1    4    4    0    0 -0.17440925753E+01 -0.27831042906E+01 -0.48083206219E+01  0.58230126110E+01  0.51100000000E-03 0. -1.
        -11    1    4    4    0    0 -0.15144713061E+02 -0.13555170984E+02 -0.10862321817E+01  0.20353989651E+02  0.51100000000E-03 0.  1.
         12    1    4    4    0    0 -0.10665385185E+02 -0.10406509931E+02  0.19260505812E+02  0.24351857716E+02  0.00000000000E+00 0. -1.
</event>
<event>
 8    1  0.5829710E-012  0.9118800E+02  0.7816164E-02  0.1184000E+00
        -11   -1    0    0    0    0  0.00000000000E+00  0.00000000000E+00  0.45593999997E+02  0.45594000000E+02  0.51100000000E-03 0.  1.
         11   -1    0    0    0    0 -0.00000000000E+00 -0.00000000000E+00 -0.45593999997E+02  0.45594000000E+02  0.51100000000E-03 0. -1.
         23    2    1    2    0    0  0.71054273576E-14  0.88817841970E-15  0.00000000000E+00  0.91188000000E+02  0.91188000000E+02 0.  0.
    9900012    2    3    3    0    0 -0.32964735913E+02 -0.66557523429E+01  0.22851540695E+02  0.50528858775E+02  0.29999996732E+02 0.  0.
        -12    1    3    3    0    0  0.32964735913E+02  0.66557523429E+01 -0.22851540695E+02  0.40659141225E+02  0.00000000000E+00 0.  1.
         11    1    4    4    0    0 -0.64644487531E+01 -0.86670781684E+01  0.75816847709E+01  0.13205653558E+02  0.51100000000E-03 0. -1.
        -11    1    4    4    0    0 -0.93039213578E+01  0.66983262040E+01  0.15764946860E+02  0.19492667245E+02  0.51100000000E-03 0.  1.
         12    1    4    4    0    0 -0.17196365802E+02 -0.46870003785E+01 -0.49509093644E+00  0.17830537972E+02  0.00000000000E+00 0. -1.
</event>
<event>
 8    1  0.5829710E-012  0.9118800E+02  0.7816164E-02  0.1184000E+00
        -11   -1    0    0    0    0  0.00000000000E+00  0.00000000000E+00  0.45593999997E+02  0.45594000000E+02  0.51100000000E-03 0. -1.
         11   -1    0    0    0    0 -0.00000000000E+00 -0.00000000000E+00 -0.45593999997E+02  0.45594000000E+02  0.51100000000E-03 0.  1.
         23    2    1    2    0    0  0.00000000000E+00  0.00000000000E+00  0.00000000000E+00  0.91188000000E+02  0.91188000000E+02 0.  0.
    9900012    2    3    3    0    0 -0.33299381515E+01 -0.87427177855E+01  0.39568196241E+02  0.50528858886E+02  0.29999997070E+02 0.  0.
        -12    1    3    3    0    0  0.33299381515E+01  0.87427177855E+01 -0.39568196241E+02  0.40659141114E+02  0.00000000000E+00 0.  1.
         11    1    4    4    0    0  0.16671171171E+01  0.30977520262E+01  0.43856277493E+00  0.35450930406E+01  0.51100000000E-03 0. -1.
        -11    1    4    4    0    0  0.24112444308E+01 -0.35183878344E+01 -0.17519219163E+01  0.46111151927E+01  0.51100000000E-03 0.  1.
         12    1    4    4    0    0 -0.74082996993E+01 -0.83220819773E+01  0.40881555382E+02  0.42372650653E+02  0.00000000000E+00 0. -1.
</event>
<event>
 8    1  0.5829710E-012  0.9118800E+02  0.7816164E-02  0.1184000E+00
        -11   -1    0    0    0    0  0.00000000000E+00  0.00000000000E+00  0.45593999997E+02  0.45594000000E+02  0.51100000000E-03 0. -1.
         11   -1    0    0    0    0 -0.00000000000E+00 -0.00000000000E+00 -0.45593999997E+02  0.45594000000E+02  0.51100000000E-03 0.  1.
         23    2    1    2    0    0 -0.71054273576E-14  0.17763568394E-14  0.00000000000E+00  0.91188000000E+02  0.91188000000E+02 0.  0.
    9900012    2    3    3    0    0  0.35365231042E+02  0.14482249475E+02 -0.13882719613E+02  0.50528867934E+02  0.30000024571E+02 0.  0.
         12    1    3    3    0    0 -0.35365231042E+02 -0.14482249475E+02  0.13882719613E+02  0.40659132066E+02  0.00000000000E+00 0. -1.
         11    1    4    4    0    0  0.32145339060E+02  0.13861450993E+02 -0.10055130298E+02  0.36422085229E+02  0.51100000000E-03 0. -1.
        -11    1    4    4    0    0  0.28873520754E+01  0.15761521439E+01 -0.86108129740E+01  0.92177631735E+01  0.51100000000E-03 0.  1.
         12    1    4    4    0    0  0.33253990723E+00 -0.95535366111E+00  0.47832236583E+01  0.48890195309E+01  0.00000000000E+00 0. -1.
</event>
<event>
 8    1  0.5829710E-012  0.9118800E+02  0.7816164E-02  0.1184000E+00
        -11   -1    0    0    0    0  0.00000000000E+00  0.00000000000E+00  0.45593999997E+02  0.45594000000E+02  0.51100000000E-03 0.  1.
         11   -1    0    0    0    0 -0.00000000000E+00 -0.00000000000E+00 -0.45593999997E+02  0.45594000000E+02  0.51100000000E-03 0. -1.
         23    2    1    2    0    0  0.00000000000E+00  0.00000000000E+00  0.00000000000E+00  0.91188000000E+02  0.91188000000E+02 0.  0.
    9900012    2    3    3    0    0 -0.25805199900E+01 -0.17266052152E+02 -0.36720429481E+02  0.50528861032E+02  0.30000003593E+02 0.  0.
         12    1    3    3    0    0  0.25805199900E+01  0.17266052152E+02  0.36720429481E+02  0.40659138968E+02  0.00000000000E+00 0. -1.
         11    1    4    4    0    0 -0.10246781305E+02 -0.16177661714E+02 -0.27170118272E+02  0.33240466194E+02  0.51100000000E-03 0. -1.
        -11    1    4    4    0    0  0.64694583602E+00 -0.58121336375E+01 -0.49267710337E+01  0.76467319434E+01  0.51100000000E-03 0.  1.
         12    1    4    4    0    0  0.70193154791E+01  0.47237431999E+01 -0.46235401756E+01  0.96416628944E+01  0.00000000000E+00 0. -1.
</event>
<event>
 8    1  0.5829710E-012  0.9118800E+02  0.7816164E-02  0.1184000E+00
        -11   -1    0    0    0    0  0.00000000000E+00  0.00000000000E+00  0.45593999997E+02  0.45594000000E+02  0.51100000000E-03 0. -1.
         11   -1    0    0    0    0 -0.00000000000E+00 -0.00000000000E+00 -0.45593999997E+02  0.45594000000E+02  0.51100000000E-03 0.  1.
         23    2    1    2    0    0 -0.17763568394E-14 -0.35527136788E-14  0.35527136788E-14  0.91188000000E+02  0.91188000000E+02 0.  0.
    9900012    2    3    3    0    0  0.11215930484E+02  0.29594987010E+02 -0.25524554583E+02  0.50528889835E+02  0.30000091143E+02 0.  0.
         12    1    3    3    0    0 -0.11215930484E+02 -0.29594987010E+02  0.25524554583E+02  0.40659110165E+02  0.00000000000E+00 0. -1.
         11    1    4    4    0    0 -0.57389381351E+01  0.53317017547E+01 -0.31746276450E+01  0.84522609677E+01  0.51100000000E-03 0. -1.
        -11    1    4    4    0    0  0.13579228638E+02  0.21975004960E+02 -0.25965494681E+02  0.36626536933E+02  0.51100000000E-03 0.  1.
         12    1    4    4    0    0  0.33756399815E+01  0.22882802948E+01  0.36155677430E+01  0.54500919347E+01  0.00000000000E+00 0. -1.
</event>
<event>
 8    1  0.5829710E-012  0.9118800E+02  0.7816164E-02  0.1184000E+00
        -11   -1    0    0    0    0  0.00000000000E+00  0.00000000000E+00  0.45593999997E+02  0.45594000000E+02  0.51100000000E-03 0. -1.
         11   -1    0    0    0    0 -0.00000000000E+00 -0.00000000000E+00 -0.45593999997E+02  0.45594000000E+02  0.51100000000E-03 0.  1.
         23    2    1    2    0    0  0.35527136788E-14  0.00000000000E+00  0.00000000000E+00  0.91188000000E+02  0.91188000000E+02 0.  0.
    9900012    2    3    3    0    0 -0.22754602782E+02  0.28833958246E+02  0.17435494815E+02  0.50528861109E+02  0.30000003826E+02 0.  0.
        -12    1    3    3    0    0  0.22754602782E+02 -0.28833958246E+02 -0.17435494815E+02  0.40659138891E+02  0.00000000000E+00 0.  1.
         11    1    4    4    0    0 -0.11821362722E+02  0.37838475382E+00  0.43131107564E-01  0.11827495600E+02  0.51100000000E-03 0. -1.
        -11    1    4    4    0    0  0.18580413540E+01 -0.10981033544E+01  0.12715944183E+00  0.21620172143E+01  0.51100000000E-03 0.  1.
        -12    1    4    4    0    0 -0.12791281414E+02  0.29553676847E+02  0.17265204266E+02  0.36539348294E+02  0.00000000000E+00 0.  1.
</event>
<event>
 8    1  0.5829710E-012  0.9118800E+02  0.7816164E-02  0.1184000E+00
        -11   -1    0    0    0    0  0.00000000000E+00  0.00000000000E+00  0.45593999997E+02  0.45594000000E+02  0.51100000000E-03 0. -1.
         11   -1    0    0    0    0 -0.00000000000E+00 -0.00000000000E+00 -0.45593999997E+02  0.45594000000E+02  0.51100000000E-03 0.  1.
         23    2    1    2    0    0  0.00000000000E+00 -0.21094237468E-14  0.00000000000E+00  0.91188000000E+02  0.91188000000E+02 0.  0.
    9900012    2    3    3    0    0 -0.21227154620E+02  0.96152821400E+00  0.34664812590E+02  0.50528857588E+02  0.29999993123E+02 0.  0.
        -12    1    3    3    0    0  0.21227154620E+02 -0.96152821400E+00 -0.34664812590E+02  0.40659142412E+02  0.00000000000E+00 0.  1.
         11    1    4    4    0    0 -0.16927633069E+02  0.89267200736E+01  0.14732879082E+02  0.24151373023E+02  0.51100000000E-03 0. -1.
        -11    1    4    4    0    0 -0.71153929810E+01 -0.31400429393E+00  0.32893499269E+01  0.78452048522E+01  0.51100000000E-03 0.  1.
        -12    1    4    4    0    0  0.28158714292E+01 -0.76511875657E+01  0.16642583582E+02  0.18532279713E+02  0.00000000000E+00 0.  1.
</event>
<event>
 8    1  0.5829710E-012  0.9118800E+02  0.7816164E-02  0.1184000E+00
        -11   -1    0    0    0    0  0.00000000000E+00  0.00000000000E+00  0.45593999997E+02  0.45594000000E+02  0.51100000000E-03 0. -1.
         11   -1    0    0    0    0 -0.00000000000E+00 -0.00000000000E+00 -0.45593999997E+02  0.45594000000E+02  0.51100000000E-03 0.  1.
         23    2    1    2    0    0  0.00000000000E+00  0.00000000000E+00  0.00000000000E+00  0.91188000000E+02  0.91188000000E+02 0.  0.
    9900012    2    3    3    0    0  0.19553209458E+02  0.11785933968E+01 -0.35629311690E+02  0.50528868996E+02  0.30000027800E+02 0.  0.
         12    1    3    3    0    0 -0.19553209458E+02 -0.11785933968E+01  0.35629311690E+02  0.40659131004E+02  0.00000000000E+00 0. -1.
         11    1    4    4    0    0  0.17830850263E+01 -0.92194129337E+00 -0.26735624066E+01  0.33432475473E+01  0.51100000000E-03 0.  1.
        -11    1    4    4    0    0  0.21091227475E+02  0.71362100258E+00 -0.89686493952E+01  0.22930019703E+02  0.51100000000E-03 0. -1.
         12    1    4    4    0    0 -0.33211030433E+01  0.13869136876E+01 -0.23987099888E+02  0.24255601746E+02  0.00000000000E+00 0. -1.
</event>
<event>
 8    1  0.5829710E-012  0.9118800E+02  0.7816164E-02  0.1184000E+00
        -11   -1    0    0    0    0  0.00000000000E+00  0.00000000000E+00  0.45593999997E+02  0.45594000000E+02  0.51100000000E-03 0.  1.
         11   -1    0    0    0    0 -0.00000000000E+00 -0.00000000000E+00 -0.45593999997E+02  0.45594000000E+02  0.51100000000E-03 0. -1.
         23    2    1    2    0    0 -0.71054273576E-14  0.00000000000E+00  0.00000000000E+00  0.91188000000E+02  0.91188000000E+02 0.  0.
    9900012    2    3    3    0    0 -0.34267607687E+02  0.21694772358E+02 -0.28694245310E+01  0.50528859805E+02  0.29999999863E+02 0.  0.
        -12    1    3    3    0    0  0.34267607687E+02 -0.21694772358E+02  0.28694245310E+01  0.40659140195E+02  0.00000000000E+00 0.  1.
         11    1    4    4    0    0 -0.20519942451E+02  0.15227500484E+02 -0.61023289979E+01  0.26271338539E+02  0.51100000000E-03 0. -1.
        -11    1    4    4    0    0 -0.17276989604E+02  0.36183077496E+01 -0.14834923360E+01  0.17714041620E+02  0.51100000000E-03 0.  1.
        -12    1    4    4    0    0  0.35293243673E+01  0.28489641237E+01  0.47163968029E+01  0.65434796455E+01  0.00000000000E+00 0.  1.
</event>
<event>
 8    1  0.5829710E-012  0.9118800E+02  0.7816164E-02  0.1184000E+00
        -11   -1    0    0    0    0  0.00000000000E+00  0.00000000000E+00  0.45593999997E+02  0.45594000000E+02  0.51100000000E-03 0. -1.
         11   -1    0    0    0    0 -0.00000000000E+00 -0.00000000000E+00 -0.45593999997E+02  0.45594000000E+02  0.51100000000E-03 0.  1.
         23    2    1    2    0    0  0.17763568394E-14  0.00000000000E+00  0.35527136788E-14  0.91188000000E+02  0.91188000000E+02 0.  0.
    9900012    2    3    3    0    0  0.15258958800E+02  0.32857143674E+02  0.18459085980E+02  0.50528861184E+02  0.30000004054E+02 0.  0.
        -12    1    3    3    0    0 -0.15258958800E+02 -0.32857143674E+02 -0.18459085980E+02  0.40659138816E+02  0.00000000000E+00 0.  1.
         11    1    4    4    0    0  0.59242702288E+01  0.17924538920E+02  0.99792115642E+00  0.18904547605E+02  0.51100000000E-03 0. -1.
        -11    1    4    4    0    0  0.97402572083E+01  0.80040702815E+01 -0.24191149646E+00  0.12609372426E+02  0.51100000000E-03 0.  1.
        -12    1    4    4    0    0 -0.40556863695E+00  0.69285344721E+01  0.17703076320E+02  0.19014941153E+02  0.00000000000E+00 0.  1.
</event>
<event>
 8    1  0.5829710E-012  0.9118800E+02  0.7816164E-02  0.1184000E+00
        -11   -1    0    0    0    0  0.00000000000E+00  0.00000000000E+00  0.45593999997E+02  0.45594000000E+02  0.51100000000E-03 0. -1.
         11   -1    0    0    0    0 -0.00000000000E+00 -0.00000000000E+00 -0.45593999997E+02  0.45594000000E+02  0.51100000000E-03 0.  1.
         23    2    1    2    0    0  0.17763568394E-14  0.35527136788E-14  0.35527136788E-14  0.91188000000E+02  0.91188000000E+02 0.  0.
    9900012    2    3    3    0    0 -0.61225423489E+01 -0.30390282458E+02 -0.26308006574E+02  0.50528855855E+02  0.29999987858E+02 0.  0.
         12    1    3    3    0    0  0.61225423489E+01  0.30390282458E+02  0.26308006574E+02  0.40659144145E+02  0.00000000000E+00 0. -1.
         11    1    4    4    0    0 -0.64217433330E+01 -0.70571430337E+01 -0.13896232880E+02  0.16856670601E+02  0.51100000000E-03 0. -1.
        -11    1    4    4    0    0 -0.95596331778E+01 -0.15913422228E+02 -0.10047965993E+02  0.21108889463E+02  0.51100000000E-03 0.  1.
        -12    1    4    4    0    0  0.98588341620E+01 -0.74197171965E+01 -0.23638077007E+01  0.12563295792E+02  0.00000000000E+00 0.  1.
</event>
<event>
 8    1  0.5829710E-012  0.9118800E+02  0.7816164E-02  0.1184000E+00
        -11   -1    0    0    0    0  0.00000000000E+00  0.00000000000E+00  0.45593999997E+02  0.45594000000E+02  0.51100000000E-03 0. -1.
         11   -1    0    0    0    0 -0.00000000000E+00 -0.00000000000E+00 -0.45593999997E+02  0.45594000000E+02  0.51100000000E-03 0.  1.
         23    2    1    2    0    0  0.00000000000E+00  0.00000000000E+00  0.71054273576E-14  0.91188000000E+02  0.91188000000E+02 0.  0.
    9900012    2    3    3    0    0 -0.15236952472E+02  0.60321609581E+01  0.37210393435E+02  0.50528867372E+02  0.30000022865E+02 0.  0.
        -12    1    3    3    0    0  0.15236952472E+02 -0.60321609581E+01 -0.37210393435E+02  0.40659132628E+02  0.00000000000E+00 0.  1.
         11    1    4    4    0    0 -0.45062212491E+01  0.37645236989E+01  0.15576572434E+02  0.16646539511E+02  0.51100000000E-03 0. -1.
        -11    1    4    4    0    0 -0.49175356300E+01  0.92987544378E+01  0.22380027467E+02  0.24728821655E+02  0.51100000000E-03 0.  1.
        -12    1    4    4    0    0 -0.58131955927E+01 -0.70311171786E+01 -0.74620646614E+00  0.91535062062E+01  0.00000000000E+00 0.  1.
</event>
<event>
 8    1  0.5829710E-012  0.9118800E+02  0.7816164E-02  0.1184000E+00
        -11   -1    0    0    0    0  0.00000000000E+00  0.00000000000E+00  0.45593999997E+02  0.45594000000E+02  0.51100000000E-03 0. -1.
         11   -1    0    0    0    0 -0.00000000000E+00 -0.00000000000E+00 -0.45593999997E+02  0.45594000000E+02  0.51100000000E-03 0.  1.
         23    2    1    2    0    0  0.17624790516E-14  0.71054273576E-14 -0.35527136788E-14  0.91188000000E+02  0.91188000000E+02 0.  0.
    9900012    2    3    3    0    0 -0.64005725007E-01 -0.35286130893E+02  0.20200260115E+02  0.50528860329E+02  0.30000001455E+02 0.  0.
        -12    1    3    3    0    0  0.64005725007E-01  0.35286130893E+02 -0.20200260115E+02  0.40659139671E+02  0.00000000000E+00 0.  1.
         11    1    4    4    0    0 -0.56473545666E+01 -0.24071675920E+02  0.15147344002E+02  0.28996210541E+02  0.51100000000E-03 0. -1.
        -11    1    4    4    0    0 -0.47621992898E+01 -0.50372336502E+01  0.63663795586E+01  0.94118570892E+01  0.51100000000E-03 0.  1.
        -12    1    4    4    0    0  0.10345548131E+02 -0.61772213226E+01 -0.13134634455E+01  0.12120792698E+02  0.00000000000E+00 0.  1.
</event>
<event>
 8    1  0.5829710E-012  0.9118800E+02  0.7816164E-02  0.1184000E+00
        -11   -1    0    0    0    0  0.00000000000E+00  0.00000000000E+00  0.45593999997E+02  0.45594000000E+02  0.51100000000E-03 0.  1.
         11   -1    0    0    0    0 -0.00000000000E+00 -0.00000000000E+00 -0.45593999997E+02  0.45594000000E+02  0.51100000000E-03 0. -1.
         23    2    1    2    0    0  0.00000000000E+00  0.35527136788E-14  0.11102230246E-15  0.91188000000E+02  0.91188000000E+02 0.  0.
    9900012    2    3    3    0    0  0.31384194300E+02 -0.25841042934E+02 -0.66658426447E+00  0.50528788419E+02  0.29999782878E+02 0.  0.
         12    1    3    3    0    0 -0.31384194300E+02  0.25841042934E+02  0.66658426447E+00  0.40659211581E+02  0.00000000000E+00 0. -1.
         11    1    4    4    0    0  0.19453822111E+02 -0.46892892386E+01 -0.61277318170E+01  0.20928204075E+02  0.51100000000E-03 0. -1.
        -11    1    4    4    0    0  0.15335272898E+02 -0.18434168051E+02  0.70009162690E+01  0.24980031534E+02  0.51100000000E-03 0.  1.
        -12    1    4    4    0    0 -0.34049007088E+01 -0.27175856442E+01 -0.15397687165E+01  0.46205528101E+01  0.00000000000E+00 0.  1.
</event>
<event>
 8    1  0.5829710E-012  0.9118800E+02  0.7816164E-02  0.1184000E+00
        -11   -1    0    0    0    0  0.00000000000E+00  0.00000000000E+00  0.45593999997E+02  0.45594000000E+02  0.51100000000E-03 0. -1.
         11   -1    0    0    0    0 -0.00000000000E+00 -0.00000000000E+00 -0.45593999997E+02  0.45594000000E+02  0.51100000000E-03 0.  1.
         23    2    1    2    0    0  0.88817841970E-15  0.00000000000E+00  0.00000000000E+00  0.91188000000E+02  0.91188000000E+02 0.  0.
    9900012    2    3    3    0    0  0.46929215096E+01 -0.17702805223E+02 -0.36300856164E+02  0.50528868390E+02  0.30000025958E+02 0.  0.
         12    1    3    3    0    0 -0.46929215096E+01  0.17702805223E+02  0.36300856164E+02  0.40659131610E+02  0.00000000000E+00 0. -1.
         11    1    4    4    0    0 -0.77754933929E+01 -0.38022719725E+01 -0.29178192058E+01  0.91339607419E+01  0.51100000000E-03 0. -1.
        -11    1    4    4    0    0  0.12916220408E+01 -0.12016882704E+02 -0.11170328574E+02  0.16457521021E+02  0.51100000000E-03 0.  1.
        -12    1    4    4    0    0  0.11176792862E+02 -0.18836505458E+01 -0.22212708384E+02  0.24937386627E+02  0.00000000000E+00 0.  1.
</event>
<event>
 8    1  0.5829710E-012  0.9118800E+02  0.7816164E-02  0.1184000E+00
        -11   -1    0    0    0    0  0.00000000000E+00  0.00000000000E+00  0.45593999997E+02  0.45594000000E+02  0.51100000000E-03 0. -1.
         11   -1    0    0    0    0 -0.00000000000E+00 -0.00000000000E+00 -0.45593999997E+02  0.45594000000E+02  0.51100000000E-03 0.  1.
         23    2    1    2    0    0  0.00000000000E+00  0.00000000000E+00 -0.35527136788E-14  0.91188000000E+02  0.91188000000E+02 0.  0.
    9900012    2    3    3    0    0 -0.28614585934E+02 -0.17593100388E+02  0.22909716598E+02  0.50528845753E+02  0.29999957151E+02 0.  0.
        -12    1    3    3    0    0  0.28614585934E+02  0.17593100388E+02 -0.22909716598E+02  0.40659154247E+02  0.00000000000E+00 0.  1.
         11    1    4    4    0    0 -0.17064400316E+01 -0.21149691728E+01  0.40029557174E+01  0.48382524655E+01  0.51100000000E-03 0. -1.
        -11    1    4    4    0    0 -0.15791598346E+01 -0.79350862943E+01 -0.54460982556E+01  0.97529137570E+01  0.51100000000E-03 0.  1.
        -12    1    4    4    0    0 -0.25328986068E+02 -0.75430449213E+01  0.24352859136E+02  0.35937679531E+02  0.00000000000E+00 0.  1.
</event>
<event>
 8    1  0.5829710E-012  0.9118800E+02  0.7816164E-02  0.1184000E+00
        -11   -1    0    0    0    0  0.00000000000E+00  0.00000000000E+00  0.45593999997E+02  0.45594000000E+02  0.51100000000E-03 0. -1.
         11   -1    0    0    0    0 -0.00000000000E+00 -0.00000000000E+00 -0.45593999997E+02  0.45594000000E+02  0.51100000000E-03 0.  1.
         23    2    1    2    0    0  0.00000000000E+00  0.35527136788E-14  0.35527136788E-14  0.91188000000E+02  0.91188000000E+02 0.  0.
    9900012    2    3    3    0    0 -0.23571720803E+02 -0.21604347480E+02  0.25115417514E+02  0.50528953669E+02  0.30000285169E+02 0.  0.
        -12    1    3    3    0    0  0.23571720803E+02  0.21604347480E+02 -0.25115417514E+02  0.40659046331E+02  0.00000000000E+00 0.  1.
         11    1    4    4    0    0 -0.10029900407E+02 -0.87509570331E+01  0.70416961551E+01  0.15058673121E+02  0.51100000000E-03 0. -1.
        -11    1    4    4    0    0 -0.17572115897E+02 -0.16603434138E+02  0.11144858960E+02  0.26620690520E+02  0.51100000000E-03 0.  1.
        -12    1    4    4    0    0  0.40302955001E+01  0.37500436913E+01  0.69288623991E+01  0.88495900273E+01  0.00000000000E+00 0.  1.
</event>
<event>
 8    1  0.5829710E-012  0.9118800E+02  0.7816164E-02  0.1184000E+00
        -11   -1    0    0    0    0  0.00000000000E+00  0.00000000000E+00  0.45593999997E+02  0.45594000000E+02  0.51100000000E-03 0. -1.
         11   -1    0    0    0    0 -0.00000000000E+00 -0.00000000000E+00 -0.45593999997E+02  0.45594000000E+02  0.51100000000E-03 0.  1.
         23    2    1    2    0    0 -0.88817841970E-15  0.00000000000E+00  0.00000000000E+00  0.91188000000E+02  0.91188000000E+02 0.  0.
    9900012    2    3    3    0    0  0.62692538149E+01 -0.33691902975E+02 -0.21879640669E+02  0.50528849182E+02  0.29999967573E+02 0.  0.
         12    1    3    3    0    0 -0.62692538149E+01  0.33691902975E+02  0.21879640669E+02  0.40659150818E+02  0.00000000000E+00 0. -1.
         11    1    4    4    0    0 -0.23101264629E+01 -0.10516447087E+01 -0.32111790860E+00  0.25584678697E+01  0.51100000000E-03 0. -1.
        -11    1    4    4    0    0 -0.13246174926E+01 -0.51903829977E+01 -0.17750350040E+02  0.18541025160E+02  0.51100000000E-03 0.  1.
         12    1    4    4    0    0  0.99039977705E+01 -0.27449875268E+02 -0.38081727204E+01  0.29429356153E+02  0.00000000000E+00 0. -1.
</event>
<event>
 8    1  0.5829710E-012  0.9118800E+02  0.7816164E-02  0.1184000E+00
        -11   -1    0    0    0    0  0.00000000000E+00  0.00000000000E+00  0.45593999997E+02  0.45594000000E+02  0.51100000000E-03 0. -1.
         11   -1    0    0    0    0 -0.00000000000E+00 -0.00000000000E+00 -0.45593999997E+02  0.45594000000E+02  0.51100000000E-03 0.  1.
         23    2    1    2    0    0  0.00000000000E+00  0.22204460493E-15  0.00000000000E+00  0.91188000000E+02  0.91188000000E+02 0.  0.
    9900012    2    3    3    0    0  0.16585728300E+02 -0.16697591200E+01  0.37084914075E+02  0.50528864117E+02  0.30000012971E+02 0.  0.
        -12    1    3    3    0    0 -0.16585728300E+02  0.16697591200E+01 -0.37084914075E+02  0.40659135883E+02  0.00000000000E+00 0.  1.
         11    1    4    4    0    0 -0.37572298753E+00  0.26445263418E+01  0.89323172617E-01  0.26725767016E+01  0.51100000000E-03 0. -1.
        -11    1    4    4    0    0 -0.29547364721E+01 -0.31370442955E+01 -0.14461892415E+01  0.45456548610E+01  0.51100000000E-03 0.  1.
         12    1    4    4    0    0  0.19916187760E+02 -0.11772411663E+01  0.38441780144E+02  0.43310632555E+02  0.00000000000E+00 0. -1.
</event>
<event>
 8    1  0.5829710E-012  0.9118800E+02  0.7816164E-02  0.1184000E+00
        -11   -1    0    0    0    0  0.00000000000E+00  0.00000000000E+00  0.45593999997E+02  0.45594000000E+02  0.51100000000E-03 0.  1.
         11   -1    0    0    0    0 -0.00000000000E+00 -0.00000000000E+00 -0.45593999997E+02  0.45594000000E+02  0.51100000000E-03 0. -1.
         23    2    1    2    0    0  0.00000000000E+00  0.00000000000E+00  0.44408920985E-15  0.91188000000E+02  0.91188000000E+02 0.  0.
    9900012    2    3    3    0    0 -0.29278557380E+02 -0.28134320415E+02  0.20956086018E+01  0.50528862247E+02  0.30000007285E+02 0.  0.
         12    1    3    3    0    0  0.29278557380E+02  0.28134320415E+02 -0.20956086018E+01  0.40659137753E+02  0.00000000000E+00 0. -1.
         11    1    4    4    0    0  0.59881677090E+00  0.72281975196E+00  0.48626520686E+01  0.49524171190E+01  0.51100000000E-03 0. -1.
        -11    1    4    4    0    0 -0.83634372068E+01 -0.71674449498E+01  0.75249219049E+01  0.13339557675E+02  0.51100000000E-03 0.  1.
        -12    1    4    4    0    0 -0.21513936944E+02 -0.21689695217E+02 -0.10291965372E+02  0.32236887453E+02  0.00000000000E+00 0.  1.
</event>
<event>
 8    1  0.5829710E-012  0.9118800E+02  0.7816164E-02  0.1184000E+00
        -11   -1    0    0    0    0  0.00000000000E+00  0.00000000000E+00  0.45593999997E+02  0.45594000000E+02  0.51100000000E-03 0. -1.
         11   -1    0    0    0    0 -0.00000000000E+00 -0.00000000000E+00 -0.45593999997E+02  0.45594000000E+02  0.51100000000E-03 0.  1.
         23    2    1    2    0    0 -0.35527136788E-14  0.00000000000E+00  0.35527136788E-14  0.91188000000E+02  0.91188000000E+02 0.  0.
    9900012    2    3    3    0    0  0.18182626565E+02 -0.22906690645E+02 -0.28246089675E+02  0.50528856292E+02  0.29999989186E+02 0.  0.
         12    1    3    3    0    0 -0.18182626565E+02  0.22906690645E+02  0.28246089675E+02  0.40659143708E+02  0.00000000000E+00 0. -1.
         11    1    4    4    0    0  0.15511525116E+02 -0.19122035126E+02 -0.11308486074E+02  0.27095045605E+02  0.51100000000E-03 0.  1.
        -11    1    4    4    0    0  0.21515512470E+01 -0.37327169515E+01  0.18141626007E+01  0.46747764451E+01  0.51100000000E-03 0. -1.
        -12    1    4    4    0    0  0.51955020244E+00 -0.51938567560E-01 -0.18751766202E+02  0.18759034243E+02  0.00000000000E+00 0.  1.
</event>
<event>
 8    1  0.5829710E-012  0.9118800E+02  0.7816164E-02  0.1184000E+00
        -11   -1    0    0    0    0  0.00000000000E+00  0.00000000000E+00  0.45593999997E+02  0.45594000000E+02  0.51100000000E-03 0. -1.
         11   -1    0    0    0    0 -0.00000000000E+00 -0.00000000000E+00 -0.45593999997E+02  0.45594000000E+02  0.51100000000E-03 0.  1.
         23    2    1    2    0    0  0.00000000000E+00  0.35527136788E-14  0.00000000000E+00  0.91188000000E+02  0.91188000000E+02 0.  0.
    9900012    2    3    3    0    0  0.13809040688E+02  0.27609240087E+02  0.26461351202E+02  0.50528894620E+02  0.30000105686E+02 0.  0.
        -12    1    3    3    0    0 -0.13809040688E+02 -0.27609240087E+02 -0.26461351202E+02  0.40659105380E+02  0.00000000000E+00 0.  1.
         11    1    4    4    0    0  0.50609753666E+01  0.33642057840E+01  0.14060350840E+02  0.15317467749E+02  0.51100000000E-03 0. -1.
        -11    1    4    4    0    0 -0.24994139612E+00  0.11687228202E+02  0.15541080080E+02  0.19446823496E+02  0.51100000000E-03 0.  1.
        -12    1    4    4    0    0  0.89980067173E+01  0.12557806101E+02 -0.31400797187E+01  0.15764603375E+02  0.00000000000E+00 0.  1.
</event>
<event>
 8    1  0.5829710E-012  0.9118800E+02  0.7816164E-02  0.1184000E+00
        -11   -1    0    0    0    0  0.00000000000E+00  0.00000000000E+00  0.45593999997E+02  0.45594000000E+02  0.51100000000E-03 0. -1.
         11   -1    0    0    0    0 -0.00000000000E+00 -0.00000000000E+00 -0.45593999997E+02  0.45594000000E+02  0.51100000000E-03 0.  1.
         23    2    1    2    0    0  0.88817841970E-15  0.17763568394E-14  0.00000000000E+00  0.91188000000E+02  0.91188000000E+02 0.  0.
    9900012    2    3    3    0    0 -0.72496391928E+01 -0.14192880799E+02  0.37405500116E+02  0.50528848844E+02  0.29999966546E+02 0.  0.
        -12    1    3    3    0    0  0.72496391928E+01  0.14192880799E+02 -0.37405500116E+02  0.40659151156E+02  0.00000000000E+00 0.  1.
         11    1    4    4    0    0 -0.69179327621E+01 -0.66632761959E+01  0.58051614023E+01  0.11223054064E+02  0.51100000000E-03 0.  1.
        -11    1    4    4    0    0 -0.11181826766E+02 -0.30579854264E+01  0.16943518058E+02  0.20529669485E+02  0.51100000000E-03 0. -1.
         12    1    4    4    0    0  0.10850120336E+02 -0.44716191763E+01  0.14656820656E+02  0.18776125295E+02  0.00000000000E+00 0. -1.
</event>
<event>
 8    1  0.5829710E-012  0.9118800E+02  0.7816164E-02  0.1184000E+00
        -11   -1    0    0    0    0  0.00000000000E+00  0.00000000000E+00  0.45593999997E+02  0.45594000000E+02  0.51100000000E-03 0.  1.
         11   -1    0    0    0    0 -0.00000000000E+00 -0.00000000000E+00 -0.45593999997E+02  0.45594000000E+02  0.51100000000E-03 0. -1.
         23    2    1    2    0    0  0.00000000000E+00  0.00000000000E+00  0.00000000000E+00  0.91188000000E+02  0.91188000000E+02 0.  0.
    9900012    2    3    3    0    0 -0.35346357482E+02  0.54288269795E+01  0.19347541723E+02  0.50528874082E+02  0.30000043261E+02 0.  0.
         12    1    3    3    0    0  0.35346357482E+02 -0.54288269795E+01 -0.19347541723E+02  0.40659125918E+02  0.00000000000E+00 0. -1.
         11    1    4    4    0    0 -0.25252509958E+01 -0.10163743558E+01 -0.57815931790E+01  0.63903622253E+01  0.51100000000E-03 0. -1.
        -11    1    4    4    0    0 -0.48686631398E+01 -0.16474488828E+01  0.10223529119E+02  0.11442836908E+02  0.51100000000E-03 0.  1.
        -12    1    4    4    0    0 -0.27952443347E+02  0.80926502181E+01  0.14905605783E+02  0.32695674949E+02  0.00000000000E+00 0.  1.
</event>
<event>
 8    1  0.5829710E-012  0.9118800E+02  0.7816164E-02  0.1184000E+00
        -11   -1    0    0    0    0  0.00000000000E+00  0.00000000000E+00  0.45593999997E+02  0.45594000000E+02  0.51100000000E-03 0. -1.
         11   -1    0    0    0    0 -0.00000000000E+00 -0.00000000000E+00 -0.45593999997E+02  0.45594000000E+02  0.51100000000E-03 0.  1.
         23    2    1    2    0    0  0.00000000000E+00 -0.35527136788E-14  0.00000000000E+00  0.91188000000E+02  0.91188000000E+02 0.  0.
    9900012    2    3    3    0    0 -0.16589609424E+02  0.31269584695E+02 -0.20004068859E+02  0.50528870167E+02  0.30000031359E+02 0.  0.
         12    1    3    3    0    0  0.16589609424E+02 -0.31269584695E+02  0.20004068859E+02  0.40659129833E+02  0.00000000000E+00 0. -1.
         11    1    4    4    0    0 -0.45947503399E+01  0.65044825582E+01 -0.20840442759E+02  0.22310178814E+02  0.51100000000E-03 0. -1.
        -11    1    4    4    0    0  0.65979141290E+00  0.23985341096E+01 -0.23015226932E+00  0.24982515709E+01  0.51100000000E-03 0.  1.
        -12    1    4    4    0    0 -0.12654650497E+02  0.22366568028E+02  0.10665261692E+01  0.25720439782E+02  0.00000000000E+00 0.  1.
</event>
<event>
 8    1  0.5829710E-012  0.9118800E+02  0.7816164E-02  0.1184000E+00
        -11   -1    0    0    0    0  0.00000000000E+00  0.00000000000E+00  0.45593999997E+02  0.45594000000E+02  0.51100000000E-03 0. -1.
         11   -1    0    0    0    0 -0.00000000000E+00 -0.00000000000E+00 -0.45593999997E+02  0.45594000000E+02  0.51100000000E-03 0.  1.
         23    2    1    2    0    0  0.00000000000E+00  0.35527136788E-14  0.35527136788E-14  0.91188000000E+02  0.91188000000E+02 0.  0.
    9900012    2    3    3    0    0 -0.20717740641E+02 -0.26754969974E+02  0.22541358495E+02  0.50528855415E+02  0.29999986519E+02 0.  0.
        -12    1    3    3    0    0  0.20717740641E+02  0.26754969974E+02 -0.22541358495E+02  0.40659144585E+02  0.00000000000E+00 0.  1.
         11    1    4    4    0    0 -0.69777443788E+01 -0.11888463333E+01  0.11233703166E+02  0.13277739239E+02  0.51100000000E-03 0. -1.
        -11    1    4    4    0    0 -0.22574840610E+01 -0.18059951831E+02  0.14376754600E+02  0.23193731211E+02  0.51100000000E-03 0.  1.
         12    1    4    4    0    0 -0.11482512201E+02 -0.75061718102E+01 -0.30690992713E+01  0.14057384964E+02  0.00000000000E+00 0. -1.
</event>
<event>
 8    1  0.5829710E-012  0.9118800E+02  0.7816164E-02  0.1184000E+00
        -11   -1    0    0    0    0  0.00000000000E+00  0.00000000000E+00  0.45593999997E+02  0.45594000000E+02  0.51100000000E-03 0. -1.
         11   -1    0    0    0    0 -0.00000000000E+00 -0.00000000000E+00 -0.45593999997E+02  0.45594000000E+02  0.51100000000E-03 0.  1.
         23    2    1    2    0    0  0.00000000000E+00 -0.17763568394E-14  0.71054273576E-14  0.91188000000E+02  0.91188000000E+02 0.  0.
    9900012    2    3    3    0    0 -0.14236202588E+02  0.13791095668E+02  0.35500755132E+02  0.50528838685E+02  0.29999935668E+02 0.  0.
        -12    1    3    3    0    0  0.14236202588E+02 -0.13791095668E+02 -0.35500755132E+02  0.40659161315E+02  0.00000000000E+00 0.  1.
         11    1    4    4    0    0 -0.26204147320E+01  0.65828067045E+01  0.62261077471E+00  0.71124933683E+01  0.51100000000E-03 0.  1.
        -11    1    4    4    0    0 -0.17346378809E+01  0.90845979632E+01  0.25995688990E+01  0.96071144187E+01  0.51100000000E-03 0. -1.
         12    1    4    4    0    0 -0.98811499749E+01 -0.18763089998E+01  0.32278575459E+02  0.33809230898E+02  0.00000000000E+00 0. -1.
</event>
<event>
 8    1  0.5829710E-012  0.9118800E+02  0.7816164E-02  0.1184000E+00
        -11   -1    0    0    0    0  0.00000000000E+00  0.00000000000E+00  0.45593999997E+02  0.45594000000E+02  0.51100000000E-03 0. -1.
         11   -1    0    0    0    0 -0.00000000000E+00 -0.00000000000E+00 -0.45593999997E+02  0.45594000000E+02  0.51100000000E-03 0.  1.
         23    2    1    2    0    0  0.00000000000E+00  0.35527136788E-14 -0.35527136788E-14  0.91188000000E+02  0.91188000000E+02 0.  0.
    9900012    2    3    3    0    0  0.95502886174E+01 -0.23267774371E+02  0.31946341353E+02  0.50528855116E+02  0.29999985611E+02 0.  0.
        -12    1    3    3    0    0 -0.95502886174E+01  0.23267774371E+02 -0.31946341353E+02  0.40659144884E+02  0.00000000000E+00 0.  1.
         11    1    4    4    0    0  0.58412371246E+01 -0.73510610760E+01  0.15754845901E+02  0.18340483083E+02  0.51100000000E-03 0. -1.
        -11    1    4    4    0    0  0.11504873865E+02 -0.10709671663E+02  0.29950880078E+01  0.16000929417E+02  0.51100000000E-03 0.  1.
        -12    1    4    4    0    0 -0.77958223722E+01 -0.52070416327E+01  0.13196407444E+02  0.16187442616E+02  0.00000000000E+00 0.  1.
</event>
<event>
 8    1  0.5829710E-012  0.9118800E+02  0.7816164E-02  0.1184000E+00
        -11   -1    0    0    0    0  0.00000000000E+00  0.00000000000E+00  0.45593999997E+02  0.45594000000E+02  0.51100000000E-03 0. -1.
         11   -1    0    0    0    0 -0.00000000000E+00 -0.00000000000E+00 -0.45593999997E+02  0.45594000000E+02  0.51100000000E-03 0.  1.
         23    2    1    2    0    0  0.00000000000E+00  0.44408920985E-15  0.00000000000E+00  0.91188000000E+02  0.91188000000E+02 0.  0.
    9900012    2    3    3    0    0 -0.12126109343E+02  0.29147769116E+01 -0.38699191093E+02  0.50528857812E+02  0.29999993804E+02 0.  0.
         12    1    3    3    0    0  0.12126109343E+02 -0.29147769116E+01  0.38699191093E+02  0.40659142188E+02  0.00000000000E+00 0. -1.
         11    1    4    4    0    0  0.38064390552E+01 -0.37403643831E+01  0.14692240610E+01  0.55351534398E+01  0.51100000000E-03 0. -1.
        -11    1    4    4    0    0 -0.13280719823E+02  0.10729956820E+01 -0.21156087176E+02  0.25002177177E+02  0.51100000000E-03 0.  1.
        -12    1    4    4    0    0 -0.26518285756E+01  0.55821456127E+01 -0.19012327978E+02  0.19991527195E+02  0.00000000000E+00 0.  1.
</event>
<event>
 8    1  0.5829710E-012  0.9118800E+02  0.7816164E-02  0.1184000E+00
        -11   -1    0    0    0    0  0.00000000000E+00  0.00000000000E+00  0.45593999997E+02  0.45594000000E+02  0.51100000000E-03 0. -1.
         11   -1    0    0    0    0 -0.00000000000E+00 -0.00000000000E+00 -0.45593999997E+02  0.45594000000E+02  0.51100000000E-03 0.  1.
         23    2    1    2    0    0  0.00000000000E+00  0.17763568394E-14 -0.71054273576E-14  0.91188000000E+02  0.91188000000E+02 0.  0.
    9900012    2    3    3    0    0 -0.23347481241E+02  0.88766245676E+01 -0.32082186055E+02  0.50528855812E+02  0.29999987726E+02 0.  0.
         12    1    3    3    0    0  0.23347481241E+02 -0.88766245676E+01  0.32082186055E+02  0.40659144188E+02  0.00000000000E+00 0. -1.
         11    1    4    4    0    0  0.84929598266E+00  0.57561564790E+01 -0.64725026752E+00  0.58543636927E+01  0.51100000000E-03 0. -1.
        -11    1    4    4    0    0 -0.90115612353E+01  0.83064521464E+01 -0.40010912292E+01  0.12892405301E+02  0.51100000000E-03 0.  1.
         12    1    4    4    0    0 -0.15185215988E+02 -0.51859840578E+01 -0.27433844559E+02  0.31782086818E+02  0.00000000000E+00 0. -1.
</event>
<event>
 8    1  0.5829710E-012  0.9118800E+02  0.7816164E-02  0.1184000E+00
        -11   -1    0    0    0    0  0.00000000000E+00  0.00000000000E+00  0.45593999997E+02  0.45594000000E+02  0.51100000000E-03 0. -1.
         11   -1    0    0    0    0 -0.00000000000E+00 -0.00000000000E+00 -0.45593999997E+02  0.45594000000E+02  0.51100000000E-03 0.  1.
         23    2    1    2    0    0  0.17763568394E-14 -0.35527136788E-14 -0.71054273576E-14  0.91188000000E+02  0.91188000000E+02 0.  0.
    9900012    2    3    3    0    0  0.12497586634E+02 -0.22902800845E+02 -0.31183948959E+02  0.50528848129E+02  0.29999964372E+02 0.  0.
         12    1    3    3    0    0 -0.12497586634E+02  0.22902800845E+02  0.31183948959E+02  0.40659151871E+02  0.00000000000E+00 0. -1.
         11    1    4    4    0    0  0.16153671717E+01 -0.58394150259E+01  0.41467043676E+01  0.73418891518E+01  0.51100000000E-03 0. -1.
        -11    1    4    4    0    0  0.72707123293E+01 -0.13000092347E+02 -0.11705036719E+02  0.18943957973E+02  0.51100000000E-03 0.  1.
         12    1    4    4    0    0  0.36115071333E+01 -0.40632934719E+01 -0.23625616607E+02  0.24243001004E+02  0.00000000000E+00 0. -1.
</event>
<event>
 8    1  0.5829710E-012  0.9118800E+02  0.7816164E-02  0.1184000E+00
        -11   -1    0    0    0    0  0.00000000000E+00  0.00000000000E+00  0.45593999997E+02  0.45594000000E+02  0.51100000000E-03 0. -1.
         11   -1    0    0    0    0 -0.00000000000E+00 -0.00000000000E+00 -0.45593999997E+02  0.45594000000E+02  0.51100000000E-03 0.  1.
         23    2    1    2    0    0  0.17763568394E-14 -0.35527136788E-14  0.35527136788E-14  0.91188000000E+02  0.91188000000E+02 0.  0.
    9900012    2    3    3    0    0 -0.10203256914E+02  0.24733105386E+02 -0.30615901844E+02  0.50528850976E+02  0.29999973026E+02 0.  0.
         12    1    3    3    0    0  0.10203256914E+02 -0.24733105386E+02  0.30615901844E+02  0.40659149024E+02  0.00000000000E+00 0. -1.
         11    1    4    4    0    0  0.67043951506E+01  0.95142270458E+01 -0.12511609800E+02  0.17088294551E+02  0.51100000000E-03 0.  1.
        -11    1    4    4    0    0 -0.15530798821E+02  0.92951658296E+01 -0.20091899505E+02  0.27042378701E+02  0.51100000000E-03 0. -1.
         12    1    4    4    0    0 -0.13768532433E+01  0.59237125100E+01  0.19876074616E+01  0.63981777231E+01  0.00000000000E+00 0. -1.
</event>
<event>
 8    1  0.5829710E-012  0.9118800E+02  0.7816164E-02  0.1184000E+00
        -11   -1    0    0    0    0  0.00000000000E+00  0.00000000000E+00  0.45593999997E+02  0.45594000000E+02  0.51100000000E-03 0. -1.
         11   -1    0    0    0    0 -0.00000000000E+00 -0.00000000000E+00 -0.45593999997E+02  0.45594000000E+02  0.51100000000E-03 0.  1.
         23    2    1    2    0    0 -0.35527136788E-14  0.00000000000E+00  0.00000000000E+00  0.91188000000E+02  0.91188000000E+02 0.  0.
    9900012    2    3    3    0    0  0.26952268772E+02 -0.17495591128E+02  0.24912765617E+02  0.50528851071E+02  0.29999973317E+02 0.  0.
        -12    1    3    3    0    0 -0.26952268772E+02  0.17495591128E+02 -0.24912765617E+02  0.40659148929E+02  0.00000000000E+00 0.  1.
         11    1    4    4    0    0  0.59650936563E+01 -0.15249991154E+02  0.10598957554E+02  0.19505959961E+02  0.51100000000E-03 0.  1.
        -11    1    4    4    0    0  0.18612225718E+02 -0.60478709742E+01  0.16891353807E+02  0.25851683179E+02  0.51100000000E-03 0. -1.
        -12    1    4    4    0    0  0.23749493977E+01  0.38022710002E+01 -0.25775457437E+01  0.51712079306E+01  0.00000000000E+00 0.  1.
</event>
<event>
 8    1  0.5829710E-012  0.9118800E+02  0.7816164E-02  0.1184000E+00
        -11   -1    0    0    0    0  0.00000000000E+00  0.00000000000E+00  0.45593999997E+02  0.45594000000E+02  0.51100000000E-03 0. -1.
         11   -1    0    0    0    0 -0.00000000000E+00 -0.00000000000E+00 -0.45593999997E+02  0.45594000000E+02  0.51100000000E-03 0.  1.
         23    2    1    2    0    0  0.17763568394E-14  0.00000000000E+00  0.00000000000E+00  0.91188000000E+02  0.91188000000E+02 0.  0.
    9900012    2    3    3    0    0  0.11515714393E+02  0.66922635193E+00  0.38988548142E+02  0.50528850622E+02  0.29999971951E+02 0.  0.
        -12    1    3    3    0    0 -0.11515714393E+02 -0.66922635193E+00 -0.38988548142E+02  0.40659149378E+02  0.00000000000E+00 0.  1.
         11    1    4    4    0    0  0.78502499293E+01 -0.96681650394E+00  0.10832761579E+02  0.13413048938E+02  0.51100000000E-03 0. -1.
        -11    1    4    4    0    0  0.13692444101E+02  0.12336578120E+01  0.12880374508E+02  0.18839028234E+02  0.51100000000E-03 0.  1.
         12    1    4    4    0    0 -0.10026979637E+02  0.40238504386E+00  0.15275412054E+02  0.18276773451E+02  0.00000000000E+00 0. -1.
</event>
<event>
 8    1  0.5829710E-012  0.9118800E+02  0.7816164E-02  0.1184000E+00
        -11   -1    0    0    0    0  0.00000000000E+00  0.00000000000E+00  0.45593999997E+02  0.45594000000E+02  0.51100000000E-03 0. -1.
         11   -1    0    0    0    0 -0.00000000000E+00 -0.00000000000E+00 -0.45593999997E+02  0.45594000000E+02  0.51100000000E-03 0.  1.
         23    2    1    2    0    0  0.00000000000E+00  0.00000000000E+00  0.00000000000E+00  0.91188000000E+02  0.91188000000E+02 0.  0.
    9900012    2    3    3    0    0  0.22836034926E+02  0.10912140707E+02 -0.31821453363E+02  0.50528878022E+02  0.30000055235E+02 0.  0.
         12    1    3    3    0    0 -0.22836034926E+02 -0.10912140707E+02  0.31821453363E+02  0.40659121978E+02  0.00000000000E+00 0. -1.
         11    1    4    4    0    0  0.43195698329E+01 -0.19140042461E+01 -0.26063304865E+01  0.53958367897E+01  0.51100000000E-03 0. -1.
        -11    1    4    4    0    0  0.72355059012E+01 -0.55819502714E+01 -0.19343457721E+02  0.21393458611E+02  0.51100000000E-03 0.  1.
        -12    1    4    4    0    0  0.11280959191E+02  0.18408095224E+02 -0.98716651552E+01  0.23739582621E+02  0.00000000000E+00 0.  1.
</event>
<event>
 8    1  0.5829710E-012  0.9118800E+02  0.7816164E-02  0.1184000E+00
        -11   -1    0    0    0    0  0.00000000000E+00  0.00000000000E+00  0.45593999997E+02  0.45594000000E+02  0.51100000000E-03 0. -1.
         11   -1    0    0    0    0 -0.00000000000E+00 -0.00000000000E+00 -0.45593999997E+02  0.45594000000E+02  0.51100000000E-03 0.  1.
         23    2    1    2    0    0  0.00000000000E+00  0.00000000000E+00  0.00000000000E+00  0.91188000000E+02  0.91188000000E+02 0.  0.
    9900012    2    3    3    0    0  0.10772693197E+02  0.65513951622E+01 -0.38654845847E+02  0.50528821396E+02  0.29999883115E+02 0.  0.
         12    1    3    3    0    0 -0.10772693197E+02 -0.65513951622E+01  0.38654845847E+02  0.40659178604E+02  0.00000000000E+00 0. -1.
         11    1    4    4    0    0 -0.16433998052E+01 -0.21438456301E+01  0.25277628358E+00  0.27130671050E+01  0.51100000000E-03 0. -1.
        -11    1    4    4    0    0  0.66627438054E+01 -0.14023771205E+01  0.40552616747E+00  0.68207967525E+01  0.51100000000E-03 0.  1.
        -12    1    4    4    0    0  0.57533491963E+01  0.10097617913E+02 -0.39313148298E+02  0.40994957539E+02  0.00000000000E+00 0.  1.
</event>
<event>
 8    1  0.5829710E-012  0.9118800E+02  0.7816164E-02  0.1184000E+00
        -11   -1    0    0    0    0  0.00000000000E+00  0.00000000000E+00  0.45593999997E+02  0.45594000000E+02  0.51100000000E-03 0. -1.
         11   -1    0    0    0    0 -0.00000000000E+00 -0.00000000000E+00 -0.45593999997E+02  0.45594000000E+02  0.51100000000E-03 0.  1.
         23    2    1    2    0    0 -0.35527136788E-14  0.00000000000E+00  0.71054273576E-14  0.91188000000E+02  0.91188000000E+02 0.  0.
    9900012    2    3    3    0    0 -0.17434317675E+02 -0.16893611934E+02  0.32616184928E+02  0.50528867247E+02  0.30000022484E+02 0.  0.
        -12    1    3    3    0    0  0.17434317675E+02  0.16893611934E+02 -0.32616184928E+02  0.40659132753E+02  0.00000000000E+00 0.  1.
         11    1    4    4    0    0 -0.65570126646E+01 -0.11773232950E+01  0.88204720911E+01  0.11053562023E+02  0.51100000000E-03 0. -1.
        -11    1    4    4    0    0  0.20494336308E+01  0.59356221506E+01  0.48235377901E+01  0.79182261647E+01  0.51100000000E-03 0.  1.
         12    1    4    4    0    0 -0.12926738642E+02 -0.21651910790E+02  0.18972175047E+02  0.31557079059E+02  0.00000000000E+00 0. -1.
</event>
<event>
 8    1  0.5829710E-012  0.9118800E+02  0.7816164E-02  0.1184000E+00
        -11   -1    0    0    0    0  0.00000000000E+00  0.00000000000E+00  0.45593999997E+02  0.45594000000E+02  0.51100000000E-03 0. -1.
         11   -1    0    0    0    0 -0.00000000000E+00 -0.00000000000E+00 -0.45593999997E+02  0.45594000000E+02  0.51100000000E-03 0.  1.
         23    2    1    2    0    0  0.00000000000E+00  0.00000000000E+00  0.00000000000E+00  0.91188000000E+02  0.91188000000E+02 0.  0.
    9900012    2    3    3    0    0 -0.14400831373E+02 -0.67238161117E+01  0.37424224722E+02  0.50528852894E+02  0.29999978856E+02 0.  0.
        -12    1    3    3    0    0  0.14400831373E+02  0.67238161117E+01 -0.37424224722E+02  0.40659147106E+02  0.00000000000E+00 0.  1.
         11    1    4    4    0    0 -0.10531594717E+02  0.13374898036E+01  0.86219654653E+01  0.13676317304E+02  0.51100000000E-03 0. -1.
        -11    1    4    4    0    0 -0.15227616508E+01  0.55300552094E+01  0.10072871384E+01  0.58236536044E+01  0.51100000000E-03 0.  1.
        -12    1    4    4    0    0 -0.23464750054E+01 -0.13591361125E+02  0.27794972118E+02  0.31028881985E+02  0.00000000000E+00 0.  1.
</event>
<event>
 8    1  0.5829710E-012  0.9118800E+02  0.7816164E-02  0.1184000E+00
        -11   -1    0    0    0    0  0.00000000000E+00  0.00000000000E+00  0.45593999997E+02  0.45594000000E+02  0.51100000000E-03 0. -1.
         11   -1    0    0    0    0 -0.00000000000E+00 -0.00000000000E+00 -0.45593999997E+02  0.45594000000E+02  0.51100000000E-03 0.  1.
         23    2    1    2    0    0  0.35527136788E-14  0.00000000000E+00 -0.35527136788E-14  0.91188000000E+02  0.91188000000E+02 0.  0.
    9900012    2    3    3    0    0 -0.25864651751E+02 -0.11509978664E+01 -0.31350609579E+02  0.50528859241E+02  0.29999998150E+02 0.  0.
         12    1    3    3    0    0  0.25864651751E+02  0.11509978664E+01  0.31350609579E+02  0.40659140759E+02  0.00000000000E+00 0. -1.
         11    1    4    4    0    0 -0.17990049288E+02  0.44911938859E+01 -0.12786488449E+02  0.22523476264E+02  0.51100000000E-03 0. -1.
        -11    1    4    4    0    0 -0.87950889547E+01  0.19580947892E+01 -0.12790594772E+01  0.91007537232E+01  0.51100000000E-03 0.  1.
         12    1    4    4    0    0  0.92048649200E+00 -0.76002865415E+01 -0.17285061653E+02  0.18904629254E+02  0.00000000000E+00 0. -1.
</event>
<event>
 8    1  0.5829710E-012  0.9118800E+02  0.7816164E-02  0.1184000E+00
        -11   -1    0    0    0    0  0.00000000000E+00  0.00000000000E+00  0.45593999997E+02  0.45594000000E+02  0.51100000000E-03 0.  1.
         11   -1    0    0    0    0 -0.00000000000E+00 -0.00000000000E+00 -0.45593999997E+02  0.45594000000E+02  0.51100000000E-03 0. -1.
         23    2    1    2    0    0 -0.17763568394E-14  0.00000000000E+00  0.35527136788E-14  0.91188000000E+02  0.91188000000E+02 0.  0.
    9900012    2    3    3    0    0 -0.75278783144E+01 -0.31613418814E+02  0.24435311811E+02  0.50528909205E+02  0.30000150018E+02 0.  0.
        -12    1    3    3    0    0  0.75278783144E+01  0.31613418814E+02 -0.24435311811E+02  0.40659090795E+02  0.00000000000E+00 0.  1.
         11    1    4    4    0    0  0.29172199645E+01 -0.29517710696E+02  0.25149642521E+02  0.38888429336E+02  0.51100000000E-03 0. -1.
        -11    1    4    4    0    0 -0.15138720676E+01 -0.21832037284E+01  0.18795828957E+00  0.26633654906E+01  0.51100000000E-03 0.  1.
         12    1    4    4    0    0 -0.89312262113E+01  0.87495610646E-01 -0.90228899932E+00  0.89771143781E+01  0.00000000000E+00 0. -1.
</event>
<event>
 8    1  0.5829710E-012  0.9118800E+02  0.7816164E-02  0.1184000E+00
        -11   -1    0    0    0    0  0.00000000000E+00  0.00000000000E+00  0.45593999997E+02  0.45594000000E+02  0.51100000000E-03 0. -1.
         11   -1    0    0    0    0 -0.00000000000E+00 -0.00000000000E+00 -0.45593999997E+02  0.45594000000E+02  0.51100000000E-03 0.  1.
         23    2    1    2    0    0  0.00000000000E+00 -0.88817841970E-15  0.35527136788E-14  0.91188000000E+02  0.91188000000E+02 0.  0.
    9900012    2    3    3    0    0  0.34488552693E+02 -0.73832631648E+01  0.20228508425E+02  0.50528863328E+02  0.30000010571E+02 0.  0.
        -12    1    3    3    0    0 -0.34488552693E+02  0.73832631648E+01 -0.20228508425E+02  0.40659136672E+02  0.00000000000E+00 0.  1.
         11    1    4    4    0    0  0.16860870363E+02 -0.73567394137E+01  0.96806064641E+01  0.20787609434E+02  0.51100000000E-03 0. -1.
        -11    1    4    4    0    0 -0.17019761196E+01 -0.44364465720E+01 -0.30982772273E+01  0.56725746303E+01  0.51100000000E-03 0.  1.
         12    1    4    4    0    0  0.19329658449E+02  0.44099228208E+01  0.13646179188E+02  0.24068679264E+02  0.00000000000E+00 0. -1.
</event>
<event>
 8    1  0.5829710E-012  0.9118800E+02  0.7816164E-02  0.1184000E+00
        -11   -1    0    0    0    0  0.00000000000E+00  0.00000000000E+00  0.45593999997E+02  0.45594000000E+02  0.51100000000E-03 0. -1.
         11   -1    0    0    0    0 -0.00000000000E+00 -0.00000000000E+00 -0.45593999997E+02  0.45594000000E+02  0.51100000000E-03 0.  1.
         23    2    1    2    0    0  0.00000000000E+00  0.00000000000E+00  0.00000000000E+00  0.91188000000E+02  0.91188000000E+02 0.  0.
    9900012    2    3    3    0    0  0.11159204453E+02 -0.27937109373E+02  0.27352431881E+02  0.50528862602E+02  0.30000008367E+02 0.  0.
        -12    1    3    3    0    0 -0.11159204453E+02  0.27937109373E+02 -0.27352431881E+02  0.40659137398E+02  0.00000000000E+00 0.  1.
         11    1    4    4    0    0 -0.22928763574E+01 -0.50297152703E+01  0.88839110630E+01  0.10463230559E+02  0.51100000000E-03 0.  1.
        -11    1    4    4    0    0  0.17600415174E+02 -0.68819292949E+01  0.11365028819E+02  0.22052198199E+02  0.51100000000E-03 0. -1.
         12    1    4    4    0    0 -0.41483343637E+01 -0.16025464807E+02  0.71034919993E+01  0.18013433845E+02  0.00000000000E+00 0. -1.
</event>
<event>
 8    1  0.5829710E-012  0.9118800E+02  0.7816164E-02  0.1184000E+00
        -11   -1    0    0    0    0  0.00000000000E+00  0.00000000000E+00  0.45593999997E+02  0.45594000000E+02  0.51100000000E-03 0. -1.
         11   -1    0    0    0    0 -0.00000000000E+00 -0.00000000000E+00 -0.45593999997E+02  0.45594000000E+02  0.51100000000E-03 0.  1.
         23    2    1    2    0    0 -0.17763568394E-14  0.66613381478E-15  0.00000000000E+00  0.91188000000E+02  0.91188000000E+02 0.  0.
    9900012    2    3    3    0    0  0.10215915177E+02 -0.86084002919E+00  0.39345392396E+02  0.50528857470E+02  0.29999992767E+02 0.  0.
        -12    1    3    3    0    0 -0.10215915177E+02  0.86084002919E+00 -0.39345392396E+02  0.40659142530E+02  0.00000000000E+00 0.  1.
         11    1    4    4    0    0  0.29436170634E+00 -0.12762685108E+02  0.19249426105E+02  0.23097904356E+02  0.51100000000E-03 0.  1.
        -11    1    4    4    0    0  0.72321164988E+01  0.55393281538E+01  0.18063418943E+02  0.20230540518E+02  0.51100000000E-03 0. -1.
        -12    1    4    4    0    0  0.26894369717E+01  0.63625169251E+01  0.20325473474E+01  0.72004125970E+01  0.00000000000E+00 0.  1.
</event>
<event>
 8    1  0.5829710E-012  0.9118800E+02  0.7816164E-02  0.1184000E+00
        -11   -1    0    0    0    0  0.00000000000E+00  0.00000000000E+00  0.45593999997E+02  0.45594000000E+02  0.51100000000E-03 0.  1.
         11   -1    0    0    0    0 -0.00000000000E+00 -0.00000000000E+00 -0.45593999997E+02  0.45594000000E+02  0.51100000000E-03 0. -1.
         23    2    1    2    0    0  0.00000000000E+00  0.88817841970E-15  0.00000000000E+00  0.91188000000E+02  0.91188000000E+02 0.  0.
    9900012    2    3    3    0    0  0.37963957401E+02  0.49649230816E+01  0.13684055411E+02  0.50528857176E+02  0.29999991871E+02 0.  0.
        -12    1    3    3    0    0 -0.37963957401E+02 -0.49649230816E+01 -0.13684055411E+02  0.40659142824E+02  0.00000000000E+00 0.  1.
         11    1    4    4    0    0  0.16240947459E+02  0.49801536897E+01  0.31489675083E+01  0.17276756112E+02  0.51100000000E-03 0. -1.
        -11    1    4    4    0    0  0.15596796761E+02  0.41195894121E+01  0.16997784820E+02  0.23434072953E+02  0.51100000000E-03 0.  1.
        -12    1    4    4    0    0  0.61262131811E+01 -0.41348200203E+01 -0.64626969167E+01  0.98180281105E+01  0.00000000000E+00 0.  1.
</event>
<event>
 8    1  0.5829710E-012  0.9118800E+02  0.7816164E-02  0.1184000E+00
        -11   -1    0    0    0    0  0.00000000000E+00  0.00000000000E+00  0.45593999997E+02  0.45594000000E+02  0.51100000000E-03 0.  1.
         11   -1    0    0    0    0 -0.00000000000E+00 -0.00000000000E+00 -0.45593999997E+02  0.45594000000E+02  0.51100000000E-03 0. -1.
         23    2    1    2    0    0  0.00000000000E+00  0.88817841970E-15  0.00000000000E+00  0.91188000000E+02  0.91188000000E+02 0.  0.
    9900012    2    3    3    0    0  0.40072364045E+02  0.55908054675E+01 -0.40146519000E+01  0.50528820277E+02  0.29999879712E+02 0.  0.
         12    1    3    3    0    0 -0.40072364045E+02 -0.55908054675E+01  0.40146519000E+01  0.40659179723E+02  0.00000000000E+00 0. -1.
         11    1    4    4    0    0  0.73166767203E+01 -0.50789550067E+01 -0.66626471325E+01  0.11122967646E+02  0.51100000000E-03 0.  1.
        -11    1    4    4    0    0  0.30744708595E+01  0.87193733640E+01 -0.15212704184E+01  0.93698509526E+01  0.51100000000E-03 0. -1.
        -12    1    4    4    0    0  0.29681216465E+02  0.19503871102E+01  0.41692656509E+01  0.30036001678E+02  0.00000000000E+00 0.  1.
</event>
<event>
 8    1  0.5829710E-012  0.9118800E+02  0.7816164E-02  0.1184000E+00
        -11   -1    0    0    0    0  0.00000000000E+00  0.00000000000E+00  0.45593999997E+02  0.45594000000E+02  0.51100000000E-03 0. -1.
         11   -1    0    0    0    0 -0.00000000000E+00 -0.00000000000E+00 -0.45593999997E+02  0.45594000000E+02  0.51100000000E-03 0.  1.
         23    2    1    2    0    0  0.35527136788E-14 -0.35527136788E-14  0.00000000000E+00  0.91188000000E+02  0.91188000000E+02 0.  0.
    9900012    2    3    3    0    0 -0.14845368687E+02  0.23257149964E+02 -0.29864474709E+02  0.50528845489E+02  0.29999956349E+02 0.  0.
         12    1    3    3    0    0  0.14845368687E+02 -0.23257149964E+02  0.29864474709E+02  0.40659154511E+02  0.00000000000E+00 0. -1.
         11    1    4    4    0    0 -0.10404720992E+02  0.70070226108E+01 -0.52464433378E+01  0.13597122958E+02  0.51100000000E-03 0. -1.
        -11    1    4    4    0    0 -0.12491904733E+02  0.46166099250E+01 -0.10675610147E+02  0.17068374947E+02  0.51100000000E-03 0.  1.
         12    1    4    4    0    0  0.80512570383E+01  0.11633517429E+02 -0.13942421224E+02  0.19863347584E+02  0.00000000000E+00 0. -1.
</event>
<event>
 8    1  0.5829710E-012  0.9118800E+02  0.7816164E-02  0.1184000E+00
        -11   -1    0    0    0    0  0.00000000000E+00  0.00000000000E+00  0.45593999997E+02  0.45594000000E+02  0.51100000000E-03 0. -1.
         11   -1    0    0    0    0 -0.00000000000E+00 -0.00000000000E+00 -0.45593999997E+02  0.45594000000E+02  0.51100000000E-03 0.  1.
         23    2    1    2    0    0  0.00000000000E+00  0.00000000000E+00  0.00000000000E+00  0.91188000000E+02  0.91188000000E+02 0.  0.
    9900012    2    3    3    0    0 -0.35656989723E+02  0.12015112374E+02  0.15406941761E+02  0.50528958006E+02  0.30000298353E+02 0.  0.
        -12    1    3    3    0    0  0.35656989723E+02 -0.12015112374E+02 -0.15406941761E+02  0.40659041994E+02  0.00000000000E+00 0.  1.
         11    1    4    4    0    0 -0.65510063761E+01  0.47372119056E+01  0.24829738248E+01  0.84570692591E+01  0.51100000000E-03 0. -1.
        -11    1    4    4    0    0  0.17617703696E+01  0.68821380089E+01 -0.25405986757E+01  0.75446868922E+01  0.51100000000E-03 0.  1.
         12    1    4    4    0    0 -0.30867753717E+02  0.39576245941E+00  0.15464566611E+02  0.34527201855E+02  0.00000000000E+00 0. -1.
</event>
<event>
 8    1  0.5829710E-012  0.9118800E+02  0.7816164E-02  0.1184000E+00
        -11   -1    0    0    0    0  0.00000000000E+00  0.00000000000E+00  0.45593999997E+02  0.45594000000E+02  0.51100000000E-03 0. -1.
         11   -1    0    0    0    0 -0.00000000000E+00 -0.00000000000E+00 -0.45593999997E+02  0.45594000000E+02  0.51100000000E-03 0.  1.
         23    2    1    2    0    0  0.00000000000E+00  0.00000000000E+00  0.00000000000E+00  0.91188000000E+02  0.91188000000E+02 0.  0.
    9900012    2    3    3    0    0  0.12395739755E+02 -0.12227394407E+02 -0.36742381398E+02  0.50528854303E+02  0.29999983139E+02 0.  0.
         12    1    3    3    0    0 -0.12395739755E+02  0.12227394407E+02  0.36742381398E+02  0.40659145697E+02  0.00000000000E+00 0. -1.
         11    1    4    4    0    0 -0.50120626108E+00 -0.49790454869E+01 -0.19053520882E+01  0.53546679186E+01  0.51100000000E-03 0. -1.
        -11    1    4    4    0    0 -0.34302705220E+01 -0.11107740534E+02 -0.10848141872E+02  0.15900655268E+02  0.51100000000E-03 0.  1.
         12    1    4    4    0    0  0.16327216538E+02  0.38593916141E+01 -0.23988887438E+02  0.29273531116E+02  0.00000000000E+00 0. -1.
</event>
<event>
 8    1  0.5829710E-012  0.9118800E+02  0.7816164E-02  0.1184000E+00
        -11   -1    0    0    0    0  0.00000000000E+00  0.00000000000E+00  0.45593999997E+02  0.45594000000E+02  0.51100000000E-03 0. -1.
         11   -1    0    0    0    0 -0.00000000000E+00 -0.00000000000E+00 -0.45593999997E+02  0.45594000000E+02  0.51100000000E-03 0.  1.
         23    2    1    2    0    0  0.35527136788E-14  0.00000000000E+00  0.00000000000E+00  0.91188000000E+02  0.91188000000E+02 0.  0.
    9900012    2    3    3    0    0  0.96697861586E+01  0.20479059576E+02  0.33767857843E+02  0.50528869798E+02  0.30000030238E+02 0.  0.
        -12    1    3    3    0    0 -0.96697861586E+01 -0.20479059576E+02 -0.33767857843E+02  0.40659130202E+02  0.00000000000E+00 0.  1.
         11    1    4    4    0    0  0.96682814667E+01  0.13828837199E+02  0.17077615992E+02  0.24007444117E+02  0.51100000000E-03 0. -1.
        -11    1    4    4    0    0  0.23109976242E+01  0.13305240840E+02  0.99736800457E+01  0.16788223186E+02  0.51100000000E-03 0.  1.
        -12    1    4    4    0    0 -0.23094929323E+01 -0.66550184623E+01  0.67165618055E+01  0.97332024958E+01  0.00000000000E+00 0.  1.
</event>
<event>
 8    1  0.5829710E-012  0.9118800E+02  0.7816164E-02  0.1184000E+00
        -11   -1    0    0    0    0  0.00000000000E+00  0.00000000000E+00  0.45593999997E+02  0.45594000000E+02  0.51100000000E-03 0. -1.
         11   -1    0    0    0    0 -0.00000000000E+00 -0.00000000000E+00 -0.45593999997E+02  0.45594000000E+02  0.51100000000E-03 0.  1.
         23    2    1    2    0    0 -0.22204460493E-15  0.71054273576E-14 -0.71054273576E-14  0.91188000000E+02  0.91188000000E+02 0.  0.
    9900012    2    3    3    0    0  0.17870683790E+01  0.24168586273E+02 -0.32647390270E+02  0.50528852600E+02  0.29999977963E+02 0.  0.
         12    1    3    3    0    0 -0.17870683790E+01 -0.24168586273E+02  0.32647390270E+02  0.40659147400E+02  0.00000000000E+00 0. -1.
         11    1    4    4    0    0  0.23924855916E+01  0.31011423130E+01 -0.28995367723E+01  0.48732314440E+01  0.51100000000E-03 0. -1.
        -11    1    4    4    0    0 -0.37218302180E+01  0.22903463719E+02 -0.94770148069E+01  0.25064606129E+02  0.51100000000E-03 0.  1.
         12    1    4    4    0    0  0.31164130053E+01 -0.18360197593E+01 -0.20270838691E+02  0.20591015026E+02  0.00000000000E+00 0. -1.
</event>
<event>
 8    1  0.5829710E-012  0.9118800E+02  0.7816164E-02  0.1184000E+00
        -11   -1    0    0    0    0  0.00000000000E+00  0.00000000000E+00  0.45593999997E+02  0.45594000000E+02  0.51100000000E-03 0. -1.
         11   -1    0    0    0    0 -0.00000000000E+00 -0.00000000000E+00 -0.45593999997E+02  0.45594000000E+02  0.51100000000E-03 0.  1.
         23    2    1    2    0    0  0.00000000000E+00  0.00000000000E+00  0.00000000000E+00  0.91188000000E+02  0.91188000000E+02 0.  0.
    9900012    2    3    3    0    0  0.14178394684E+02 -0.69766435593E+01 -0.37462855435E+02  0.50528856274E+02  0.29999989131E+02 0.  0.
         12    1    3    3    0    0 -0.14178394684E+02  0.69766435593E+01  0.37462855435E+02  0.40659143726E+02  0.00000000000E+00 0. -1.
         11    1    4    4    0    0  0.93855248351E+00 -0.24953000100E+01  0.47831206289E+01  0.54759150939E+01  0.51100000000E-03 0. -1.
        -11    1    4    4    0    0  0.13959084859E+01  0.97388529390E+00 -0.14912776683E+01  0.22629455167E+01  0.51100000000E-03 0.  1.
         12    1    4    4    0    0  0.11843933714E+02 -0.54552288432E+01 -0.40754698396E+02  0.42789995664E+02  0.00000000000E+00 0. -1.
</event>
<event>
 8    1  0.5829710E-012  0.9118800E+02  0.7816164E-02  0.1184000E+00
        -11   -1    0    0    0    0  0.00000000000E+00  0.00000000000E+00  0.45593999997E+02  0.45594000000E+02  0.51100000000E-03 0. -1.
         11   -1    0    0    0    0 -0.00000000000E+00 -0.00000000000E+00 -0.45593999997E+02  0.45594000000E+02  0.51100000000E-03 0.  1.
         23    2    1    2    0    0 -0.35527136788E-14  0.00000000000E+00  0.71054273576E-14  0.91188000000E+02  0.91188000000E+02 0.  0.
    9900012    2    3    3    0    0  0.10112895304E+02  0.21843356992E+02 -0.32768344113E+02  0.50528840245E+02  0.29999940408E+02 0.  0.
         12    1    3    3    0    0 -0.10112895304E+02 -0.21843356992E+02  0.32768344113E+02  0.40659159755E+02  0.00000000000E+00 0. -1.
         11    1    4    4    0    0  0.20559766579E+01 -0.80241077355E+00 -0.32913588045E+01  0.39628204739E+01  0.51100000000E-03 0. -1.
        -11    1    4    4    0    0 -0.58450654506E+01  0.32487040149E+01 -0.19651339873E+02  0.20757987064E+02  0.51100000000E-03 0.  1.
        -12    1    4    4    0    0  0.13901984097E+02  0.19397063751E+02 -0.98256454353E+01  0.25808032707E+02  0.00000000000E+00 0.  1.
</event>
<event>
 8    1  0.5829710E-012  0.9118800E+02  0.7816164E-02  0.1184000E+00
        -11   -1    0    0    0    0  0.00000000000E+00  0.00000000000E+00  0.45593999997E+02  0.45594000000E+02  0.51100000000E-03 0. -1.
         11   -1    0    0    0    0 -0.00000000000E+00 -0.00000000000E+00 -0.45593999997E+02  0.45594000000E+02  0.51100000000E-03 0.  1.
         23    2    1    2    0    0  0.35527136788E-14 -0.35527136788E-14  0.00000000000E+00  0.91188000000E+02  0.91188000000E+02 0.  0.
    9900012    2    3    3    0    0 -0.26752010035E+02  0.98960421854E+01  0.28975227635E+02  0.50528861933E+02  0.30000006331E+02 0.  0.
        -12    1    3    3    0    0  0.26752010035E+02 -0.98960421854E+01 -0.28975227635E+02  0.40659138067E+02  0.00000000000E+00 0.  1.
         11    1    4    4    0    0 -0.26314407640E+02  0.94503008042E+01  0.15446062405E+02  0.31942715583E+02  0.51100000000E-03 0. -1.
        -11    1    4    4    0    0 -0.29575263124E+00 -0.53227571990E+01  0.20003161972E+01  0.56938983982E+01  0.51100000000E-03 0.  1.
        -12    1    4    4    0    0 -0.14184976380E+00  0.57684985802E+01  0.11528849033E+02  0.12892247952E+02  0.00000000000E+00 0.  1.
</event>
<event>
 8    1  0.6745233E-012  0.9118800E+02  0.7816164E-02  0.1184000E+00
        -11   -1    0    0    0    0  0.00000000000E+00  0.00000000000E+00  0.45593999997E+02  0.45594000000E+02  0.51100000000E-03 0. -1.
         11   -1    0    0    0    0 -0.00000000000E+00 -0.00000000000E+00 -0.45593999997E+02  0.45594000000E+02  0.51100000000E-03 0.  1.
         23    2    1    2    0    0 -0.17763568394E-14  0.17763568394E-14  0.71054273576E-14  0.91188000000E+02  0.91188000000E+02 0.  0.
    9900012    2    3    3    0    0  0.12215611891E+02 -0.99879121779E+01 -0.37472462154E+02  0.50528868388E+02  0.30000025952E+02 0.  0.
         12    1    3    3    0    0 -0.12215611891E+02  0.99879121779E+01  0.37472462154E+02  0.40659131612E+02  0.00000000000E+00 0. -1.
         11    1    4    4    0    0  0.14708458408E+01 -0.11931536631E+01 -0.11866192234E+02  0.12016385544E+02  0.51100000000E-03 0.  1.
        -11    1    4    4    0    0  0.13372224895E+02 -0.60506817107E+01 -0.29576036471E+02  0.33017708603E+02  0.51100000000E-03 0. -1.
         12    1    4    4    0    0 -0.26274588445E+01 -0.27440768041E+01  0.39697665509E+01  0.54947742406E+01  0.00000000000E+00 0. -1.
</event>
<event>
 8    1  0.5829710E-012  0.9118800E+02  0.7816164E-02  0.1184000E+00
        -11   -1    0    0    0    0  0.00000000000E+00  0.00000000000E+00  0.45593999997E+02  0.45594000000E+02  0.51100000000E-03 0. -1.
         11   -1    0    0    0    0 -0.00000000000E+00 -0.00000000000E+00 -0.45593999997E+02  0.45594000000E+02  0.51100000000E-03 0.  1.
         23    2    1    2    0    0  0.35527136788E-14  0.88817841970E-15  0.35527136788E-14  0.91188000000E+02  0.91188000000E+02 0.  0.
    9900012    2    3    3    0    0 -0.28326988093E+02 -0.25500322633E+01 -0.29055894523E+02  0.50528856803E+02  0.29999990738E+02 0.  0.
         12    1    3    3    0    0  0.28326988093E+02  0.25500322633E+01  0.29055894523E+02  0.40659143197E+02  0.00000000000E+00 0. -1.
         11    1    4    4    0    0  0.18132803205E+01 -0.16242192831E+01  0.45706373354E+00  0.24768894440E+01  0.51100000000E-03 0. -1.
        -11    1    4    4    0    0 -0.11120216523E+02 -0.30924714587E+01  0.14666675228E+01  0.11635020805E+02  0.51100000000E-03 0.  1.
        -12    1    4    4    0    0 -0.19020051890E+02  0.21666584784E+01 -0.30979625780E+02  0.36416946554E+02  0.00000000000E+00 0.  1.
</event>
<event>
 8    1  0.5829710E-012  0.9118800E+02  0.7816164E-02  0.1184000E+00
        -11   -1    0    0    0    0  0.00000000000E+00  0.00000000000E+00  0.45593999997E+02  0.45594000000E+02  0.51100000000E-03 0. -1.
         11   -1    0    0    0    0 -0.00000000000E+00 -0.00000000000E+00 -0.45593999997E+02  0.45594000000E+02  0.51100000000E-03 0.  1.
         23    2    1    2    0    0  0.00000000000E+00  0.35527136788E-14  0.00000000000E+00  0.91188000000E+02  0.91188000000E+02 0.  0.
    9900012    2    3    3    0    0  0.22159098114E+02  0.24257393275E+02  0.23952429280E+02  0.50528860485E+02  0.30000001929E+02 0.  0.
        -12    1    3    3    0    0 -0.22159098114E+02 -0.24257393275E+02 -0.23952429280E+02  0.40659139515E+02  0.00000000000E+00 0.  1.
         11    1    4    4    0    0  0.65540510263E+01 -0.21169434132E+01  0.99625264589E+01  0.12111522116E+02  0.51100000000E-03 0. -1.
        -11    1    4    4    0    0  0.34443935427E+01  0.12311942430E+01  0.94344599882E+01  0.10118731228E+02  0.51100000000E-03 0.  1.
        -12    1    4    4    0    0  0.12160653545E+02  0.25143142445E+02  0.45554428330E+01  0.28298607140E+02  0.00000000000E+00 0.  1.
</event>
<event>
 8    1  0.5829710E-012  0.9118800E+02  0.7816164E-02  0.1184000E+00
        -11   -1    0    0    0    0  0.00000000000E+00  0.00000000000E+00  0.45593999997E+02  0.45594000000E+02  0.51100000000E-03 0. -1.
         11   -1    0    0    0    0 -0.00000000000E+00 -0.00000000000E+00 -0.45593999997E+02  0.45594000000E+02  0.51100000000E-03 0.  1.
         23    2    1    2    0    0 -0.17763568394E-14  0.00000000000E+00  0.00000000000E+00  0.91188000000E+02  0.91188000000E+02 0.  0.
    9900012    2    3    3    0    0  0.95491642142E+01 -0.17557168516E+02 -0.35407980519E+02  0.50528858496E+02  0.29999995883E+02 0.  0.
         12    1    3    3    0    0 -0.95491642142E+01  0.17557168516E+02  0.35407980519E+02  0.40659141504E+02  0.00000000000E+00 0. -1.
         11    1    4    4    0    0 -0.46442006582E+01 -0.53693156045E+01 -0.18381503744E+02  0.19704766681E+02  0.51100000000E-03 0. -1.
        -11    1    4    4    0    0  0.88660723076E+01 -0.43064002932E+01 -0.18724881728E+02  0.21160659669E+02  0.51100000000E-03 0.  1.
        -12    1    4    4    0    0  0.53272925648E+01 -0.78814526179E+01  0.16984049533E+01  0.96634321451E+01  0.00000000000E+00 0.  1.
</event>
<event>
 8    1  0.5829710E-012  0.9118800E+02  0.7816164E-02  0.1184000E+00
        -11   -1    0    0    0    0  0.00000000000E+00  0.00000000000E+00  0.45593999997E+02  0.45594000000E+02  0.51100000000E-03 0. -1.
         11   -1    0    0    0    0 -0.00000000000E+00 -0.00000000000E+00 -0.45593999997E+02  0.45594000000E+02  0.51100000000E-03 0.  1.
         23    2    1    2    0    0  0.00000000000E+00  0.00000000000E+00  0.00000000000E+00  0.91188000000E+02  0.91188000000E+02 0.  0.
    9900012    2    3    3    0    0  0.86104755981E+01  0.13362167391E+02 -0.37422962876E+02  0.50528856406E+02  0.29999989530E+02 0.  0.
         12    1    3    3    0    0 -0.86104755981E+01 -0.13362167391E+02  0.37422962876E+02  0.40659143594E+02  0.00000000000E+00 0. -1.
         11    1    4    4    0    0  0.66120174605E+01  0.13927989096E+02 -0.32067663697E+02  0.35581493932E+02  0.51100000000E-03 0.  1.
        -11    1    4    4    0    0 -0.12891246904E+01  0.62532951805E+01 -0.24294395572E+01  0.68313775994E+01  0.51100000000E-03 0. -1.
        -12    1    4    4    0    0  0.32875828280E+01 -0.68191168861E+01 -0.29258596221E+01  0.81159848746E+01  0.00000000000E+00 0.  1.
</event>
<event>
 8    1  0.5829710E-012  0.9118800E+02  0.7816164E-02  0.1184000E+00
        -11   -1    0    0    0    0  0.00000000000E+00  0.00000000000E+00  0.45593999997E+02  0.45594000000E+02  0.51100000000E-03 0. -1.
         11   -1    0    0    0    0 -0.00000000000E+00 -0.00000000000E+00 -0.45593999997E+02  0.45594000000E+02  0.51100000000E-03 0.  1.
         23    2    1    2    0    0  0.35527136788E-14 -0.44408920985E-15  0.00000000000E+00  0.91188000000E+02  0.91188000000E+02 0.  0.
    9900012    2    3    3    0    0 -0.26003149936E+02  0.28885593493E+01  0.31123261136E+02  0.50528868609E+02  0.30000026623E+02 0.  0.
        -12    1    3    3    0    0  0.26003149936E+02 -0.28885593493E+01 -0.31123261136E+02  0.40659131391E+02  0.00000000000E+00 0.  1.
         11    1    4    4    0    0 -0.16059038296E+02  0.10792079560E+02  0.15270171351E+02  0.24648322977E+02  0.51100000000E-03 0. -1.
        -11    1    4    4    0    0 -0.64202055068E+01  0.41782311744E+01  0.78396852297E+01  0.10960717096E+02  0.51100000000E-03 0.  1.
        -12    1    4    4    0    0 -0.35239061338E+01 -0.12081751385E+02  0.80134045554E+01  0.14919828536E+02  0.00000000000E+00 0.  1.
</event>
<event>
 8    1  0.5829710E-012  0.9118800E+02  0.7816164E-02  0.1184000E+00
        -11   -1    0    0    0    0  0.00000000000E+00  0.00000000000E+00  0.45593999997E+02  0.45594000000E+02  0.51100000000E-03 0. -1.
         11   -1    0    0    0    0 -0.00000000000E+00 -0.00000000000E+00 -0.45593999997E+02  0.45594000000E+02  0.51100000000E-03 0.  1.
         23    2    1    2    0    0  0.00000000000E+00  0.88817841970E-15  0.00000000000E+00  0.91188000000E+02  0.91188000000E+02 0.  0.
    9900012    2    3    3    0    0 -0.15477273859E+02  0.53451643668E+01 -0.37216230477E+02  0.50528873114E+02  0.30000040318E+02 0.  0.
         12    1    3    3    0    0  0.15477273859E+02 -0.53451643668E+01  0.37216230477E+02  0.40659126886E+02  0.00000000000E+00 0. -1.
         11    1    4    4    0    0 -0.13722862260E+02  0.74522769946E+01 -0.19458258238E+02  0.24949492879E+02  0.51100000000E-03 0. -1.
        -11    1    4    4    0    0  0.32736062406E+01  0.61449582124E+01 -0.13137246745E+02  0.14868229940E+02  0.51100000000E-03 0.  1.
        -12    1    4    4    0    0 -0.50280178401E+01 -0.82520708402E+01 -0.46207254933E+01  0.10711150295E+02  0.00000000000E+00 0.  1.
</event>
<event>
 8    1  0.5829710E-012  0.9118800E+02  0.7816164E-02  0.1184000E+00
        -11   -1    0    0    0    0  0.00000000000E+00  0.00000000000E+00  0.45593999997E+02  0.45594000000E+02  0.51100000000E-03 0. -1.
         11   -1    0    0    0    0 -0.00000000000E+00 -0.00000000000E+00 -0.45593999997E+02  0.45594000000E+02  0.51100000000E-03 0.  1.
         23    2    1    2    0    0  0.00000000000E+00  0.35527136788E-14 -0.71054273576E-14  0.91188000000E+02  0.91188000000E+02 0.  0.
    9900012    2    3    3    0    0  0.22199775139E+02  0.27794820461E+02 -0.19692244988E+02  0.50528848837E+02  0.29999966523E+02 0.  0.
         12    1    3    3    0    0 -0.22199775139E+02 -0.27794820461E+02  0.19692244988E+02  0.40659151163E+02  0.00000000000E+00 0. -1.
         11    1    4    4    0    0  0.15831959428E+01  0.10158425423E+01 -0.64852560171E+01  0.67525544302E+01  0.51100000000E-03 0. -1.
        -11    1    4    4    0    0  0.22356713410E+02  0.26251401544E+02 -0.17822906716E+02  0.38815135213E+02  0.51100000000E-03 0.  1.
        -12    1    4    4    0    0 -0.17401342138E+01  0.52757637439E+00  0.46159177451E+01  0.49611591934E+01  0.00000000000E+00 0.  1.
</event>
<event>
 8    1  0.5829710E-012  0.9118800E+02  0.7816164E-02  0.1184000E+00
        -11   -1    0    0    0    0  0.00000000000E+00  0.00000000000E+00  0.45593999997E+02  0.45594000000E+02  0.51100000000E-03 0. -1.
         11   -1    0    0    0    0 -0.00000000000E+00 -0.00000000000E+00 -0.45593999997E+02  0.45594000000E+02  0.51100000000E-03 0.  1.
         23    2    1    2    0    0  0.17763568394E-14 -0.71054273576E-14  0.00000000000E+00  0.91188000000E+02  0.91188000000E+02 0.  0.
    9900012    2    3    3    0    0 -0.12935542898E+02  0.27562069681E+02  0.26947540269E+02  0.50528857342E+02  0.29999992375E+02 0.  0.
        -12    1    3    3    0    0  0.12935542898E+02 -0.27562069681E+02 -0.26947540269E+02  0.40659142658E+02  0.00000000000E+00 0.  1.
         11    1    4    4    0    0 -0.80854436440E+01  0.40567433267E+01  0.19986851272E+02  0.21938682490E+02  0.51100000000E-03 0. -1.
        -11    1    4    4    0    0 -0.71422666834E+01  0.64374107862E+01 -0.90508281989E+00  0.96577122643E+01  0.51100000000E-03 0.  1.
        -12    1    4    4    0    0  0.22921674290E+01  0.17067915568E+02  0.78657718163E+01  0.18932462588E+02  0.00000000000E+00 0.  1.
</event>
<event>
 8    1  0.5829710E-012  0.9118800E+02  0.7816164E-02  0.1184000E+00
        -11   -1    0    0    0    0  0.00000000000E+00  0.00000000000E+00  0.45593999997E+02  0.45594000000E+02  0.51100000000E-03 0. -1.
         11   -1    0    0    0    0 -0.00000000000E+00 -0.00000000000E+00 -0.45593999997E+02  0.45594000000E+02  0.51100000000E-03 0.  1.
         23    2    1    2    0    0  0.00000000000E+00  0.88817841970E-15  0.00000000000E+00  0.91188000000E+02  0.91188000000E+02 0.  0.
    9900012    2    3    3    0    0  0.18051223779E+02  0.57117764568E+01 -0.35981863286E+02  0.50528861350E+02  0.30000004559E+02 0.  0.
         12    1    3    3    0    0 -0.18051223779E+02 -0.57117764568E+01  0.35981863286E+02  0.40659138650E+02  0.00000000000E+00 0. -1.
         11    1    4    4    0    0 -0.60480403660E-01  0.53744361161E+01 -0.44393056465E+01  0.69710584799E+01  0.51100000000E-03 0. -1.
        -11    1    4    4    0    0  0.11285739585E+01  0.91194429348E+01 -0.39818845290E+01  0.10014655425E+02  0.51100000000E-03 0.  1.
         12    1    4    4    0    0  0.16983130224E+02 -0.87821025941E+01 -0.27560673111E+02  0.33543147445E+02  0.00000000000E+00 0. -1.
</event>
<event>
 8    1  0.5829710E-012  0.9118800E+02  0.7816164E-02  0.1184000E+00
        -11   -1    0    0    0    0  0.00000000000E+00  0.00000000000E+00  0.45593999997E+02  0.45594000000E+02  0.51100000000E-03 0. -1.
         11   -1    0    0    0    0 -0.00000000000E+00 -0.00000000000E+00 -0.45593999997E+02  0.45594000000E+02  0.51100000000E-03 0.  1.
         23    2    1    2    0    0  0.00000000000E+00  0.00000000000E+00  0.00000000000E+00  0.91188000000E+02  0.91188000000E+02 0.  0.
    9900012    2    3    3    0    0 -0.73652714205E+01  0.18261928267E+02 -0.35572736705E+02  0.50528870105E+02  0.30000031172E+02 0.  0.
         12    1    3    3    0    0  0.73652714205E+01 -0.18261928267E+02  0.35572736705E+02  0.40659129895E+02  0.00000000000E+00 0. -1.
         11    1    4    4    0    0 -0.40165102155E+01 -0.73580126300E+01 -0.65554208434E+01  0.10641721988E+02  0.51100000000E-03 0. -1.
        -11    1    4    4    0    0 -0.35311254908E+01  0.31888445778E+01 -0.34670985506E+01  0.58871342429E+01  0.51100000000E-03 0.  1.
        -12    1    4    4    0    0  0.18236428580E+00  0.22431096319E+02 -0.25550217311E+02  0.34000013874E+02  0.00000000000E+00 0.  1.
</event>
<event>
 8    1  0.5829710E-012  0.9118800E+02  0.7816164E-02  0.1184000E+00
        -11   -1    0    0    0    0  0.00000000000E+00  0.00000000000E+00  0.45593999997E+02  0.45594000000E+02  0.51100000000E-03 0. -1.
         11   -1    0    0    0    0 -0.00000000000E+00 -0.00000000000E+00 -0.45593999997E+02  0.45594000000E+02  0.51100000000E-03 0.  1.
         23    2    1    2    0    0  0.00000000000E+00  0.00000000000E+00  0.00000000000E+00  0.91188000000E+02  0.91188000000E+02 0.  0.
    9900012    2    3    3    0    0 -0.11289970295E+02  0.35678455685E+02 -0.15898122080E+02  0.50528856933E+02  0.29999991132E+02 0.  0.
         12    1    3    3    0    0  0.11289970295E+02 -0.35678455685E+02  0.15898122080E+02  0.40659143067E+02  0.00000000000E+00 0. -1.
         11    1    4    4    0    0 -0.65134421701E+01  0.94404956202E+01 -0.12527105657E+01  0.11537641461E+02  0.51100000000E-03 0. -1.
        -11    1    4    4    0    0 -0.11840938918E+02  0.26015373659E+02 -0.14181657123E+02  0.31908100853E+02  0.51100000000E-03 0.  1.
         12    1    4    4    0    0  0.70644107930E+01  0.22258640597E+00 -0.46375439145E+00  0.70831146183E+01  0.00000000000E+00 0. -1.
</event>
<event>
 8    1  0.5829710E-012  0.9118800E+02  0.7816164E-02  0.1184000E+00
        -11   -1    0    0    0    0  0.00000000000E+00  0.00000000000E+00  0.45593999997E+02  0.45594000000E+02  0.51100000000E-03 0. -1.
         11   -1    0    0    0    0 -0.00000000000E+00 -0.00000000000E+00 -0.45593999997E+02  0.45594000000E+02  0.51100000000E-03 0.  1.
         23    2    1    2    0    0 -0.71054273576E-14  0.35527136788E-14  0.00000000000E+00  0.91188000000E+02  0.91188000000E+02 0.  0.
    9900012    2    3    3    0    0 -0.33464577068E+02  0.21446210686E+02 -0.85641862582E+01  0.50528890843E+02  0.30000094207E+02 0.  0.
         12    1    3    3    0    0  0.33464577068E+02 -0.21446210686E+02  0.85641862582E+01  0.40659109157E+02  0.00000000000E+00 0. -1.
         11    1    4    4    0    0 -0.90947088695E+01 -0.19853004433E+01 -0.46872918159E+01  0.10422372671E+02  0.51100000000E-03 0.  1.
        -11    1    4    4    0    0 -0.16938532696E+02  0.18575466396E+01 -0.27514523766E+01  0.17260789665E+02  0.51100000000E-03 0. -1.
         12    1    4    4    0    0 -0.74313355028E+01  0.21573964490E+02 -0.11254420657E+01  0.22845728507E+02  0.00000000000E+00 0. -1.
</event>
<event>
 8    1  0.5829710E-012  0.9118800E+02  0.7816164E-02  0.1184000E+00
        -11   -1    0    0    0    0  0.00000000000E+00  0.00000000000E+00  0.45593999997E+02  0.45594000000E+02  0.51100000000E-03 0. -1.
         11   -1    0    0    0    0 -0.00000000000E+00 -0.00000000000E+00 -0.45593999997E+02  0.45594000000E+02  0.51100000000E-03 0.  1.
         23    2    1    2    0    0  0.35527136788E-14  0.00000000000E+00  0.00000000000E+00  0.91188000000E+02  0.91188000000E+02 0.  0.
    9900012    2    3    3    0    0  0.30099019151E+02 -0.35812616398E+01  0.27099614440E+02  0.50528862139E+02  0.30000006959E+02 0.  0.
        -12    1    3    3    0    0 -0.30099019151E+02  0.35812616398E+01 -0.27099614440E+02  0.40659137861E+02  0.00000000000E+00 0.  1.
         11    1    4    4    0    0  0.10791779806E+02  0.40381179504E+01  0.28510472728E+01  0.11870020167E+02  0.51100000000E-03 0. -1.
        -11    1    4    4    0    0  0.94422568614E+01 -0.12821399241E+02  0.55041452497E+01  0.16847554966E+02  0.51100000000E-03 0.  1.
         12    1    4    4    0    0  0.98649824842E+01  0.52020196510E+01  0.18744421917E+02  0.21811287006E+02  0.00000000000E+00 0. -1.
</event>
<event>
 8    1  0.5829710E-012  0.9118800E+02  0.7816164E-02  0.1184000E+00
        -11   -1    0    0    0    0  0.00000000000E+00  0.00000000000E+00  0.45593999997E+02  0.45594000000E+02  0.51100000000E-03 0. -1.
         11   -1    0    0    0    0 -0.00000000000E+00 -0.00000000000E+00 -0.45593999997E+02  0.45594000000E+02  0.51100000000E-03 0.  1.
         23    2    1    2    0    0 -0.71054273576E-14  0.00000000000E+00  0.00000000000E+00  0.91188000000E+02  0.91188000000E+02 0.  0.
    9900012    2    3    3    0    0  0.16663555391E+02 -0.13288074845E+02  0.34625410226E+02  0.50528855337E+02  0.29999986283E+02 0.  0.
        -12    1    3    3    0    0 -0.16663555391E+02  0.13288074845E+02 -0.34625410226E+02  0.40659144663E+02  0.00000000000E+00 0.  1.
         11    1    4    4    0    0  0.60254021407E+01 -0.25051499213E+01  0.53460205928E+01  0.84357088336E+01  0.51100000000E-03 0. -1.
        -11    1    4    4    0    0  0.17613852745E+02 -0.10950803972E+02  0.28240578284E+02  0.35038524201E+02  0.51100000000E-03 0.  1.
        -12    1    4    4    0    0 -0.69756994943E+01  0.16787904835E+00  0.10388113498E+01  0.70546223024E+01  0.00000000000E+00 0.  1.
</event>
<event>
 8    1  0.5829710E-012  0.9118800E+02  0.7816164E-02  0.1184000E+00
        -11   -1    0    0    0    0  0.00000000000E+00  0.00000000000E+00  0.45593999997E+02  0.45594000000E+02  0.51100000000E-03 0. -1.
         11   -1    0    0    0    0 -0.00000000000E+00 -0.00000000000E+00 -0.45593999997E+02  0.45594000000E+02  0.51100000000E-03 0.  1.
         23    2    1    2    0    0  0.00000000000E+00  0.00000000000E+00  0.17763568394E-14  0.91188000000E+02  0.91188000000E+02 0.  0.
    9900012    2    3    3    0    0  0.37518197200E+02 -0.24921694081E+01 -0.15470599434E+02  0.50528862326E+02  0.30000007526E+02 0.  0.
         12    1    3    3    0    0 -0.37518197200E+02  0.24921694081E+01  0.15470599434E+02  0.40659137674E+02  0.00000000000E+00 0. -1.
         11    1    4    4    0    0  0.37065851191E+01 -0.12456324800E+01 -0.10227898578E+02  0.10949898772E+02  0.51100000000E-03 0.  1.
        -11    1    4    4    0    0  0.19549738080E+01  0.35816349164E+01 -0.61095354439E+01  0.73468670102E+01  0.51100000000E-03 0. -1.
        -12    1    4    4    0    0  0.31856638273E+02 -0.48281718444E+01  0.86683458766E+00  0.32232096544E+02  0.00000000000E+00 0.  1.
</event>
<event>
 8    1  0.5829710E-012  0.9118800E+02  0.7816164E-02  0.1184000E+00
        -11   -1    0    0    0    0  0.00000000000E+00  0.00000000000E+00  0.45593999997E+02  0.45594000000E+02  0.51100000000E-03 0. -1.
         11   -1    0    0    0    0 -0.00000000000E+00 -0.00000000000E+00 -0.45593999997E+02  0.45594000000E+02  0.51100000000E-03 0.  1.
         23    2    1    2    0    0  0.00000000000E+00  0.00000000000E+00  0.00000000000E+00  0.91188000000E+02  0.91188000000E+02 0.  0.
    9900012    2    3    3    0    0  0.77241035610E+01  0.71343682875E+01  0.39276021630E+02  0.50528845289E+02  0.29999955742E+02 0.  0.
        -12    1    3    3    0    0 -0.77241035610E+01 -0.71343682875E+01 -0.39276021630E+02  0.40659154711E+02  0.00000000000E+00 0.  1.
         11    1    4    4    0    0 -0.41789946116E+01  0.59949288998E-01  0.25512666435E+01  0.48965857113E+01  0.51100000000E-03 0. -1.
        -11    1    4    4    0    0 -0.18781872698E+00  0.43796906839E+01 -0.21132937061E+01  0.48665158902E+01  0.51100000000E-03 0.  1.
         12    1    4    4    0    0  0.12090916900E+02  0.26947283146E+01  0.38838048693E+02  0.40765743688E+02  0.00000000000E+00 0. -1.
</event>
<event>
 8    1  0.5829710E-012  0.9118800E+02  0.7816164E-02  0.1184000E+00
        -11   -1    0    0    0    0  0.00000000000E+00  0.00000000000E+00  0.45593999997E+02  0.45594000000E+02  0.51100000000E-03 0. -1.
         11   -1    0    0    0    0 -0.00000000000E+00 -0.00000000000E+00 -0.45593999997E+02  0.45594000000E+02  0.51100000000E-03 0.  1.
         23    2    1    2    0    0  0.00000000000E+00  0.00000000000E+00  0.00000000000E+00  0.91188000000E+02  0.91188000000E+02 0.  0.
    9900012    2    3    3    0    0 -0.17076448784E+02  0.25401606327E+02  0.26764304598E+02  0.50528748806E+02  0.29999662468E+02 0.  0.
        -12    1    3    3    0    0  0.17076448784E+02 -0.25401606327E+02 -0.26764304598E+02  0.40659251194E+02  0.00000000000E+00 0.  1.
         11    1    4    4    0    0 -0.21769436764E+02  0.22350117298E+02  0.17270138243E+02  0.35660815967E+02  0.51100000000E-03 0. -1.
        -11    1    4    4    0    0  0.26011444408E+01  0.23619545065E+01 -0.13786145787E+01  0.37743025727E+01  0.51100000000E-03 0.  1.
        -12    1    4    4    0    0  0.20918435390E+01  0.68953452321E+00  0.10872780934E+02  0.11093630266E+02  0.00000000000E+00 0.  1.
</event>
<event>
 8    1  0.5829710E-012  0.9118800E+02  0.7816164E-02  0.1184000E+00
        -11   -1    0    0    0    0  0.00000000000E+00  0.00000000000E+00  0.45593999997E+02  0.45594000000E+02  0.51100000000E-03 0. -1.
         11   -1    0    0    0    0 -0.00000000000E+00 -0.00000000000E+00 -0.45593999997E+02  0.45594000000E+02  0.51100000000E-03 0.  1.
         23    2    1    2    0    0  0.00000000000E+00 -0.66613381478E-15  0.35527136788E-14  0.91188000000E+02  0.91188000000E+02 0.  0.
    9900012    2    3    3    0    0  0.32330541910E+02 -0.13522099594E+01  0.24618561912E+02  0.50528855855E+02  0.29999987858E+02 0.  0.
        -12    1    3    3    0    0 -0.32330541910E+02  0.13522099594E+01 -0.24618561912E+02  0.40659144145E+02  0.00000000000E+00 0.  1.
         11    1    4    4    0    0  0.28335304794E+02  0.71246171738E+01  0.12151391499E+02  0.31643419273E+02  0.51100000000E-03 0. -1.
        -11    1    4    4    0    0  0.61885944441E+01 -0.48448940009E+01  0.28262672131E+01  0.83522144186E+01  0.51100000000E-03 0.  1.
        -12    1    4    4    0    0 -0.21933573284E+01 -0.36319331323E+01  0.96409031996E+01  0.10533222164E+02  0.00000000000E+00 0.  1.
</event>
<event>
 8    1  0.5829710E-012  0.9118800E+02  0.7816164E-02  0.1184000E+00
        -11   -1    0    0    0    0  0.00000000000E+00  0.00000000000E+00  0.45593999997E+02  0.45594000000E+02  0.51100000000E-03 0. -1.
         11   -1    0    0    0    0 -0.00000000000E+00 -0.00000000000E+00 -0.45593999997E+02  0.45594000000E+02  0.51100000000E-03 0.  1.
         23    2    1    2    0    0  0.00000000000E+00  0.44408920985E-15  0.00000000000E+00  0.91188000000E+02  0.91188000000E+02 0.  0.
    9900012    2    3    3    0    0  0.18414908729E+02 -0.35376324659E+01 -0.36076884498E+02  0.50528864470E+02  0.30000014042E+02 0.  0.
         12    1    3    3    0    0 -0.18414908729E+02  0.35376324659E+01  0.36076884498E+02  0.40659135530E+02  0.00000000000E+00 0. -1.
         11    1    4    4    0    0  0.69164598112E+01 -0.26163402171E+01 -0.30566680168E+01  0.80016168414E+01  0.51100000000E-03 0. -1.
        -11    1    4    4    0    0  0.57165946264E+01 -0.12180393812E+02 -0.12204994000E+02  0.18165993679E+02  0.51100000000E-03 0.  1.
         12    1    4    4    0    0  0.57818542919E+01  0.11259101563E+02 -0.20815222481E+02  0.24361253950E+02  0.00000000000E+00 0. -1.
</event>
<event>
 8    1  0.5829710E-012  0.9118800E+02  0.7816164E-02  0.1184000E+00
        -11   -1    0    0    0    0  0.00000000000E+00  0.00000000000E+00  0.45593999997E+02  0.45594000000E+02  0.51100000000E-03 0. -1.
         11   -1    0    0    0    0 -0.00000000000E+00 -0.00000000000E+00 -0.45593999997E+02  0.45594000000E+02  0.51100000000E-03 0.  1.
         23    2    1    2    0    0  0.35527136788E-14 -0.35527136788E-14  0.00000000000E+00  0.91188000000E+02  0.91188000000E+02 0.  0.
    9900012    2    3    3    0    0  0.25223135379E+02 -0.30839408046E+02 -0.81172695631E+01  0.50528859427E+02  0.29999998715E+02 0.  0.
         12    1    3    3    0    0 -0.25223135379E+02  0.30839408046E+02  0.81172695631E+01  0.40659140573E+02  0.00000000000E+00 0. -1.
         11    1    4    4    0    0  0.16547355179E+01 -0.76951943116E+01  0.70619944366E+01  0.10574778050E+02  0.51100000000E-03 0. -1.
        -11    1    4    4    0    0  0.14771481035E+01  0.22622874401E+01  0.60693778141E+00  0.27691667904E+01  0.51100000000E-03 0.  1.
        -12    1    4    4    0    0  0.22091251757E+02 -0.25406501174E+02 -0.15786201781E+02  0.37184914587E+02  0.00000000000E+00 0.  1.
</event>
<event>
 8    1  0.5829710E-012  0.9118800E+02  0.7816164E-02  0.1184000E+00
        -11   -1    0    0    0    0  0.00000000000E+00  0.00000000000E+00  0.45593999997E+02  0.45594000000E+02  0.51100000000E-03 0. -1.
         11   -1    0    0    0    0 -0.00000000000E+00 -0.00000000000E+00 -0.45593999997E+02  0.45594000000E+02  0.51100000000E-03 0.  1.
         23    2    1    2    0    0  0.00000000000E+00 -0.17763568394E-14  0.71054273576E-14  0.91188000000E+02  0.91188000000E+02 0.  0.
    9900012    2    3    3    0    0  0.17565308390E+02 -0.11438207801E+02  0.34839525213E+02  0.50528866050E+02  0.30000018845E+02 0.  0.
        -12    1    3    3    0    0 -0.17565308390E+02  0.11438207801E+02 -0.34839525213E+02  0.40659133950E+02  0.00000000000E+00 0.  1.
         11    1    4    4    0    0  0.79743147530E+01 -0.96935469508E+01  0.16410361911E+02  0.20660458044E+02  0.51100000000E-03 0. -1.
        -11    1    4    4    0    0  0.15428567262E+01 -0.78468905465E+01  0.18071702638E+02  0.19762098436E+02  0.51100000000E-03 0.  1.
         12    1    4    4    0    0  0.80481369107E+01  0.61022296960E+01  0.35746066423E+00  0.10106309570E+02  0.00000000000E+00 0. -1.
</event>
<event>
 8    1  0.5829710E-012  0.9118800E+02  0.7816164E-02  0.1184000E+00
        -11   -1    0    0    0    0  0.00000000000E+00  0.00000000000E+00  0.45593999997E+02  0.45594000000E+02  0.51100000000E-03 0. -1.
         11   -1    0    0    0    0 -0.00000000000E+00 -0.00000000000E+00 -0.45593999997E+02  0.45594000000E+02  0.51100000000E-03 0.  1.
         23    2    1    2    0    0  0.44408920985E-15  0.00000000000E+00  0.00000000000E+00  0.91188000000E+02  0.91188000000E+02 0.  0.
    9900012    2    3    3    0    0  0.31320045820E+01 -0.15318902056E+02 -0.37532489044E+02  0.50528856542E+02  0.29999989944E+02 0.  0.
         12    1    3    3    0    0 -0.31320045820E+01  0.15318902056E+02  0.37532489044E+02  0.40659143458E+02  0.00000000000E+00 0. -1.
         11    1    4    4    0    0 -0.42261642826E+01  0.52431988956E+01 -0.71274121954E+01  0.98056924317E+01  0.51100000000E-03 0.  1.
        -11    1    4    4    0    0  0.55763036860E+00  0.25198304385E+01 -0.11019638079E+01  0.28062112469E+01  0.51100000000E-03 0. -1.
        -12    1    4    4    0    0  0.68005384960E+01 -0.23081931390E+02 -0.29303113041E+02  0.37916952863E+02  0.00000000000E+00 0.  1.
</event>
<event>
 8    1  0.5829710E-012  0.9118800E+02  0.7816164E-02  0.1184000E+00
        -11   -1    0    0    0    0  0.00000000000E+00  0.00000000000E+00  0.45593999997E+02  0.45594000000E+02  0.51100000000E-03 0. -1.
         11   -1    0    0    0    0 -0.00000000000E+00 -0.00000000000E+00 -0.45593999997E+02  0.45594000000E+02  0.51100000000E-03 0.  1.
         23    2    1    2    0    0 -0.71054273576E-14  0.00000000000E+00  0.71054273576E-14  0.91188000000E+02  0.91188000000E+02 0.  0.
    9900012    2    3    3    0    0  0.20140412084E+02 -0.11279432831E+02 -0.33470941456E+02  0.50528859258E+02  0.29999998201E+02 0.  0.
         12    1    3    3    0    0 -0.20140412084E+02  0.11279432831E+02  0.33470941456E+02  0.40659140742E+02  0.00000000000E+00 0. -1.
         11    1    4    4    0    0  0.20399178173E+02 -0.21270948664E+01 -0.20538631177E+02  0.29025615818E+02  0.51100000000E-03 0. -1.
        -11    1    4    4    0    0 -0.37957236680E+01  0.27835200777E+01 -0.40627117056E+01  0.62178073990E+01  0.51100000000E-03 0.  1.
         12    1    4    4    0    0  0.35369575785E+01 -0.11935858042E+02 -0.88695985735E+01  0.15285436041E+02  0.00000000000E+00 0. -1.
</event>
<event>
 8    1  0.5829710E-012  0.9118800E+02  0.7816164E-02  0.1184000E+00
        -11   -1    0    0    0    0  0.00000000000E+00  0.00000000000E+00  0.45593999997E+02  0.45594000000E+02  0.51100000000E-03 0.  1.
         11   -1    0    0    0    0 -0.00000000000E+00 -0.00000000000E+00 -0.45593999997E+02  0.45594000000E+02  0.51100000000E-03 0. -1.
         23    2    1    2    0    0  0.00000000000E+00 -0.35527136788E-14  0.00000000000E+00  0.91188000000E+02  0.91188000000E+02 0.  0.
    9900012    2    3    3    0    0  0.34940824832E+02 -0.18262201795E+02  0.99397029738E+01  0.50528844210E+02  0.29999952460E+02 0.  0.
        -12    1    3    3    0    0 -0.34940824832E+02  0.18262201795E+02 -0.99397029738E+01  0.40659155790E+02  0.00000000000E+00 0.  1.
         11    1    4    4    0    0  0.21423897106E+02 -0.36759377083E+01  0.47343817537E+01  0.22246578525E+02  0.51100000000E-03 0. -1.
        -11    1    4    4    0    0  0.11222615137E+02  0.16436159246E+01  0.11767277236E+01  0.11403212364E+02  0.51100000000E-03 0.  1.
        -12    1    4    4    0    0  0.22943125896E+01 -0.16229880011E+02  0.40285934965E+01  0.16879053321E+02  0.00000000000E+00 0.  1.
</event>
<event>
 8    1  0.5829710E-012  0.9118800E+02  0.7816164E-02  0.1184000E+00
        -11   -1    0    0    0    0  0.00000000000E+00  0.00000000000E+00  0.45593999997E+02  0.45594000000E+02  0.51100000000E-03 0. -1.
         11   -1    0    0    0    0 -0.00000000000E+00 -0.00000000000E+00 -0.45593999997E+02  0.45594000000E+02  0.51100000000E-03 0.  1.
         23    2    1    2    0    0  0.00000000000E+00  0.00000000000E+00  0.00000000000E+00  0.91188000000E+02  0.91188000000E+02 0.  0.
    9900012    2    3    3    0    0  0.59954349458E+01  0.38825789969E+02 -0.10477523240E+02  0.50528859575E+02  0.29999999163E+02 0.  0.
         12    1    3    3    0    0 -0.59954349458E+01 -0.38825789969E+02  0.10477523240E+02  0.40659140425E+02  0.00000000000E+00 0. -1.
         11    1    4    4    0    0  0.16525471563E+01  0.74680336523E+01  0.62961958077E+01  0.99067916424E+01  0.51100000000E-03 0.  1.
        -11    1    4    4    0    0 -0.18962932867E+01 -0.19696996625E+01  0.12670486750E+00  0.27370968880E+01  0.51100000000E-03 0. -1.
        -12    1    4    4    0    0  0.62391810762E+01  0.33327455979E+02 -0.16900423915E+02  0.37884971044E+02  0.00000000000E+00 0.  1.
</event>
<event>
 8    1  0.5829710E-012  0.9118800E+02  0.7816164E-02  0.1184000E+00
        -11   -1    0    0    0    0  0.00000000000E+00  0.00000000000E+00  0.45593999997E+02  0.45594000000E+02  0.51100000000E-03 0. -1.
         11   -1    0    0    0    0 -0.00000000000E+00 -0.00000000000E+00 -0.45593999997E+02  0.45594000000E+02  0.51100000000E-03 0.  1.
         23    2    1    2    0    0  0.00000000000E+00 -0.17763568394E-14  0.00000000000E+00  0.91188000000E+02  0.91188000000E+02 0.  0.
    9900012    2    3    3    0    0  0.20479566233E+02  0.15391181638E+02 -0.31573164143E+02  0.50528858355E+02  0.29999995457E+02 0.  0.
         12    1    3    3    0    0 -0.20479566233E+02 -0.15391181638E+02  0.31573164143E+02  0.40659141645E+02  0.00000000000E+00 0. -1.
         11    1    4    4    0    0  0.22534365755E+01  0.53490735383E+00 -0.27584023711E+01  0.36017893025E+01  0.51100000000E-03 0. -1.
        -11    1    4    4    0    0  0.82514786059E+01  0.22400608038E+02 -0.14552148643E+02  0.27957810538E+02  0.51100000000E-03 0.  1.
         12    1    4    4    0    0  0.99746510511E+01 -0.75443337537E+01 -0.14262613128E+02  0.18969258515E+02  0.00000000000E+00 0. -1.
</event>
<event>
 8    1  0.5829710E-012  0.9118800E+02  0.7816164E-02  0.1184000E+00
        -11   -1    0    0    0    0  0.00000000000E+00  0.00000000000E+00  0.45593999997E+02  0.45594000000E+02  0.51100000000E-03 0. -1.
         11   -1    0    0    0    0 -0.00000000000E+00 -0.00000000000E+00 -0.45593999997E+02  0.45594000000E+02  0.51100000000E-03 0.  1.
         23    2    1    2    0    0  0.00000000000E+00  0.00000000000E+00  0.00000000000E+00  0.91188000000E+02  0.91188000000E+02 0.  0.
    9900012    2    3    3    0    0 -0.37465129525E+02 -0.25276091193E+01 -0.15592963961E+02  0.50528864947E+02  0.30000015492E+02 0.  0.
         12    1    3    3    0    0  0.37465129525E+02  0.25276091193E+01  0.15592963961E+02  0.40659135053E+02  0.00000000000E+00 0. -1.
         11    1    4    4    0    0 -0.65743829882E+01 -0.49912438189E+01 -0.15930479821E+01  0.84067133096E+01  0.51100000000E-03 0. -1.
        -11    1    4    4    0    0 -0.27592336863E+02 -0.79817741268E+01 -0.91811142768E+01  0.30155242187E+02  0.51100000000E-03 0.  1.
         12    1    4    4    0    0 -0.32984096742E+01  0.10445408826E+02 -0.48188017026E+01  0.11966909450E+02  0.00000000000E+00 0. -1.
</event>
<event>
 8    1  0.5829710E-012  0.9118800E+02  0.7816164E-02  0.1184000E+00
        -11   -1    0    0    0    0  0.00000000000E+00  0.00000000000E+00  0.45593999997E+02  0.45594000000E+02  0.51100000000E-03 0. -1.
         11   -1    0    0    0    0 -0.00000000000E+00 -0.00000000000E+00 -0.45593999997E+02  0.45594000000E+02  0.51100000000E-03 0.  1.
         23    2    1    2    0    0 -0.44408920985E-15  0.00000000000E+00  0.71054273576E-14  0.91188000000E+02  0.91188000000E+02 0.  0.
    9900012    2    3    3    0    0 -0.24645680715E+01 -0.19740743898E+02  0.35459757275E+02  0.50528862633E+02  0.30000008461E+02 0.  0.
        -12    1    3    3    0    0  0.24645680715E+01  0.19740743898E+02 -0.35459757275E+02  0.40659137367E+02  0.00000000000E+00 0.  1.
         11    1    4    4    0    0  0.32598224415E+01 -0.63809849352E+01  0.20119042068E+02  0.21356948871E+02  0.51100000000E-03 0. -1.
        -11    1    4    4    0    0 -0.89710442973E+01 -0.97904342284E+00 -0.21561182876E+00  0.90268848741E+01  0.51100000000E-03 0.  1.
         12    1    4    4    0    0  0.32466537843E+01 -0.12380715540E+02  0.15556327035E+02  0.20145028888E+02  0.00000000000E+00 0. -1.
</event>
<event>
 8    1  0.5829710E-012  0.9118800E+02  0.7816164E-02  0.1184000E+00
        -11   -1    0    0    0    0  0.00000000000E+00  0.00000000000E+00  0.45593999997E+02  0.45594000000E+02  0.51100000000E-03 0. -1.
         11   -1    0    0    0    0 -0.00000000000E+00 -0.00000000000E+00 -0.45593999997E+02  0.45594000000E+02  0.51100000000E-03 0.  1.
         23    2    1    2    0    0  0.00000000000E+00 -0.17763568394E-14  0.00000000000E+00  0.91188000000E+02  0.91188000000E+02 0.  0.
    9900012    2    3    3    0    0  0.35177011446E+02 -0.94420124589E+01 -0.18071844857E+02  0.50528864371E+02  0.30000013742E+02 0.  0.
         12    1    3    3    0    0 -0.35177011446E+02  0.94420124589E+01  0.18071844857E+02  0.40659135629E+02  0.00000000000E+00 0. -1.
         11    1    4    4    0    0 -0.35965254026E+01 -0.16242719841E+01 -0.39579526477E+01  0.55891541285E+01  0.51100000000E-03 0. -1.
        -11    1    4    4    0    0  0.24458879129E+01 -0.50038213975E+01 -0.47480166294E+01  0.73187607172E+01  0.51100000000E-03 0.  1.
         12    1    4    4    0    0  0.36327648936E+02 -0.28139190773E+01 -0.93658755799E+01  0.37620949525E+02  0.00000000000E+00 0. -1.
</event>
<event>
 8    1  0.5829710E-012  0.9118800E+02  0.7816164E-02  0.1184000E+00
        -11   -1    0    0    0    0  0.00000000000E+00  0.00000000000E+00  0.45593999997E+02  0.45594000000E+02  0.51100000000E-03 0. -1.
         11   -1    0    0    0    0 -0.00000000000E+00 -0.00000000000E+00 -0.45593999997E+02  0.45594000000E+02  0.51100000000E-03 0.  1.
         23    2    1    2    0    0  0.00000000000E+00  0.00000000000E+00  0.00000000000E+00  0.91188000000E+02  0.91188000000E+02 0.  0.
    9900012    2    3    3    0    0 -0.39806678142E+01  0.10626491136E+02  0.39043543214E+02  0.50528852237E+02  0.29999976860E+02 0.  0.
        -12    1    3    3    0    0  0.39806678142E+01 -0.10626491136E+02 -0.39043543214E+02  0.40659147763E+02  0.00000000000E+00 0.  1.
         11    1    4    4    0    0  0.10132761337E+01  0.63969414819E+01  0.14771162584E+02  0.16128695955E+02  0.51100000000E-03 0. -1.
        -11    1    4    4    0    0 -0.51999081139E+01  0.47130983718E+01  0.28901462329E+02  0.29741332614E+02  0.51100000000E-03 0.  1.
        -12    1    4    4    0    0  0.20596416594E+00 -0.48354871768E+00 -0.46290816989E+01  0.46588236686E+01  0.00000000000E+00 0.  1.
</event>
<event>
 8    1  0.5829710E-012  0.9118800E+02  0.7816164E-02  0.1184000E+00
        -11   -1    0    0    0    0  0.00000000000E+00  0.00000000000E+00  0.45593999997E+02  0.45594000000E+02  0.51100000000E-03 0. -1.
         11   -1    0    0    0    0 -0.00000000000E+00 -0.00000000000E+00 -0.45593999997E+02  0.45594000000E+02  0.51100000000E-03 0.  1.
         23    2    1    2    0    0 -0.35527136788E-14  0.00000000000E+00  0.35527136788E-14  0.91188000000E+02  0.91188000000E+02 0.  0.
    9900012    2    3    3    0    0  0.29771959703E+02  0.12930387368E+02 -0.24486759521E+02  0.50528857192E+02  0.29999991920E+02 0.  0.
         12    1    3    3    0    0 -0.29771959703E+02 -0.12930387368E+02  0.24486759521E+02  0.40659142808E+02  0.00000000000E+00 0. -1.
         11    1    4    4    0    0  0.20077845947E+00 -0.18171598417E+01  0.10956897253E+01  0.21314122350E+01  0.51100000000E-03 0. -1.
        -11    1    4    4    0    0  0.13436075637E+02 -0.23351917503E+01  0.31804440186E-01  0.13637531331E+02  0.51100000000E-03 0.  1.
        -12    1    4    4    0    0  0.16135105606E+02  0.17082738960E+02 -0.25614253687E+02  0.34759913626E+02  0.00000000000E+00 0.  1.
</event>
<event>
 8    1  0.5829710E-012  0.9118800E+02  0.7816164E-02  0.1184000E+00
        -11   -1    0    0    0    0  0.00000000000E+00  0.00000000000E+00  0.45593999997E+02  0.45594000000E+02  0.51100000000E-03 0.  1.
         11   -1    0    0    0    0 -0.00000000000E+00 -0.00000000000E+00 -0.45593999997E+02  0.45594000000E+02  0.51100000000E-03 0. -1.
         23    2    1    2    0    0 -0.35527136788E-14 -0.35527136788E-14  0.35527136788E-14  0.91188000000E+02  0.91188000000E+02 0.  0.
    9900012    2    3    3    0    0 -0.26925401337E+02 -0.20691959919E+02  0.22361372183E+02  0.50528863163E+02  0.30000010070E+02 0.  0.
        -12    1    3    3    0    0  0.26925401337E+02  0.20691959919E+02 -0.22361372183E+02  0.40659136837E+02  0.00000000000E+00 0.  1.
         11    1    4    4    0    0 -0.88618492979E-01  0.26706085530E+01 -0.29814634888E+01  0.40036393540E+01  0.51100000000E-03 0. -1.
        -11    1    4    4    0    0 -0.97952230117E+00  0.45720334465E+00  0.65935851520E+01  0.66816064127E+01  0.51100000000E-03 0.  1.
         12    1    4    4    0    0 -0.25857260543E+02 -0.23819771816E+02  0.18749250519E+02  0.39843617396E+02  0.00000000000E+00 0. -1.
</event>
<event>
 8    1  0.5829710E-012  0.9118800E+02  0.7816164E-02  0.1184000E+00
        -11   -1    0    0    0    0  0.00000000000E+00  0.00000000000E+00  0.45593999997E+02  0.45594000000E+02  0.51100000000E-03 0. -1.
         11   -1    0    0    0    0 -0.00000000000E+00 -0.00000000000E+00 -0.45593999997E+02  0.45594000000E+02  0.51100000000E-03 0.  1.
         23    2    1    2    0    0  0.00000000000E+00  0.71054273576E-14 -0.35527136788E-14  0.91188000000E+02  0.91188000000E+02 0.  0.
    9900012    2    3    3    0    0 -0.53496113190E+01  0.32313805884E+02 -0.24090732803E+02  0.50528882954E+02  0.30000070228E+02 0.  0.
         12    1    3    3    0    0  0.53496113190E+01 -0.32313805884E+02  0.24090732803E+02  0.40659117046E+02  0.00000000000E+00 0. -1.
         11    1    4    4    0    0  0.54851785978E+01  0.77701305228E+01  0.35281954770E+00  0.95176990121E+01  0.51100000000E-03 0. -1.
        -11    1    4    4    0    0  0.47610061732E+01  0.22982094325E+01 -0.16216611727E+01  0.55298039384E+01  0.51100000000E-03 0.  1.
         12    1    4    4    0    0 -0.15595796090E+02  0.22245465928E+02 -0.22821891178E+02  0.35481380004E+02  0.00000000000E+00 0. -1.
</event>
<event>
 8    1  0.5829710E-012  0.9118800E+02  0.7816164E-02  0.1184000E+00
        -11   -1    0    0    0    0  0.00000000000E+00  0.00000000000E+00  0.45593999997E+02  0.45594000000E+02  0.51100000000E-03 0. -1.
         11   -1    0    0    0    0 -0.00000000000E+00 -0.00000000000E+00 -0.45593999997E+02  0.45594000000E+02  0.51100000000E-03 0.  1.
         23    2    1    2    0    0  0.35527136788E-14 -0.12212453271E-14  0.00000000000E+00  0.91188000000E+02  0.91188000000E+02 0.  0.
    9900012    2    3    3    0    0  0.17187173010E+02  0.51990112271E+00  0.36844210930E+02  0.50528867050E+02  0.30000021884E+02 0.  0.
        -12    1    3    3    0    0 -0.17187173010E+02 -0.51990112271E+00 -0.36844210930E+02  0.40659132950E+02  0.00000000000E+00 0.  1.
         11    1    4    4    0    0  0.78742184036E+01  0.12318625911E+01  0.19867610920E+02  0.21406605636E+02  0.51100000000E-03 0. -1.
        -11    1    4    4    0    0  0.90299131378E+01  0.93790551695E+01  0.12604260750E+02  0.18121076029E+02  0.51100000000E-03 0.  1.
        -12    1    4    4    0    0  0.28304146849E+00 -0.10091016638E+02  0.43723392591E+01  0.11001185384E+02  0.00000000000E+00 0.  1.
</event>
<event>
 8    1  0.5829710E-012  0.9118800E+02  0.7816164E-02  0.1184000E+00
        -11   -1    0    0    0    0  0.00000000000E+00  0.00000000000E+00  0.45593999997E+02  0.45594000000E+02  0.51100000000E-03 0. -1.
         11   -1    0    0    0    0 -0.00000000000E+00 -0.00000000000E+00 -0.45593999997E+02  0.45594000000E+02  0.51100000000E-03 0.  1.
         23    2    1    2    0    0  0.00000000000E+00  0.88817841970E-15  0.00000000000E+00  0.91188000000E+02  0.91188000000E+02 0.  0.
    9900012    2    3    3    0    0 -0.17347567390E+02  0.72429891096E+01 -0.36052287418E+02  0.50528850800E+02  0.29999972492E+02 0.  0.
         12    1    3    3    0    0  0.17347567390E+02 -0.72429891096E+01  0.36052287418E+02  0.40659149200E+02  0.00000000000E+00 0. -1.
         11    1    4    4    0    0  0.11491487324E+01 -0.45565630699E+01  0.22370578849E+01  0.52045401392E+01  0.51100000000E-03 0. -1.
        -11    1    4    4    0    0 -0.70539034027E+01  0.41616410229E+01 -0.57815455564E+01  0.10025122368E+02  0.51100000000E-03 0.  1.
        -12    1    4    4    0    0 -0.11442812720E+02  0.76379111566E+01 -0.32507799746E+02  0.35299188293E+02  0.00000000000E+00 0.  1.
</event>
<event>
 8    1  0.5829710E-012  0.9118800E+02  0.7816164E-02  0.1184000E+00
        -11   -1    0    0    0    0  0.00000000000E+00  0.00000000000E+00  0.45593999997E+02  0.45594000000E+02  0.51100000000E-03 0. -1.
         11   -1    0    0    0    0 -0.00000000000E+00 -0.00000000000E+00 -0.45593999997E+02  0.45594000000E+02  0.51100000000E-03 0.  1.
         23    2    1    2    0    0  0.35527136788E-14  0.26645352591E-14  0.35527136788E-14  0.91188000000E+02  0.91188000000E+02 0.  0.
    9900012    2    3    3    0    0  0.31816455807E+02 -0.67345852599E+01 -0.24403371888E+02  0.50528855171E+02  0.29999985778E+02 0.  0.
         12    1    3    3    0    0 -0.31816455807E+02  0.67345852599E+01  0.24403371888E+02  0.40659144829E+02  0.00000000000E+00 0. -1.
         11    1    4    4    0    0  0.38107161650E+01 -0.24101130162E+01 -0.11344619250E+01  0.46494307782E+01  0.51100000000E-03 0. -1.
        -11    1    4    4    0    0  0.30811773466E+02 -0.10474741431E+02 -0.21077247871E+02  0.38772876734E+02  0.51100000000E-03 0.  1.
         12    1    4    4    0    0 -0.28060338242E+01  0.61502691873E+01 -0.21916620920E+01  0.71065476586E+01  0.00000000000E+00 0. -1.
</event>
<event>
 8    1  0.5829710E-012  0.9118800E+02  0.7816164E-02  0.1184000E+00
        -11   -1    0    0    0    0  0.00000000000E+00  0.00000000000E+00  0.45593999997E+02  0.45594000000E+02  0.51100000000E-03 0. -1.
         11   -1    0    0    0    0 -0.00000000000E+00 -0.00000000000E+00 -0.45593999997E+02  0.45594000000E+02  0.51100000000E-03 0.  1.
         23    2    1    2    0    0  0.55511151231E-16  0.00000000000E+00  0.00000000000E+00  0.91188000000E+02  0.91188000000E+02 0.  0.
    9900012    2    3    3    0    0  0.38983021113E+00 -0.39216043845E+02  0.10729224604E+02  0.50528851914E+02  0.29999975878E+02 0.  0.
        -12    1    3    3    0    0 -0.38983021113E+00  0.39216043845E+02 -0.10729224604E+02  0.40659148086E+02  0.00000000000E+00 0.  1.
         11    1    4    4    0    0 -0.22325060822E+00 -0.27069959324E+02 -0.29891012771E+01  0.27235404629E+02  0.51100000000E-03 0. -1.
        -11    1    4    4    0    0  0.43503693616E+01 -0.11620365655E+02  0.42748751608E+01  0.13123763539E+02  0.51100000000E-03 0.  1.
        -12    1    4    4    0    0 -0.37372885422E+01 -0.52571886680E+00  0.94434507201E+01  0.10169683745E+02  0.00000000000E+00 0.  1.
</event>
<event>
 8    1  0.5829710E-012  0.9118800E+02  0.7816164E-02  0.1184000E+00
        -11   -1    0    0    0    0  0.00000000000E+00  0.00000000000E+00  0.45593999997E+02  0.45594000000E+02  0.51100000000E-03 0. -1.
         11   -1    0    0    0    0 -0.00000000000E+00 -0.00000000000E+00 -0.45593999997E+02  0.45594000000E+02  0.51100000000E-03 0.  1.
         23    2    1    2    0    0  0.00000000000E+00  0.00000000000E+00  0.00000000000E+00  0.91188000000E+02  0.91188000000E+02 0.  0.
    9900012    2    3    3    0    0  0.36925225105E+02  0.22386203452E+01 -0.16872535373E+02  0.50528854411E+02  0.29999983467E+02 0.  0.
         12    1    3    3    0    0 -0.36925225105E+02 -0.22386203452E+01  0.16872535373E+02  0.40659145589E+02  0.00000000000E+00 0. -1.
         11    1    4    4    0    0 -0.17796525428E+01  0.14134102526E+01 -0.42026691863E+01  0.47777944981E+01  0.51100000000E-03 0.  1.
        -11    1    4    4    0    0 -0.49731220731E+00 -0.43153068016E+01 -0.44566481114E+00  0.43666703114E+01  0.51100000000E-03 0. -1.
         12    1    4    4    0    0  0.39202189855E+02  0.51405168942E+01 -0.12224201376E+02  0.41384389601E+02  0.00000000000E+00 0. -1.
</event>
<event>
 8    1  0.5829710E-012  0.9118800E+02  0.7816164E-02  0.1184000E+00
        -11   -1    0    0    0    0  0.00000000000E+00  0.00000000000E+00  0.45593999997E+02  0.45594000000E+02  0.51100000000E-03 0. -1.
         11   -1    0    0    0    0 -0.00000000000E+00 -0.00000000000E+00 -0.45593999997E+02  0.45594000000E+02  0.51100000000E-03 0.  1.
         23    2    1    2    0    0  0.00000000000E+00 -0.88817841970E-15  0.71054273576E-14  0.91188000000E+02  0.91188000000E+02 0.  0.
    9900012    2    3    3    0    0  0.14645320580E+02 -0.64431507892E+01 -0.37378674780E+02  0.50528868980E+02  0.30000027751E+02 0.  0.
         12    1    3    3    0    0 -0.14645320580E+02  0.64431507892E+01  0.37378674780E+02  0.40659131020E+02  0.00000000000E+00 0. -1.
         11    1    4    4    0    0 -0.19112040506E+01 -0.96977260081E+01 -0.15731253485E+02  0.18578776255E+02  0.51100000000E-03 0. -1.
        -11    1    4    4    0    0  0.55537518384E+01 -0.30406302166E+01  0.58404880088E+00  0.63585143594E+01  0.51100000000E-03 0.  1.
        -12    1    4    4    0    0  0.11002772793E+02  0.62952054355E+01 -0.22231470096E+02  0.25591578365E+02  0.00000000000E+00 0.  1.
</event>
<event>
 8    1  0.5829710E-012  0.9118800E+02  0.7816164E-02  0.1184000E+00
        -11   -1    0    0    0    0  0.00000000000E+00  0.00000000000E+00  0.45593999997E+02  0.45594000000E+02  0.51100000000E-03 0.  1.
         11   -1    0    0    0    0 -0.00000000000E+00 -0.00000000000E+00 -0.45593999997E+02  0.45594000000E+02  0.51100000000E-03 0. -1.
         23    2    1    2    0    0  0.00000000000E+00  0.00000000000E+00  0.00000000000E+00  0.91188000000E+02  0.91188000000E+02 0.  0.
    9900012    2    3    3    0    0 -0.25438906899E+02 -0.29614602771E+02 -0.11357994278E+02  0.50528847088E+02  0.29999961209E+02 0.  0.
         12    1    3    3    0    0  0.25438906899E+02  0.29614602771E+02  0.11357994278E+02  0.40659152912E+02  0.00000000000E+00 0. -1.
         11    1    4    4    0    0  0.43045274448E+01 -0.21027826739E+01 -0.49454126831E+01  0.68853292124E+01  0.51100000000E-03 0. -1.
        -11    1    4    4    0    0 -0.44166366224E+01 -0.38837184834E+01 -0.68177410665E+01  0.90039736685E+01  0.51100000000E-03 0.  1.
        -12    1    4    4    0    0 -0.25326797722E+02 -0.23628101613E+02  0.40515947178E+00  0.34639544207E+02  0.00000000000E+00 0.  1.
</event>
<event>
 8    1  0.5829710E-012  0.9118800E+02  0.7816164E-02  0.1184000E+00
        -11   -1    0    0    0    0  0.00000000000E+00  0.00000000000E+00  0.45593999997E+02  0.45594000000E+02  0.51100000000E-03 0. -1.
         11   -1    0    0    0    0 -0.00000000000E+00 -0.00000000000E+00 -0.45593999997E+02  0.45594000000E+02  0.51100000000E-03 0.  1.
         23    2    1    2    0    0 -0.17763568394E-14  0.35527136788E-14  0.00000000000E+00  0.91188000000E+02  0.91188000000E+02 0.  0.
    9900012    2    3    3    0    0 -0.14270126535E+02  0.25794143159E+02 -0.28003417177E+02  0.50528859500E+02  0.29999998935E+02 0.  0.
         12    1    3    3    0    0  0.14270126535E+02 -0.25794143159E+02  0.28003417177E+02  0.40659140500E+02  0.00000000000E+00 0. -1.
         11    1    4    4    0    0 -0.11517848440E+01  0.42183067965E+01  0.59230663373E+00  0.44126576987E+01  0.51100000000E-03 0. -1.
        -11    1    4    4    0    0 -0.15961884316E+02  0.10157130977E+02 -0.47220019683E+01  0.19499906755E+02  0.51100000000E-03 0.  1.
        -12    1    4    4    0    0  0.28435426253E+01  0.11418705386E+02 -0.23873721842E+02  0.26616295046E+02  0.00000000000E+00 0.  1.
</event>
<event>
 8    1  0.6422999E-012  0.9118800E+02  0.7816164E-02  0.1184000E+00
        -11   -1    0    0    0    0  0.00000000000E+00  0.00000000000E+00  0.45593999997E+02  0.45594000000E+02  0.51100000000E-03 0. -1.
         11   -1    0    0    0    0 -0.00000000000E+00 -0.00000000000E+00 -0.45593999997E+02  0.45594000000E+02  0.51100000000E-03 0.  1.
         23    2    1    2    0    0  0.00000000000E+00  0.00000000000E+00  0.00000000000E+00  0.91188000000E+02  0.91188000000E+02 0.  0.
    9900012    2    3    3    0    0 -0.16456366562E+02  0.22164752782E+02 -0.29850915853E+02  0.50528862730E+02  0.30000008753E+02 0.  0.
         12    1    3    3    0    0  0.16456366562E+02 -0.22164752782E+02  0.29850915853E+02  0.40659137270E+02  0.00000000000E+00 0. -1.
         11    1    4    4    0    0 -0.91046294635E+00 -0.13598452421E+01 -0.11673164834E+02  0.11787319430E+02  0.51100000000E-03 0. -1.
        -11    1    4    4    0    0 -0.63300391197E+01  0.81504467254E+01 -0.18078390772E+02  0.20816517246E+02  0.51100000000E-03 0.  1.
         12    1    4    4    0    0 -0.92158644956E+01  0.15374151299E+02 -0.99360247852E-01  0.17925026054E+02  0.00000000000E+00 0. -1.
</event>
<event>
 8    1  0.8976364E-012  0.9118800E+02  0.7816164E-02  0.1184000E+00
        -11   -1    0    0    0    0  0.00000000000E+00  0.00000000000E+00  0.45593999997E+02  0.45594000000E+02  0.51100000000E-03 0. -1.
         11   -1    0    0    0    0 -0.00000000000E+00 -0.00000000000E+00 -0.45593999997E+02  0.45594000000E+02  0.51100000000E-03 0.  1.
         23    2    1    2    0    0 -0.35527136788E-14  0.00000000000E+00 -0.35527136788E-14  0.91188000000E+02  0.91188000000E+02 0.  0.
    9900012    2    3    3    0    0 -0.25130255143E+02 -0.11248743838E+02 -0.29918278534E+02  0.50528839262E+02  0.29999937422E+02 0.  0.
         12    1    3    3    0    0  0.25130255143E+02  0.11248743838E+02  0.29918278534E+02  0.40659160738E+02  0.00000000000E+00 0. -1.
         11    1    4    4    0    0 -0.95966720132E+01  0.40632684404E+01 -0.82726247222E+01  0.13305735012E+02  0.51100000000E-03 0. -1.
        -11    1    4    4    0    0 -0.16310763441E+02 -0.14115089723E+02 -0.25331258776E+02  0.33270849604E+02  0.51100000000E-03 0.  1.
         12    1    4    4    0    0  0.77718031101E+00 -0.11969225553E+01  0.36856049647E+01  0.39522546470E+01  0.00000000000E+00 0. -1.
</event>
<event>
 8    1  0.5829710E-012  0.9118800E+02  0.7816164E-02  0.1184000E+00
        -11   -1    0    0    0    0  0.00000000000E+00  0.00000000000E+00  0.45593999997E+02  0.45594000000E+02  0.51100000000E-03 0. -1.
         11   -1    0    0    0    0 -0.00000000000E+00 -0.00000000000E+00 -0.45593999997E+02  0.45594000000E+02  0.51100000000E-03 0.  1.
         23    2    1    2    0    0 -0.71054273576E-14 -0.88817841970E-15 -0.17763568394E-14  0.91188000000E+02  0.91188000000E+02 0.  0.
    9900012    2    3    3    0    0  0.38661631727E+02  0.79668881325E+01  0.97453930845E+01  0.50528858830E+02  0.29999996899E+02 0.  0.
        -12    1    3    3    0    0 -0.38661631727E+02 -0.79668881325E+01 -0.97453930845E+01  0.40659141170E+02  0.00000000000E+00 0.  1.
         11    1    4    4    0    0  0.67445686127E+01  0.11244059547E+01  0.48763161279E+01  0.83983304152E+01  0.51100000000E-03 0. -1.
        -11    1    4    4    0    0 -0.33926777984E+00  0.61760078708E+01  0.75452824757E+01  0.97565087888E+01  0.51100000000E-03 0.  1.
        -12    1    4    4    0    0  0.32256330894E+02  0.66647430700E+00 -0.26762055192E+01  0.32374019626E+02  0.00000000000E+00 0.  1.
</event>
<event>
 8    1  0.5829710E-012  0.9118800E+02  0.7816164E-02  0.1184000E+00
        -11   -1    0    0    0    0  0.00000000000E+00  0.00000000000E+00  0.45593999997E+02  0.45594000000E+02  0.51100000000E-03 0. -1.
         11   -1    0    0    0    0 -0.00000000000E+00 -0.00000000000E+00 -0.45593999997E+02  0.45594000000E+02  0.51100000000E-03 0.  1.
         23    2    1    2    0    0  0.35527136788E-14  0.00000000000E+00  0.17763568394E-14  0.91188000000E+02  0.91188000000E+02 0.  0.
    9900012    2    3    3    0    0  0.18220730936E+02 -0.33801257050E+02 -0.13365856495E+02  0.50528854241E+02  0.29999982951E+02 0.  0.
         12    1    3    3    0    0 -0.18220730936E+02  0.33801257050E+02  0.13365856495E+02  0.40659145759E+02  0.00000000000E+00 0. -1.
         11    1    4    4    0    0 -0.43755623977E+01 -0.94083960188E+01  0.30886559593E+01  0.10826045346E+02  0.51100000000E-03 0.  1.
        -11    1    4    4    0    0 -0.57482177020E+00 -0.25940773556E+01  0.16215818442E+01  0.31127456262E+01  0.51100000000E-03 0. -1.
        -12    1    4    4    0    0  0.23171115103E+02 -0.21798783676E+02 -0.18076094299E+02  0.36590063268E+02  0.00000000000E+00 0.  1.
</event>
<event>
 8    1  0.5829710E-012  0.9118800E+02  0.7816164E-02  0.1184000E+00
        -11   -1    0    0    0    0  0.00000000000E+00  0.00000000000E+00  0.45593999997E+02  0.45594000000E+02  0.51100000000E-03 0. -1.
         11   -1    0    0    0    0 -0.00000000000E+00 -0.00000000000E+00 -0.45593999997E+02  0.45594000000E+02  0.51100000000E-03 0.  1.
         23    2    1    2    0    0  0.44408920985E-15  0.00000000000E+00  0.00000000000E+00  0.91188000000E+02  0.91188000000E+02 0.  0.
    9900012    2    3    3    0    0 -0.19719561325E+01 -0.24182600744E+02  0.32626350949E+02  0.50528861224E+02  0.30000004177E+02 0.  0.
        -12    1    3    3    0    0  0.19719561325E+01  0.24182600744E+02 -0.32626350949E+02  0.40659138776E+02  0.00000000000E+00 0.  1.
         11    1    4    4    0    0 -0.16899953539E+01  0.53074929970E+00  0.12040990312E+02  0.12170588608E+02  0.51100000000E-03 0. -1.
        -11    1    4    4    0    0 -0.53136841664E+01 -0.49693406092E+01 -0.23824482906E+01  0.76554324260E+01  0.51100000000E-03 0.  1.
         12    1    4    4    0    0  0.50317233878E+01 -0.19744009435E+02  0.22967808928E+02  0.30702840190E+02  0.00000000000E+00 0. -1.
</event>
<event>
 8    1  0.5829710E-012  0.9118800E+02  0.7816164E-02  0.1184000E+00
        -11   -1    0    0    0    0  0.00000000000E+00  0.00000000000E+00  0.45593999997E+02  0.45594000000E+02  0.51100000000E-03 0. -1.
         11   -1    0    0    0    0 -0.00000000000E+00 -0.00000000000E+00 -0.45593999997E+02  0.45594000000E+02  0.51100000000E-03 0.  1.
         23    2    1    2    0    0  0.00000000000E+00  0.00000000000E+00 -0.35527136788E-14  0.91188000000E+02  0.91188000000E+02 0.  0.
    9900012    2    3    3    0    0 -0.25149540411E+02  0.22758043520E+02  0.22421800967E+02  0.50528867123E+02  0.30000022106E+02 0.  0.
        -12    1    3    3    0    0  0.25149540411E+02 -0.22758043520E+02 -0.22421800967E+02  0.40659132877E+02  0.00000000000E+00 0.  1.
         11    1    4    4    0    0 -0.19146058623E+02  0.11384212201E+02  0.26132327014E+02  0.34337594029E+02  0.51100000000E-03 0. -1.
        -11    1    4    4    0    0  0.22647361098E-01 -0.54669153103E+00 -0.27453122214E+01  0.27993077693E+01  0.51100000000E-03 0.  1.
        -12    1    4    4    0    0 -0.60261291486E+01  0.11920522850E+02 -0.96521382568E+00  0.13391965325E+02  0.00000000000E+00 0.  1.
</event>
<event>
 8    1  0.5829710E-012  0.9118800E+02  0.7816164E-02  0.1184000E+00
        -11   -1    0    0    0    0  0.00000000000E+00  0.00000000000E+00  0.45593999997E+02  0.45594000000E+02  0.51100000000E-03 0. -1.
         11   -1    0    0    0    0 -0.00000000000E+00 -0.00000000000E+00 -0.45593999997E+02  0.45594000000E+02  0.51100000000E-03 0.  1.
         23    2    1    2    0    0  0.00000000000E+00  0.00000000000E+00  0.00000000000E+00  0.91188000000E+02  0.91188000000E+02 0.  0.
    9900012    2    3    3    0    0  0.80075957357E+01 -0.88007485814E+01 -0.38879184046E+02  0.50528859365E+02  0.29999998526E+02 0.  0.
         12    1    3    3    0    0 -0.80075957357E+01  0.88007485814E+01  0.38879184046E+02  0.40659140635E+02  0.00000000000E+00 0. -1.
         11    1    4    4    0    0  0.74562120025E+01 -0.64693473766E+01 -0.59020329217E+01  0.11501371474E+02  0.51100000000E-03 0. -1.
        -11    1    4    4    0    0  0.82128781205E+00  0.65266430053E+01 -0.21022255202E+01  0.69058623638E+01  0.51100000000E-03 0.  1.
        -12    1    4    4    0    0 -0.26990407886E+00 -0.88580442101E+01 -0.30874925605E+02  0.32121625527E+02  0.00000000000E+00 0.  1.
</event>
<event>
 8    1  0.5829710E-012  0.9118800E+02  0.7816164E-02  0.1184000E+00
        -11   -1    0    0    0    0  0.00000000000E+00  0.00000000000E+00  0.45593999997E+02  0.45594000000E+02  0.51100000000E-03 0. -1.
         11   -1    0    0    0    0 -0.00000000000E+00 -0.00000000000E+00 -0.45593999997E+02  0.45594000000E+02  0.51100000000E-03 0.  1.
         23    2    1    2    0    0  0.71054273576E-14  0.00000000000E+00  0.17763568394E-14  0.91188000000E+02  0.91188000000E+02 0.  0.
    9900012    2    3    3    0    0  0.24565589706E+02  0.30830341121E+02  0.99593103959E+01  0.50528855951E+02  0.29999988148E+02 0.  0.
        -12    1    3    3    0    0 -0.24565589706E+02 -0.30830341121E+02 -0.99593103959E+01  0.40659144049E+02  0.00000000000E+00 0.  1.
         11    1    4    4    0    0  0.21348653857E+02  0.58263139228E+01  0.10845856841E+02  0.24644341466E+02  0.51100000000E-03 0. -1.
        -11    1    4    4    0    0  0.26914362824E+01  0.40969792889E+01 -0.82431397030E+00  0.49707707992E+01  0.51100000000E-03 0.  1.
        -12    1    4    4    0    0  0.52549956713E+00  0.20907047909E+02 -0.62232474600E-01  0.20913743686E+02  0.00000000000E+00 0.  1.
</event>
<event>
 8    1  0.5829710E-012  0.9118800E+02  0.7816164E-02  0.1184000E+00
        -11   -1    0    0    0    0  0.00000000000E+00  0.00000000000E+00  0.45593999997E+02  0.45594000000E+02  0.51100000000E-03 0. -1.
         11   -1    0    0    0    0 -0.00000000000E+00 -0.00000000000E+00 -0.45593999997E+02  0.45594000000E+02  0.51100000000E-03 0.  1.
         23    2    1    2    0    0 -0.88817841970E-15  0.00000000000E+00 -0.35527136788E-14  0.91188000000E+02  0.91188000000E+02 0.  0.
    9900012    2    3    3    0    0 -0.28722799328E+01  0.30778095262E+02 -0.26412522818E+02  0.50528898908E+02  0.30000118721E+02 0.  0.
         12    1    3    3    0    0  0.28722799328E+01 -0.30778095262E+02  0.26412522818E+02  0.40659101092E+02  0.00000000000E+00 0. -1.
         11    1    4    4    0    0 -0.64610189744E+01  0.11280934812E+02 -0.12400069492E+02  0.17965688968E+02  0.51100000000E-03 0.  1.
        -11    1    4    4    0    0 -0.35042917999E+01  0.15924130233E+02 -0.17473764174E+02  0.23899590360E+02  0.51100000000E-03 0. -1.
         12    1    4    4    0    0  0.70930308415E+01  0.35730302168E+01  0.34613108481E+01  0.86636195805E+01  0.00000000000E+00 0. -1.
</event>
<event>
 8    1  0.5829710E-012  0.9118800E+02  0.7816164E-02  0.1184000E+00
        -11   -1    0    0    0    0  0.00000000000E+00  0.00000000000E+00  0.45593999997E+02  0.45594000000E+02  0.51100000000E-03 0.  1.
         11   -1    0    0    0    0 -0.00000000000E+00 -0.00000000000E+00 -0.45593999997E+02  0.45594000000E+02  0.51100000000E-03 0. -1.
         23    2    1    2    0    0 -0.33306690739E-15  0.00000000000E+00  0.00000000000E+00  0.91188000000E+02  0.91188000000E+02 0.  0.
    9900012    2    3    3    0    0 -0.38867738866E+00 -0.32627174760E+02 -0.24258637853E+02  0.50528866789E+02  0.30000021093E+02 0.  0.
         12    1    3    3    0    0  0.38867738866E+00  0.32627174760E+02  0.24258637853E+02  0.40659133211E+02  0.00000000000E+00 0. -1.
         11    1    4    4    0    0  0.69757220415E+01 -0.50972478603E+01 -0.14382869330E+01  0.87584989189E+01  0.51100000000E-03 0. -1.
        -11    1    4    4    0    0  0.68964463645E+00 -0.25927920923E+02 -0.20967292078E+02  0.33352061862E+02  0.51100000000E-03 0.  1.
        -12    1    4    4    0    0 -0.80540440666E+01 -0.16020059769E+01 -0.18530588415E+01  0.84183060081E+01  0.00000000000E+00 0.  1.
</event>
<event>
 8    1  0.6311648E-012  0.9118800E+02  0.7816164E-02  0.1184000E+00
        -11   -1    0    0    0    0  0.00000000000E+00  0.00000000000E+00  0.45593999997E+02  0.45594000000E+02  0.51100000000E-03 0. -1.
         11   -1    0    0    0    0 -0.00000000000E+00 -0.00000000000E+00 -0.45593999997E+02  0.45594000000E+02  0.51100000000E-03 0.  1.
         23    2    1    2    0    0  0.00000000000E+00  0.00000000000E+00  0.00000000000E+00  0.91188000000E+02  0.91188000000E+02 0.  0.
    9900012    2    3    3    0    0  0.24653770511E+02  0.94957829213E+01 -0.30906104942E+02  0.50528860604E+02  0.30000002293E+02 0.  0.
         12    1    3    3    0    0 -0.24653770511E+02 -0.94957829213E+01  0.30906104942E+02  0.40659139396E+02  0.00000000000E+00 0. -1.
         11    1    4    4    0    0  0.22730522471E+02 -0.82092580535E+00 -0.25783159346E+02  0.34381999318E+02  0.51100000000E-03 0. -1.
        -11    1    4    4    0    0  0.60397470719E+01  0.26273087400E+01 -0.23922033720E+01  0.70074198634E+01  0.51100000000E-03 0.  1.
         12    1    4    4    0    0 -0.41164990317E+01  0.76893999867E+01 -0.27307422243E+01  0.91394414232E+01  0.00000000000E+00 0. -1.
</event>
<event>
 8    1  0.5829710E-012  0.9118800E+02  0.7816164E-02  0.1184000E+00
        -11   -1    0    0    0    0  0.00000000000E+00  0.00000000000E+00  0.45593999997E+02  0.45594000000E+02  0.51100000000E-03 0. -1.
         11   -1    0    0    0    0 -0.00000000000E+00 -0.00000000000E+00 -0.45593999997E+02  0.45594000000E+02  0.51100000000E-03 0.  1.
         23    2    1    2    0    0  0.00000000000E+00  0.00000000000E+00  0.00000000000E+00  0.91188000000E+02  0.91188000000E+02 0.  0.
    9900012    2    3    3    0    0 -0.23237840107E+02  0.21174904053E+02  0.25783552472E+02  0.50528863849E+02  0.30000012154E+02 0.  0.
        -12    1    3    3    0    0  0.23237840107E+02 -0.21174904053E+02 -0.25783552472E+02  0.40659136151E+02  0.00000000000E+00 0.  1.
         11    1    4    4    0    0 -0.15121283949E+01 -0.42955387211E-02  0.21203100581E+01  0.26042783526E+01  0.51100000000E-03 0. -1.
        -11    1    4    4    0    0 -0.21542846416E+02  0.57307068075E+01  0.35663286065E+01  0.22575516211E+02  0.51100000000E-03 0.  1.
         12    1    4    4    0    0 -0.18286529622E+00  0.15448492784E+02  0.20096913808E+02  0.25349069285E+02  0.00000000000E+00 0. -1.
</event>
<event>
 8    1  0.5829710E-012  0.9118800E+02  0.7816164E-02  0.1184000E+00
        -11   -1    0    0    0    0  0.00000000000E+00  0.00000000000E+00  0.45593999997E+02  0.45594000000E+02  0.51100000000E-03 0. -1.
         11   -1    0    0    0    0 -0.00000000000E+00 -0.00000000000E+00 -0.45593999997E+02  0.45594000000E+02  0.51100000000E-03 0.  1.
         23    2    1    2    0    0  0.00000000000E+00  0.00000000000E+00  0.00000000000E+00  0.91188000000E+02  0.91188000000E+02 0.  0.
    9900012    2    3    3    0    0 -0.39026250690E+02 -0.24008071132E+01 -0.11151149072E+02  0.50528926679E+02  0.30000203132E+02 0.  0.
        -12    1    3    3    0    0  0.39026250690E+02  0.24008071132E+01  0.11151149072E+02  0.40659073321E+02  0.00000000000E+00 0.  1.
         11    1    4    4    0    0 -0.17631382306E+01  0.12905020503E+01  0.32771461816E+01  0.39387484458E+01  0.51100000000E-03 0.  1.
        -11    1    4    4    0    0 -0.28303064728E+02  0.29185061171E+01 -0.19357523754E+02  0.34413585647E+02  0.51100000000E-03 0. -1.
         12    1    4    4    0    0 -0.89600477313E+01 -0.66098152807E+01  0.49292285000E+01  0.12176592586E+02  0.00000000000E+00 0. -1.
</event>
<event>
 8    1  0.5829710E-012  0.9118800E+02  0.7816164E-02  0.1184000E+00
        -11   -1    0    0    0    0  0.00000000000E+00  0.00000000000E+00  0.45593999997E+02  0.45594000000E+02  0.51100000000E-03 0. -1.
         11   -1    0    0    0    0 -0.00000000000E+00 -0.00000000000E+00 -0.45593999997E+02  0.45594000000E+02  0.51100000000E-03 0.  1.
         23    2    1    2    0    0  0.71054273576E-14 -0.17763568394E-14  0.35527136788E-14  0.91188000000E+02  0.91188000000E+02 0.  0.
    9900012    2    3    3    0    0 -0.34538157802E+02  0.93188084403E+01 -0.19324618538E+02  0.50528863059E+02  0.30000009755E+02 0.  0.
         12    1    3    3    0    0  0.34538157802E+02 -0.93188084403E+01  0.19324618538E+02  0.40659136941E+02  0.00000000000E+00 0. -1.
         11    1    4    4    0    0 -0.27744620471E+01  0.80961929248E+00 -0.84940750535E+01  0.89723148810E+01  0.51100000000E-03 0.  1.
        -11    1    4    4    0    0 -0.16144452254E+00 -0.45727672570E+01 -0.51432817096E+01  0.68840113107E+01  0.51100000000E-03 0. -1.
        -12    1    4    4    0    0 -0.31602251233E+02  0.13081956405E+02 -0.56872617751E+01  0.34672536868E+02  0.00000000000E+00 0.  1.
</event>
<event>
 8    1  0.5829710E-012  0.9118800E+02  0.7816164E-02  0.1184000E+00
        -11   -1    0    0    0    0  0.00000000000E+00  0.00000000000E+00  0.45593999997E+02  0.45594000000E+02  0.51100000000E-03 0. -1.
         11   -1    0    0    0    0 -0.00000000000E+00 -0.00000000000E+00 -0.45593999997E+02  0.45594000000E+02  0.51100000000E-03 0.  1.
         23    2    1    2    0    0  0.00000000000E+00  0.00000000000E+00  0.00000000000E+00  0.91188000000E+02  0.91188000000E+02 0.  0.
    9900012    2    3    3    0    0 -0.17638226087E+02  0.25846651597E+02 -0.25961731128E+02  0.50528832505E+02  0.29999916881E+02 0.  0.
         12    1    3    3    0    0  0.17638226087E+02 -0.25846651597E+02  0.25961731128E+02  0.40659167495E+02  0.00000000000E+00 0. -1.
         11    1    4    4    0    0 -0.12073079260E+01  0.16261438008E+02 -0.10477971436E+02  0.19382462284E+02  0.51100000000E-03 0. -1.
        -11    1    4    4    0    0 -0.17086813783E+01  0.11540124424E+02 -0.38633031799E+01  0.12288985943E+02  0.51100000000E-03 0.  1.
         12    1    4    4    0    0 -0.14722236783E+02 -0.19549108357E+01 -0.11620456511E+02  0.18857384278E+02  0.00000000000E+00 0. -1.
</event>
<event>
 8    1  0.5829710E-012  0.9118800E+02  0.7816164E-02  0.1184000E+00
        -11   -1    0    0    0    0  0.00000000000E+00  0.00000000000E+00  0.45593999997E+02  0.45594000000E+02  0.51100000000E-03 0.  1.
         11   -1    0    0    0    0 -0.00000000000E+00 -0.00000000000E+00 -0.45593999997E+02  0.45594000000E+02  0.51100000000E-03 0. -1.
         23    2    1    2    0    0  0.00000000000E+00  0.00000000000E+00 -0.22204460493E-15  0.91188000000E+02  0.91188000000E+02 0.  0.
    9900012    2    3    3    0    0 -0.44197119657E+01 -0.40417313835E+02  0.28227170923E+00  0.50528772403E+02  0.29999734194E+02 0.  0.
         12    1    3    3    0    0  0.44197119657E+01  0.40417313835E+02 -0.28227170923E+00  0.40659227597E+02  0.00000000000E+00 0. -1.
         11    1    4    4    0    0 -0.20091021952E+01 -0.65005499642E+01 -0.57649266463E+01  0.89178484493E+01  0.51100000000E-03 0. -1.
        -11    1    4    4    0    0  0.97232856105E+00  0.17525998631E+01 -0.39357957095E+01  0.44167315108E+01  0.51100000000E-03 0.  1.
        -12    1    4    4    0    0 -0.33829383315E+01 -0.35669363734E+02  0.99829940650E+01  0.37194192442E+02  0.00000000000E+00 0.  1.
</event>
<event>
 8    1  0.5829710E-012  0.9118800E+02  0.7816164E-02  0.1184000E+00
        -11   -1    0    0    0    0  0.00000000000E+00  0.00000000000E+00  0.45593999997E+02  0.45594000000E+02  0.51100000000E-03 0. -1.
         11   -1    0    0    0    0 -0.00000000000E+00 -0.00000000000E+00 -0.45593999997E+02  0.45594000000E+02  0.51100000000E-03 0.  1.
         23    2    1    2    0    0  0.00000000000E+00  0.00000000000E+00  0.35527136788E-14  0.91188000000E+02  0.91188000000E+02 0.  0.
    9900012    2    3    3    0    0 -0.31449596004E+01  0.27279953137E+02 -0.29984780009E+02  0.50528761859E+02  0.29999702144E+02 0.  0.
         12    1    3    3    0    0  0.31449596004E+01 -0.27279953137E+02  0.29984780009E+02  0.40659238141E+02  0.00000000000E+00 0. -1.
         11    1    4    4    0    0 -0.65659202896E+01  0.29694975979E+01 -0.66045810497E+01  0.97749535209E+01  0.51100000000E-03 0. -1.
        -11    1    4    4    0    0 -0.17815199548E+01  0.21001480062E+02 -0.26487023751E+02  0.33849644098E+02  0.51100000000E-03 0.  1.
        -12    1    4    4    0    0  0.52024806441E+01  0.33089754771E+01  0.31068247914E+01  0.69041642394E+01  0.00000000000E+00 0.  1.
</event>
<event>
 8    1  0.5829710E-012  0.9118800E+02  0.7816164E-02  0.1184000E+00
        -11   -1    0    0    0    0  0.00000000000E+00  0.00000000000E+00  0.45593999997E+02  0.45594000000E+02  0.51100000000E-03 0.  1.
         11   -1    0    0    0    0 -0.00000000000E+00 -0.00000000000E+00 -0.45593999997E+02  0.45594000000E+02  0.51100000000E-03 0. -1.
         23    2    1    2    0    0  0.00000000000E+00  0.00000000000E+00  0.00000000000E+00  0.91188000000E+02  0.91188000000E+02 0.  0.
    9900012    2    3    3    0    0 -0.20011214597E+02 -0.34038162077E+02 -0.97014856680E+01  0.50528880342E+02  0.30000062288E+02 0.  0.
         12    1    3    3    0    0  0.20011214597E+02  0.34038162077E+02  0.97014856680E+01  0.40659119658E+02  0.00000000000E+00 0. -1.
         11    1    4    4    0    0  0.27847675744E+01 -0.62995803949E+01 -0.57595784017E+01  0.89784401330E+01  0.51100000000E-03 0. -1.
        -11    1    4    4    0    0 -0.15540902160E+02 -0.12827744797E+02  0.73928196231E+01  0.21464492977E+02  0.51100000000E-03 0.  1.
         12    1    4    4    0    0 -0.72550800113E+01 -0.14910836884E+02 -0.11334726889E+02  0.20085947232E+02  0.00000000000E+00 0. -1.
</event>
<event>
 8    1  0.5829710E-012  0.9118800E+02  0.7816164E-02  0.1184000E+00
        -11   -1    0    0    0    0  0.00000000000E+00  0.00000000000E+00  0.45593999997E+02  0.45594000000E+02  0.51100000000E-03 0. -1.
         11   -1    0    0    0    0 -0.00000000000E+00 -0.00000000000E+00 -0.45593999997E+02  0.45594000000E+02  0.51100000000E-03 0.  1.
         23    2    1    2    0    0  0.17763568394E-14  0.00000000000E+00  0.00000000000E+00  0.91188000000E+02  0.91188000000E+02 0.  0.
    9900012    2    3    3    0    0  0.15133266391E+02 -0.16076822777E+02  0.34142149103E+02  0.50528851858E+02  0.29999975707E+02 0.  0.
        -12    1    3    3    0    0 -0.15133266391E+02  0.16076822777E+02 -0.34142149103E+02  0.40659148142E+02  0.00000000000E+00 0.  1.
         11    1    4    4    0    0  0.79734109695E+01 -0.60144451213E+01  0.13481737502E+02  0.16778142893E+02  0.51100000000E-03 0. -1.
        -11    1    4    4    0    0 -0.45557337801E+01 -0.84519988715E+01  0.19664119192E+02  0.21883066034E+02  0.51100000000E-03 0.  1.
        -12    1    4    4    0    0  0.11715589202E+02 -0.16103787840E+01  0.99629241001E+00  0.11867642931E+02  0.00000000000E+00 0.  1.
</event>
<event>
 8    1  0.5829710E-012  0.9118800E+02  0.7816164E-02  0.1184000E+00
        -11   -1    0    0    0    0  0.00000000000E+00  0.00000000000E+00  0.45593999997E+02  0.45594000000E+02  0.51100000000E-03 0. -1.
         11   -1    0    0    0    0 -0.00000000000E+00 -0.00000000000E+00 -0.45593999997E+02  0.45594000000E+02  0.51100000000E-03 0.  1.
         23    2    1    2    0    0 -0.44408920985E-15  0.00000000000E+00  0.71054273576E-14  0.91188000000E+02  0.91188000000E+02 0.  0.
    9900012    2    3    3    0    0  0.32659896121E+01  0.33951583930E+01 -0.40385296361E+02  0.50528856492E+02  0.29999989793E+02 0.  0.
         12    1    3    3    0    0 -0.32659896121E+01 -0.33951583930E+01  0.40385296361E+02  0.40659143508E+02  0.00000000000E+00 0. -1.
         11    1    4    4    0    0 -0.29975651843E+01 -0.52911703658E+01 -0.18237799271E+01  0.63488624460E+01  0.51100000000E-03 0. -1.
        -11    1    4    4    0    0 -0.40980570054E+01  0.18131772357E+01 -0.26433669761E+02  0.26810829532E+02  0.51100000000E-03 0.  1.
        -12    1    4    4    0    0  0.10361611802E+02  0.68731515232E+01 -0.12127846673E+02  0.17369164514E+02  0.00000000000E+00 0.  1.
</event>
<event>
 8    1  0.5829710E-012  0.9118800E+02  0.7816164E-02  0.1184000E+00
        -11   -1    0    0    0    0  0.00000000000E+00  0.00000000000E+00  0.45593999997E+02  0.45594000000E+02  0.51100000000E-03 0. -1.
         11   -1    0    0    0    0 -0.00000000000E+00 -0.00000000000E+00 -0.45593999997E+02  0.45594000000E+02  0.51100000000E-03 0.  1.
         23    2    1    2    0    0 -0.17763568394E-14  0.17763568394E-14  0.71054273576E-14  0.91188000000E+02  0.91188000000E+02 0.  0.
    9900012    2    3    3    0    0  0.92554822792E+01 -0.12200834258E+02 -0.37664858332E+02  0.50528857584E+02  0.29999993114E+02 0.  0.
         12    1    3    3    0    0 -0.92554822792E+01  0.12200834258E+02  0.37664858332E+02  0.40659142416E+02  0.00000000000E+00 0. -1.
         11    1    4    4    0    0  0.10113654026E+02 -0.84843287400E+01 -0.10582837271E+02  0.16919405335E+02  0.51100000000E-03 0. -1.
        -11    1    4    4    0    0  0.43100473723E+00 -0.11162231589E+02 -0.10256597081E+02  0.15165057306E+02  0.51100000000E-03 0.  1.
        -12    1    4    4    0    0 -0.12891764836E+01  0.74457260720E+01 -0.16825423980E+02  0.18444394944E+02  0.00000000000E+00 0.  1.
</event>
<event>
 8    1  0.5829710E-012  0.9118800E+02  0.7816164E-02  0.1184000E+00
        -11   -1    0    0    0    0  0.00000000000E+00  0.00000000000E+00  0.45593999997E+02  0.45594000000E+02  0.51100000000E-03 0. -1.
         11   -1    0    0    0    0 -0.00000000000E+00 -0.00000000000E+00 -0.45593999997E+02  0.45594000000E+02  0.51100000000E-03 0.  1.
         23    2    1    2    0    0 -0.17763568394E-14  0.00000000000E+00  0.00000000000E+00  0.91188000000E+02  0.91188000000E+02 0.  0.
    9900012    2    3    3    0    0  0.10740133818E+02  0.15678174132E+02  0.35944541886E+02  0.50528859454E+02  0.29999998795E+02 0.  0.
        -12    1    3    3    0    0 -0.10740133818E+02 -0.15678174132E+02 -0.35944541886E+02  0.40659140546E+02  0.00000000000E+00 0.  1.
         11    1    4    4    0    0  0.54018204686E+01  0.17626748171E+01 -0.33530738695E+00  0.56920223287E+01  0.51100000000E-03 0. -1.
        -11    1    4    4    0    0  0.89656303416E+01  0.75251563552E-01  0.46026651051E+01  0.10078329055E+02  0.51100000000E-03 0.  1.
         12    1    4    4    0    0 -0.36273169918E+01  0.13840247752E+02  0.31677184168E+02  0.34758508069E+02  0.00000000000E+00 0. -1.
</event>
<event>
 8    1  0.5829710E-012  0.9118800E+02  0.7816164E-02  0.1184000E+00
        -11   -1    0    0    0    0  0.00000000000E+00  0.00000000000E+00  0.45593999997E+02  0.45594000000E+02  0.51100000000E-03 0. -1.
         11   -1    0    0    0    0 -0.00000000000E+00 -0.00000000000E+00 -0.45593999997E+02  0.45594000000E+02  0.51100000000E-03 0.  1.
         23    2    1    2    0    0  0.35527136788E-14  0.17763568394E-14  0.00000000000E+00  0.91188000000E+02  0.91188000000E+02 0.  0.
    9900012    2    3    3    0    0  0.16864221087E+02  0.13916172764E+02 -0.34279795189E+02  0.50528853729E+02  0.29999981395E+02 0.  0.
         12    1    3    3    0    0 -0.16864221087E+02 -0.13916172764E+02  0.34279795189E+02  0.40659146271E+02  0.00000000000E+00 0. -1.
         11    1    4    4    0    0  0.16772319405E+02  0.12057269789E+02 -0.11672325913E+02  0.23726180592E+02  0.51100000000E-03 0.  1.
        -11    1    4    4    0    0 -0.15381254966E+01  0.55404943188E+01 -0.24554526364E+01  0.62523719700E+01  0.51100000000E-03 0. -1.
        -12    1    4    4    0    0  0.16300271782E+01 -0.36815913437E+01 -0.20152016640E+02  0.20550301167E+02  0.00000000000E+00 0.  1.
</event>
<event>
 8    1  0.5829710E-012  0.9118800E+02  0.7816164E-02  0.1184000E+00
        -11   -1    0    0    0    0  0.00000000000E+00  0.00000000000E+00  0.45593999997E+02  0.45594000000E+02  0.51100000000E-03 0. -1.
         11   -1    0    0    0    0 -0.00000000000E+00 -0.00000000000E+00 -0.45593999997E+02  0.45594000000E+02  0.51100000000E-03 0.  1.
         23    2    1    2    0    0  0.00000000000E+00  0.00000000000E+00  0.35527136788E-14  0.91188000000E+02  0.91188000000E+02 0.  0.
    9900012    2    3    3    0    0 -0.12035837275E+02 -0.31907876102E+02  0.22140367699E+02  0.50528808935E+02  0.29999845237E+02 0.  0.
        -12    1    3    3    0    0  0.12035837275E+02  0.31907876102E+02 -0.22140367699E+02  0.40659191065E+02  0.00000000000E+00 0.  1.
         11    1    4    4    0    0 -0.89479547659E+01 -0.64192963297E+01  0.27102256695E+01  0.11341013328E+02  0.51100000000E-03 0. -1.
        -11    1    4    4    0    0  0.85356262913E+01 -0.61631907596E+01  0.20737371996E+01  0.10730434416E+02  0.51100000000E-03 0.  1.
         12    1    4    4    0    0 -0.11623508801E+02 -0.19325389013E+02  0.17356404829E+02  0.28457361191E+02  0.00000000000E+00 0. -1.
</event>
<event>
 8    1  0.5829710E-012  0.9118800E+02  0.7816164E-02  0.1184000E+00
        -11   -1    0    0    0    0  0.00000000000E+00  0.00000000000E+00  0.45593999997E+02  0.45594000000E+02  0.51100000000E-03 0. -1.
         11   -1    0    0    0    0 -0.00000000000E+00 -0.00000000000E+00 -0.45593999997E+02  0.45594000000E+02  0.51100000000E-03 0.  1.
         23    2    1    2    0    0 -0.35527136788E-14 -0.35527136788E-14  0.00000000000E+00  0.91188000000E+02  0.91188000000E+02 0.  0.
    9900012    2    3    3    0    0 -0.27055336322E+02  0.20546852806E+02  0.22338316456E+02  0.50528871064E+02  0.30000034087E+02 0.  0.
        -12    1    3    3    0    0  0.27055336322E+02 -0.20546852806E+02 -0.22338316456E+02  0.40659128936E+02  0.00000000000E+00 0.  1.
         11    1    4    4    0    0 -0.68334520701E+01  0.25585879122E+01 -0.85396283208E+00  0.73465428658E+01  0.51100000000E-03 0. -1.
        -11    1    4    4    0    0 -0.18273819497E+02  0.21397939226E+01  0.51854428347E+01  0.19115439171E+02  0.51100000000E-03 0.  1.
         12    1    4    4    0    0 -0.19480647547E+01  0.15848470971E+02  0.18006836454E+02  0.24066889028E+02  0.00000000000E+00 0. -1.
</event>
<event>
 8    1  0.5829710E-012  0.9118800E+02  0.7816164E-02  0.1184000E+00
        -11   -1    0    0    0    0  0.00000000000E+00  0.00000000000E+00  0.45593999997E+02  0.45594000000E+02  0.51100000000E-03 0. -1.
         11   -1    0    0    0    0 -0.00000000000E+00 -0.00000000000E+00 -0.45593999997E+02  0.45594000000E+02  0.51100000000E-03 0.  1.
         23    2    1    2    0    0  0.00000000000E+00 -0.35527136788E-14 -0.35527136788E-14  0.91188000000E+02  0.91188000000E+02 0.  0.
    9900012    2    3    3    0    0 -0.26531934886E+01 -0.26341788132E+02 -0.30858314595E+02  0.50528870431E+02  0.30000032161E+02 0.  0.
         12    1    3    3    0    0  0.26531934886E+01  0.26341788132E+02  0.30858314595E+02  0.40659129569E+02  0.00000000000E+00 0. -1.
         11    1    4    4    0    0 -0.80397629308E+01  0.13705144157E+01 -0.90138919201E+00  0.82054006900E+01  0.51100000000E-03 0. -1.
        -11    1    4    4    0    0  0.73540948006E+00  0.25563682629E+00  0.32217212749E+00  0.84259861807E+00  0.51100000000E-03 0.  1.
        -12    1    4    4    0    0  0.46511599622E+01 -0.27967939374E+02 -0.30279097531E+02  0.41480871123E+02  0.00000000000E+00 0.  1.
</event>
<event>
 8    1  0.5829710E-012  0.9118800E+02  0.7816164E-02  0.1184000E+00
        -11   -1    0    0    0    0  0.00000000000E+00  0.00000000000E+00  0.45593999997E+02  0.45594000000E+02  0.51100000000E-03 0. -1.
         11   -1    0    0    0    0 -0.00000000000E+00 -0.00000000000E+00 -0.45593999997E+02  0.45594000000E+02  0.51100000000E-03 0.  1.
         23    2    1    2    0    0  0.00000000000E+00  0.00000000000E+00 -0.17763568394E-14  0.91188000000E+02  0.91188000000E+02 0.  0.
    9900012    2    3    3    0    0  0.24011903317E+02  0.30497762122E+02 -0.12102914293E+02  0.50528861670E+02  0.30000005532E+02 0.  0.
         12    1    3    3    0    0 -0.24011903317E+02 -0.30497762122E+02  0.12102914293E+02  0.40659138330E+02  0.00000000000E+00 0. -1.
         11    1    4    4    0    0 -0.38097902473E-01  0.32769213849E+01  0.66943448034E+01  0.74534500616E+01  0.51100000000E-03 0.  1.
        -11    1    4    4    0    0  0.54810400382E+00  0.12000378356E+01  0.19346956687E+01  0.23416994678E+01  0.51100000000E-03 0. -1.
        -12    1    4    4    0    0  0.23501897216E+02  0.26020802901E+02 -0.20731954765E+02  0.40733712141E+02  0.00000000000E+00 0.  1.
</event>
<event>
 8    1  0.5829710E-012  0.9118800E+02  0.7816164E-02  0.1184000E+00
        -11   -1    0    0    0    0  0.00000000000E+00  0.00000000000E+00  0.45593999997E+02  0.45594000000E+02  0.51100000000E-03 0. -1.
         11   -1    0    0    0    0 -0.00000000000E+00 -0.00000000000E+00 -0.45593999997E+02  0.45594000000E+02  0.51100000000E-03 0.  1.
         23    2    1    2    0    0  0.00000000000E+00  0.00000000000E+00  0.71054273576E-14  0.91188000000E+02  0.91188000000E+02 0.  0.
    9900012    2    3    3    0    0 -0.16836565087E+02  0.12957348733E+02  0.34667020741E+02  0.50528866497E+02  0.30000020205E+02 0.  0.
        -12    1    3    3    0    0  0.16836565087E+02 -0.12957348733E+02 -0.34667020741E+02  0.40659133503E+02  0.00000000000E+00 0.  1.
         11    1    4    4    0    0 -0.65227236073E+00  0.13873677148E+01  0.78898407614E+01  0.80374023111E+01  0.51100000000E-03 0. -1.
        -11    1    4    4    0    0 -0.12517616138E+02  0.98216796411E+01  0.32081537753E+02  0.35810350035E+02  0.51100000000E-03 0.  1.
        -12    1    4    4    0    0 -0.36666765884E+01  0.17483013767E+01 -0.53043577738E+01  0.66811141511E+01  0.00000000000E+00 0.  1.
</event>
<event>
 8    1  0.5829710E-012  0.9118800E+02  0.7816164E-02  0.1184000E+00
        -11   -1    0    0    0    0  0.00000000000E+00  0.00000000000E+00  0.45593999997E+02  0.45594000000E+02  0.51100000000E-03 0. -1.
         11   -1    0    0    0    0 -0.00000000000E+00 -0.00000000000E+00 -0.45593999997E+02  0.45594000000E+02  0.51100000000E-03 0.  1.
         23    2    1    2    0    0  0.00000000000E+00  0.00000000000E+00 -0.71054273576E-14  0.91188000000E+02  0.91188000000E+02 0.  0.
    9900012    2    3    3    0    0 -0.80521097429E+01 -0.18613676061E+02 -0.35240042432E+02  0.50528855906E+02  0.29999988013E+02 0.  0.
         12    1    3    3    0    0  0.80521097429E+01  0.18613676061E+02  0.35240042432E+02  0.40659144094E+02  0.00000000000E+00 0. -1.
         11    1    4    4    0    0 -0.15236205347E+00 -0.86233662208E+01 -0.20392085241E+02  0.22140975586E+02  0.51100000000E-03 0.  1.
        -11    1    4    4    0    0  0.90401022111E+00 -0.80178222099E+01 -0.17256704370E+02  0.19049843922E+02  0.51100000000E-03 0. -1.
         12    1    4    4    0    0 -0.88037579105E+01 -0.19724876307E+01  0.24087471795E+01  0.93380363983E+01  0.00000000000E+00 0. -1.
</event>
<event>
 8    1  0.5829710E-012  0.9118800E+02  0.7816164E-02  0.1184000E+00
        -11   -1    0    0    0    0  0.00000000000E+00  0.00000000000E+00  0.45593999997E+02  0.45594000000E+02  0.51100000000E-03 0. -1.
         11   -1    0    0    0    0 -0.00000000000E+00 -0.00000000000E+00 -0.45593999997E+02  0.45594000000E+02  0.51100000000E-03 0.  1.
         23    2    1    2    0    0  0.35527136788E-14  0.17763568394E-14  0.00000000000E+00  0.91188000000E+02  0.91188000000E+02 0.  0.
    9900012    2    3    3    0    0  0.28908327492E+02  0.13850447916E+02  0.25012792440E+02  0.50528854762E+02  0.29999984535E+02 0.  0.
        -12    1    3    3    0    0 -0.28908327492E+02 -0.13850447916E+02 -0.25012792440E+02  0.40659145238E+02  0.00000000000E+00 0.  1.
         11    1    4    4    0    0  0.14076592867E+02  0.29511484237E+01  0.11052506263E+02  0.18138843367E+02  0.51100000000E-03 0. -1.
        -11    1    4    4    0    0  0.10955519180E+02  0.39507157687E+01  0.19487279256E+02  0.22702105819E+02  0.51100000000E-03 0.  1.
        -12    1    4    4    0    0  0.38762154453E+01  0.69485837237E+01 -0.55269930787E+01  0.96879055753E+01  0.00000000000E+00 0.  1.
</event>
<event>
 8    1  0.5829710E-012  0.9118800E+02  0.7816164E-02  0.1184000E+00
        -11   -1    0    0    0    0  0.00000000000E+00  0.00000000000E+00  0.45593999997E+02  0.45594000000E+02  0.51100000000E-03 0. -1.
         11   -1    0    0    0    0 -0.00000000000E+00 -0.00000000000E+00 -0.45593999997E+02  0.45594000000E+02  0.51100000000E-03 0.  1.
         23    2    1    2    0    0  0.00000000000E+00  0.00000000000E+00  0.35527136788E-14  0.91188000000E+02  0.91188000000E+02 0.  0.
    9900012    2    3    3    0    0 -0.20462754635E+02  0.23928732193E+02  0.25726577503E+02  0.50528863983E+02  0.30000012564E+02 0.  0.
        -12    1    3    3    0    0  0.20462754635E+02 -0.23928732193E+02 -0.25726577503E+02  0.40659136017E+02  0.00000000000E+00 0.  1.
         11    1    4    4    0    0 -0.11529007545E+02  0.31420098414E+01  0.80744695977E+01  0.14421764814E+02  0.51100000000E-03 0.  1.
        -11    1    4    4    0    0 -0.69412280162E+01  0.34554331113E+00  0.13456003271E+02  0.15144770412E+02  0.51100000000E-03 0. -1.
         12    1    4    4    0    0 -0.19925190740E+01  0.20441179040E+02  0.41961046341E+01  0.20962328757E+02  0.00000000000E+00 0. -1.
</event>
<event>
 8    1  0.5829710E-012  0.9118800E+02  0.7816164E-02  0.1184000E+00
        -11   -1    0    0    0    0  0.00000000000E+00  0.00000000000E+00  0.45593999997E+02  0.45594000000E+02  0.51100000000E-03 0. -1.
         11   -1    0    0    0    0 -0.00000000000E+00 -0.00000000000E+00 -0.45593999997E+02  0.45594000000E+02  0.51100000000E-03 0.  1.
         23    2    1    2    0    0  0.00000000000E+00  0.00000000000E+00  0.00000000000E+00  0.91188000000E+02  0.91188000000E+02 0.  0.
    9900012    2    3    3    0    0  0.31080797013E+02 -0.67061820346E+01  0.25341232614E+02  0.50528844932E+02  0.29999954656E+02 0.  0.
        -12    1    3    3    0    0 -0.31080797013E+02  0.67061820346E+01 -0.25341232614E+02  0.40659155068E+02  0.00000000000E+00 0.  1.
         11    1    4    4    0    0  0.23611903120E+02  0.35011275316E+00  0.20913375660E+01  0.23706923903E+02  0.51100000000E-03 0. -1.
        -11    1    4    4    0    0  0.33047789158E+01  0.72351115330E+00  0.23037755851E+01  0.40929713265E+01  0.51100000000E-03 0.  1.
        -12    1    4    4    0    0  0.41641149773E+01 -0.77798059411E+01  0.20946119463E+02  0.22728949703E+02  0.00000000000E+00 0.  1.
</event>
<event>
 8    1  0.5829710E-012  0.9118800E+02  0.7816164E-02  0.1184000E+00
        -11   -1    0    0    0    0  0.00000000000E+00  0.00000000000E+00  0.45593999997E+02  0.45594000000E+02  0.51100000000E-03 0. -1.
         11   -1    0    0    0    0 -0.00000000000E+00 -0.00000000000E+00 -0.45593999997E+02  0.45594000000E+02  0.51100000000E-03 0.  1.
         23    2    1    2    0    0  0.00000000000E+00  0.17763568394E-14 -0.71054273576E-14  0.91188000000E+02  0.91188000000E+02 0.  0.
    9900012    2    3    3    0    0  0.80196955137E+01  0.51521425595E+01 -0.39526017908E+02  0.50528853664E+02  0.29999981198E+02 0.  0.
         12    1    3    3    0    0 -0.80196955137E+01 -0.51521425595E+01  0.39526017908E+02  0.40659146336E+02  0.00000000000E+00 0. -1.
         11    1    4    4    0    0 -0.70318352499E+01  0.11483818686E+01 -0.28052789556E+01  0.76573545156E+01  0.51100000000E-03 0. -1.
        -11    1    4    4    0    0  0.22397819180E-01  0.54527344064E+01 -0.37788532518E+01  0.66341952284E+01  0.51100000000E-03 0.  1.
         12    1    4    4    0    0  0.15029132945E+02 -0.14489737154E+01 -0.32941885701E+02  0.36237303920E+02  0.00000000000E+00 0. -1.
</event>
<event>
 8    1  0.5829710E-012  0.9118800E+02  0.7816164E-02  0.1184000E+00
        -11   -1    0    0    0    0  0.00000000000E+00  0.00000000000E+00  0.45593999997E+02  0.45594000000E+02  0.51100000000E-03 0. -1.
         11   -1    0    0    0    0 -0.00000000000E+00 -0.00000000000E+00 -0.45593999997E+02  0.45594000000E+02  0.51100000000E-03 0.  1.
         23    2    1    2    0    0  0.00000000000E+00  0.17763568394E-14 -0.71054273576E-14  0.91188000000E+02  0.91188000000E+02 0.  0.
    9900012    2    3    3    0    0  0.17984990616E+02  0.90426008178E+01 -0.35326156900E+02  0.50528857383E+02  0.29999992501E+02 0.  0.
         12    1    3    3    0    0 -0.17984990616E+02 -0.90426008178E+01  0.35326156900E+02  0.40659142617E+02  0.00000000000E+00 0. -1.
         11    1    4    4    0    0  0.83445624404E+01 -0.66605850042E+01 -0.73593418930E+01  0.12967460364E+02  0.51100000000E-03 0. -1.
        -11    1    4    4    0    0  0.91454409482E+01  0.27106410629E+00 -0.14100369573E+02  0.16808717626E+02  0.51100000000E-03 0.  1.
        -12    1    4    4    0    0  0.49498722751E+00  0.15432121716E+02 -0.13866445435E+02  0.20752679393E+02  0.00000000000E+00 0.  1.
</event>
<event>
 8    1  0.5829710E-012  0.9118800E+02  0.7816164E-02  0.1184000E+00
        -11   -1    0    0    0    0  0.00000000000E+00  0.00000000000E+00  0.45593999997E+02  0.45594000000E+02  0.51100000000E-03 0. -1.
         11   -1    0    0    0    0 -0.00000000000E+00 -0.00000000000E+00 -0.45593999997E+02  0.45594000000E+02  0.51100000000E-03 0.  1.
         23    2    1    2    0    0  0.17763568394E-14  0.35527136788E-14  0.00000000000E+00  0.91188000000E+02  0.91188000000E+02 0.  0.
    9900012    2    3    3    0    0  0.57118877373E+01 -0.27973909756E+02 -0.28948241410E+02  0.50528856265E+02  0.29999989103E+02 0.  0.
         12    1    3    3    0    0 -0.57118877373E+01  0.27973909756E+02  0.28948241410E+02  0.40659143735E+02  0.00000000000E+00 0. -1.
         11    1    4    4    0    0  0.54390337614E+01 -0.45574349951E+00 -0.40274932630E+01  0.67831771788E+01  0.51100000000E-03 0.  1.
        -11    1    4    4    0    0  0.60848410091E+01 -0.47355386623E+01  0.20369563764E+01  0.79749487816E+01  0.51100000000E-03 0. -1.
        -12    1    4    4    0    0 -0.58119870331E+01 -0.22782627594E+02 -0.26957704523E+02  0.35770730305E+02  0.00000000000E+00 0.  1.
</event>
<event>
 8    1  0.5829710E-012  0.9118800E+02  0.7816164E-02  0.1184000E+00
        -11   -1    0    0    0    0  0.00000000000E+00  0.00000000000E+00  0.45593999997E+02  0.45594000000E+02  0.51100000000E-03 0. -1.
         11   -1    0    0    0    0 -0.00000000000E+00 -0.00000000000E+00 -0.45593999997E+02  0.45594000000E+02  0.51100000000E-03 0.  1.
         23    2    1    2    0    0  0.00000000000E+00  0.00000000000E+00  0.00000000000E+00  0.91188000000E+02  0.91188000000E+02 0.  0.
    9900012    2    3    3    0    0  0.25935156362E+02  0.13461326656E+02  0.28272324744E+02  0.50528880515E+02  0.30000062814E+02 0.  0.
        -12    1    3    3    0    0 -0.25935156362E+02 -0.13461326656E+02 -0.28272324744E+02  0.40659119485E+02  0.00000000000E+00 0.  1.
         11    1    4    4    0    0  0.16999273458E+01 -0.58980534474E+01  0.38843672416E+01  0.72639587401E+01  0.51100000000E-03 0. -1.
        -11    1    4    4    0    0  0.24168500031E+01  0.10267562902E+02  0.13787902865E+02  0.17360019515E+02  0.51100000000E-03 0.  1.
         12    1    4    4    0    0  0.21818379013E+02  0.90918172013E+01  0.10600054637E+02  0.25904902260E+02  0.00000000000E+00 0. -1.
</event>
<event>
 8    1  0.6293409E-012  0.9118800E+02  0.7816164E-02  0.1184000E+00
        -11   -1    0    0    0    0  0.00000000000E+00  0.00000000000E+00  0.45593999997E+02  0.45594000000E+02  0.51100000000E-03 0. -1.
         11   -1    0    0    0    0 -0.00000000000E+00 -0.00000000000E+00 -0.45593999997E+02  0.45594000000E+02  0.51100000000E-03 0.  1.
         23    2    1    2    0    0 -0.88817841970E-15  0.00000000000E+00  0.71054273576E-14  0.91188000000E+02  0.91188000000E+02 0.  0.
    9900012    2    3    3    0    0  0.53721568714E+01 -0.77195063716E+01 -0.39556480232E+02  0.50528856177E+02  0.29999988835E+02 0.  0.
         12    1    3    3    0    0 -0.53721568714E+01  0.77195063716E+01  0.39556480232E+02  0.40659143823E+02  0.00000000000E+00 0. -1.
         11    1    4    4    0    0 -0.48182967664E+01 -0.46393276989E+01 -0.20328377393E+02  0.21400520389E+02  0.51100000000E-03 0. -1.
        -11    1    4    4    0    0  0.62353203467E+01  0.76498856124E+01 -0.12252740179E+02  0.15733073821E+02  0.51100000000E-03 0.  1.
         12    1    4    4    0    0  0.39551332911E+01 -0.10730064285E+02 -0.69753626606E+01  0.13395261967E+02  0.00000000000E+00 0. -1.
</event>
<event>
 8    1  0.5829710E-012  0.9118800E+02  0.7816164E-02  0.1184000E+00
        -11   -1    0    0    0    0  0.00000000000E+00  0.00000000000E+00  0.45593999997E+02  0.45594000000E+02  0.51100000000E-03 0. -1.
         11   -1    0    0    0    0 -0.00000000000E+00 -0.00000000000E+00 -0.45593999997E+02  0.45594000000E+02  0.51100000000E-03 0.  1.
         23    2    1    2    0    0 -0.88817841970E-15  0.35527136788E-14  0.00000000000E+00  0.91188000000E+02  0.91188000000E+02 0.  0.
    9900012    2    3    3    0    0 -0.43966856058E+01  0.27982537675E+02  0.29168681898E+02  0.50528864954E+02  0.30000015513E+02 0.  0.
        -12    1    3    3    0    0  0.43966856058E+01 -0.27982537675E+02 -0.29168681898E+02  0.40659135046E+02  0.00000000000E+00 0.  1.
         11    1    4    4    0    0 -0.11905026982E+02  0.17245294903E+02  0.19361240616E+02  0.28530466210E+02  0.51100000000E-03 0. -1.
        -11    1    4    4    0    0  0.13699065064E+01  0.10807213076E+02  0.57183718333E+00  0.10908689029E+02  0.51100000000E-03 0.  1.
        -12    1    4    4    0    0  0.61384348695E+01 -0.69970303865E-01  0.92356040991E+01  0.11089709715E+02  0.00000000000E+00 0.  1.
</event>
<event>
 8    1  0.6096769E-012  0.9118800E+02  0.7816164E-02  0.1184000E+00
        -11   -1    0    0    0    0  0.00000000000E+00  0.00000000000E+00  0.45593999997E+02  0.45594000000E+02  0.51100000000E-03 0. -1.
         11   -1    0    0    0    0 -0.00000000000E+00 -0.00000000000E+00 -0.45593999997E+02  0.45594000000E+02  0.51100000000E-03 0.  1.
         23    2    1    2    0    0 -0.35527136788E-14  0.17763568394E-14 -0.35527136788E-14  0.91188000000E+02  0.91188000000E+02 0.  0.
    9900012    2    3    3    0    0 -0.26396866481E+02  0.12637112247E+02 -0.28225420497E+02  0.50528861689E+02  0.30000005589E+02 0.  0.
         12    1    3    3    0    0  0.26396866481E+02 -0.12637112247E+02  0.28225420497E+02  0.40659138311E+02  0.00000000000E+00 0. -1.
         11    1    4    4    0    0  0.40115282521E+00  0.30193287385E+01  0.34142442939E+01  0.45754053350E+01  0.51100000000E-03 0. -1.
        -11    1    4    4    0    0  0.25370608284E+01  0.98368592990E+00 -0.31044719343E+01  0.41282032300E+01  0.51100000000E-03 0.  1.
        -12    1    4    4    0    0 -0.29335080135E+02  0.86340975790E+01 -0.28535192856E+02  0.41825253124E+02  0.00000000000E+00 0.  1.
</event>
<event>
 8    1  0.5829710E-012  0.9118800E+02  0.7816164E-02  0.1184000E+00
        -11   -1    0    0    0    0  0.00000000000E+00  0.00000000000E+00  0.45593999997E+02  0.45594000000E+02  0.51100000000E-03 0. -1.
         11   -1    0    0    0    0 -0.00000000000E+00 -0.00000000000E+00 -0.45593999997E+02  0.45594000000E+02  0.51100000000E-03 0.  1.
         23    2    1    2    0    0 -0.35527136788E-14 -0.35527136788E-14  0.00000000000E+00  0.91188000000E+02  0.91188000000E+02 0.  0.
    9900012    2    3    3    0    0 -0.30557725683E+02 -0.20753885412E+02  0.16990221962E+02  0.50528855876E+02  0.29999987920E+02 0.  0.
        -12    1    3    3    0    0  0.30557725683E+02  0.20753885412E+02 -0.16990221962E+02  0.40659144124E+02  0.00000000000E+00 0.  1.
         11    1    4    4    0    0 -0.34852788347E+01 -0.21388939242E+01  0.39176974972E+01  0.56630724624E+01  0.51100000000E-03 0. -1.
        -11    1    4    4    0    0 -0.22252670679E+02 -0.63409515996E+01 -0.38034037872E+01  0.23448985056E+02  0.51100000000E-03 0.  1.
        -12    1    4    4    0    0 -0.48197761694E+01 -0.12274039888E+02  0.16875928252E+02  0.21416798357E+02  0.00000000000E+00 0.  1.
</event>
<event>
 8    1  0.5829710E-012  0.9118800E+02  0.7816164E-02  0.1184000E+00
        -11   -1    0    0    0    0  0.00000000000E+00  0.00000000000E+00  0.45593999997E+02  0.45594000000E+02  0.51100000000E-03 0. -1.
         11   -1    0    0    0    0 -0.00000000000E+00 -0.00000000000E+00 -0.45593999997E+02  0.45594000000E+02  0.51100000000E-03 0.  1.
         23    2    1    2    0    0  0.17763568394E-14  0.17763568394E-14 -0.71054273576E-14  0.91188000000E+02  0.91188000000E+02 0.  0.
    9900012    2    3    3    0    0 -0.14466540104E+02 -0.42061062200E+01  0.37764971832E+02  0.50528865607E+02  0.30000017498E+02 0.  0.
        -12    1    3    3    0    0  0.14466540104E+02  0.42061062200E+01 -0.37764971832E+02  0.40659134393E+02  0.00000000000E+00 0.  1.
         11    1    4    4    0    0 -0.71621809944E+01 -0.67367135534E+01  0.17614154678E+02  0.20172718988E+02  0.51100000000E-03 0. -1.
        -11    1    4    4    0    0  0.16477771764E+01 -0.49673105192E+01  0.17655995875E+02  0.18415307058E+02  0.51100000000E-03 0.  1.
        -12    1    4    4    0    0 -0.89521362859E+01  0.74979178526E+01  0.24948212796E+01  0.11940839561E+02  0.00000000000E+00 0.  1.
</event>
<event>
 8    1  0.5829710E-012  0.9118800E+02  0.7816164E-02  0.1184000E+00
        -11   -1    0    0    0    0  0.00000000000E+00  0.00000000000E+00  0.45593999997E+02  0.45594000000E+02  0.51100000000E-03 0. -1.
         11   -1    0    0    0    0 -0.00000000000E+00 -0.00000000000E+00 -0.45593999997E+02  0.45594000000E+02  0.51100000000E-03 0.  1.
         23    2    1    2    0    0  0.00000000000E+00  0.44408920985E-15  0.00000000000E+00  0.91188000000E+02  0.91188000000E+02 0.  0.
    9900012    2    3    3    0    0 -0.32927159254E+02  0.32378182826E+01  0.23632271654E+02  0.50528861454E+02  0.30000004876E+02 0.  0.
        -12    1    3    3    0    0  0.32927159254E+02 -0.32378182826E+01 -0.23632271654E+02  0.40659138546E+02  0.00000000000E+00 0.  1.
         11    1    4    4    0    0 -0.68775859752E+01 -0.10850452213E+01  0.35351236010E+01  0.78086881813E+01  0.51100000000E-03 0. -1.
        -11    1    4    4    0    0 -0.14783530513E+02 -0.31082026961E+01 -0.35267482035E+01  0.15512951092E+02  0.51100000000E-03 0.  1.
        -12    1    4    4    0    0 -0.11266042766E+02  0.74310662000E+01  0.23623896256E+02  0.27207222181E+02  0.00000000000E+00 0.  1.
</event>
<event>
 8    1  0.5829710E-012  0.9118800E+02  0.7816164E-02  0.1184000E+00
        -11   -1    0    0    0    0  0.00000000000E+00  0.00000000000E+00  0.45593999997E+02  0.45594000000E+02  0.51100000000E-03 0. -1.
         11   -1    0    0    0    0 -0.00000000000E+00 -0.00000000000E+00 -0.45593999997E+02  0.45594000000E+02  0.51100000000E-03 0.  1.
         23    2    1    2    0    0  0.00000000000E+00  0.00000000000E+00  0.00000000000E+00  0.91188000000E+02  0.91188000000E+02 0.  0.
    9900012    2    3    3    0    0  0.20786413607E+02  0.30637714233E+02  0.16805358124E+02  0.50528873279E+02  0.30000040818E+02 0.  0.
        -12    1    3    3    0    0 -0.20786413607E+02 -0.30637714233E+02 -0.16805358124E+02  0.40659126721E+02  0.00000000000E+00 0.  1.
         11    1    4    4    0    0  0.12185628169E+00  0.63516406161E+01  0.76613565038E+01  0.99526162997E+01  0.51100000000E-03 0. -1.
        -11    1    4    4    0    0  0.83298576595E+01  0.36009086667E+01  0.13335749485E+02  0.16130569935E+02  0.51100000000E-03 0.  1.
         12    1    4    4    0    0  0.12334699666E+02  0.20685164950E+02 -0.41917478649E+01  0.24445687044E+02  0.00000000000E+00 0. -1.
</event>
<event>
 8    1  0.5829710E-012  0.9118800E+02  0.7816164E-02  0.1184000E+00
        -11   -1    0    0    0    0  0.00000000000E+00  0.00000000000E+00  0.45593999997E+02  0.45594000000E+02  0.51100000000E-03 0. -1.
         11   -1    0    0    0    0 -0.00000000000E+00 -0.00000000000E+00 -0.45593999997E+02  0.45594000000E+02  0.51100000000E-03 0.  1.
         23    2    1    2    0    0  0.35527136788E-14  0.44408920985E-15  0.00000000000E+00  0.91188000000E+02  0.91188000000E+02 0.  0.
    9900012    2    3    3    0    0 -0.24461263214E+02  0.10548714976E+01  0.32460739990E+02  0.50528858437E+02  0.29999995705E+02 0.  0.
        -12    1    3    3    0    0  0.24461263214E+02 -0.10548714976E+01 -0.32460739990E+02  0.40659141563E+02  0.00000000000E+00 0.  1.
         11    1    4    4    0    0 -0.63106435816E+00  0.31810286515E+01 -0.18934323007E+01  0.37552991417E+01  0.51100000000E-03 0. -1.
        -11    1    4    4    0    0  0.22317728807E+01  0.43484738366E+01  0.52464656517E+01  0.71704558429E+01  0.51100000000E-03 0.  1.
         12    1    4    4    0    0 -0.26061971737E+02 -0.64746309905E+01  0.29107706639E+02  0.39603103452E+02  0.00000000000E+00 0. -1.
</event>
<event>
 8    1  0.5829710E-012  0.9118800E+02  0.7816164E-02  0.1184000E+00
        -11   -1    0    0    0    0  0.00000000000E+00  0.00000000000E+00  0.45593999997E+02  0.45594000000E+02  0.51100000000E-03 0. -1.
         11   -1    0    0    0    0 -0.00000000000E+00 -0.00000000000E+00 -0.45593999997E+02  0.45594000000E+02  0.51100000000E-03 0.  1.
         23    2    1    2    0    0  0.17763568394E-14  0.35527136788E-14  0.00000000000E+00  0.91188000000E+02  0.91188000000E+02 0.  0.
    9900012    2    3    3    0    0 -0.15288316885E+02 -0.14250906061E+02  0.34876135067E+02  0.50528858913E+02  0.29999997152E+02 0.  0.
        -12    1    3    3    0    0  0.15288316885E+02  0.14250906061E+02 -0.34876135067E+02  0.40659141087E+02  0.00000000000E+00 0.  1.
         11    1    4    4    0    0 -0.87155063639E+01  0.36094846448E+01  0.14963840846E+01  0.95513138453E+01  0.51100000000E-03 0. -1.
        -11    1    4    4    0    0 -0.47668527232E+00  0.23551693192E+01  0.55210846525E+01  0.60213310299E+01  0.51100000000E-03 0.  1.
         12    1    4    4    0    0 -0.60961252491E+01 -0.20215560025E+02  0.27858666330E+02  0.34956214038E+02  0.00000000000E+00 0. -1.
</event>
<event>
 8    1  0.5829710E-012  0.9118800E+02  0.7816164E-02  0.1184000E+00
        -11   -1    0    0    0    0  0.00000000000E+00  0.00000000000E+00  0.45593999997E+02  0.45594000000E+02  0.51100000000E-03 0. -1.
         11   -1    0    0    0    0 -0.00000000000E+00 -0.00000000000E+00 -0.45593999997E+02  0.45594000000E+02  0.51100000000E-03 0.  1.
         23    2    1    2    0    0  0.00000000000E+00  0.00000000000E+00  0.00000000000E+00  0.91188000000E+02  0.91188000000E+02 0.  0.
    9900012    2    3    3    0    0  0.15519242241E+02 -0.18592425210E+01 -0.37534814844E+02  0.50528856037E+02  0.29999988410E+02 0.  0.
         12    1    3    3    0    0 -0.15519242241E+02  0.18592425210E+01  0.37534814844E+02  0.40659143963E+02  0.00000000000E+00 0. -1.
         11    1    4    4    0    0 -0.18239348815E+01 -0.30436980037E+01 -0.12907131986E+02  0.13385996128E+02  0.51100000000E-03 0. -1.
        -11    1    4    4    0    0 -0.49318124289E+01  0.88040768542E+00 -0.76035114002E+01  0.91055629920E+01  0.51100000000E-03 0.  1.
         12    1    4    4    0    0  0.22274989551E+02  0.30404779728E+00 -0.17024171458E+02  0.28037296916E+02  0.00000000000E+00 0. -1.
</event>
<event>
 8    1  0.5829710E-012  0.9118800E+02  0.7816164E-02  0.1184000E+00
        -11   -1    0    0    0    0  0.00000000000E+00  0.00000000000E+00  0.45593999997E+02  0.45594000000E+02  0.51100000000E-03 0. -1.
         11   -1    0    0    0    0 -0.00000000000E+00 -0.00000000000E+00 -0.45593999997E+02  0.45594000000E+02  0.51100000000E-03 0.  1.
         23    2    1    2    0    0 -0.13322676296E-14  0.00000000000E+00  0.71054273576E-14  0.91188000000E+02  0.91188000000E+02 0.  0.
    9900012    2    3    3    0    0  0.10419938495E+01  0.46251408871E+01  0.40381768348E+02  0.50528869484E+02  0.30000029283E+02 0.  0.
        -12    1    3    3    0    0 -0.10419938495E+01 -0.46251408871E+01 -0.40381768348E+02  0.40659130516E+02  0.00000000000E+00 0.  1.
         11    1    4    4    0    0  0.40329562189E+01 -0.36422259035E+00 -0.96115096357E+00  0.41618752258E+01  0.51100000000E-03 0.  1.
        -11    1    4    4    0    0  0.54197335023E+01 -0.53323040494E+00  0.32556530126E+02  0.33008870020E+02  0.51100000000E-03 0. -1.
         12    1    4    4    0    0 -0.84106958718E+01  0.55225938824E+01  0.87863891856E+01  0.13358124238E+02  0.00000000000E+00 0. -1.
</event>
<event>
 8    1  0.5829710E-012  0.9118800E+02  0.7816164E-02  0.1184000E+00
        -11   -1    0    0    0    0  0.00000000000E+00  0.00000000000E+00  0.45593999997E+02  0.45594000000E+02  0.51100000000E-03 0.  1.
         11   -1    0    0    0    0 -0.00000000000E+00 -0.00000000000E+00 -0.45593999997E+02  0.45594000000E+02  0.51100000000E-03 0. -1.
         23    2    1    2    0    0  0.35527136788E-14  0.17763568394E-14 -0.35527136788E-14  0.91188000000E+02  0.91188000000E+02 0.  0.
    9900012    2    3    3    0    0 -0.29709587375E+02 -0.97792917596E+01 -0.25978291097E+02  0.50528859113E+02  0.29999997760E+02 0.  0.
         12    1    3    3    0    0  0.29709587375E+02  0.97792917596E+01  0.25978291097E+02  0.40659140887E+02  0.00000000000E+00 0. -1.
         11    1    4    4    0    0 -0.11643853089E+02 -0.48102510185E+01 -0.19270180386E+02  0.23022981606E+02  0.51100000000E-03 0. -1.
        -11    1    4    4    0    0  0.16356330103E+01 -0.66794074834E+01 -0.12324451954E+01  0.69863224299E+01  0.51100000000E-03 0.  1.
        -12    1    4    4    0    0 -0.19701367296E+02  0.17103667424E+01 -0.54756655156E+01  0.20519555077E+02  0.00000000000E+00 0.  1.
</event>
<event>
 8    1  0.5829710E-012  0.9118800E+02  0.7816164E-02  0.1184000E+00
        -11   -1    0    0    0    0  0.00000000000E+00  0.00000000000E+00  0.45593999997E+02  0.45594000000E+02  0.51100000000E-03 0. -1.
         11   -1    0    0    0    0 -0.00000000000E+00 -0.00000000000E+00 -0.45593999997E+02  0.45594000000E+02  0.51100000000E-03 0.  1.
         23    2    1    2    0    0  0.00000000000E+00  0.17763568394E-14  0.00000000000E+00  0.91188000000E+02  0.91188000000E+02 0.  0.
    9900012    2    3    3    0    0  0.18173349798E+02 -0.13398984343E+02  0.33813637094E+02  0.50528862309E+02  0.30000007473E+02 0.  0.
        -12    1    3    3    0    0 -0.18173349798E+02  0.13398984343E+02 -0.33813637094E+02  0.40659137691E+02  0.00000000000E+00 0.  1.
         11    1    4    4    0    0  0.11833741643E+02  0.30992482420E+01  0.97466325970E+01  0.15640959951E+02  0.51100000000E-03 0.  1.
        -11    1    4    4    0    0  0.43079845330E+01  0.15122193668E+01 -0.23458795541E+00  0.45717141118E+01  0.51100000000E-03 0. -1.
         12    1    4    4    0    0  0.20316236212E+01 -0.18010451952E+02  0.24301592452E+02  0.30316188246E+02  0.00000000000E+00 0. -1.
</event>
<event>
 8    1  0.5829710E-012  0.9118800E+02  0.7816164E-02  0.1184000E+00
        -11   -1    0    0    0    0  0.00000000000E+00  0.00000000000E+00  0.45593999997E+02  0.45594000000E+02  0.51100000000E-03 0. -1.
         11   -1    0    0    0    0 -0.00000000000E+00 -0.00000000000E+00 -0.45593999997E+02  0.45594000000E+02  0.51100000000E-03 0.  1.
         23    2    1    2    0    0  0.44408920985E-15  0.35527136788E-14  0.00000000000E+00  0.91188000000E+02  0.91188000000E+02 0.  0.
    9900012    2    3    3    0    0  0.34765880127E+01  0.23918251693E+02  0.32695527973E+02  0.50528843864E+02  0.29999951409E+02 0.  0.
        -12    1    3    3    0    0 -0.34765880127E+01 -0.23918251693E+02 -0.32695527973E+02  0.40659156136E+02  0.00000000000E+00 0.  1.
         11    1    4    4    0    0  0.13098009980E+01  0.10450192087E+00  0.68654770141E+01  0.69900839908E+01  0.51100000000E-03 0. -1.
        -11    1    4    4    0    0 -0.27165597064E+01 -0.41067815178E+01 -0.37318314626E+00  0.49380782694E+01  0.51100000000E-03 0.  1.
         12    1    4    4    0    0  0.48833467212E+01  0.27920531290E+02  0.26203234105E+02  0.38600681604E+02  0.00000000000E+00 0. -1.
</event>
<event>
 8    1  0.5829710E-012  0.9118800E+02  0.7816164E-02  0.1184000E+00
        -11   -1    0    0    0    0  0.00000000000E+00  0.00000000000E+00  0.45593999997E+02  0.45594000000E+02  0.51100000000E-03 0. -1.
         11   -1    0    0    0    0 -0.00000000000E+00 -0.00000000000E+00 -0.45593999997E+02  0.45594000000E+02  0.51100000000E-03 0.  1.
         23    2    1    2    0    0  0.35527136788E-14  0.00000000000E+00 -0.35527136788E-14  0.91188000000E+02  0.91188000000E+02 0.  0.
    9900012    2    3    3    0    0  0.25856108906E+02  0.16473210944E+02  0.26706943600E+02  0.50528857325E+02  0.29999992326E+02 0.  0.
        -12    1    3    3    0    0 -0.25856108906E+02 -0.16473210944E+02 -0.26706943600E+02  0.40659142675E+02  0.00000000000E+00 0.  1.
         11    1    4    4    0    0  0.13116452576E+02  0.91938597685E+00  0.75660890184E+01  0.15170112130E+02  0.51100000000E-03 0. -1.
        -11    1    4    4    0    0  0.67500591900E+01 -0.26308827770E+01  0.13629924210E+02  0.15435662522E+02  0.51100000000E-03 0.  1.
        -12    1    4    4    0    0  0.59895971407E+01  0.18184707744E+02  0.55109303710E+01  0.19923082673E+02  0.00000000000E+00 0.  1.
</event>
<event>
 8    1  0.5829710E-012  0.9118800E+02  0.7816164E-02  0.1184000E+00
        -11   -1    0    0    0    0  0.00000000000E+00  0.00000000000E+00  0.45593999997E+02  0.45594000000E+02  0.51100000000E-03 0. -1.
         11   -1    0    0    0    0 -0.00000000000E+00 -0.00000000000E+00 -0.45593999997E+02  0.45594000000E+02  0.51100000000E-03 0.  1.
         23    2    1    2    0    0  0.00000000000E+00  0.00000000000E+00  0.35527136788E-14  0.91188000000E+02  0.91188000000E+02 0.  0.
    9900012    2    3    3    0    0  0.12157234065E+02 -0.32289218802E+02  0.21512177758E+02  0.50528858558E+02  0.29999996072E+02 0.  0.
        -12    1    3    3    0    0 -0.12157234065E+02  0.32289218802E+02 -0.21512177758E+02  0.40659141442E+02  0.00000000000E+00 0.  1.
         11    1    4    4    0    0 -0.11489902675E+01 -0.23739044930E+02  0.43269035555E+01  0.24157494229E+02  0.51100000000E-03 0. -1.
        -11    1    4    4    0    0  0.29285153051E+01  0.26911563867E+01  0.10027954913E+01  0.41017220344E+01  0.51100000000E-03 0.  1.
        -12    1    4    4    0    0  0.10377709028E+02 -0.11241330259E+02  0.16182478711E+02  0.22269642294E+02  0.00000000000E+00 0.  1.
</event>
<event>
 8    1  0.5829710E-012  0.9118800E+02  0.7816164E-02  0.1184000E+00
        -11   -1    0    0    0    0  0.00000000000E+00  0.00000000000E+00  0.45593999997E+02  0.45594000000E+02  0.51100000000E-03 0.  1.
         11   -1    0    0    0    0 -0.00000000000E+00 -0.00000000000E+00 -0.45593999997E+02  0.45594000000E+02  0.51100000000E-03 0. -1.
         23    2    1    2    0    0 -0.88817841970E-15 -0.71054273576E-14  0.00000000000E+00  0.91188000000E+02  0.91188000000E+02 0.  0.
    9900012    2    3    3    0    0  0.59282052013E+01  0.31813634145E+02  0.24615334146E+02  0.50528860689E+02  0.30000002551E+02 0.  0.
        -12    1    3    3    0    0 -0.59282052013E+01 -0.31813634145E+02 -0.24615334146E+02  0.40659139311E+02  0.00000000000E+00 0.  1.
         11    1    4    4    0    0 -0.79057656943E+00  0.64527208921E+01  0.12235317545E+02  0.13855165604E+02  0.51100000000E-03 0. -1.
        -11    1    4    4    0    0 -0.49917186237E+01  0.73454962988E+00  0.73959580511E+01  0.89530449419E+01  0.51100000000E-03 0.  1.
         12    1    4    4    0    0  0.11710500394E+02  0.24626363623E+02  0.49840585497E+01  0.27720650144E+02  0.00000000000E+00 0. -1.
</event>
<event>
 8    1  0.5829710E-012  0.9118800E+02  0.7816164E-02  0.1184000E+00
        -11   -1    0    0    0    0  0.00000000000E+00  0.00000000000E+00  0.45593999997E+02  0.45594000000E+02  0.51100000000E-03 0. -1.
         11   -1    0    0    0    0 -0.00000000000E+00 -0.00000000000E+00 -0.45593999997E+02  0.45594000000E+02  0.51100000000E-03 0.  1.
         23    2    1    2    0    0 -0.17763568394E-14  0.00000000000E+00  0.00000000000E+00  0.91188000000E+02  0.91188000000E+02 0.  0.
    9900012    2    3    3    0    0  0.14843843297E+02 -0.37764577682E+02  0.25805940210E+01  0.50528899212E+02  0.30000119645E+02 0.  0.
        -12    1    3    3    0    0 -0.14843843297E+02  0.37764577682E+02 -0.25805940210E+01  0.40659100788E+02  0.00000000000E+00 0.  1.
         11    1    4    4    0    0 -0.30519253180E+01 -0.11876295590E+02 -0.58788585922E+01  0.13598589033E+02  0.51100000000E-03 0. -1.
        -11    1    4    4    0    0 -0.17536470734E+01 -0.74645532237E+01 -0.21765667860E+01  0.79707136521E+01  0.51100000000E-03 0.  1.
         12    1    4    4    0    0  0.19649415689E+02 -0.18423728869E+02  0.10636019399E+02  0.28959596527E+02  0.00000000000E+00 0. -1.
</event>
<event>
 8    1  0.5829710E-012  0.9118800E+02  0.7816164E-02  0.1184000E+00
        -11   -1    0    0    0    0  0.00000000000E+00  0.00000000000E+00  0.45593999997E+02  0.45594000000E+02  0.51100000000E-03 0. -1.
         11   -1    0    0    0    0 -0.00000000000E+00 -0.00000000000E+00 -0.45593999997E+02  0.45594000000E+02  0.51100000000E-03 0.  1.
         23    2    1    2    0    0  0.00000000000E+00  0.00000000000E+00  0.00000000000E+00  0.91188000000E+02  0.91188000000E+02 0.  0.
    9900012    2    3    3    0    0  0.34767078729E+02  0.59461953884E+01  0.20225190651E+02  0.50528864005E+02  0.30000012631E+02 0.  0.
        -12    1    3    3    0    0 -0.34767078729E+02 -0.59461953884E+01 -0.20225190651E+02  0.40659135995E+02  0.00000000000E+00 0.  1.
         11    1    4    4    0    0  0.18128825214E+02  0.28056805706E+01  0.61624056823E+01  0.19352038424E+02  0.51100000000E-03 0. -1.
        -11    1    4    4    0    0  0.15398757241E+02  0.38183052099E+01 -0.11423849242E+01  0.15906169332E+02  0.51100000000E-03 0.  1.
         12    1    4    4    0    0  0.12394962743E+01 -0.67779039215E+00  0.15205169892E+02  0.15270656249E+02  0.00000000000E+00 0. -1.
</event>
<event>
 8    1  0.5829710E-012  0.9118800E+02  0.7816164E-02  0.1184000E+00
        -11   -1    0    0    0    0  0.00000000000E+00  0.00000000000E+00  0.45593999997E+02  0.45594000000E+02  0.51100000000E-03 0. -1.
         11   -1    0    0    0    0 -0.00000000000E+00 -0.00000000000E+00 -0.45593999997E+02  0.45594000000E+02  0.51100000000E-03 0.  1.
         23    2    1    2    0    0  0.66613381478E-15  0.35527136788E-14 -0.71054273576E-14  0.91188000000E+02  0.91188000000E+02 0.  0.
    9900012    2    3    3    0    0 -0.14734856491E+01 -0.28708545976E+02  0.28754378896E+02  0.50528854932E+02  0.29999985050E+02 0.  0.
        -12    1    3    3    0    0  0.14734856491E+01  0.28708545976E+02 -0.28754378896E+02  0.40659145068E+02  0.00000000000E+00 0.  1.
         11    1    4    4    0    0  0.63141865734E+00 -0.24512131219E+02  0.23076234959E+02  0.33671291727E+02  0.51100000000E-03 0. -1.
        -11    1    4    4    0    0 -0.80052244659E+01 -0.53972138487E+01  0.47680321539E+01  0.10767899840E+02  0.51100000000E-03 0.  1.
        -12    1    4    4    0    0  0.59003201595E+01  0.12007990914E+01  0.91011178246E+00  0.60896633650E+01  0.00000000000E+00 0.  1.
</event>
<event>
 8    1  0.5829710E-012  0.9118800E+02  0.7816164E-02  0.1184000E+00
        -11   -1    0    0    0    0  0.00000000000E+00  0.00000000000E+00  0.45593999997E+02  0.45594000000E+02  0.51100000000E-03 0. -1.
         11   -1    0    0    0    0 -0.00000000000E+00 -0.00000000000E+00 -0.45593999997E+02  0.45594000000E+02  0.51100000000E-03 0.  1.
         23    2    1    2    0    0  0.88817841970E-15  0.35527136788E-14  0.00000000000E+00  0.91188000000E+02  0.91188000000E+02 0.  0.
    9900012    2    3    3    0    0  0.41309462011E+01 -0.25320166230E+02  0.31543452065E+02  0.50528869382E+02  0.30000028974E+02 0.  0.
        -12    1    3    3    0    0 -0.41309462011E+01  0.25320166230E+02 -0.31543452065E+02  0.40659130618E+02  0.00000000000E+00 0.  1.
         11    1    4    4    0    0  0.27639363770E+01 -0.12265008155E+01  0.18503199131E+02  0.18748654002E+02  0.51100000000E-03 0. -1.
        -11    1    4    4    0    0  0.46328517278E+01 -0.14265214534E+01  0.62183185700E+01  0.78845269159E+01  0.51100000000E-03 0.  1.
        -12    1    4    4    0    0 -0.32658419037E+01 -0.22667143961E+02  0.68219343635E+01  0.23895688464E+02  0.00000000000E+00 0.  1.
</event>
<event>
 8    1  0.5829710E-012  0.9118800E+02  0.7816164E-02  0.1184000E+00
        -11   -1    0    0    0    0  0.00000000000E+00  0.00000000000E+00  0.45593999997E+02  0.45594000000E+02  0.51100000000E-03 0.  1.
         11   -1    0    0    0    0 -0.00000000000E+00 -0.00000000000E+00 -0.45593999997E+02  0.45594000000E+02  0.51100000000E-03 0. -1.
         23    2    1    2    0    0 -0.71054273576E-14  0.00000000000E+00  0.00000000000E+00  0.91188000000E+02  0.91188000000E+02 0.  0.
    9900012    2    3    3    0    0  0.35398970921E+02 -0.17876352875E+02  0.89730102738E+01  0.50528855300E+02  0.29999986171E+02 0.  0.
        -12    1    3    3    0    0 -0.35398970921E+02  0.17876352875E+02 -0.89730102738E+01  0.40659144700E+02  0.00000000000E+00 0.  1.
         11    1    4    4    0    0  0.11763168373E+01  0.28718180185E+01  0.42133692659E+01  0.52329285171E+01  0.51100000000E-03 0. -1.
        -11    1    4    4    0    0  0.15774411417E+02  0.31720114507E+00 -0.33794481906E+01  0.16135468461E+02  0.51100000000E-03 0.  1.
         12    1    4    4    0    0  0.18448242667E+02 -0.21065372038E+02  0.81390891985E+01  0.29160458322E+02  0.00000000000E+00 0. -1.
</event>
<event>
 8    1  0.5829710E-012  0.9118800E+02  0.7816164E-02  0.1184000E+00
        -11   -1    0    0    0    0  0.00000000000E+00  0.00000000000E+00  0.45593999997E+02  0.45594000000E+02  0.51100000000E-03 0. -1.
         11   -1    0    0    0    0 -0.00000000000E+00 -0.00000000000E+00 -0.45593999997E+02  0.45594000000E+02  0.51100000000E-03 0.  1.
         23    2    1    2    0    0  0.00000000000E+00  0.88817841970E-15  0.35527136788E-14  0.91188000000E+02  0.91188000000E+02 0.  0.
    9900012    2    3    3    0    0  0.28826407590E+02  0.53289934992E+01  0.28174550639E+02  0.50528865110E+02  0.30000015989E+02 0.  0.
        -12    1    3    3    0    0 -0.28826407590E+02 -0.53289934992E+01 -0.28174550639E+02  0.40659134890E+02  0.00000000000E+00 0.  1.
         11    1    4    4    0    0  0.24963955461E+02  0.20900942894E+01  0.62409001042E+01  0.25816978924E+02  0.51100000000E-03 0.  1.
        -11    1    4    4    0    0  0.39945117549E+01  0.33839439093E+01  0.35457466091E+01  0.63229360125E+01  0.51100000000E-03 0. -1.
         12    1    4    4    0    0 -0.13205962516E+00 -0.14504469958E+00  0.18387903926E+02  0.18388950174E+02  0.00000000000E+00 0. -1.
</event>
<event>
 8    1  0.5829710E-012  0.9118800E+02  0.7816164E-02  0.1184000E+00
        -11   -1    0    0    0    0  0.00000000000E+00  0.00000000000E+00  0.45593999997E+02  0.45594000000E+02  0.51100000000E-03 0. -1.
         11   -1    0    0    0    0 -0.00000000000E+00 -0.00000000000E+00 -0.45593999997E+02  0.45594000000E+02  0.51100000000E-03 0.  1.
         23    2    1    2    0    0  0.35527136788E-14  0.00000000000E+00  0.35527136788E-14  0.91188000000E+02  0.91188000000E+02 0.  0.
    9900012    2    3    3    0    0 -0.25850378116E+02  0.16637833515E+02 -0.26610261758E+02  0.50528861007E+02  0.30000003516E+02 0.  0.
         12    1    3    3    0    0  0.25850378116E+02 -0.16637833515E+02  0.26610261758E+02  0.40659138993E+02  0.00000000000E+00 0. -1.
         11    1    4    4    0    0 -0.13751266010E+02  0.17756811042E+02 -0.50589992339E+01  0.23021623070E+02  0.51100000000E-03 0. -1.
        -11    1    4    4    0    0 -0.38714021490E+01  0.31968388353E+01 -0.12395584908E+01  0.51714638789E+01  0.51100000000E-03 0.  1.
        -12    1    4    4    0    0 -0.82277099577E+01 -0.43158163625E+01 -0.20311704034E+02  0.22335774058E+02  0.00000000000E+00 0.  1.
</event>
<event>
 8    1  0.5829710E-012  0.9118800E+02  0.7816164E-02  0.1184000E+00
        -11   -1    0    0    0    0  0.00000000000E+00  0.00000000000E+00  0.45593999997E+02  0.45594000000E+02  0.51100000000E-03 0. -1.
         11   -1    0    0    0    0 -0.00000000000E+00 -0.00000000000E+00 -0.45593999997E+02  0.45594000000E+02  0.51100000000E-03 0.  1.
         23    2    1    2    0    0  0.00000000000E+00  0.17763568394E-14  0.00000000000E+00  0.91188000000E+02  0.91188000000E+02 0.  0.
    9900012    2    3    3    0    0  0.20756783527E+02 -0.15274896675E+02 -0.31448515166E+02  0.50528737378E+02  0.29999627731E+02 0.  0.
         12    1    3    3    0    0 -0.20756783527E+02  0.15274896675E+02  0.31448515166E+02  0.40659262622E+02  0.00000000000E+00 0. -1.
         11    1    4    4    0    0 -0.16846180792E+01  0.57479825779E+00  0.16856812359E+01  0.24515000714E+01  0.51100000000E-03 0. -1.
        -11    1    4    4    0    0  0.18068212229E+02 -0.10251533193E+02 -0.85109321812E+01  0.22449725896E+02  0.51100000000E-03 0.  1.
        -12    1    4    4    0    0  0.43731893771E+01 -0.55981617404E+01 -0.24623264221E+02  0.25627511410E+02  0.00000000000E+00 0.  1.
</event>
<event>
 8    1  0.5829710E-012  0.9118800E+02  0.7816164E-02  0.1184000E+00
        -11   -1    0    0    0    0  0.00000000000E+00  0.00000000000E+00  0.45593999997E+02  0.45594000000E+02  0.51100000000E-03 0.  1.
         11   -1    0    0    0    0 -0.00000000000E+00 -0.00000000000E+00 -0.45593999997E+02  0.45594000000E+02  0.51100000000E-03 0. -1.
         23    2    1    2    0    0  0.71054273576E-14  0.00000000000E+00 -0.17763568394E-14  0.91188000000E+02  0.91188000000E+02 0.  0.
    9900012    2    3    3    0    0 -0.33088743818E+02 -0.19069264895E+02  0.13952113371E+02  0.50528889107E+02  0.30000088930E+02 0.  0.
        -12    1    3    3    0    0  0.33088743818E+02  0.19069264895E+02 -0.13952113371E+02  0.40659110893E+02  0.00000000000E+00 0.  1.
         11    1    4    4    0    0  0.12868953671E+01 -0.17792193544E+01  0.14465585922E+01  0.26294967615E+01  0.51100000000E-03 0. -1.
        -11    1    4    4    0    0 -0.45336928052E+01 -0.39435873345E+01  0.13937407691E+02  0.15177535535E+02  0.51100000000E-03 0.  1.
         12    1    4    4    0    0 -0.29841946380E+02 -0.13346458206E+02 -0.14318529120E+01  0.32721856811E+02  0.00000000000E+00 0. -1.
</event>
<event>
 8    1  0.5829710E-012  0.9118800E+02  0.7816164E-02  0.1184000E+00
        -11   -1    0    0    0    0  0.00000000000E+00  0.00000000000E+00  0.45593999997E+02  0.45594000000E+02  0.51100000000E-03 0. -1.
         11   -1    0    0    0    0 -0.00000000000E+00 -0.00000000000E+00 -0.45593999997E+02  0.45594000000E+02  0.51100000000E-03 0.  1.
         23    2    1    2    0    0 -0.17763568394E-14  0.17763568394E-14  0.71054273576E-14  0.91188000000E+02  0.91188000000E+02 0.  0.
    9900012    2    3    3    0    0  0.93487499417E+01 -0.10330464827E+02 -0.38197484985E+02  0.50528862181E+02  0.30000007085E+02 0.  0.
         12    1    3    3    0    0 -0.93487499417E+01  0.10330464827E+02  0.38197484985E+02  0.40659137819E+02  0.00000000000E+00 0. -1.
         11    1    4    4    0    0  0.17891493259E+01  0.16908379260E-01 -0.42614090143E+01  0.46217905894E+01  0.51100000000E-03 0. -1.
        -11    1    4    4    0    0  0.93507021082E+01  0.20684982204E+00 -0.33936687140E+02  0.35201948115E+02  0.51100000000E-03 0.  1.
         12    1    4    4    0    0 -0.17911014924E+01 -0.10554223028E+02  0.61116958169E-03  0.10705123477E+02  0.00000000000E+00 0. -1.
</event>
<event>
 8    1  0.5829710E-012  0.9118800E+02  0.7816164E-02  0.1184000E+00
        -11   -1    0    0    0    0  0.00000000000E+00  0.00000000000E+00  0.45593999997E+02  0.45594000000E+02  0.51100000000E-03 0.  1.
         11   -1    0    0    0    0 -0.00000000000E+00 -0.00000000000E+00 -0.45593999997E+02  0.45594000000E+02  0.51100000000E-03 0. -1.
         23    2    1    2    0    0  0.00000000000E+00 -0.17763568394E-14  0.00000000000E+00  0.91188000000E+02  0.91188000000E+02 0.  0.
    9900012    2    3    3    0    0  0.37051054911E+02 -0.15230933653E+02  0.69572469839E+01  0.50528864550E+02  0.30000014285E+02 0.  0.
        -12    1    3    3    0    0 -0.37051054911E+02  0.15230933653E+02 -0.69572469839E+01  0.40659135450E+02  0.00000000000E+00 0.  1.
         11    1    4    4    0    0  0.17393389329E+02 -0.98267677471E+01 -0.47728216967E+01  0.20539600384E+02  0.51100000000E-03 0. -1.
        -11    1    4    4    0    0  0.82247006015E+01  0.69115073497E+01  0.36777104776E+01  0.11355183330E+02  0.51100000000E-03 0.  1.
         12    1    4    4    0    0  0.11432964981E+02 -0.12315673255E+02  0.80523582030E+01  0.18634080836E+02  0.00000000000E+00 0. -1.
</event>
<event>
 8    1  0.5829710E-012  0.9118800E+02  0.7816164E-02  0.1184000E+00
        -11   -1    0    0    0    0  0.00000000000E+00  0.00000000000E+00  0.45593999997E+02  0.45594000000E+02  0.51100000000E-03 0.  1.
         11   -1    0    0    0    0 -0.00000000000E+00 -0.00000000000E+00 -0.45593999997E+02  0.45594000000E+02  0.51100000000E-03 0. -1.
         23    2    1    2    0    0  0.35527136788E-14  0.00000000000E+00  0.00000000000E+00  0.91188000000E+02  0.91188000000E+02 0.  0.
    9900012    2    3    3    0    0 -0.18929101239E+02  0.16696470101E+02  0.31876040672E+02  0.50528868720E+02  0.30000026960E+02 0.  0.
        -12    1    3    3    0    0  0.18929101239E+02 -0.16696470101E+02 -0.31876040672E+02  0.40659131280E+02  0.00000000000E+00 0.  1.
         11    1    4    4    0    0  0.18220019116E+01  0.41668413130E+01  0.35621638108E+01  0.57767870629E+01  0.51100000000E-03 0. -1.
        -11    1    4    4    0    0  0.28516471560E+01  0.85742997884E+01  0.21390147487E+01  0.92857898274E+01  0.51100000000E-03 0.  1.
        -12    1    4    4    0    0 -0.23602750307E+02  0.39553290000E+01  0.26174862112E+02  0.35466291829E+02  0.00000000000E+00 0.  1.
</event>
<event>
 8    1  0.5829710E-012  0.9118800E+02  0.7816164E-02  0.1184000E+00
        -11   -1    0    0    0    0  0.00000000000E+00  0.00000000000E+00  0.45593999997E+02  0.45594000000E+02  0.51100000000E-03 0. -1.
         11   -1    0    0    0    0 -0.00000000000E+00 -0.00000000000E+00 -0.45593999997E+02  0.45594000000E+02  0.51100000000E-03 0.  1.
         23    2    1    2    0    0 -0.17763568394E-14  0.17763568394E-14  0.00000000000E+00  0.91188000000E+02  0.91188000000E+02 0.  0.
    9900012    2    3    3    0    0  0.73374124077E+01 -0.13947005986E+02 -0.37480788165E+02  0.50528854924E+02  0.29999985028E+02 0.  0.
         12    1    3    3    0    0 -0.73374124077E+01  0.13947005986E+02  0.37480788165E+02  0.40659145076E+02  0.00000000000E+00 0. -1.
         11    1    4    4    0    0 -0.10526247307E+01 -0.62783446892E-01 -0.32410329507E+01  0.34082628175E+01  0.51100000000E-03 0.  1.
        -11    1    4    4    0    0  0.93028097413E+01 -0.10503550579E+02 -0.14066253345E+01  0.14101256644E+02  0.51100000000E-03 0. -1.
         12    1    4    4    0    0 -0.91277260285E+00 -0.33806719603E+01 -0.32833129880E+02  0.33019335463E+02  0.00000000000E+00 0. -1.
</event>
<event>
 8    1  0.5829710E-012  0.9118800E+02  0.7816164E-02  0.1184000E+00
        -11   -1    0    0    0    0  0.00000000000E+00  0.00000000000E+00  0.45593999997E+02  0.45594000000E+02  0.51100000000E-03 0. -1.
         11   -1    0    0    0    0 -0.00000000000E+00 -0.00000000000E+00 -0.45593999997E+02  0.45594000000E+02  0.51100000000E-03 0.  1.
         23    2    1    2    0    0  0.00000000000E+00 -0.22204460493E-15  0.71054273576E-14  0.91188000000E+02  0.91188000000E+02 0.  0.
    9900012    2    3    3    0    0  0.20188563802E+02 -0.18372460545E+01 -0.35245028238E+02  0.50528860843E+02  0.30000003019E+02 0.  0.
         12    1    3    3    0    0 -0.20188563802E+02  0.18372460545E+01  0.35245028238E+02  0.40659139157E+02  0.00000000000E+00 0. -1.
         11    1    4    4    0    0  0.18139347762E+02  0.51586604220E+01 -0.28611588758E+02  0.34267633798E+02  0.51100000000E-03 0. -1.
        -11    1    4    4    0    0  0.26017074465E+01 -0.64223855601E+01 -0.10352680972E+02  0.12457685238E+02  0.51100000000E-03 0.  1.
         12    1    4    4    0    0 -0.55249140599E+00 -0.57352091644E+00  0.37192414929E+01  0.38035418070E+01  0.00000000000E+00 0. -1.
</event>
<event>
 8    1  0.5829710E-012  0.9118800E+02  0.7816164E-02  0.1184000E+00
        -11   -1    0    0    0    0  0.00000000000E+00  0.00000000000E+00  0.45593999997E+02  0.45594000000E+02  0.51100000000E-03 0. -1.
         11   -1    0    0    0    0 -0.00000000000E+00 -0.00000000000E+00 -0.45593999997E+02  0.45594000000E+02  0.51100000000E-03 0.  1.
         23    2    1    2    0    0  0.35527136788E-14  0.00000000000E+00  0.10658141036E-13  0.91188000000E+02  0.91188000000E+02 0.  0.
    9900012    2    3    3    0    0  0.16656175419E+02  0.20113120082E+02  0.31164086655E+02  0.50528854952E+02  0.29999985112E+02 0.  0.
        -12    1    3    3    0    0 -0.16656175419E+02 -0.20113120082E+02 -0.31164086655E+02  0.40659145048E+02  0.00000000000E+00 0.  1.
         11    1    4    4    0    0  0.16825696565E+02  0.18389210560E+02  0.27166443837E+02  0.36868452652E+02  0.51100000000E-03 0. -1.
        -11    1    4    4    0    0 -0.49133749874E+01 -0.79349394539E+00  0.61178248032E+01  0.78866131509E+01  0.51100000000E-03 0.  1.
        -12    1    4    4    0    0  0.47438538419E+01  0.25174034672E+01 -0.21201819855E+01  0.57737891494E+01  0.00000000000E+00 0.  1.
</event>
<event>
 8    1  0.5829710E-012  0.9118800E+02  0.7816164E-02  0.1184000E+00
        -11   -1    0    0    0    0  0.00000000000E+00  0.00000000000E+00  0.45593999997E+02  0.45594000000E+02  0.51100000000E-03 0. -1.
         11   -1    0    0    0    0 -0.00000000000E+00 -0.00000000000E+00 -0.45593999997E+02  0.45594000000E+02  0.51100000000E-03 0.  1.
         23    2    1    2    0    0 -0.88817841970E-15  0.00000000000E+00  0.71054273576E-14  0.91188000000E+02  0.91188000000E+02 0.  0.
    9900012    2    3    3    0    0 -0.50042624013E+01 -0.35113210071E+02  0.19879293522E+02  0.50528850051E+02  0.29999970214E+02 0.  0.
        -12    1    3    3    0    0  0.50042624013E+01  0.35113210071E+02 -0.19879293522E+02  0.40659149949E+02  0.00000000000E+00 0.  1.
         11    1    4    4    0    0 -0.42164203085E+01 -0.13014789388E+01  0.91316539279E+01  0.10141950077E+02  0.51100000000E-03 0. -1.
        -11    1    4    4    0    0  0.72462161234E+01 -0.89812844395E+01  0.82172825879E+01  0.14166681040E+02  0.51100000000E-03 0.  1.
         12    1    4    4    0    0 -0.80340582162E+01 -0.24830446692E+02  0.25303570066E+01  0.26220218934E+02  0.00000000000E+00 0. -1.
</event>
<event>
 8    1  0.5829710E-012  0.9118800E+02  0.7816164E-02  0.1184000E+00
        -11   -1    0    0    0    0  0.00000000000E+00  0.00000000000E+00  0.45593999997E+02  0.45594000000E+02  0.51100000000E-03 0. -1.
         11   -1    0    0    0    0 -0.00000000000E+00 -0.00000000000E+00 -0.45593999997E+02  0.45594000000E+02  0.51100000000E-03 0.  1.
         23    2    1    2    0    0  0.88817841970E-15 -0.17763568394E-14  0.71054273576E-14  0.91188000000E+02  0.91188000000E+02 0.  0.
    9900012    2    3    3    0    0 -0.66348578476E+01  0.14155254500E+02 -0.37533624130E+02  0.50528861925E+02  0.30000006308E+02 0.  0.
         12    1    3    3    0    0  0.66348578476E+01 -0.14155254500E+02  0.37533624130E+02  0.40659138075E+02  0.00000000000E+00 0. -1.
         11    1    4    4    0    0 -0.17257095034E+00  0.37707954495E+00  0.44453970844E+00  0.60793546501E+00  0.51100000000E-03 0. -1.
        -11    1    4    4    0    0  0.27160878235E+01  0.91768376854E+01 -0.38469431206E+02  0.39642005758E+02  0.51100000000E-03 0.  1.
        -12    1    4    4    0    0 -0.91783747208E+01  0.46013372695E+01  0.49126736679E+00  0.10278920703E+02  0.00000000000E+00 0.  1.
</event>
<event>
 8    1  0.5829710E-012  0.9118800E+02  0.7816164E-02  0.1184000E+00
        -11   -1    0    0    0    0  0.00000000000E+00  0.00000000000E+00  0.45593999997E+02  0.45594000000E+02  0.51100000000E-03 0. -1.
         11   -1    0    0    0    0 -0.00000000000E+00 -0.00000000000E+00 -0.45593999997E+02  0.45594000000E+02  0.51100000000E-03 0.  1.
         23    2    1    2    0    0  0.00000000000E+00  0.00000000000E+00  0.00000000000E+00  0.91188000000E+02  0.91188000000E+02 0.  0.
    9900012    2    3    3    0    0  0.18777669674E+02 -0.33050193087E+02 -0.14430828108E+02  0.50528868905E+02  0.30000027525E+02 0.  0.
         12    1    3    3    0    0 -0.18777669674E+02  0.33050193087E+02  0.14430828108E+02  0.40659131095E+02  0.00000000000E+00 0. -1.
         11    1    4    4    0    0  0.55402724206E+01 -0.10441012393E+02  0.20636406522E+01  0.11998665396E+02  0.51100000000E-03 0. -1.
        -11    1    4    4    0    0  0.94866482313E+01 -0.14334707914E+02  0.25996247507E+01  0.17385004882E+02  0.51100000000E-03 0.  1.
         12    1    4    4    0    0  0.37507490226E+01 -0.82744727810E+01 -0.19094093510E+02  0.21145198628E+02  0.00000000000E+00 0. -1.
</event>
<event>
 8    1  0.5829710E-012  0.9118800E+02  0.7816164E-02  0.1184000E+00
        -11   -1    0    0    0    0  0.00000000000E+00  0.00000000000E+00  0.45593999997E+02  0.45594000000E+02  0.51100000000E-03 0. -1.
         11   -1    0    0    0    0 -0.00000000000E+00 -0.00000000000E+00 -0.45593999997E+02  0.45594000000E+02  0.51100000000E-03 0.  1.
         23    2    1    2    0    0  0.00000000000E+00  0.88817841970E-15  0.00000000000E+00  0.91188000000E+02  0.91188000000E+02 0.  0.
    9900012    2    3    3    0    0  0.37760974306E+02 -0.70894034160E+01 -0.13304630786E+02  0.50528880215E+02  0.30000061903E+02 0.  0.
         12    1    3    3    0    0 -0.37760974306E+02  0.70894034160E+01  0.13304630786E+02  0.40659119785E+02  0.00000000000E+00 0. -1.
         11    1    4    4    0    0  0.67806458068E+01 -0.81716680715E+01 -0.29225306022E+01  0.11013378320E+02  0.51100000000E-03 0. -1.
        -11    1    4    4    0    0  0.54956781502E+01  0.20562905925E+01 -0.12616783977E+02  0.13914526493E+02  0.51100000000E-03 0.  1.
         12    1    4    4    0    0  0.25484650349E+02 -0.97402593693E+00  0.22346837936E+01  0.25600975403E+02  0.00000000000E+00 0. -1.
</event>
<event>
 8    1  0.5829710E-012  0.9118800E+02  0.7816164E-02  0.1184000E+00
        -11   -1    0    0    0    0  0.00000000000E+00  0.00000000000E+00  0.45593999997E+02  0.45594000000E+02  0.51100000000E-03 0. -1.
         11   -1    0    0    0    0 -0.00000000000E+00 -0.00000000000E+00 -0.45593999997E+02  0.45594000000E+02  0.51100000000E-03 0.  1.
         23    2    1    2    0    0  0.17763568394E-14 -0.17763568394E-14  0.00000000000E+00  0.91188000000E+02  0.91188000000E+02 0.  0.
    9900012    2    3    3    0    0  0.15532615907E+02 -0.88005536312E+01 -0.36530170738E+02  0.50528864800E+02  0.30000015045E+02 0.  0.
         12    1    3    3    0    0 -0.15532615907E+02  0.88005536312E+01  0.36530170738E+02  0.40659135200E+02  0.00000000000E+00 0. -1.
         11    1    4    4    0    0  0.76374641974E+01  0.38385956162E+01  0.61216919016E+00  0.85697390304E+01  0.51100000000E-03 0. -1.
        -11    1    4    4    0    0  0.65063410175E+01 -0.31696223283E+01 -0.60688823830E+01  0.94451211099E+01  0.51100000000E-03 0.  1.
         12    1    4    4    0    0  0.13888106917E+01 -0.94695269190E+01 -0.31073457545E+02  0.32514004659E+02  0.00000000000E+00 0. -1.
</event>
<event>
 8    1  0.5829710E-012  0.9118800E+02  0.7816164E-02  0.1184000E+00
        -11   -1    0    0    0    0  0.00000000000E+00  0.00000000000E+00  0.45593999997E+02  0.45594000000E+02  0.51100000000E-03 0. -1.
         11   -1    0    0    0    0 -0.00000000000E+00 -0.00000000000E+00 -0.45593999997E+02  0.45594000000E+02  0.51100000000E-03 0.  1.
         23    2    1    2    0    0  0.00000000000E+00 -0.35527136788E-14 -0.35527136788E-14  0.91188000000E+02  0.91188000000E+02 0.  0.
    9900012    2    3    3    0    0 -0.11019583010E+02  0.24881492040E+02  0.30210050757E+02  0.50528843312E+02  0.29999949731E+02 0.  0.
        -12    1    3    3    0    0  0.11019583010E+02 -0.24881492040E+02 -0.30210050757E+02  0.40659156688E+02  0.00000000000E+00 0.  1.
         11    1    4    4    0    0 -0.65295875204E+01  0.42540457879E+00  0.12523209268E+02  0.14129658625E+02  0.51100000000E-03 0.  1.
        -11    1    4    4    0    0 -0.47367198308E+01  0.21166967171E+02  0.22049579976E+02  0.30929936814E+02  0.51100000000E-03 0. -1.
         12    1    4    4    0    0  0.24672434126E+00  0.32891202908E+01 -0.43627384868E+01  0.54692478726E+01  0.00000000000E+00 0. -1.
</event>
<event>
 8    1  0.5829710E-012  0.9118800E+02  0.7816164E-02  0.1184000E+00
        -11   -1    0    0    0    0  0.00000000000E+00  0.00000000000E+00  0.45593999997E+02  0.45594000000E+02  0.51100000000E-03 0. -1.
         11   -1    0    0    0    0 -0.00000000000E+00 -0.00000000000E+00 -0.45593999997E+02  0.45594000000E+02  0.51100000000E-03 0.  1.
         23    2    1    2    0    0  0.17763568394E-14  0.71054273576E-14  0.00000000000E+00  0.91188000000E+02  0.91188000000E+02 0.  0.
    9900012    2    3    3    0    0 -0.96005565545E+01 -0.39297677739E+02  0.40851411479E+01  0.50528849246E+02  0.29999967767E+02 0.  0.
        -12    1    3    3    0    0  0.96005565545E+01  0.39297677739E+02 -0.40851411479E+01  0.40659150754E+02  0.00000000000E+00 0.  1.
         11    1    4    4    0    0 -0.69966435264E+00 -0.16966842957E+02  0.68735003457E+01  0.18319615100E+02  0.51100000000E-03 0. -1.
        -11    1    4    4    0    0 -0.85042196344E+01 -0.23801814649E+02  0.36996243824E+01  0.25544771539E+02  0.51100000000E-03 0.  1.
        -12    1    4    4    0    0 -0.39667256745E+00  0.14709798670E+01 -0.64879835802E+01  0.66644626064E+01  0.00000000000E+00 0.  1.
</event>
<event>
 8    1  0.5829710E-012  0.9118800E+02  0.7816164E-02  0.1184000E+00
        -11   -1    0    0    0    0  0.00000000000E+00  0.00000000000E+00  0.45593999997E+02  0.45594000000E+02  0.51100000000E-03 0.  1.
         11   -1    0    0    0    0 -0.00000000000E+00 -0.00000000000E+00 -0.45593999997E+02  0.45594000000E+02  0.51100000000E-03 0. -1.
         23    2    1    2    0    0  0.00000000000E+00 -0.35527136788E-14  0.00000000000E+00  0.91188000000E+02  0.91188000000E+02 0.  0.
    9900012    2    3    3    0    0 -0.23317651833E+01  0.29176537339E+02  0.28221586567E+02  0.50528863163E+02  0.30000010071E+02 0.  0.
        -12    1    3    3    0    0  0.23317651833E+01 -0.29176537339E+02 -0.28221586567E+02  0.40659136837E+02  0.00000000000E+00 0.  1.
         11    1    4    4    0    0  0.42739809643E+01  0.13379026289E+02  0.48798649142E+01  0.14868703359E+02  0.51100000000E-03 0. -1.
        -11    1    4    4    0    0 -0.47061491839E+01  0.19677344785E+02  0.11999311914E+02  0.23522951018E+02  0.51100000000E-03 0.  1.
        -12    1    4    4    0    0 -0.18995969637E+01 -0.38798337355E+01  0.11342409738E+02  0.12137208786E+02  0.00000000000E+00 0.  1.
</event>
<event>
 8    1  0.5829710E-012  0.9118800E+02  0.7816164E-02  0.1184000E+00
        -11   -1    0    0    0    0  0.00000000000E+00  0.00000000000E+00  0.45593999997E+02  0.45594000000E+02  0.51100000000E-03 0. -1.
         11   -1    0    0    0    0 -0.00000000000E+00 -0.00000000000E+00 -0.45593999997E+02  0.45594000000E+02  0.51100000000E-03 0.  1.
         23    2    1    2    0    0 -0.88817841970E-15  0.17763568394E-14  0.00000000000E+00  0.91188000000E+02  0.91188000000E+02 0.  0.
    9900012    2    3    3    0    0  0.77003277004E+01 -0.95244871004E+01  0.38770550632E+02  0.50528849769E+02  0.29999969356E+02 0.  0.
        -12    1    3    3    0    0 -0.77003277004E+01  0.95244871004E+01 -0.38770550632E+02  0.40659150231E+02  0.00000000000E+00 0.  1.
         11    1    4    4    0    0 -0.47263787550E+01 -0.42921766928E+01  0.29538690975E+02  0.30220782612E+02  0.51100000000E-03 0. -1.
        -11    1    4    4    0    0  0.30504401299E+01 -0.77464618489E+01  0.34719687242E+01  0.90203893068E+01  0.51100000000E-03 0.  1.
        -12    1    4    4    0    0  0.93762663256E+01  0.25141514413E+01  0.57598909325E+01  0.11287677849E+02  0.00000000000E+00 0.  1.
</event>
<event>
 8    1  0.5829710E-012  0.9118800E+02  0.7816164E-02  0.1184000E+00
        -11   -1    0    0    0    0  0.00000000000E+00  0.00000000000E+00  0.45593999997E+02  0.45594000000E+02  0.51100000000E-03 0. -1.
         11   -1    0    0    0    0 -0.00000000000E+00 -0.00000000000E+00 -0.45593999997E+02  0.45594000000E+02  0.51100000000E-03 0.  1.
         23    2    1    2    0    0  0.00000000000E+00  0.00000000000E+00 -0.35527136788E-14  0.91188000000E+02  0.91188000000E+02 0.  0.
    9900012    2    3    3    0    0 -0.24349753515E+02  0.13036909719E+02  0.29837773504E+02  0.50528877543E+02  0.30000053781E+02 0.  0.
        -12    1    3    3    0    0  0.24349753515E+02 -0.13036909719E+02 -0.29837773504E+02  0.40659122457E+02  0.00000000000E+00 0.  1.
         11    1    4    4    0    0 -0.18230375290E+01 -0.21629535371E-01  0.50052051363E+01  0.53269139646E+01  0.51100000000E-03 0. -1.
        -11    1    4    4    0    0 -0.19329446078E+02 -0.24984091403E+01  0.21414891648E+02  0.28956296699E+02  0.51100000000E-03 0.  1.
        -12    1    4    4    0    0 -0.31972699073E+01  0.15556948395E+02  0.34176767198E+01  0.16245666880E+02  0.00000000000E+00 0.  1.
</event>
<event>
 8    1  0.5829710E-012  0.9118800E+02  0.7816164E-02  0.1184000E+00
        -11   -1    0    0    0    0  0.00000000000E+00  0.00000000000E+00  0.45593999997E+02  0.45594000000E+02  0.51100000000E-03 0. -1.
         11   -1    0    0    0    0 -0.00000000000E+00 -0.00000000000E+00 -0.45593999997E+02  0.45594000000E+02  0.51100000000E-03 0.  1.
         23    2    1    2    0    0  0.00000000000E+00  0.35527136788E-14  0.35527136788E-14  0.91188000000E+02  0.91188000000E+02 0.  0.
    9900012    2    3    3    0    0  0.31796142622E+02 -0.18129096158E+02 -0.17706027201E+02  0.50528902465E+02  0.30000129532E+02 0.  0.
         12    1    3    3    0    0 -0.31796142622E+02  0.18129096158E+02  0.17706027201E+02  0.40659097535E+02  0.00000000000E+00 0. -1.
         11    1    4    4    0    0  0.19577871390E+01 -0.77785089521E+01  0.18139701385E+01  0.82236621966E+01  0.51100000000E-03 0. -1.
        -11    1    4    4    0    0 -0.21359758267E+01 -0.22294472364E+01  0.12399629724E+01  0.33272114670E+01  0.51100000000E-03 0.  1.
        -12    1    4    4    0    0  0.31974331310E+02 -0.81211399692E+01 -0.20759960312E+02  0.38978028801E+02  0.00000000000E+00 0.  1.
</event>
<event>
 8    1  0.5829710E-012  0.9118800E+02  0.7816164E-02  0.1184000E+00
        -11   -1    0    0    0    0  0.00000000000E+00  0.00000000000E+00  0.45593999997E+02  0.45594000000E+02  0.51100000000E-03 0.  1.
         11   -1    0    0    0    0 -0.00000000000E+00 -0.00000000000E+00 -0.45593999997E+02  0.45594000000E+02  0.51100000000E-03 0. -1.
         23    2    1    2    0    0  0.35527136788E-14  0.00000000000E+00 -0.35527136788E-14  0.91188000000E+02  0.91188000000E+02 0.  0.
    9900012    2    3    3    0    0  0.31025202121E+02  0.21707421446E+02  0.14811857816E+02  0.50528850422E+02  0.29999971341E+02 0.  0.
        -12    1    3    3    0    0 -0.31025202121E+02 -0.21707421446E+02 -0.14811857816E+02  0.40659149578E+02  0.00000000000E+00 0.  1.
         11    1    4    4    0    0  0.17105929381E+02  0.44227984282E+01  0.17173081238E+02  0.24639169738E+02  0.51100000000E-03 0. -1.
        -11    1    4    4    0    0  0.25761997390E+01  0.20523793896E+01  0.46040500644E+01  0.56609489938E+01  0.51100000000E-03 0.  1.
         12    1    4    4    0    0  0.11343073001E+02  0.15232243628E+02 -0.69652734856E+01  0.20228731690E+02  0.00000000000E+00 0. -1.
</event>
<event>
 8    1  0.5829710E-012  0.9118800E+02  0.7816164E-02  0.1184000E+00
        -11   -1    0    0    0    0  0.00000000000E+00  0.00000000000E+00  0.45593999997E+02  0.45594000000E+02  0.51100000000E-03 0. -1.
         11   -1    0    0    0    0 -0.00000000000E+00 -0.00000000000E+00 -0.45593999997E+02  0.45594000000E+02  0.51100000000E-03 0.  1.
         23    2    1    2    0    0  0.00000000000E+00  0.00000000000E+00  0.35527136788E-14  0.91188000000E+02  0.91188000000E+02 0.  0.
    9900012    2    3    3    0    0  0.17926093310E+02 -0.24949244015E+02 -0.26633745509E+02  0.50528855910E+02  0.29999988025E+02 0.  0.
         12    1    3    3    0    0 -0.17926093310E+02  0.24949244015E+02  0.26633745509E+02  0.40659144090E+02  0.00000000000E+00 0. -1.
         11    1    4    4    0    0  0.80366050505E+01 -0.83407010963E+01  0.33975029288E+01  0.12070515396E+02  0.51100000000E-03 0. -1.
        -11    1    4    4    0    0  0.54519572108E+01 -0.76429624467E+01 -0.33577039451E+01  0.99706012073E+01  0.51100000000E-03 0.  1.
         12    1    4    4    0    0  0.44375310491E+01 -0.89655804717E+01 -0.26673544493E+02  0.28487739307E+02  0.00000000000E+00 0. -1.
</event>
<event>
 8    1  0.5829710E-012  0.9118800E+02  0.7816164E-02  0.1184000E+00
        -11   -1    0    0    0    0  0.00000000000E+00  0.00000000000E+00  0.45593999997E+02  0.45594000000E+02  0.51100000000E-03 0.  1.
         11   -1    0    0    0    0 -0.00000000000E+00 -0.00000000000E+00 -0.45593999997E+02  0.45594000000E+02  0.51100000000E-03 0. -1.
         23    2    1    2    0    0 -0.71054273576E-14  0.00000000000E+00 -0.26645352591E-14  0.91188000000E+02  0.91188000000E+02 0.  0.
    9900012    2    3    3    0    0  0.33239894356E+02 -0.22162586137E+02  0.75561346575E+01  0.50528856231E+02  0.29999988999E+02 0.  0.
         12    1    3    3    0    0 -0.33239894356E+02  0.22162586137E+02 -0.75561346575E+01  0.40659143769E+02  0.00000000000E+00 0. -1.
         11    1    4    4    0    0  0.50841185616E+01 -0.67285707283E+01 -0.77826086288E+01  0.11475666557E+02  0.51100000000E-03 0. -1.
        -11    1    4    4    0    0  0.18773156860E+02 -0.44852816326E+01  0.19900256204E+01  0.19403849413E+02  0.51100000000E-03 0.  1.
         12    1    4    4    0    0  0.93826189352E+01 -0.10948733776E+02  0.13348717666E+02  0.19649340261E+02  0.00000000000E+00 0. -1.
</event>
<event>
 8    1  0.5829710E-012  0.9118800E+02  0.7816164E-02  0.1184000E+00
        -11   -1    0    0    0    0  0.00000000000E+00  0.00000000000E+00  0.45593999997E+02  0.45594000000E+02  0.51100000000E-03 0. -1.
         11   -1    0    0    0    0 -0.00000000000E+00 -0.00000000000E+00 -0.45593999997E+02  0.45594000000E+02  0.51100000000E-03 0.  1.
         23    2    1    2    0    0  0.17763568394E-14  0.26645352591E-14  0.71054273576E-14  0.91188000000E+02  0.91188000000E+02 0.  0.
    9900012    2    3    3    0    0  0.12007034433E+02 -0.75603992812E+01 -0.38102998088E+02  0.50528843879E+02  0.29999951456E+02 0.  0.
         12    1    3    3    0    0 -0.12007034433E+02  0.75603992812E+01  0.38102998088E+02  0.40659156121E+02  0.00000000000E+00 0. -1.
         11    1    4    4    0    0  0.44276951955E+01 -0.10541930784E+02 -0.25059433451E+02  0.27544727164E+02  0.51100000000E-03 0. -1.
        -11    1    4    4    0    0  0.16019359260E+01 -0.70033397000E+01 -0.38321480619E+01  0.81423783193E+01  0.51100000000E-03 0.  1.
        -12    1    4    4    0    0  0.59774033117E+01  0.99848712031E+01 -0.92114165747E+01  0.14841738396E+02  0.00000000000E+00 0.  1.
</event>
<event>
 8    1  0.5829710E-012  0.9118800E+02  0.7816164E-02  0.1184000E+00
        -11   -1    0    0    0    0  0.00000000000E+00  0.00000000000E+00  0.45593999997E+02  0.45594000000E+02  0.51100000000E-03 0. -1.
         11   -1    0    0    0    0 -0.00000000000E+00 -0.00000000000E+00 -0.45593999997E+02  0.45594000000E+02  0.51100000000E-03 0.  1.
         23    2    1    2    0    0  0.00000000000E+00  0.44408920985E-15  0.35527136788E-14  0.91188000000E+02  0.91188000000E+02 0.  0.
    9900012    2    3    3    0    0  0.29771294269E+02  0.31385990437E+01  0.27513368092E+02  0.50528853548E+02  0.29999980846E+02 0.  0.
        -12    1    3    3    0    0 -0.29771294269E+02 -0.31385990437E+01 -0.27513368092E+02  0.40659146452E+02  0.00000000000E+00 0.  1.
         11    1    4    4    0    0  0.16907951015E+02  0.24729269107E+01  0.23776228888E+02  0.29279741041E+02  0.51100000000E-03 0. -1.
        -11    1    4    4    0    0  0.19102696812E+01 -0.95033849833E+00  0.88142930106E+01  0.90688497096E+01  0.51100000000E-03 0.  1.
        -12    1    4    4    0    0  0.10953073572E+02  0.16160106313E+01 -0.50771538067E+01  0.12180262798E+02  0.00000000000E+00 0.  1.
</event>
<event>
 8    1  0.5829710E-012  0.9118800E+02  0.7816164E-02  0.1184000E+00
        -11   -1    0    0    0    0  0.00000000000E+00  0.00000000000E+00  0.45593999997E+02  0.45594000000E+02  0.51100000000E-03 0.  1.
         11   -1    0    0    0    0 -0.00000000000E+00 -0.00000000000E+00 -0.45593999997E+02  0.45594000000E+02  0.51100000000E-03 0. -1.
         23    2    1    2    0    0  0.00000000000E+00  0.00000000000E+00  0.13322676296E-14  0.91188000000E+02  0.91188000000E+02 0.  0.
    9900012    2    3    3    0    0 -0.31512465606E+02 -0.25424525783E+02 -0.37047287425E+01  0.50528843407E+02  0.29999950019E+02 0.  0.
         12    1    3    3    0    0  0.31512465606E+02  0.25424525783E+02  0.37047287425E+01  0.40659156593E+02  0.00000000000E+00 0. -1.
         11    1    4    4    0    0 -0.74426057498E+01  0.32962472768E+01  0.86332300194E+00  0.81855331729E+01  0.51100000000E-03 0. -1.
        -11    1    4    4    0    0 -0.14439600680E+02 -0.14661496665E+02  0.70117712719E+01  0.21739974445E+02  0.51100000000E-03 0.  1.
        -12    1    4    4    0    0 -0.96302591755E+01 -0.14059276395E+02 -0.11579823016E+02  0.20603335789E+02  0.00000000000E+00 0.  1.
</event>
<event>
 8    1  0.5829710E-012  0.9118800E+02  0.7816164E-02  0.1184000E+00
        -11   -1    0    0    0    0  0.00000000000E+00  0.00000000000E+00  0.45593999997E+02  0.45594000000E+02  0.51100000000E-03 0. -1.
         11   -1    0    0    0    0 -0.00000000000E+00 -0.00000000000E+00 -0.45593999997E+02  0.45594000000E+02  0.51100000000E-03 0.  1.
         23    2    1    2    0    0  0.00000000000E+00 -0.17763568394E-14 -0.17763568394E-14  0.91188000000E+02  0.91188000000E+02 0.  0.
    9900012    2    3    3    0    0  0.38349611470E+02  0.80074330249E+01 -0.10878946183E+02  0.50528890890E+02  0.30000094348E+02 0.  0.
         12    1    3    3    0    0 -0.38349611470E+02 -0.80074330249E+01  0.10878946183E+02  0.40659109110E+02  0.00000000000E+00 0. -1.
         11    1    4    4    0    0 -0.15459584308E+01  0.31101730878E+01 -0.12235124897E+01  0.36824105120E+01  0.51100000000E-03 0. -1.
        -11    1    4    4    0    0  0.22066844303E+02  0.12986838414E+02 -0.93726072349E+01  0.27266267733E+02  0.51100000000E-03 0.  1.
         12    1    4    4    0    0  0.17828725599E+02 -0.80895784766E+01 -0.28282645826E+00  0.19580212645E+02  0.00000000000E+00 0. -1.
</event>
<event>
 8    1  0.5829710E-012  0.9118800E+02  0.7816164E-02  0.1184000E+00
        -11   -1    0    0    0    0  0.00000000000E+00  0.00000000000E+00  0.45593999997E+02  0.45594000000E+02  0.51100000000E-03 0.  1.
         11   -1    0    0    0    0 -0.00000000000E+00 -0.00000000000E+00 -0.45593999997E+02  0.45594000000E+02  0.51100000000E-03 0. -1.
         23    2    1    2    0    0  0.00000000000E+00  0.44408920985E-15  0.00000000000E+00  0.91188000000E+02  0.91188000000E+02 0.  0.
    9900012    2    3    3    0    0 -0.38126541100E+02  0.26844955264E+01 -0.13868189001E+02  0.50528851968E+02  0.29999976043E+02 0.  0.
        -12    1    3    3    0    0  0.38126541100E+02 -0.26844955264E+01  0.13868189001E+02  0.40659148032E+02  0.00000000000E+00 0.  1.
         11    1    4    4    0    0 -0.13752379604E+01 -0.11799798866E+01  0.14567691925E+01  0.23250395097E+01  0.51100000000E-03 0. -1.
        -11    1    4    4    0    0 -0.56597440896E+01 -0.10122546129E+02 -0.43862045831E+01  0.12399090056E+02  0.51100000000E-03 0.  1.
         12    1    4    4    0    0 -0.31091559050E+02  0.13987021542E+02 -0.10938753611E+02  0.35804722403E+02  0.00000000000E+00 0. -1.
</event>
<event>
 8    1  0.5829710E-012  0.9118800E+02  0.7816164E-02  0.1184000E+00
        -11   -1    0    0    0    0  0.00000000000E+00  0.00000000000E+00  0.45593999997E+02  0.45594000000E+02  0.51100000000E-03 0. -1.
         11   -1    0    0    0    0 -0.00000000000E+00 -0.00000000000E+00 -0.45593999997E+02  0.45594000000E+02  0.51100000000E-03 0.  1.
         23    2    1    2    0    0  0.88817841970E-15  0.00000000000E+00  0.00000000000E+00  0.91188000000E+02  0.91188000000E+02 0.  0.
    9900012    2    3    3    0    0 -0.50347864473E+01  0.22272065446E+02 -0.33641764530E+02  0.50528901455E+02  0.30000126463E+02 0.  0.
         12    1    3    3    0    0  0.50347864473E+01 -0.22272065446E+02  0.33641764530E+02  0.40659098545E+02  0.00000000000E+00 0. -1.
         11    1    4    4    0    0  0.29957009250E+01  0.10891307312E+02 -0.82236817840E+01  0.13972248972E+02  0.51100000000E-03 0. -1.
        -11    1    4    4    0    0  0.49528423997E+00  0.11395984144E+02 -0.25602804344E+02  0.28028866399E+02  0.51100000000E-03 0.  1.
         12    1    4    4    0    0 -0.85257716122E+01 -0.15226009989E-01  0.18472159843E+00  0.85277860834E+01  0.00000000000E+00 0. -1.
</event>
<event>
 8    1  0.6018841E-012  0.9118800E+02  0.7816164E-02  0.1184000E+00
        -11   -1    0    0    0    0  0.00000000000E+00  0.00000000000E+00  0.45593999997E+02  0.45594000000E+02  0.51100000000E-03 0. -1.
         11   -1    0    0    0    0 -0.00000000000E+00 -0.00000000000E+00 -0.45593999997E+02  0.45594000000E+02  0.51100000000E-03 0.  1.
         23    2    1    2    0    0  0.35527136788E-14  0.00000000000E+00 -0.35527136788E-14  0.91188000000E+02  0.91188000000E+02 0.  0.
    9900012    2    3    3    0    0  0.16884905569E+02 -0.24702724663E+02 -0.27528906052E+02  0.50528864369E+02  0.30000013736E+02 0.  0.
         12    1    3    3    0    0 -0.16884905569E+02  0.24702724663E+02  0.27528906052E+02  0.40659135631E+02  0.00000000000E+00 0. -1.
         11    1    4    4    0    0 -0.29967477838E+01  0.32382364700E+01 -0.22210990858E+00  0.44176923601E+01  0.51100000000E-03 0. -1.
        -11    1    4    4    0    0  0.57624958620E+01 -0.18849449667E+02 -0.18995171985E+02  0.27373795321E+02  0.51100000000E-03 0.  1.
        -12    1    4    4    0    0  0.14119157490E+02 -0.90915114662E+01 -0.83116241584E+01  0.18737376688E+02  0.00000000000E+00 0.  1.
</event>
<event>
 8    1  0.5829710E-012  0.9118800E+02  0.7816164E-02  0.1184000E+00
        -11   -1    0    0    0    0  0.00000000000E+00  0.00000000000E+00  0.45593999997E+02  0.45594000000E+02  0.51100000000E-03 0. -1.
         11   -1    0    0    0    0 -0.00000000000E+00 -0.00000000000E+00 -0.45593999997E+02  0.45594000000E+02  0.51100000000E-03 0.  1.
         23    2    1    2    0    0  0.88817841970E-15  0.00000000000E+00  0.00000000000E+00  0.91188000000E+02  0.91188000000E+02 0.  0.
    9900012    2    3    3    0    0 -0.43606036697E+01 -0.64929237008E+01  0.39899754500E+02  0.50528888700E+02  0.30000087691E+02 0.  0.
        -12    1    3    3    0    0  0.43606036697E+01  0.64929237008E+01 -0.39899754500E+02  0.40659111300E+02  0.00000000000E+00 0.  1.
         11    1    4    4    0    0 -0.41923956553E+00 -0.59484709436E+01  0.14043516813E+02  0.15257143675E+02  0.51100000000E-03 0. -1.
        -11    1    4    4    0    0  0.19058066139E+01 -0.92105823757E+01  0.22344526691E+02  0.24243448597E+02  0.51100000000E-03 0.  1.
        -12    1    4    4    0    0 -0.58471707180E+01  0.86661296185E+01  0.35117109956E+01  0.11028296427E+02  0.00000000000E+00 0.  1.
</event>
<event>
 8    1  0.5829710E-012  0.9118800E+02  0.7816164E-02  0.1184000E+00
        -11   -1    0    0    0    0  0.00000000000E+00  0.00000000000E+00  0.45593999997E+02  0.45594000000E+02  0.51100000000E-03 0. -1.
         11   -1    0    0    0    0 -0.00000000000E+00 -0.00000000000E+00 -0.45593999997E+02  0.45594000000E+02  0.51100000000E-03 0.  1.
         23    2    1    2    0    0  0.35527136788E-14  0.17763568394E-14  0.00000000000E+00  0.91188000000E+02  0.91188000000E+02 0.  0.
    9900012    2    3    3    0    0  0.16646899300E+02  0.30029250993E+01 -0.36973356796E+02  0.50528856770E+02  0.29999990639E+02 0.  0.
         12    1    3    3    0    0 -0.16646899300E+02 -0.30029250993E+01  0.36973356796E+02  0.40659143230E+02  0.00000000000E+00 0. -1.
         11    1    4    4    0    0  0.29085278814E+00 -0.24158115292E+01 -0.12176114655E+02  0.12416863897E+02  0.51100000000E-03 0. -1.
        -11    1    4    4    0    0  0.15602589068E+00 -0.31508647866E+01 -0.18448816963E+02  0.18716600668E+02  0.51100000000E-03 0.  1.
        -12    1    4    4    0    0  0.16200020621E+02  0.85696014151E+01 -0.63484251776E+01  0.19395392205E+02  0.00000000000E+00 0.  1.
</event>
<event>
 8    1  0.5829710E-012  0.9118800E+02  0.7816164E-02  0.1184000E+00
        -11   -1    0    0    0    0  0.00000000000E+00  0.00000000000E+00  0.45593999997E+02  0.45594000000E+02  0.51100000000E-03 0. -1.
         11   -1    0    0    0    0 -0.00000000000E+00 -0.00000000000E+00 -0.45593999997E+02  0.45594000000E+02  0.51100000000E-03 0.  1.
         23    2    1    2    0    0 -0.35527136788E-14  0.00000000000E+00 -0.35527136788E-14  0.91188000000E+02  0.91188000000E+02 0.  0.
    9900012    2    3    3    0    0 -0.31956401580E+02  0.94147276135E+01 -0.23309171651E+02  0.50528853660E+02  0.29999981186E+02 0.  0.
         12    1    3    3    0    0  0.31956401580E+02 -0.94147276135E+01  0.23309171651E+02  0.40659146340E+02  0.00000000000E+00 0. -1.
         11    1    4    4    0    0 -0.22421972532E+01 -0.67175325575E+00 -0.25146306301E+01  0.34354138653E+01  0.51100000000E-03 0. -1.
        -11    1    4    4    0    0 -0.26117280392E+02 -0.28585780518E+01 -0.21034021765E+02  0.33655814882E+02  0.51100000000E-03 0.  1.
         12    1    4    4    0    0 -0.35969239357E+01  0.12945058921E+02  0.23948074382E+00  0.13437624913E+02  0.00000000000E+00 0. -1.
</event>
<event>
 8    1  0.5829710E-012  0.9118800E+02  0.7816164E-02  0.1184000E+00
        -11   -1    0    0    0    0  0.00000000000E+00  0.00000000000E+00  0.45593999997E+02  0.45594000000E+02  0.51100000000E-03 0. -1.
         11   -1    0    0    0    0 -0.00000000000E+00 -0.00000000000E+00 -0.45593999997E+02  0.45594000000E+02  0.51100000000E-03 0.  1.
         23    2    1    2    0    0  0.17763568394E-14  0.17763568394E-14  0.71054273576E-14  0.91188000000E+02  0.91188000000E+02 0.  0.
    9900012    2    3    3    0    0 -0.60215692749E+01  0.13624028371E+02  0.37832426278E+02  0.50528856826E+02  0.29999990809E+02 0.  0.
        -12    1    3    3    0    0  0.60215692749E+01 -0.13624028371E+02 -0.37832426278E+02  0.40659143174E+02  0.00000000000E+00 0.  1.
         11    1    4    4    0    0 -0.11348198728E+02  0.11416680222E+01  0.11646968648E+02  0.16301438562E+02  0.51100000000E-03 0. -1.
        -11    1    4    4    0    0 -0.39090449091E+01  0.19965115281E+00  0.56790824842E-01  0.39145520999E+01  0.51100000000E-03 0.  1.
         12    1    4    4    0    0  0.92356743620E+01  0.12282709196E+02  0.26128666805E+02  0.30312866165E+02  0.00000000000E+00 0. -1.
</event>
<event>
 8    1  0.5829710E-012  0.9118800E+02  0.7816164E-02  0.1184000E+00
        -11   -1    0    0    0    0  0.00000000000E+00  0.00000000000E+00  0.45593999997E+02  0.45594000000E+02  0.51100000000E-03 0. -1.
         11   -1    0    0    0    0 -0.00000000000E+00 -0.00000000000E+00 -0.45593999997E+02  0.45594000000E+02  0.51100000000E-03 0.  1.
         23    2    1    2    0    0  0.35527136788E-14  0.88817841970E-15  0.00000000000E+00  0.91188000000E+02  0.91188000000E+02 0.  0.
    9900012    2    3    3    0    0 -0.24003926574E+02 -0.56930580746E+01 -0.32319754233E+02  0.50528856934E+02  0.29999991136E+02 0.  0.
         12    1    3    3    0    0  0.24003926574E+02  0.56930580746E+01  0.32319754233E+02  0.40659143066E+02  0.00000000000E+00 0. -1.
         11    1    4    4    0    0  0.68765101589E+00  0.10030757472E+01 -0.32215025665E+01  0.34434145730E+01  0.51100000000E-03 0. -1.
        -11    1    4    4    0    0 -0.55214799784E+01 -0.27338627154E+01 -0.26655529348E+02  0.27358325819E+02  0.51100000000E-03 0.  1.
        -12    1    4    4    0    0 -0.19170097611E+02 -0.39622711064E+01 -0.24427223181E+01  0.19727116542E+02  0.00000000000E+00 0.  1.
</event>
<event>
 8    1  0.5829710E-012  0.9118800E+02  0.7816164E-02  0.1184000E+00
        -11   -1    0    0    0    0  0.00000000000E+00  0.00000000000E+00  0.45593999997E+02  0.45594000000E+02  0.51100000000E-03 0. -1.
         11   -1    0    0    0    0 -0.00000000000E+00 -0.00000000000E+00 -0.45593999997E+02  0.45594000000E+02  0.51100000000E-03 0.  1.
         23    2    1    2    0    0  0.00000000000E+00  0.88817841970E-15  0.00000000000E+00  0.91188000000E+02  0.91188000000E+02 0.  0.
    9900012    2    3    3    0    0 -0.39501282912E+02 -0.53553310932E+01 -0.80085120788E+01  0.50528841272E+02  0.29999943530E+02 0.  0.
         12    1    3    3    0    0  0.39501282912E+02  0.53553310932E+01  0.80085120788E+01  0.40659158728E+02  0.00000000000E+00 0. -1.
         11    1    4    4    0    0 -0.10638806258E+02 -0.68177723037E+01 -0.29665201156E+01  0.12979462995E+02  0.51100000000E-03 0.  1.
        -11    1    4    4    0    0 -0.32437646984E+02  0.40654582272E+01 -0.53055321103E+01  0.33119141953E+02  0.51100000000E-03 0. -1.
         12    1    4    4    0    0  0.35751703302E+01 -0.26030170167E+01  0.26354014707E+00  0.44302363242E+01  0.00000000000E+00 0. -1.
</event>
<event>
 8    1  0.5829710E-012  0.9118800E+02  0.7816164E-02  0.1184000E+00
        -11   -1    0    0    0    0  0.00000000000E+00  0.00000000000E+00  0.45593999997E+02  0.45594000000E+02  0.51100000000E-03 0. -1.
         11   -1    0    0    0    0 -0.00000000000E+00 -0.00000000000E+00 -0.45593999997E+02  0.45594000000E+02  0.51100000000E-03 0.  1.
         23    2    1    2    0    0  0.00000000000E+00  0.00000000000E+00  0.00000000000E+00  0.91188000000E+02  0.91188000000E+02 0.  0.
    9900012    2    3    3    0    0 -0.11944832085E+02  0.14188759300E+02 -0.36182403448E+02  0.50528853141E+02  0.29999979607E+02 0.  0.
         12    1    3    3    0    0  0.11944832085E+02 -0.14188759300E+02  0.36182403448E+02  0.40659146859E+02  0.00000000000E+00 0. -1.
         11    1    4    4    0    0 -0.72346577707E+01 -0.45395295382E+01 -0.47474844922E+01  0.97717045980E+01  0.51100000000E-03 0. -1.
        -11    1    4    4    0    0 -0.23090259187E+01 -0.16431062771E+01 -0.12581048736E+02  0.12896285764E+02  0.51100000000E-03 0.  1.
         12    1    4    4    0    0 -0.24011483959E+01  0.20371395115E+02 -0.18853870220E+02  0.27860862779E+02  0.00000000000E+00 0. -1.
</event>
<event>
 8    1  0.5829710E-012  0.9118800E+02  0.7816164E-02  0.1184000E+00
        -11   -1    0    0    0    0  0.00000000000E+00  0.00000000000E+00  0.45593999997E+02  0.45594000000E+02  0.51100000000E-03 0.  1.
         11   -1    0    0    0    0 -0.00000000000E+00 -0.00000000000E+00 -0.45593999997E+02  0.45594000000E+02  0.51100000000E-03 0. -1.
         23    2    1    2    0    0  0.00000000000E+00  0.00000000000E+00 -0.17763568394E-14  0.91188000000E+02  0.91188000000E+02 0.  0.
    9900012    2    3    3    0    0 -0.24133095005E+02  0.28599453277E+02  0.15900682985E+02  0.50528847013E+02  0.29999960980E+02 0.  0.
        -12    1    3    3    0    0  0.24133095005E+02 -0.28599453277E+02 -0.15900682985E+02  0.40659152987E+02  0.00000000000E+00 0.  1.
         11    1    4    4    0    0  0.22476268003E+00 -0.21030425267E+01 -0.34280128784E+01  0.40279745142E+01  0.51100000000E-03 0. -1.
        -11    1    4    4    0    0 -0.89366507058E+01  0.96548582324E+01  0.15168347326E+02  0.20078814063E+02  0.51100000000E-03 0.  1.
        -12    1    4    4    0    0 -0.15421206980E+02  0.21047637571E+02  0.41603485374E+01  0.26422058436E+02  0.00000000000E+00 0.  1.
</event>
<event>
 8    1  0.5829710E-012  0.9118800E+02  0.7816164E-02  0.1184000E+00
        -11   -1    0    0    0    0  0.00000000000E+00  0.00000000000E+00  0.45593999997E+02  0.45594000000E+02  0.51100000000E-03 0. -1.
         11   -1    0    0    0    0 -0.00000000000E+00 -0.00000000000E+00 -0.45593999997E+02  0.45594000000E+02  0.51100000000E-03 0.  1.
         23    2    1    2    0    0  0.00000000000E+00  0.00000000000E+00  0.00000000000E+00  0.91188000000E+02  0.91188000000E+02 0.  0.
    9900012    2    3    3    0    0 -0.28577758603E+02  0.26324720821E+02  0.11978671690E+02  0.50528833893E+02  0.29999921100E+02 0.  0.
        -12    1    3    3    0    0  0.28577758603E+02 -0.26324720821E+02 -0.11978671690E+02  0.40659166107E+02  0.00000000000E+00 0.  1.
         11    1    4    4    0    0 -0.25039587886E+02  0.14651002373E+02  0.11447423711E+01  0.29033485278E+02  0.51100000000E-03 0. -1.
        -11    1    4    4    0    0 -0.39503168264E+01 -0.11838985983E+01 -0.74132702190E+00  0.41900101354E+01  0.51100000000E-03 0.  1.
        -12    1    4    4    0    0  0.41214610921E+00  0.12857617046E+02  0.11575256341E+02  0.17305338479E+02  0.00000000000E+00 0.  1.
</event>
<event>
 8    1  0.8703716E-012  0.9118800E+02  0.7816164E-02  0.1184000E+00
        -11   -1    0    0    0    0  0.00000000000E+00  0.00000000000E+00  0.45593999997E+02  0.45594000000E+02  0.51100000000E-03 0. -1.
         11   -1    0    0    0    0 -0.00000000000E+00 -0.00000000000E+00 -0.45593999997E+02  0.45594000000E+02  0.51100000000E-03 0.  1.
         23    2    1    2    0    0  0.00000000000E+00 -0.71054273576E-14  0.00000000000E+00  0.91188000000E+02  0.91188000000E+02 0.  0.
    9900012    2    3    3    0    0  0.92975897082E+01 -0.26180293355E+02 -0.29686922207E+02  0.50528852386E+02  0.29999977314E+02 0.  0.
         12    1    3    3    0    0 -0.92975897082E+01  0.26180293355E+02  0.29686922207E+02  0.40659147614E+02  0.00000000000E+00 0. -1.
         11    1    4    4    0    0 -0.45659078810E+01 -0.98187984501E+01 -0.14714497924E+02  0.18269449012E+02  0.51100000000E-03 0. -1.
        -11    1    4    4    0    0  0.10479562656E+01 -0.13709498408E+02 -0.13186971383E+02  0.19051109507E+02  0.51100000000E-03 0.  1.
         12    1    4    4    0    0  0.12815541324E+02 -0.26519964969E+01 -0.17854529004E+01  0.13208293868E+02  0.00000000000E+00 0. -1.
</event>
<event>
 8    1  0.5829710E-012  0.9118800E+02  0.7816164E-02  0.1184000E+00
        -11   -1    0    0    0    0  0.00000000000E+00  0.00000000000E+00  0.45593999997E+02  0.45594000000E+02  0.51100000000E-03 0.  1.
         11   -1    0    0    0    0 -0.00000000000E+00 -0.00000000000E+00 -0.45593999997E+02  0.45594000000E+02  0.51100000000E-03 0. -1.
         23    2    1    2    0    0  0.35527136788E-14 -0.71054273576E-14  0.88817841970E-15  0.91188000000E+02  0.91188000000E+02 0.  0.
    9900012    2    3    3    0    0 -0.31572651878E+02  0.25420633513E+02 -0.31818836657E+01  0.50528864022E+02  0.30000012681E+02 0.  0.
         12    1    3    3    0    0  0.31572651878E+02 -0.25420633513E+02  0.31818836657E+01  0.40659135978E+02  0.00000000000E+00 0. -1.
         11    1    4    4    0    0 -0.17838984837E+02  0.14836479211E+02 -0.10979909390E+02  0.25669220983E+02  0.51100000000E-03 0. -1.
        -11    1    4    4    0    0 -0.19411542996E+01  0.11585616508E+02  0.44313971139E+01  0.12555153147E+02  0.51100000000E-03 0.  1.
        -12    1    4    4    0    0 -0.11792512742E+02 -0.10014622063E+01  0.33666286108E+01  0.12304489893E+02  0.00000000000E+00 0.  1.
</event>
<event>
 8    1  0.5829710E-012  0.9118800E+02  0.7816164E-02  0.1184000E+00
        -11   -1    0    0    0    0  0.00000000000E+00  0.00000000000E+00  0.45593999997E+02  0.45594000000E+02  0.51100000000E-03 0. -1.
         11   -1    0    0    0    0 -0.00000000000E+00 -0.00000000000E+00 -0.45593999997E+02  0.45594000000E+02  0.51100000000E-03 0.  1.
         23    2    1    2    0    0  0.00000000000E+00  0.00000000000E+00  0.00000000000E+00  0.91188000000E+02  0.91188000000E+02 0.  0.
    9900012    2    3    3    0    0  0.80827635569E+01  0.20484396933E+02  0.34179294022E+02  0.50528859278E+02  0.29999998261E+02 0.  0.
        -12    1    3    3    0    0 -0.80827635569E+01 -0.20484396933E+02 -0.34179294022E+02  0.40659140722E+02  0.00000000000E+00 0.  1.
         11    1    4    4    0    0  0.74380305800E+01  0.49946216032E+01  0.69816740595E+01  0.11358446936E+02  0.51100000000E-03 0. -1.
        -11    1    4    4    0    0 -0.68370377031E+01  0.17622484704E+02  0.12872835381E+02  0.22869345043E+02  0.51100000000E-03 0.  1.
         12    1    4    4    0    0  0.74817706800E+01 -0.21327093738E+01  0.14324784581E+02  0.16301067299E+02  0.00000000000E+00 0. -1.
</event>
<event>
 8    1  0.5829710E-012  0.9118800E+02  0.7816164E-02  0.1184000E+00
        -11   -1    0    0    0    0  0.00000000000E+00  0.00000000000E+00  0.45593999997E+02  0.45594000000E+02  0.51100000000E-03 0. -1.
         11   -1    0    0    0    0 -0.00000000000E+00 -0.00000000000E+00 -0.45593999997E+02  0.45594000000E+02  0.51100000000E-03 0.  1.
         23    2    1    2    0    0  0.19428902931E-15  0.00000000000E+00  0.71054273576E-14  0.91188000000E+02  0.91188000000E+02 0.  0.
    9900012    2    3    3    0    0  0.50534480277E-01  0.14257263447E+02  0.38077465581E+02  0.50528862038E+02  0.30000006652E+02 0.  0.
        -12    1    3    3    0    0 -0.50534480277E-01 -0.14257263447E+02 -0.38077465581E+02  0.40659137962E+02  0.00000000000E+00 0.  1.
         11    1    4    4    0    0  0.19469583651E+01  0.72376461402E+01  0.19650520989E+01  0.77482642275E+01  0.51100000000E-03 0. -1.
        -11    1    4    4    0    0  0.56221578824E+01  0.63427677232E+01  0.32748203642E+01  0.90864630261E+01  0.51100000000E-03 0.  1.
         12    1    4    4    0    0 -0.75185817672E+01  0.67684958386E+00  0.32837593118E+02  0.33694134785E+02  0.00000000000E+00 0. -1.
</event>
<event>
 8    1  0.5829710E-012  0.9118800E+02  0.7816164E-02  0.1184000E+00
        -11   -1    0    0    0    0  0.00000000000E+00  0.00000000000E+00  0.45593999997E+02  0.45594000000E+02  0.51100000000E-03 0. -1.
         11   -1    0    0    0    0 -0.00000000000E+00 -0.00000000000E+00 -0.45593999997E+02  0.45594000000E+02  0.51100000000E-03 0.  1.
         23    2    1    2    0    0  0.44408920985E-15  0.35527136788E-14  0.00000000000E+00  0.91188000000E+02  0.91188000000E+02 0.  0.
    9900012    2    3    3    0    0 -0.24209855596E+01  0.20630038822E+02 -0.34952897317E+02  0.50528871828E+02  0.30000036408E+02 0.  0.
         12    1    3    3    0    0  0.24209855596E+01 -0.20630038822E+02  0.34952897317E+02  0.40659128172E+02  0.00000000000E+00 0. -1.
         11    1    4    4    0    0 -0.12614741225E+00  0.95778603004E+01 -0.42032827265E+01  0.10460349279E+02  0.51100000000E-03 0. -1.
        -11    1    4    4    0    0 -0.74522649435E+01  0.12568117362E+02 -0.31420011777E+02  0.34651276559E+02  0.51100000000E-03 0.  1.
         12    1    4    4    0    0  0.51574267961E+01 -0.15159388407E+01  0.67039718647E+00  0.54172459898E+01  0.00000000000E+00 0. -1.
</event>
<event>
 8    1  0.5829710E-012  0.9118800E+02  0.7816164E-02  0.1184000E+00
        -11   -1    0    0    0    0  0.00000000000E+00  0.00000000000E+00  0.45593999997E+02  0.45594000000E+02  0.51100000000E-03 0. -1.
         11   -1    0    0    0    0 -0.00000000000E+00 -0.00000000000E+00 -0.45593999997E+02  0.45594000000E+02  0.51100000000E-03 0.  1.
         23    2    1    2    0    0  0.00000000000E+00  0.00000000000E+00  0.44408920985E-15  0.91188000000E+02  0.91188000000E+02 0.  0.
    9900012    2    3    3    0    0  0.36414494007E+02 -0.17810297020E+02 -0.31534751472E+01  0.50528850240E+02  0.29999970788E+02 0.  0.
         12    1    3    3    0    0 -0.36414494007E+02  0.17810297020E+02  0.31534751472E+01  0.40659149760E+02  0.00000000000E+00 0. -1.
         11    1    4    4    0    0  0.19332652469E+02 -0.18803258704E+02  0.46979764967E+01  0.27374896763E+02  0.51100000000E-03 0. -1.
        -11    1    4    4    0    0  0.18490161328E+02 -0.14082588194E+01 -0.50825464419E+01  0.19227624332E+02  0.51100000000E-03 0.  1.
        -12    1    4    4    0    0 -0.14083197900E+01  0.24012205030E+01 -0.27689052020E+01  0.39263291447E+01  0.00000000000E+00 0.  1.
</event>
<event>
 8    1  0.5829710E-012  0.9118800E+02  0.7816164E-02  0.1184000E+00
        -11   -1    0    0    0    0  0.00000000000E+00  0.00000000000E+00  0.45593999997E+02  0.45594000000E+02  0.51100000000E-03 0. -1.
         11   -1    0    0    0    0 -0.00000000000E+00 -0.00000000000E+00 -0.45593999997E+02  0.45594000000E+02  0.51100000000E-03 0.  1.
         23    2    1    2    0    0  0.00000000000E+00  0.00000000000E+00  0.00000000000E+00  0.91188000000E+02  0.91188000000E+02 0.  0.
    9900012    2    3    3    0    0  0.76598098810E+01  0.16707772544E+02 -0.36267659038E+02  0.50528862737E+02  0.30000008777E+02 0.  0.
         12    1    3    3    0    0 -0.76598098810E+01 -0.16707772544E+02  0.36267659038E+02  0.40659137263E+02  0.00000000000E+00 0. -1.
         11    1    4    4    0    0 -0.61665701212E+01  0.94339086888E+01 -0.51492511598E+01  0.12391126179E+02  0.51100000000E-03 0. -1.
        -11    1    4    4    0    0  0.72746552187E+00  0.40668136940E+01 -0.20667637554E+02  0.21076513517E+02  0.51100000000E-03 0.  1.
        -12    1    4    4    0    0  0.13098914480E+02  0.32070501617E+01 -0.10450770325E+02  0.17061223042E+02  0.00000000000E+00 0.  1.
</event>
<event>
 8    1  0.5829710E-012  0.9118800E+02  0.7816164E-02  0.1184000E+00
        -11   -1    0    0    0    0  0.00000000000E+00  0.00000000000E+00  0.45593999997E+02  0.45594000000E+02  0.51100000000E-03 0. -1.
         11   -1    0    0    0    0 -0.00000000000E+00 -0.00000000000E+00 -0.45593999997E+02  0.45594000000E+02  0.51100000000E-03 0.  1.
         23    2    1    2    0    0  0.00000000000E+00  0.17763568394E-14 -0.17763568394E-14  0.91188000000E+02  0.91188000000E+02 0.  0.
    9900012    2    3    3    0    0 -0.36306247056E+02  0.97480735544E+01  0.15491857819E+02  0.50528853772E+02  0.29999981525E+02 0.  0.
        -12    1    3    3    0    0  0.36306247056E+02 -0.97480735544E+01 -0.15491857819E+02  0.40659146228E+02  0.00000000000E+00 0.  1.
         11    1    4    4    0    0  0.33132585459E+01  0.36815995196E+01  0.25888178673E+01  0.55887239533E+01  0.51100000000E-03 0.  1.
        -11    1    4    4    0    0 -0.40121286084E+01  0.49678414790E+01  0.57749290498E+01  0.86096707673E+01  0.51100000000E-03 0. -1.
         12    1    4    4    0    0 -0.35607376993E+02  0.10986325558E+01  0.71281109023E+01  0.36330459051E+02  0.00000000000E+00 0. -1.
</event>
<event>
 8    1  0.5829710E-012  0.9118800E+02  0.7816164E-02  0.1184000E+00
        -11   -1    0    0    0    0  0.00000000000E+00  0.00000000000E+00  0.45593999997E+02  0.45594000000E+02  0.51100000000E-03 0. -1.
         11   -1    0    0    0    0 -0.00000000000E+00 -0.00000000000E+00 -0.45593999997E+02  0.45594000000E+02  0.51100000000E-03 0.  1.
         23    2    1    2    0    0 -0.71054273576E-14 -0.88817841970E-15  0.00000000000E+00  0.91188000000E+02  0.91188000000E+02 0.  0.
    9900012    2    3    3    0    0  0.30158546706E+02  0.56894971326E+01  0.26669428289E+02  0.50528847005E+02  0.29999960955E+02 0.  0.
        -12    1    3    3    0    0 -0.30158546706E+02 -0.56894971326E+01 -0.26669428289E+02  0.40659152995E+02  0.00000000000E+00 0.  1.
         11    1    4    4    0    0  0.24918134365E+02  0.88472026587E+01  0.19637187437E+02  0.32936386350E+02  0.51100000000E-03 0. -1.
        -11    1    4    4    0    0  0.30109753842E+01  0.45681425993E+01  0.77860491349E+01  0.95161158549E+01  0.51100000000E-03 0.  1.
         12    1    4    4    0    0  0.22294369570E+01 -0.77258481255E+01 -0.75380828225E+00  0.80763448001E+01  0.00000000000E+00 0. -1.
</event>
<event>
 8    1  0.5829710E-012  0.9118800E+02  0.7816164E-02  0.1184000E+00
        -11   -1    0    0    0    0  0.00000000000E+00  0.00000000000E+00  0.45593999997E+02  0.45594000000E+02  0.51100000000E-03 0. -1.
         11   -1    0    0    0    0 -0.00000000000E+00 -0.00000000000E+00 -0.45593999997E+02  0.45594000000E+02  0.51100000000E-03 0.  1.
         23    2    1    2    0    0  0.00000000000E+00  0.00000000000E+00 -0.35527136788E-14  0.91188000000E+02  0.91188000000E+02 0.  0.
    9900012    2    3    3    0    0 -0.91210773251E+01 -0.31846904906E+02 -0.23574496152E+02  0.50528729563E+02  0.29999603977E+02 0.  0.
         12    1    3    3    0    0  0.91210773251E+01  0.31846904906E+02  0.23574496152E+02  0.40659270437E+02  0.00000000000E+00 0. -1.
         11    1    4    4    0    0  0.25687605494E+01 -0.61628835735E+01 -0.31744160888E+01  0.73930090265E+01  0.51100000000E-03 0. -1.
        -11    1    4    4    0    0  0.39286775463E+01 -0.20379588846E+02 -0.15577924174E+02  0.25950604436E+02  0.51100000000E-03 0.  1.
        -12    1    4    4    0    0 -0.15618515421E+02 -0.53044324869E+01 -0.48221558895E+01  0.17185116100E+02  0.00000000000E+00 0.  1.
</event>
<event>
 8    1  0.5829710E-012  0.9118800E+02  0.7816164E-02  0.1184000E+00
        -11   -1    0    0    0    0  0.00000000000E+00  0.00000000000E+00  0.45593999997E+02  0.45594000000E+02  0.51100000000E-03 0. -1.
         11   -1    0    0    0    0 -0.00000000000E+00 -0.00000000000E+00 -0.45593999997E+02  0.45594000000E+02  0.51100000000E-03 0.  1.
         23    2    1    2    0    0  0.00000000000E+00 -0.35527136788E-14  0.00000000000E+00  0.91188000000E+02  0.91188000000E+02 0.  0.
    9900012    2    3    3    0    0 -0.19033088168E+02 -0.23447777471E+02 -0.27223525321E+02  0.50528720070E+02  0.29999575122E+02 0.  0.
         12    1    3    3    0    0  0.19033088168E+02  0.23447777471E+02  0.27223525321E+02  0.40659279930E+02  0.00000000000E+00 0. -1.
         11    1    4    4    0    0 -0.27764002987E+01 -0.16408248334E+02 -0.14346043398E+02  0.21971526425E+02  0.51100000000E-03 0. -1.
        -11    1    4    4    0    0 -0.23654933468E+01 -0.30329331003E+01 -0.13548774608E+02  0.14084159031E+02  0.51100000000E-03 0.  1.
         12    1    4    4    0    0 -0.13891194522E+02 -0.40065960362E+01  0.67129268538E+00  0.14473034613E+02  0.00000000000E+00 0. -1.
</event>
<event>
 8    1  0.5829710E-012  0.9118800E+02  0.7816164E-02  0.1184000E+00
        -11   -1    0    0    0    0  0.00000000000E+00  0.00000000000E+00  0.45593999997E+02  0.45594000000E+02  0.51100000000E-03 0. -1.
         11   -1    0    0    0    0 -0.00000000000E+00 -0.00000000000E+00 -0.45593999997E+02  0.45594000000E+02  0.51100000000E-03 0.  1.
         23    2    1    2    0    0  0.17763568394E-14  0.00000000000E+00 -0.71054273576E-14  0.91188000000E+02  0.91188000000E+02 0.  0.
    9900012    2    3    3    0    0 -0.11737219169E+02 -0.93799379792E+01  0.37781198850E+02  0.50528873880E+02  0.30000042646E+02 0.  0.
        -12    1    3    3    0    0  0.11737219169E+02  0.93799379792E+01 -0.37781198850E+02  0.40659126120E+02  0.00000000000E+00 0.  1.
         11    1    4    4    0    0 -0.32617682611E+01 -0.87039347321E+01  0.25759943915E+02  0.27385622556E+02  0.51100000000E-03 0. -1.
        -11    1    4    4    0    0  0.19060782799E+01  0.46409932739E+01  0.10160696716E+02  0.11331889118E+02  0.51100000000E-03 0.  1.
        -12    1    4    4    0    0 -0.10381529188E+02 -0.53169965211E+01  0.18605582195E+01  0.11811362206E+02  0.00000000000E+00 0.  1.
</event>
<event>
 8    1  0.5829710E-012  0.9118800E+02  0.7816164E-02  0.1184000E+00
        -11   -1    0    0    0    0  0.00000000000E+00  0.00000000000E+00  0.45593999997E+02  0.45594000000E+02  0.51100000000E-03 0. -1.
         11   -1    0    0    0    0 -0.00000000000E+00 -0.00000000000E+00 -0.45593999997E+02  0.45594000000E+02  0.51100000000E-03 0.  1.
         23    2    1    2    0    0  0.17763568394E-14  0.00000000000E+00 -0.71054273576E-14  0.91188000000E+02  0.91188000000E+02 0.  0.
    9900012    2    3    3    0    0  0.15049564266E+02 -0.11370723162E+02  0.36019199928E+02  0.50528862118E+02  0.30000006895E+02 0.  0.
        -12    1    3    3    0    0 -0.15049564266E+02  0.11370723162E+02 -0.36019199928E+02  0.40659137882E+02  0.00000000000E+00 0.  1.
         11    1    4    4    0    0  0.55629072131E+01 -0.10002266572E+02  0.21673515678E+02  0.24509846090E+02  0.51100000000E-03 0. -1.
        -11    1    4    4    0    0  0.38302194482E+01 -0.85864867430E+01  0.13972232039E+02  0.16841068969E+02  0.51100000000E-03 0.  1.
        -12    1    4    4    0    0  0.56564376049E+01  0.72180301528E+01  0.37345221061E+00  0.91779470591E+01  0.00000000000E+00 0.  1.
</event>
<event>
 8    1  0.5829710E-012  0.9118800E+02  0.7816164E-02  0.1184000E+00
        -11   -1    0    0    0    0  0.00000000000E+00  0.00000000000E+00  0.45593999997E+02  0.45594000000E+02  0.51100000000E-03 0. -1.
         11   -1    0    0    0    0 -0.00000000000E+00 -0.00000000000E+00 -0.45593999997E+02  0.45594000000E+02  0.51100000000E-03 0.  1.
         23    2    1    2    0    0  0.00000000000E+00  0.17763568394E-14  0.35527136788E-14  0.91188000000E+02  0.91188000000E+02 0.  0.
    9900012    2    3    3    0    0 -0.33611048587E+02  0.10636892633E+02  0.20256571206E+02  0.50528748298E+02  0.29999660924E+02 0.  0.
        -12    1    3    3    0    0  0.33611048587E+02 -0.10636892633E+02 -0.20256571206E+02  0.40659251702E+02  0.00000000000E+00 0.  1.
         11    1    4    4    0    0 -0.10575510822E+02  0.77078900757E+01 -0.85759107345E-01  0.13086647907E+02  0.51100000000E-03 0. -1.
        -11    1    4    4    0    0 -0.10876314756E+01  0.62948022094E+01  0.12237860184E+02  0.13804807105E+02  0.51100000000E-03 0.  1.
         12    1    4    4    0    0 -0.21947906289E+02 -0.33657996520E+01  0.81044701294E+01  0.23637293285E+02  0.00000000000E+00 0. -1.
</event>
<event>
 8    1  0.5829710E-012  0.9118800E+02  0.7816164E-02  0.1184000E+00
        -11   -1    0    0    0    0  0.00000000000E+00  0.00000000000E+00  0.45593999997E+02  0.45594000000E+02  0.51100000000E-03 0. -1.
         11   -1    0    0    0    0 -0.00000000000E+00 -0.00000000000E+00 -0.45593999997E+02  0.45594000000E+02  0.51100000000E-03 0.  1.
         23    2    1    2    0    0  0.88817841970E-15  0.17763568394E-14 -0.71054273576E-14  0.91188000000E+02  0.91188000000E+02 0.  0.
    9900012    2    3    3    0    0 -0.59341010130E+01 -0.11996733711E+02  0.38393093569E+02  0.50528870541E+02  0.30000032497E+02 0.  0.
        -12    1    3    3    0    0  0.59341010130E+01  0.11996733711E+02 -0.38393093569E+02  0.40659129459E+02  0.00000000000E+00 0.  1.
         11    1    4    4    0    0 -0.28327546685E+01  0.17025261113E+01  0.94584326391E+00  0.34376902002E+01  0.51100000000E-03 0. -1.
        -11    1    4    4    0    0 -0.59096687591E+01  0.39044706416E+01  0.23241542263E+02  0.24296879694E+02  0.51100000000E-03 0.  1.
         12    1    4    4    0    0  0.28083224147E+01 -0.17603730464E+02  0.14205708042E+02  0.22794300647E+02  0.00000000000E+00 0. -1.
</event>
<event>
 8    1  0.5829710E-012  0.9118800E+02  0.7816164E-02  0.1184000E+00
        -11   -1    0    0    0    0  0.00000000000E+00  0.00000000000E+00  0.45593999997E+02  0.45594000000E+02  0.51100000000E-03 0. -1.
         11   -1    0    0    0    0 -0.00000000000E+00 -0.00000000000E+00 -0.45593999997E+02  0.45594000000E+02  0.51100000000E-03 0.  1.
         23    2    1    2    0    0 -0.35527136788E-14 -0.13322676296E-14  0.00000000000E+00  0.91188000000E+02  0.91188000000E+02 0.  0.
    9900012    2    3    3    0    0  0.17737267939E+02 -0.29693990351E+01  0.36465556705E+02  0.50528870270E+02  0.30000031672E+02 0.  0.
        -12    1    3    3    0    0 -0.17737267939E+02  0.29693990351E+01 -0.36465556705E+02  0.40659129730E+02  0.00000000000E+00 0.  1.
         11    1    4    4    0    0  0.95130836928E+01  0.36700364735E+01  0.78892036457E+01  0.12892147358E+02  0.51100000000E-03 0. -1.
        -11    1    4    4    0    0  0.10897310950E+00  0.66158399177E+01  0.21113490454E+01  0.69454307288E+01  0.51100000000E-03 0.  1.
        -12    1    4    4    0    0  0.81152111367E+01 -0.13255275426E+02  0.26465004014E+02  0.30691292184E+02  0.00000000000E+00 0.  1.
</event>
<event>
 8    1  0.5829710E-012  0.9118800E+02  0.7816164E-02  0.1184000E+00
        -11   -1    0    0    0    0  0.00000000000E+00  0.00000000000E+00  0.45593999997E+02  0.45594000000E+02  0.51100000000E-03 0. -1.
         11   -1    0    0    0    0 -0.00000000000E+00 -0.00000000000E+00 -0.45593999997E+02  0.45594000000E+02  0.51100000000E-03 0.  1.
         23    2    1    2    0    0  0.33306690739E-15  0.00000000000E+00  0.00000000000E+00  0.91188000000E+02  0.91188000000E+02 0.  0.
    9900012    2    3    3    0    0 -0.21950521298E+00  0.38068847419E+02  0.14278663475E+02  0.50528861335E+02  0.30000004513E+02 0.  0.
        -12    1    3    3    0    0  0.21950521298E+00 -0.38068847419E+02 -0.14278663475E+02  0.40659138665E+02  0.00000000000E+00 0.  1.
         11    1    4    4    0    0  0.17753761924E+01 -0.19495325231E+01  0.29777710755E+01  0.39774060042E+01  0.51100000000E-03 0. -1.
        -11    1    4    4    0    0  0.11488133110E+01  0.45711738004E+01  0.98685029604E+01  0.10936304352E+02  0.51100000000E-03 0.  1.
        -12    1    4    4    0    0 -0.31436947164E+01  0.35447206142E+02  0.14323894389E+01  0.35615150979E+02  0.00000000000E+00 0.  1.
</event>
<event>
 8    1  0.5829710E-012  0.9118800E+02  0.7816164E-02  0.1184000E+00
        -11   -1    0    0    0    0  0.00000000000E+00  0.00000000000E+00  0.45593999997E+02  0.45594000000E+02  0.51100000000E-03 0. -1.
         11   -1    0    0    0    0 -0.00000000000E+00 -0.00000000000E+00 -0.45593999997E+02  0.45594000000E+02  0.51100000000E-03 0.  1.
         23    2    1    2    0    0  0.35527136788E-14 -0.71054273576E-14 -0.35527136788E-14  0.91188000000E+02  0.91188000000E+02 0.  0.
    9900012    2    3    3    0    0 -0.16989752897E+02  0.33352138997E+02  0.15879232910E+02  0.50528844610E+02  0.29999953677E+02 0.  0.
        -12    1    3    3    0    0  0.16989752897E+02 -0.33352138997E+02 -0.15879232910E+02  0.40659155390E+02  0.00000000000E+00 0.  1.
         11    1    4    4    0    0  0.28643215178E+00  0.23280899028E+02 -0.10166415765E+01  0.23304846347E+02  0.51100000000E-03 0.  1.
        -11    1    4    4    0    0 -0.82490093723E-01  0.49301773046E+00 -0.67522568645E+00  0.84011968604E+00  0.51100000000E-03 0. -1.
         12    1    4    4    0    0 -0.17193694955E+02  0.95782222390E+01  0.17571100173E+02  0.26383878577E+02  0.00000000000E+00 0. -1.
</event>
<event>
 8    1  0.5829710E-012  0.9118800E+02  0.7816164E-02  0.1184000E+00
        -11   -1    0    0    0    0  0.00000000000E+00  0.00000000000E+00  0.45593999997E+02  0.45594000000E+02  0.51100000000E-03 0. -1.
         11   -1    0    0    0    0 -0.00000000000E+00 -0.00000000000E+00 -0.45593999997E+02  0.45594000000E+02  0.51100000000E-03 0.  1.
         23    2    1    2    0    0 -0.17763568394E-14  0.00000000000E+00  0.00000000000E+00  0.91188000000E+02  0.91188000000E+02 0.  0.
    9900012    2    3    3    0    0 -0.10224988383E+02 -0.84996465309E+01  0.38423573132E+02  0.50528863870E+02  0.30000012220E+02 0.  0.
        -12    1    3    3    0    0  0.10224988383E+02  0.84996465309E+01 -0.38423573132E+02  0.40659136130E+02  0.00000000000E+00 0.  1.
         11    1    4    4    0    0  0.63447160796E+00 -0.87307607552E+01  0.56453872921E+01  0.10416291832E+02  0.51100000000E-03 0. -1.
        -11    1    4    4    0    0  0.10843503254E+01  0.77025888856E+01  0.58892649661E+01  0.97564918526E+01  0.51100000000E-03 0.  1.
         12    1    4    4    0    0 -0.11943810316E+02 -0.74714746612E+01  0.26888920874E+02  0.30356080186E+02  0.00000000000E+00 0. -1.
</event>
<event>
 8    1  0.5829710E-012  0.9118800E+02  0.7816164E-02  0.1184000E+00
        -11   -1    0    0    0    0  0.00000000000E+00  0.00000000000E+00  0.45593999997E+02  0.45594000000E+02  0.51100000000E-03 0. -1.
         11   -1    0    0    0    0 -0.00000000000E+00 -0.00000000000E+00 -0.45593999997E+02  0.45594000000E+02  0.51100000000E-03 0.  1.
         23    2    1    2    0    0  0.17763568394E-14 -0.88817841970E-15  0.00000000000E+00  0.91188000000E+02  0.91188000000E+02 0.  0.
    9900012    2    3    3    0    0 -0.14462510507E+02  0.59859212095E+01  0.37525599526E+02  0.50528854870E+02  0.29999984863E+02 0.  0.
        -12    1    3    3    0    0  0.14462510507E+02 -0.59859212095E+01 -0.37525599526E+02  0.40659145130E+02  0.00000000000E+00 0.  1.
         11    1    4    4    0    0 -0.98671749933E+01  0.82509230244E+01  0.84365212118E+01  0.15382254826E+02  0.51100000000E-03 0. -1.
        -11    1    4    4    0    0  0.61522312885E+01  0.31575073811E+01  0.15618340550E+02  0.17080760067E+02  0.51100000000E-03 0.  1.
        -12    1    4    4    0    0 -0.10747566802E+02 -0.54225091960E+01  0.13470737765E+02  0.18065839977E+02  0.00000000000E+00 0.  1.
</event>
<event>
 8    1  0.5829710E-012  0.9118800E+02  0.7816164E-02  0.1184000E+00
        -11   -1    0    0    0    0  0.00000000000E+00  0.00000000000E+00  0.45593999997E+02  0.45594000000E+02  0.51100000000E-03 0. -1.
         11   -1    0    0    0    0 -0.00000000000E+00 -0.00000000000E+00 -0.45593999997E+02  0.45594000000E+02  0.51100000000E-03 0.  1.
         23    2    1    2    0    0  0.35527136788E-14  0.35527136788E-14  0.00000000000E+00  0.91188000000E+02  0.91188000000E+02 0.  0.
    9900012    2    3    3    0    0  0.24264345741E+02  0.28345174124E+02 -0.16154206064E+02  0.50528859036E+02  0.29999997525E+02 0.  0.
         12    1    3    3    0    0 -0.24264345741E+02 -0.28345174124E+02  0.16154206064E+02  0.40659140964E+02  0.00000000000E+00 0. -1.
         11    1    4    4    0    0  0.22218652892E+02  0.17947175839E+02 -0.13282607721E+02  0.31499163878E+02  0.51100000000E-03 0. -1.
        -11    1    4    4    0    0  0.48445892698E+01  0.49662653695E+01 -0.83268708815E+01  0.10838386220E+02  0.51100000000E-03 0.  1.
         12    1    4    4    0    0 -0.27988964204E+01  0.54317329160E+01  0.54552725380E+01  0.81913089374E+01  0.00000000000E+00 0. -1.
</event>
<event>
 8    1  0.5829710E-012  0.9118800E+02  0.7816164E-02  0.1184000E+00
        -11   -1    0    0    0    0  0.00000000000E+00  0.00000000000E+00  0.45593999997E+02  0.45594000000E+02  0.51100000000E-03 0. -1.
         11   -1    0    0    0    0 -0.00000000000E+00 -0.00000000000E+00 -0.45593999997E+02  0.45594000000E+02  0.51100000000E-03 0.  1.
         23    2    1    2    0    0 -0.17763568394E-14  0.71054273576E-14  0.00000000000E+00  0.91188000000E+02  0.91188000000E+02 0.  0.
    9900012    2    3    3    0    0  0.10501489979E+02 -0.32286249171E+02  0.22371479610E+02  0.50528852478E+02  0.29999977591E+02 0.  0.
        -12    1    3    3    0    0 -0.10501489979E+02  0.32286249171E+02 -0.22371479610E+02  0.40659147522E+02  0.00000000000E+00 0.  1.
         11    1    4    4    0    0  0.33932152038E+01 -0.16576609402E+02 -0.23775629602E+01  0.17086564739E+02  0.51100000000E-03 0. -1.
        -11    1    4    4    0    0  0.50265656699E+01 -0.50561845280E+01  0.83299153114E+00  0.71781083558E+01  0.51100000000E-03 0.  1.
         12    1    4    4    0    0  0.20817091049E+01 -0.10653455241E+02  0.23916051039E+02  0.26264179383E+02  0.00000000000E+00 0. -1.
</event>
<event>
 8    1  0.5829710E-012  0.9118800E+02  0.7816164E-02  0.1184000E+00
        -11   -1    0    0    0    0  0.00000000000E+00  0.00000000000E+00  0.45593999997E+02  0.45594000000E+02  0.51100000000E-03 0. -1.
         11   -1    0    0    0    0 -0.00000000000E+00 -0.00000000000E+00 -0.45593999997E+02  0.45594000000E+02  0.51100000000E-03 0.  1.
         23    2    1    2    0    0  0.88817841970E-15 -0.35527136788E-14  0.00000000000E+00  0.91188000000E+02  0.91188000000E+02 0.  0.
    9900012    2    3    3    0    0  0.22736678264E+01 -0.20407139193E+02  0.35093359208E+02  0.50528871186E+02  0.30000034457E+02 0.  0.
        -12    1    3    3    0    0 -0.22736678264E+01  0.20407139193E+02 -0.35093359208E+02  0.40659128814E+02  0.00000000000E+00 0.  1.
         11    1    4    4    0    0 -0.12674802786E+01 -0.30280396820E+01 -0.21435345999E+01  0.39204937718E+01  0.51100000000E-03 0. -1.
        -11    1    4    4    0    0 -0.52675228817E+01 -0.94121907566E+01  0.43280873017E+01  0.11621896235E+02  0.51100000000E-03 0.  1.
         12    1    4    4    0    0  0.88086709868E+01 -0.79669087546E+01  0.32908806506E+02  0.34986481179E+02  0.00000000000E+00 0. -1.
</event>
<event>
 8    1  0.5829710E-012  0.9118800E+02  0.7816164E-02  0.1184000E+00
        -11   -1    0    0    0    0  0.00000000000E+00  0.00000000000E+00  0.45593999997E+02  0.45594000000E+02  0.51100000000E-03 0. -1.
         11   -1    0    0    0    0 -0.00000000000E+00 -0.00000000000E+00 -0.45593999997E+02  0.45594000000E+02  0.51100000000E-03 0.  1.
         23    2    1    2    0    0  0.44408920985E-15 -0.88817841970E-15 -0.71054273576E-14  0.91188000000E+02  0.91188000000E+02 0.  0.
    9900012    2    3    3    0    0  0.28073594170E+01 -0.24962757251E+01 -0.40485216385E+02  0.50528863203E+02  0.30000010191E+02 0.  0.
         12    1    3    3    0    0 -0.28073594170E+01  0.24962757251E+01  0.40485216385E+02  0.40659136797E+02  0.00000000000E+00 0. -1.
         11    1    4    4    0    0 -0.50788237845E+01  0.57444243221E+00 -0.27393382093E+01  0.57990007094E+01  0.51100000000E-03 0. -1.
        -11    1    4    4    0    0  0.21676754475E+01  0.60588192927E+01 -0.31761105004E+02  0.32406417565E+02  0.51100000000E-03 0.  1.
         12    1    4    4    0    0  0.57185077540E+01 -0.91295374501E+01 -0.59847731716E+01  0.12323444928E+02  0.00000000000E+00 0. -1.
</event>
<event>
 8    1  0.5829710E-012  0.9118800E+02  0.7816164E-02  0.1184000E+00
        -11   -1    0    0    0    0  0.00000000000E+00  0.00000000000E+00  0.45593999997E+02  0.45594000000E+02  0.51100000000E-03 0. -1.
         11   -1    0    0    0    0 -0.00000000000E+00 -0.00000000000E+00 -0.45593999997E+02  0.45594000000E+02  0.51100000000E-03 0.  1.
         23    2    1    2    0    0 -0.44408920985E-15  0.00000000000E+00  0.00000000000E+00  0.91188000000E+02  0.91188000000E+02 0.  0.
    9900012    2    3    3    0    0 -0.28500700764E+01 -0.17581011465E+02 -0.36550646440E+02  0.50528872873E+02  0.30000039585E+02 0.  0.
         12    1    3    3    0    0  0.28500700764E+01  0.17581011465E+02  0.36550646440E+02  0.40659127127E+02  0.00000000000E+00 0. -1.
         11    1    4    4    0    0  0.54189026090E+01 -0.14910838291E+02 -0.27806451928E+02  0.32014002766E+02  0.51100000000E-03 0. -1.
        -11    1    4    4    0    0 -0.51021076697E+00 -0.52902802619E+01 -0.88519489957E+01  0.10324939785E+02  0.51100000000E-03 0.  1.
         12    1    4    4    0    0 -0.77587619184E+01  0.26201070880E+01  0.10775448378E+00  0.81899303225E+01  0.00000000000E+00 0. -1.
</event>
<event>
 8    1  0.5829710E-012  0.9118800E+02  0.7816164E-02  0.1184000E+00
        -11   -1    0    0    0    0  0.00000000000E+00  0.00000000000E+00  0.45593999997E+02  0.45594000000E+02  0.51100000000E-03 0. -1.
         11   -1    0    0    0    0 -0.00000000000E+00 -0.00000000000E+00 -0.45593999997E+02  0.45594000000E+02  0.51100000000E-03 0.  1.
         23    2    1    2    0    0 -0.35527136788E-14 -0.35527136788E-14  0.17763568394E-14  0.91188000000E+02  0.91188000000E+02 0.  0.
    9900012    2    3    3    0    0  0.28172825734E+02  0.25217440852E+02 -0.14951197308E+02  0.50528859159E+02  0.29999997900E+02 0.  0.
         12    1    3    3    0    0 -0.28172825734E+02 -0.25217440852E+02  0.14951197308E+02  0.40659140841E+02  0.00000000000E+00 0. -1.
         11    1    4    4    0    0  0.44618006972E+01  0.71192306604E+01 -0.71439995171E+01  0.11028501259E+02  0.51100000000E-03 0. -1.
        -11    1    4    4    0    0  0.17923141125E+02  0.22488974146E+02 -0.11945143824E+02  0.31139675771E+02  0.51100000000E-03 0.  1.
         12    1    4    4    0    0  0.57878839125E+01 -0.43907639542E+01  0.41379460331E+01  0.83606821288E+01  0.00000000000E+00 0. -1.
</event>
<event>
 8    1  0.5829710E-012  0.9118800E+02  0.7816164E-02  0.1184000E+00
        -11   -1    0    0    0    0  0.00000000000E+00  0.00000000000E+00  0.45593999997E+02  0.45594000000E+02  0.51100000000E-03 0. -1.
         11   -1    0    0    0    0 -0.00000000000E+00 -0.00000000000E+00 -0.45593999997E+02  0.45594000000E+02  0.51100000000E-03 0.  1.
         23    2    1    2    0    0  0.00000000000E+00  0.00000000000E+00  0.00000000000E+00  0.91188000000E+02  0.91188000000E+02 0.  0.
    9900012    2    3    3    0    0  0.16210003340E+02  0.36286524363E+02 -0.85842542372E+01  0.50528862288E+02  0.30000007412E+02 0.  0.
         12    1    3    3    0    0 -0.16210003340E+02 -0.36286524363E+02  0.85842542372E+01  0.40659137712E+02  0.00000000000E+00 0. -1.
         11    1    4    4    0    0  0.48426112828E+01 -0.88256992904E+00  0.31738436190E+01  0.58568846066E+01  0.51100000000E-03 0. -1.
        -11    1    4    4    0    0  0.89347333812E+01  0.20924328774E+02 -0.15868914744E+02  0.27739492617E+02  0.51100000000E-03 0.  1.
         12    1    4    4    0    0  0.24326586757E+01  0.16244765519E+02  0.41108168879E+01  0.16932485065E+02  0.00000000000E+00 0. -1.
</event>
<event>
 8    1  0.5829710E-012  0.9118800E+02  0.7816164E-02  0.1184000E+00
        -11   -1    0    0    0    0  0.00000000000E+00  0.00000000000E+00  0.45593999997E+02  0.45594000000E+02  0.51100000000E-03 0. -1.
         11   -1    0    0    0    0 -0.00000000000E+00 -0.00000000000E+00 -0.45593999997E+02  0.45594000000E+02  0.51100000000E-03 0.  1.
         23    2    1    2    0    0  0.00000000000E+00  0.71054273576E-14  0.35527136788E-14  0.91188000000E+02  0.91188000000E+02 0.  0.
    9900012    2    3    3    0    0 -0.12035663224E+02 -0.28496443175E+02 -0.26386767136E+02  0.50528856591E+02  0.29999990095E+02 0.  0.
         12    1    3    3    0    0  0.12035663224E+02  0.28496443175E+02  0.26386767136E+02  0.40659143409E+02  0.00000000000E+00 0. -1.
         11    1    4    4    0    0 -0.57819675607E+01 -0.20275229496E+02 -0.55565964202E+01  0.21803482383E+02  0.51100000000E-03 0. -1.
        -11    1    4    4    0    0  0.37156095655E+01  0.30122557181E+00  0.42231448657E+00  0.37516451158E+01  0.51100000000E-03 0.  1.
        -12    1    4    4    0    0 -0.99693052292E+01 -0.85224392510E+01 -0.21252485202E+02  0.24973729093E+02  0.00000000000E+00 0.  1.
</event>
<event>
 8    1  0.5829710E-012  0.9118800E+02  0.7816164E-02  0.1184000E+00
        -11   -1    0    0    0    0  0.00000000000E+00  0.00000000000E+00  0.45593999997E+02  0.45594000000E+02  0.51100000000E-03 0. -1.
         11   -1    0    0    0    0 -0.00000000000E+00 -0.00000000000E+00 -0.45593999997E+02  0.45594000000E+02  0.51100000000E-03 0.  1.
         23    2    1    2    0    0  0.00000000000E+00  0.00000000000E+00  0.35527136788E-14  0.91188000000E+02  0.91188000000E+02 0.  0.
    9900012    2    3    3    0    0  0.21629993137E+02 -0.19663397719E+02  0.28260572139E+02  0.50528858954E+02  0.29999997276E+02 0.  0.
        -12    1    3    3    0    0 -0.21629993137E+02  0.19663397719E+02 -0.28260572139E+02  0.40659141046E+02  0.00000000000E+00 0.  1.
         11    1    4    4    0    0  0.75359763794E+01 -0.17371770922E+02  0.25130017678E+02  0.31465650378E+02  0.51100000000E-03 0. -1.
        -11    1    4    4    0    0  0.76512979861E+01 -0.48999464922E+01  0.66623414276E+01  0.11266704490E+02  0.51100000000E-03 0.  1.
        -12    1    4    4    0    0  0.64427187713E+01  0.26083196950E+01 -0.35317869660E+01  0.77965040865E+01  0.00000000000E+00 0.  1.
</event>
<event>
 8    1  0.5829710E-012  0.9118800E+02  0.7816164E-02  0.1184000E+00
        -11   -1    0    0    0    0  0.00000000000E+00  0.00000000000E+00  0.45593999997E+02  0.45594000000E+02  0.51100000000E-03 0. -1.
         11   -1    0    0    0    0 -0.00000000000E+00 -0.00000000000E+00 -0.45593999997E+02  0.45594000000E+02  0.51100000000E-03 0.  1.
         23    2    1    2    0    0  0.00000000000E+00  0.00000000000E+00  0.00000000000E+00  0.91188000000E+02  0.91188000000E+02 0.  0.
    9900012    2    3    3    0    0 -0.13835468706E+02 -0.33032290018E+02  0.19251231951E+02  0.50528901267E+02  0.30000125892E+02 0.  0.
        -12    1    3    3    0    0  0.13835468706E+02  0.33032290018E+02 -0.19251231951E+02  0.40659098733E+02  0.00000000000E+00 0.  1.
         11    1    4    4    0    0  0.23604616486E+01 -0.12897481235E+02  0.11832506766E+02  0.17661399096E+02  0.51100000000E-03 0. -1.
        -11    1    4    4    0    0 -0.50654188172E+01 -0.17574568323E+02 -0.15360261950E+01  0.18354380847E+02  0.51100000000E-03 0.  1.
         12    1    4    4    0    0 -0.11130511538E+02 -0.25602404596E+01  0.89547513801E+01  0.14513121325E+02  0.00000000000E+00 0. -1.
</event>
<event>
 8    1  0.5829710E-012  0.9118800E+02  0.7816164E-02  0.1184000E+00
        -11   -1    0    0    0    0  0.00000000000E+00  0.00000000000E+00  0.45593999997E+02  0.45594000000E+02  0.51100000000E-03 0. -1.
         11   -1    0    0    0    0 -0.00000000000E+00 -0.00000000000E+00 -0.45593999997E+02  0.45594000000E+02  0.51100000000E-03 0.  1.
         23    2    1    2    0    0 -0.88817841970E-15  0.00000000000E+00  0.00000000000E+00  0.91188000000E+02  0.91188000000E+02 0.  0.
    9900012    2    3    3    0    0  0.65699219329E+01 -0.11028261122E+02 -0.38579518439E+02  0.50528860061E+02  0.30000000642E+02 0.  0.
         12    1    3    3    0    0 -0.65699219329E+01  0.11028261122E+02  0.38579518439E+02  0.40659139939E+02  0.00000000000E+00 0. -1.
         11    1    4    4    0    0  0.89488058863E+01 -0.11254389126E+01 -0.21695935222E+00  0.90219072905E+01  0.51100000000E-03 0. -1.
        -11    1    4    4    0    0 -0.27397196249E+01  0.22760940300E+01 -0.68456237290E+01  0.77168148972E+01  0.51100000000E-03 0.  1.
         12    1    4    4    0    0  0.36083567151E+00 -0.12178916239E+02 -0.31516935358E+02  0.33790137873E+02  0.00000000000E+00 0. -1.
</event>
<event>
 8    1  0.5829710E-012  0.9118800E+02  0.7816164E-02  0.1184000E+00
        -11   -1    0    0    0    0  0.00000000000E+00  0.00000000000E+00  0.45593999997E+02  0.45594000000E+02  0.51100000000E-03 0. -1.
         11   -1    0    0    0    0 -0.00000000000E+00 -0.00000000000E+00 -0.45593999997E+02  0.45594000000E+02  0.51100000000E-03 0.  1.
         23    2    1    2    0    0  0.00000000000E+00  0.00000000000E+00  0.35527136788E-14  0.91188000000E+02  0.91188000000E+02 0.  0.
    9900012    2    3    3    0    0 -0.25266709250E+02  0.90612324976E+01  0.30539371420E+02  0.50528859116E+02  0.29999997769E+02 0.  0.
        -12    1    3    3    0    0  0.25266709250E+02 -0.90612324976E+01 -0.30539371420E+02  0.40659140884E+02  0.00000000000E+00 0.  1.
         11    1    4    4    0    0 -0.69961469500E+00 -0.21978891574E+01 -0.25108833840E+01  0.34095033508E+01  0.51100000000E-03 0. -1.
        -11    1    4    4    0    0  0.14374179559E+01  0.58155095336E+01  0.11275754116E+02  0.12768279158E+02  0.51100000000E-03 0.  1.
         12    1    4    4    0    0 -0.26004512511E+02  0.54436121214E+01  0.21774500688E+02  0.34351076607E+02  0.00000000000E+00 0. -1.
</event>
<event>
 8    1  0.5829710E-012  0.9118800E+02  0.7816164E-02  0.1184000E+00
        -11   -1    0    0    0    0  0.00000000000E+00  0.00000000000E+00  0.45593999997E+02  0.45594000000E+02  0.51100000000E-03 0. -1.
         11   -1    0    0    0    0 -0.00000000000E+00 -0.00000000000E+00 -0.45593999997E+02  0.45594000000E+02  0.51100000000E-03 0.  1.
         23    2    1    2    0    0  0.53290705182E-14  0.35527136788E-14  0.71054273576E-14  0.91188000000E+02  0.91188000000E+02 0.  0.
    9900012    2    3    3    0    0 -0.10714986225E+02 -0.20626668474E+02 -0.33360089058E+02  0.50528856820E+02  0.29999990791E+02 0.  0.
         12    1    3    3    0    0  0.10714986225E+02  0.20626668474E+02  0.33360089058E+02  0.40659143180E+02  0.00000000000E+00 0. -1.
         11    1    4    4    0    0 -0.32593765684E+01 -0.20164810089E+02 -0.17018524340E+02  0.26587088455E+02  0.51100000000E-03 0. -1.
        -11    1    4    4    0    0 -0.11363648230E+02 -0.30927125341E+01 -0.14945869309E+02  0.19028304748E+02  0.51100000000E-03 0.  1.
        -12    1    4    4    0    0  0.39080385736E+01  0.26308541487E+01 -0.13956954081E+01  0.49134636171E+01  0.00000000000E+00 0.  1.
</event>
<event>
 8    1  0.5829710E-012  0.9118800E+02  0.7816164E-02  0.1184000E+00
        -11   -1    0    0    0    0  0.00000000000E+00  0.00000000000E+00  0.45593999997E+02  0.45594000000E+02  0.51100000000E-03 0.  1.
         11   -1    0    0    0    0 -0.00000000000E+00 -0.00000000000E+00 -0.45593999997E+02  0.45594000000E+02  0.51100000000E-03 0. -1.
         23    2    1    2    0    0 -0.35527136788E-14  0.00000000000E+00 -0.17763568394E-14  0.91188000000E+02  0.91188000000E+02 0.  0.
    9900012    2    3    3    0    0 -0.30344765397E+02  0.22154012186E+02  0.15542191856E+02  0.50528871006E+02  0.30000033909E+02 0.  0.
        -12    1    3    3    0    0  0.30344765397E+02 -0.22154012186E+02 -0.15542191856E+02  0.40659128994E+02  0.00000000000E+00 0.  1.
         11    1    4    4    0    0 -0.97947930169E+01 -0.54769581539E+00  0.35006822830E+01  0.10415983758E+02  0.51100000000E-03 0. -1.
        -11    1    4    4    0    0  0.34686165111E+01  0.27039236183E+00 -0.23886382526E+01  0.42201902201E+01  0.51100000000E-03 0.  1.
        -12    1    4    4    0    0 -0.24018588891E+02  0.22431315639E+02  0.14430147826E+02  0.35892697027E+02  0.00000000000E+00 0.  1.
</event>
<event>
 8    1  0.5829710E-012  0.9118800E+02  0.7816164E-02  0.1184000E+00
        -11   -1    0    0    0    0  0.00000000000E+00  0.00000000000E+00  0.45593999997E+02  0.45594000000E+02  0.51100000000E-03 0. -1.
         11   -1    0    0    0    0 -0.00000000000E+00 -0.00000000000E+00 -0.45593999997E+02  0.45594000000E+02  0.51100000000E-03 0.  1.
         23    2    1    2    0    0  0.00000000000E+00 -0.35527136788E-14  0.00000000000E+00  0.91188000000E+02  0.91188000000E+02 0.  0.
    9900012    2    3    3    0    0  0.10320766012E+02  0.27107843865E+02 -0.28492319927E+02  0.50528859516E+02  0.29999998984E+02 0.  0.
         12    1    3    3    0    0 -0.10320766012E+02 -0.27107843865E+02  0.28492319927E+02  0.40659140484E+02  0.00000000000E+00 0. -1.
         11    1    4    4    0    0 -0.50905945745E+01 -0.15970514145E+01  0.15070316492E+01  0.55439941374E+01  0.51100000000E-03 0. -1.
        -11    1    4    4    0    0 -0.88611209537E+00  0.21605681215E+01 -0.15749632088E+01  0.28166928522E+01  0.51100000000E-03 0.  1.
        -12    1    4    4    0    0  0.16297472682E+02  0.26544327158E+02 -0.28424388368E+02  0.42168172526E+02  0.00000000000E+00 0.  1.
</event>
<event>
 8    1  0.5829710E-012  0.9118800E+02  0.7816164E-02  0.1184000E+00
        -11   -1    0    0    0    0  0.00000000000E+00  0.00000000000E+00  0.45593999997E+02  0.45594000000E+02  0.51100000000E-03 0.  1.
         11   -1    0    0    0    0 -0.00000000000E+00 -0.00000000000E+00 -0.45593999997E+02  0.45594000000E+02  0.51100000000E-03 0. -1.
         23    2    1    2    0    0  0.35527136788E-14  0.00000000000E+00 -0.44408920985E-15  0.91188000000E+02  0.91188000000E+02 0.  0.
    9900012    2    3    3    0    0  0.30870989124E+02 -0.26333169894E+02 -0.25906308622E+01  0.50528866040E+02  0.30000018814E+02 0.  0.
         12    1    3    3    0    0 -0.30870989124E+02  0.26333169894E+02  0.25906308622E+01  0.40659133960E+02  0.00000000000E+00 0. -1.
         11    1    4    4    0    0  0.81395542394E+01 -0.18682761170E+01 -0.37270762992E+01  0.91451570170E+01  0.51100000000E-03 0. -1.
        -11    1    4    4    0    0  0.16370803785E+02 -0.19414867690E+01  0.58814257199E+01  0.17503249875E+02  0.51100000000E-03 0.  1.
        -12    1    4    4    0    0  0.63606311000E+01 -0.22523407008E+02 -0.47449802829E+01  0.23880459148E+02  0.00000000000E+00 0.  1.
</event>
<event>
 8    1  0.5829710E-012  0.9118800E+02  0.7816164E-02  0.1184000E+00
        -11   -1    0    0    0    0  0.00000000000E+00  0.00000000000E+00  0.45593999997E+02  0.45594000000E+02  0.51100000000E-03 0.  1.
         11   -1    0    0    0    0 -0.00000000000E+00 -0.00000000000E+00 -0.45593999997E+02  0.45594000000E+02  0.51100000000E-03 0. -1.
         23    2    1    2    0    0  0.00000000000E+00  0.00000000000E+00  0.00000000000E+00  0.91188000000E+02  0.91188000000E+02 0.  0.
    9900012    2    3    3    0    0 -0.10604286759E+02 -0.34213272674E+02  0.19239712643E+02  0.50528862438E+02  0.30000007866E+02 0.  0.
        -12    1    3    3    0    0  0.10604286759E+02  0.34213272674E+02 -0.19239712643E+02  0.40659137562E+02  0.00000000000E+00 0.  1.
         11    1    4    4    0    0  0.55327338889E+01 -0.79286996028E+01  0.60256132802E+01  0.11392253392E+02  0.51100000000E-03 0. -1.
        -11    1    4    4    0    0 -0.85254372956E+01  0.84357143753E+00  0.19072005380E+01  0.87767937201E+01  0.51100000000E-03 0.  1.
         12    1    4    4    0    0 -0.76115833521E+01 -0.27128144509E+02  0.11306898824E+02  0.30359815326E+02  0.00000000000E+00 0. -1.
</event>
<event>
 8    1  0.5829710E-012  0.9118800E+02  0.7816164E-02  0.1184000E+00
        -11   -1    0    0    0    0  0.00000000000E+00  0.00000000000E+00  0.45593999997E+02  0.45594000000E+02  0.51100000000E-03 0. -1.
         11   -1    0    0    0    0 -0.00000000000E+00 -0.00000000000E+00 -0.45593999997E+02  0.45594000000E+02  0.51100000000E-03 0.  1.
         23    2    1    2    0    0  0.00000000000E+00 -0.13322676296E-14 -0.35527136788E-14  0.91188000000E+02  0.91188000000E+02 0.  0.
    9900012    2    3    3    0    0 -0.28830217249E+02 -0.30323988919E+01  0.28509447193E+02  0.50528862663E+02  0.30000008552E+02 0.  0.
        -12    1    3    3    0    0  0.28830217249E+02  0.30323988919E+01 -0.28509447193E+02  0.40659137337E+02  0.00000000000E+00 0.  1.
         11    1    4    4    0    0 -0.23508666716E+01 -0.76400145251E+01  0.63200658845E+01  0.10190173163E+02  0.51100000000E-03 0. -1.
        -11    1    4    4    0    0 -0.52474609303E+01 -0.41573280419E+01 -0.19938703360E+01  0.69853233169E+01  0.51100000000E-03 0.  1.
         12    1    4    4    0    0 -0.21231889647E+02  0.87649436751E+01  0.24183251645E+02  0.33353366183E+02  0.00000000000E+00 0. -1.
</event>
<event>
 8    1  0.5829710E-012  0.9118800E+02  0.7816164E-02  0.1184000E+00
        -11   -1    0    0    0    0  0.00000000000E+00  0.00000000000E+00  0.45593999997E+02  0.45594000000E+02  0.51100000000E-03 0. -1.
         11   -1    0    0    0    0 -0.00000000000E+00 -0.00000000000E+00 -0.45593999997E+02  0.45594000000E+02  0.51100000000E-03 0.  1.
         23    2    1    2    0    0  0.00000000000E+00  0.35527136788E-14  0.00000000000E+00  0.91188000000E+02  0.91188000000E+02 0.  0.
    9900012    2    3    3    0    0  0.16264541724E+02 -0.11246997476E+02 -0.35526535291E+02  0.50528868436E+02  0.30000026100E+02 0.  0.
         12    1    3    3    0    0 -0.16264541724E+02  0.11246997476E+02  0.35526535291E+02  0.40659131564E+02  0.00000000000E+00 0. -1.
         11    1    4    4    0    0  0.34889191108E+01 -0.10927133636E+02 -0.46273518418E+01  0.12368799109E+02  0.51100000000E-03 0. -1.
        -11    1    4    4    0    0  0.66499781546E+01 -0.15874989759E+01 -0.21022887081E+00  0.68400700942E+01  0.51100000000E-03 0.  1.
        -12    1    4    4    0    0  0.61256444586E+01  0.12676351358E+01 -0.30688954578E+02  0.31319999233E+02  0.00000000000E+00 0.  1.
</event>
<event>
 8    1  0.5829710E-012  0.9118800E+02  0.7816164E-02  0.1184000E+00
        -11   -1    0    0    0    0  0.00000000000E+00  0.00000000000E+00  0.45593999997E+02  0.45594000000E+02  0.51100000000E-03 0. -1.
         11   -1    0    0    0    0 -0.00000000000E+00 -0.00000000000E+00 -0.45593999997E+02  0.45594000000E+02  0.51100000000E-03 0.  1.
         23    2    1    2    0    0  0.00000000000E+00  0.88817841970E-15 -0.71054273576E-14  0.91188000000E+02  0.91188000000E+02 0.  0.
    9900012    2    3    3    0    0 -0.37496510840E+02  0.54569063756E+01 -0.14744476823E+02  0.50528858971E+02  0.29999997329E+02 0.  0.
         12    1    3    3    0    0  0.37496510840E+02 -0.54569063756E+01  0.14744476823E+02  0.40659141029E+02  0.00000000000E+00 0. -1.
         11    1    4    4    0    0 -0.12606613945E+02  0.54337211863E+01 -0.17638265110E+02  0.22350848696E+02  0.51100000000E-03 0. -1.
        -11    1    4    4    0    0  0.33444267255E+00  0.55703674961E+00 -0.23248702969E+01  0.24139519466E+01  0.51100000000E-03 0.  1.
        -12    1    4    4    0    0 -0.25224339568E+02 -0.53385156026E+00  0.52186585839E+01  0.25764058328E+02  0.00000000000E+00 0.  1.
</event>
<event>
 8    1  0.5829710E-012  0.9118800E+02  0.7816164E-02  0.1184000E+00
        -11   -1    0    0    0    0  0.00000000000E+00  0.00000000000E+00  0.45593999997E+02  0.45594000000E+02  0.51100000000E-03 0.  1.
         11   -1    0    0    0    0 -0.00000000000E+00 -0.00000000000E+00 -0.45593999997E+02  0.45594000000E+02  0.51100000000E-03 0. -1.
         23    2    1    2    0    0 -0.17763568394E-14  0.71054273576E-14 -0.17763568394E-14  0.91188000000E+02  0.91188000000E+02 0.  0.
    9900012    2    3    3    0    0  0.13289274893E+02 -0.38279333735E+02  0.33538592932E+01  0.50528922409E+02  0.30000190153E+02 0.  0.
        -12    1    3    3    0    0 -0.13289274893E+02  0.38279333735E+02 -0.33538592932E+01  0.40659077591E+02  0.00000000000E+00 0.  1.
         11    1    4    4    0    0  0.48314089320E+01 -0.10618477171E+02 -0.12011387338E+02  0.16744192896E+02  0.51100000000E-03 0.  1.
        -11    1    4    4    0    0  0.63937959735E+01 -0.10591595844E+02  0.33773877955E+01  0.12824557617E+02  0.51100000000E-03 0. -1.
        -12    1    4    4    0    0  0.20640699877E+01 -0.17069260720E+02  0.11987858836E+02  0.20960171896E+02  0.00000000000E+00 0.  1.
</event>
<event>
 8    1  0.5829710E-012  0.9118800E+02  0.7816164E-02  0.1184000E+00
        -11   -1    0    0    0    0  0.00000000000E+00  0.00000000000E+00  0.45593999997E+02  0.45594000000E+02  0.51100000000E-03 0.  1.
         11   -1    0    0    0    0 -0.00000000000E+00 -0.00000000000E+00 -0.45593999997E+02  0.45594000000E+02  0.51100000000E-03 0. -1.
         23    2    1    2    0    0  0.00000000000E+00  0.00000000000E+00 -0.17763568394E-14  0.91188000000E+02  0.91188000000E+02 0.  0.
    9900012    2    3    3    0    0 -0.38417439008E+02 -0.83329729367E+01 -0.10384008443E+02  0.50528859709E+02  0.29999999570E+02 0.  0.
         12    1    3    3    0    0  0.38417439008E+02  0.83329729367E+01  0.10384008443E+02  0.40659140291E+02  0.00000000000E+00 0. -1.
         11    1    4    4    0    0 -0.42940317389E+01  0.44139796729E+01 -0.26649273932E+01  0.67099749179E+01  0.51100000000E-03 0.  1.
        -11    1    4    4    0    0 -0.23382500297E+02  0.11800530332E+01 -0.11098103889E+02  0.25909491610E+02  0.51100000000E-03 0. -1.
        -12    1    4    4    0    0 -0.10740906972E+02 -0.13927005643E+02  0.33790228390E+01  0.17909393181E+02  0.00000000000E+00 0.  1.
</event>
<event>
 8    1  0.5829710E-012  0.9118800E+02  0.7816164E-02  0.1184000E+00
        -11   -1    0    0    0    0  0.00000000000E+00  0.00000000000E+00  0.45593999997E+02  0.45594000000E+02  0.51100000000E-03 0.  1.
         11   -1    0    0    0    0 -0.00000000000E+00 -0.00000000000E+00 -0.45593999997E+02  0.45594000000E+02  0.51100000000E-03 0. -1.
         23    2    1    2    0    0  0.00000000000E+00 -0.35527136788E-14  0.00000000000E+00  0.91188000000E+02  0.91188000000E+02 0.  0.
    9900012    2    3    3    0    0 -0.26340723001E+02 -0.28358209774E+02 -0.12455786098E+02  0.50528826901E+02  0.29999899848E+02 0.  0.
         12    1    3    3    0    0  0.26340723001E+02  0.28358209774E+02  0.12455786098E+02  0.40659173099E+02  0.00000000000E+00 0. -1.
         11    1    4    4    0    0 -0.30595849484E+00 -0.99288357158E+01 -0.23212506292E+00  0.99362604423E+01  0.51100000000E-03 0. -1.
        -11    1    4    4    0    0 -0.10850893586E+02 -0.16808422300E+02  0.14985591249E+01  0.20062667608E+02  0.51100000000E-03 0.  1.
         12    1    4    4    0    0 -0.15183870920E+02 -0.16209517584E+01 -0.13722220160E+02  0.20529898851E+02  0.00000000000E+00 0. -1.
</event>
<event>
 8    1  0.5829710E-012  0.9118800E+02  0.7816164E-02  0.1184000E+00
        -11   -1    0    0    0    0  0.00000000000E+00  0.00000000000E+00  0.45593999997E+02  0.45594000000E+02  0.51100000000E-03 0. -1.
         11   -1    0    0    0    0 -0.00000000000E+00 -0.00000000000E+00 -0.45593999997E+02  0.45594000000E+02  0.51100000000E-03 0.  1.
         23    2    1    2    0    0  0.35527136788E-14  0.00000000000E+00  0.71054273576E-14  0.91188000000E+02  0.91188000000E+02 0.  0.
    9900012    2    3    3    0    0  0.16354476000E+02 -0.14978037335E+02  0.34078668953E+02  0.50528853855E+02  0.29999981776E+02 0.  0.
        -12    1    3    3    0    0 -0.16354476000E+02  0.14978037335E+02 -0.34078668953E+02  0.40659146145E+02  0.00000000000E+00 0.  1.
         11    1    4    4    0    0  0.21246939947E+02 -0.98431850309E+01  0.31693778449E+02  0.39405790708E+02  0.51100000000E-03 0. -1.
        -11    1    4    4    0    0  0.87780564580E+00 -0.71692604417E+00  0.35826896233E+01  0.37576842473E+01  0.51100000000E-03 0.  1.
        -12    1    4    4    0    0 -0.57702695921E+01 -0.44179262600E+01 -0.11977991192E+01  0.73653788996E+01  0.00000000000E+00 0.  1.
</event>
<event>
 8    1  0.5829710E-012  0.9118800E+02  0.7816164E-02  0.1184000E+00
        -11   -1    0    0    0    0  0.00000000000E+00  0.00000000000E+00  0.45593999997E+02  0.45594000000E+02  0.51100000000E-03 0. -1.
         11   -1    0    0    0    0 -0.00000000000E+00 -0.00000000000E+00 -0.45593999997E+02  0.45594000000E+02  0.51100000000E-03 0.  1.
         23    2    1    2    0    0  0.00000000000E+00  0.00000000000E+00  0.17763568394E-14  0.91188000000E+02  0.91188000000E+02 0.  0.
    9900012    2    3    3    0    0 -0.15867901595E+02 -0.34587150696E+02  0.14321486629E+02  0.50528852523E+02  0.29999977728E+02 0.  0.
        -12    1    3    3    0    0  0.15867901595E+02  0.34587150696E+02 -0.14321486629E+02  0.40659147477E+02  0.00000000000E+00 0.  1.
         11    1    4    4    0    0  0.17015492082E+01 -0.35933657633E+01 -0.12395878409E+00  0.39778025665E+01  0.51100000000E-03 0.  1.
        -11    1    4    4    0    0 -0.14649905572E+02 -0.18615696391E+02  0.21514607012E+02  0.32000659377E+02  0.51100000000E-03 0. -1.
         12    1    4    4    0    0 -0.29195452311E+01 -0.12378088542E+02 -0.70691615991E+01  0.14550390580E+02  0.00000000000E+00 0. -1.
</event>
<event>
 8    1  0.5829710E-012  0.9118800E+02  0.7816164E-02  0.1184000E+00
        -11   -1    0    0    0    0  0.00000000000E+00  0.00000000000E+00  0.45593999997E+02  0.45594000000E+02  0.51100000000E-03 0. -1.
         11   -1    0    0    0    0 -0.00000000000E+00 -0.00000000000E+00 -0.45593999997E+02  0.45594000000E+02  0.51100000000E-03 0.  1.
         23    2    1    2    0    0  0.17763568394E-14  0.00000000000E+00  0.00000000000E+00  0.91188000000E+02  0.91188000000E+02 0.  0.
    9900012    2    3    3    0    0  0.58675084707E+01 -0.21994482490E+02 -0.33689478822E+02  0.50528857129E+02  0.29999991731E+02 0.  0.
         12    1    3    3    0    0 -0.58675084707E+01  0.21994482490E+02  0.33689478822E+02  0.40659142871E+02  0.00000000000E+00 0. -1.
         11    1    4    4    0    0 -0.95119824202E+01 -0.10540438889E+02 -0.77728898460E+01  0.16186305272E+02  0.51100000000E-03 0. -1.
        -11    1    4    4    0    0 -0.85506202379E+00 -0.81532001117E+00 -0.74782677476E+01  0.75710214999E+01  0.51100000000E-03 0.  1.
        -12    1    4    4    0    0  0.16234552915E+02 -0.10638723589E+02 -0.18438321229E+02  0.26771530357E+02  0.00000000000E+00 0.  1.
</event>
<event>
 8    1  0.5829710E-012  0.9118800E+02  0.7816164E-02  0.1184000E+00
        -11   -1    0    0    0    0  0.00000000000E+00  0.00000000000E+00  0.45593999997E+02  0.45594000000E+02  0.51100000000E-03 0. -1.
         11   -1    0    0    0    0 -0.00000000000E+00 -0.00000000000E+00 -0.45593999997E+02  0.45594000000E+02  0.51100000000E-03 0.  1.
         23    2    1    2    0    0  0.00000000000E+00  0.35527136788E-14  0.00000000000E+00  0.91188000000E+02  0.91188000000E+02 0.  0.
    9900012    2    3    3    0    0  0.26674674615E+02  0.24083605213E+02 -0.19015990929E+02  0.50528853220E+02  0.29999979848E+02 0.  0.
         12    1    3    3    0    0 -0.26674674615E+02 -0.24083605213E+02  0.19015990929E+02  0.40659146780E+02  0.00000000000E+00 0. -1.
         11    1    4    4    0    0  0.20393778891E+02  0.88458787657E+01 -0.25512626344E+01  0.22375538650E+02  0.51100000000E-03 0. -1.
        -11    1    4    4    0    0  0.88664804195E+01  0.41925273821E+01 -0.24242254080E+01  0.10102902057E+02  0.51100000000E-03 0.  1.
        -12    1    4    4    0    0 -0.25855846955E+01  0.11045199065E+02 -0.14040502886E+02  0.18050412513E+02  0.00000000000E+00 0.  1.
</event>
<event>
 8    1  0.5829710E-012  0.9118800E+02  0.7816164E-02  0.1184000E+00
        -11   -1    0    0    0    0  0.00000000000E+00  0.00000000000E+00  0.45593999997E+02  0.45594000000E+02  0.51100000000E-03 0. -1.
         11   -1    0    0    0    0 -0.00000000000E+00 -0.00000000000E+00 -0.45593999997E+02  0.45594000000E+02  0.51100000000E-03 0.  1.
         23    2    1    2    0    0  0.66613381478E-15  0.00000000000E+00  0.00000000000E+00  0.91188000000E+02  0.91188000000E+02 0.  0.
    9900012    2    3    3    0    0 -0.64862623541E+00  0.22686996112E+02  0.33734926561E+02  0.50528858609E+02  0.29999996227E+02 0.  0.
        -12    1    3    3    0    0  0.64862623541E+00 -0.22686996112E+02 -0.33734926561E+02  0.40659141391E+02  0.00000000000E+00 0.  1.
         11    1    4    4    0    0  0.56430084665E+01  0.12877579677E+01  0.15363650830E+02  0.16417784023E+02  0.51100000000E-03 0.  1.
        -11    1    4    4    0    0 -0.51219242270E+00 -0.21436507334E+01  0.69922577523E+01  0.73313878823E+01  0.51100000000E-03 0. -1.
         12    1    4    4    0    0 -0.57794422792E+01  0.23542888878E+02  0.11379017979E+02  0.26779686703E+02  0.00000000000E+00 0. -1.
</event>
<event>
 8    1  0.5829710E-012  0.9118800E+02  0.7816164E-02  0.1184000E+00
        -11   -1    0    0    0    0  0.00000000000E+00  0.00000000000E+00  0.45593999997E+02  0.45594000000E+02  0.51100000000E-03 0. -1.
         11   -1    0    0    0    0 -0.00000000000E+00 -0.00000000000E+00 -0.45593999997E+02  0.45594000000E+02  0.51100000000E-03 0.  1.
         23    2    1    2    0    0 -0.88817841970E-15 -0.44408920985E-15  0.00000000000E+00  0.91188000000E+02  0.91188000000E+02 0.  0.
    9900012    2    3    3    0    0 -0.41141103565E+01  0.14015465372E+01  0.40426169083E+02  0.50528863468E+02  0.30000010999E+02 0.  0.
        -12    1    3    3    0    0  0.41141103565E+01 -0.14015465372E+01 -0.40426169083E+02  0.40659136532E+02  0.00000000000E+00 0.  1.
         11    1    4    4    0    0 -0.18693355294E+01 -0.55872482731E+01  0.29526231687E+02  0.30108306437E+02  0.51100000000E-03 0. -1.
        -11    1    4    4    0    0 -0.44363457962E+01 -0.28523346476E+01  0.85855278729E+01  0.10076123564E+02  0.51100000000E-03 0.  1.
         12    1    4    4    0    0  0.21915709690E+01  0.98411294579E+01  0.23144095234E+01  0.10344433467E+02  0.00000000000E+00 0. -1.
</event>
<event>
 8    1  0.6348406E-012  0.9118800E+02  0.7816164E-02  0.1184000E+00
        -11   -1    0    0    0    0  0.00000000000E+00  0.00000000000E+00  0.45593999997E+02  0.45594000000E+02  0.51100000000E-03 0. -1.
         11   -1    0    0    0    0 -0.00000000000E+00 -0.00000000000E+00 -0.45593999997E+02  0.45594000000E+02  0.51100000000E-03 0.  1.
         23    2    1    2    0    0  0.00000000000E+00 -0.88817841970E-15  0.00000000000E+00  0.91188000000E+02  0.91188000000E+02 0.  0.
    9900012    2    3    3    0    0  0.35783629977E+02 -0.54108264358E+01 -0.18531606058E+02  0.50528860312E+02  0.30000001404E+02 0.  0.
         12    1    3    3    0    0 -0.35783629977E+02  0.54108264358E+01  0.18531606058E+02  0.40659139688E+02  0.00000000000E+00 0. -1.
         11    1    4    4    0    0  0.15713348660E+02  0.32951321007E+01 -0.95093352021E+01  0.18659975293E+02  0.51100000000E-03 0.  1.
        -11    1    4    4    0    0  0.19415294336E+02 -0.83523660864E+01  0.16227678855E+01  0.21197854827E+02  0.51100000000E-03 0. -1.
         12    1    4    4    0    0  0.65498698150E+00 -0.35359245007E+00 -0.10645038741E+02  0.10671030193E+02  0.00000000000E+00 0. -1.
</event>
<event>
 8    1  0.5829710E-012  0.9118800E+02  0.7816164E-02  0.1184000E+00
        -11   -1    0    0    0    0  0.00000000000E+00  0.00000000000E+00  0.45593999997E+02  0.45594000000E+02  0.51100000000E-03 0. -1.
         11   -1    0    0    0    0 -0.00000000000E+00 -0.00000000000E+00 -0.45593999997E+02  0.45594000000E+02  0.51100000000E-03 0.  1.
         23    2    1    2    0    0  0.00000000000E+00  0.35527136788E-14 -0.44408920985E-15  0.91188000000E+02  0.91188000000E+02 0.  0.
    9900012    2    3    3    0    0  0.25343839820E+02 -0.31550305246E+02  0.39274551841E+01  0.50528968013E+02  0.30000328769E+02 0.  0.
        -12    1    3    3    0    0 -0.25343839820E+02  0.31550305246E+02 -0.39274551841E+01  0.40659031987E+02  0.00000000000E+00 0.  1.
         11    1    4    4    0    0  0.49892166153E+01  0.52671492941E+01 -0.23345982697E+01  0.76213839599E+01  0.51100000000E-03 0. -1.
        -11    1    4    4    0    0  0.24040105909E+01 -0.47406585620E+01 -0.10789806591E+01  0.54237726765E+01  0.51100000000E-03 0.  1.
         12    1    4    4    0    0  0.17950612614E+02 -0.32076795978E+02  0.73410341130E+01  0.37483811376E+02  0.00000000000E+00 0. -1.
</event>
<event>
 8    1  0.5829710E-012  0.9118800E+02  0.7816164E-02  0.1184000E+00
        -11   -1    0    0    0    0  0.00000000000E+00  0.00000000000E+00  0.45593999997E+02  0.45594000000E+02  0.51100000000E-03 0. -1.
         11   -1    0    0    0    0 -0.00000000000E+00 -0.00000000000E+00 -0.45593999997E+02  0.45594000000E+02  0.51100000000E-03 0.  1.
         23    2    1    2    0    0  0.00000000000E+00 -0.17763568394E-14  0.35527136788E-14  0.91188000000E+02  0.91188000000E+02 0.  0.
    9900012    2    3    3    0    0 -0.21976292483E+02 -0.12577943246E+02  0.31811977231E+02  0.50528880692E+02  0.30000063351E+02 0.  0.
        -12    1    3    3    0    0  0.21976292483E+02  0.12577943246E+02 -0.31811977231E+02  0.40659119308E+02  0.00000000000E+00 0.  1.
         11    1    4    4    0    0 -0.83050425258E+01  0.19036602980E+01  0.26484943409E+01  0.89225655739E+01  0.51100000000E-03 0.  1.
        -11    1    4    4    0    0 -0.76684833995E+01 -0.18971484797E+01 -0.13907476790E+01  0.80211588545E+01  0.51100000000E-03 0. -1.
         12    1    4    4    0    0 -0.60027665574E+01 -0.12584455064E+02  0.30554230569E+02  0.33585156264E+02  0.00000000000E+00 0. -1.
</event>
<event>
 8    1  0.5829710E-012  0.9118800E+02  0.7816164E-02  0.1184000E+00
        -11   -1    0    0    0    0  0.00000000000E+00  0.00000000000E+00  0.45593999997E+02  0.45594000000E+02  0.51100000000E-03 0.  1.
         11   -1    0    0    0    0 -0.00000000000E+00 -0.00000000000E+00 -0.45593999997E+02  0.45594000000E+02  0.51100000000E-03 0. -1.
         23    2    1    2    0    0 -0.35527136788E-14 -0.35527136788E-14  0.00000000000E+00  0.91188000000E+02  0.91188000000E+02 0.  0.
    9900012    2    3    3    0    0 -0.28793417497E+02 -0.20747536939E+02 -0.19840708699E+02  0.50528746417E+02  0.29999655209E+02 0.  0.
         12    1    3    3    0    0  0.28793417497E+02  0.20747536939E+02  0.19840708699E+02  0.40659253583E+02  0.00000000000E+00 0. -1.
         11    1    4    4    0    0 -0.47052075756E+01 -0.82000221355E+01 -0.37838201777E+01  0.10183154558E+02  0.51100000000E-03 0. -1.
        -11    1    4    4    0    0 -0.93806246388E+01 -0.14892241142E+02  0.10895480427E+01  0.17634116934E+02  0.51100000000E-03 0.  1.
         12    1    4    4    0    0 -0.14707585283E+02  0.23447263382E+01 -0.17146436564E+02  0.22711474926E+02  0.00000000000E+00 0. -1.
</event>
<event>
 8    1  0.5829710E-012  0.9118800E+02  0.7816164E-02  0.1184000E+00
        -11   -1    0    0    0    0  0.00000000000E+00  0.00000000000E+00  0.45593999997E+02  0.45594000000E+02  0.51100000000E-03 0.  1.
         11   -1    0    0    0    0 -0.00000000000E+00 -0.00000000000E+00 -0.45593999997E+02  0.45594000000E+02  0.51100000000E-03 0. -1.
         23    2    1    2    0    0  0.35527136788E-14  0.71054273576E-14 -0.88817841970E-15  0.91188000000E+02  0.91188000000E+02 0.  0.
    9900012    2    3    3    0    0 -0.23905314487E+02 -0.32803188153E+02  0.23775183726E+01  0.50528858256E+02  0.29999995155E+02 0.  0.
         12    1    3    3    0    0  0.23905314487E+02  0.32803188153E+02 -0.23775183726E+01  0.40659141744E+02  0.00000000000E+00 0. -1.
         11    1    4    4    0    0  0.12704123678E+01 -0.17435501095E+00  0.32601165872E-01  0.12827354954E+01  0.51100000000E-03 0. -1.
        -11    1    4    4    0    0 -0.12829584022E+01 -0.21603473372E+02  0.65215220489E+01  0.22602793944E+02  0.51100000000E-03 0.  1.
         12    1    4    4    0    0 -0.23892768453E+02 -0.11025359770E+02 -0.41766048422E+01  0.26643328816E+02  0.00000000000E+00 0. -1.
</event>
<event>
 8    1  0.5829710E-012  0.9118800E+02  0.7816164E-02  0.1184000E+00
        -11   -1    0    0    0    0  0.00000000000E+00  0.00000000000E+00  0.45593999997E+02  0.45594000000E+02  0.51100000000E-03 0. -1.
         11   -1    0    0    0    0 -0.00000000000E+00 -0.00000000000E+00 -0.45593999997E+02  0.45594000000E+02  0.51100000000E-03 0.  1.
         23    2    1    2    0    0  0.00000000000E+00  0.00000000000E+00 -0.35527136788E-14  0.91188000000E+02  0.91188000000E+02 0.  0.
    9900012    2    3    3    0    0  0.62224686078E+01  0.36477934897E+02  0.16846532477E+02  0.50528874254E+02  0.30000043782E+02 0.  0.
        -12    1    3    3    0    0 -0.62224686078E+01 -0.36477934897E+02 -0.16846532477E+02  0.40659125746E+02  0.00000000000E+00 0.  1.
         11    1    4    4    0    0  0.47328301526E+01 -0.19232681918E+01  0.63600855264E+01  0.81577772680E+01  0.51100000000E-03 0. -1.
        -11    1    4    4    0    0 -0.30331053999E+01  0.23049115450E+02  0.12236040797E+02  0.26271317935E+02  0.51100000000E-03 0.  1.
        -12    1    4    4    0    0  0.45227438551E+01  0.15352087639E+02 -0.17495938462E+01  0.16099779051E+02  0.00000000000E+00 0.  1.
</event>
<event>
 8    1  0.5829710E-012  0.9118800E+02  0.7816164E-02  0.1184000E+00
        -11   -1    0    0    0    0  0.00000000000E+00  0.00000000000E+00  0.45593999997E+02  0.45594000000E+02  0.51100000000E-03 0. -1.
         11   -1    0    0    0    0 -0.00000000000E+00 -0.00000000000E+00 -0.45593999997E+02  0.45594000000E+02  0.51100000000E-03 0.  1.
         23    2    1    2    0    0  0.00000000000E+00  0.00000000000E+00  0.00000000000E+00  0.91188000000E+02  0.91188000000E+02 0.  0.
    9900012    2    3    3    0    0 -0.24416736205E+02  0.19884782637E+02  0.25721290322E+02  0.50528851420E+02  0.29999974377E+02 0.  0.
        -12    1    3    3    0    0  0.24416736205E+02 -0.19884782637E+02 -0.25721290322E+02  0.40659148580E+02  0.00000000000E+00 0.  1.
         11    1    4    4    0    0 -0.35611543663E+01  0.96563211237E+01  0.24092872955E+01  0.10570289665E+02  0.51100000000E-03 0. -1.
        -11    1    4    4    0    0  0.15706661361E+01  0.97531755375E+01  0.54369517440E+01  0.11276163785E+02  0.51100000000E-03 0.  1.
         12    1    4    4    0    0 -0.22426247975E+02  0.47528597558E+00  0.17875051283E+02  0.28682397970E+02  0.00000000000E+00 0. -1.
</event>
<event>
 8    1  0.5829710E-012  0.9118800E+02  0.7816164E-02  0.1184000E+00
        -11   -1    0    0    0    0  0.00000000000E+00  0.00000000000E+00  0.45593999997E+02  0.45594000000E+02  0.51100000000E-03 0. -1.
         11   -1    0    0    0    0 -0.00000000000E+00 -0.00000000000E+00 -0.45593999997E+02  0.45594000000E+02  0.51100000000E-03 0.  1.
         23    2    1    2    0    0  0.00000000000E+00  0.00000000000E+00  0.00000000000E+00  0.91188000000E+02  0.91188000000E+02 0.  0.
    9900012    2    3    3    0    0  0.14522415517E+02 -0.20115674816E+02  0.32212192707E+02  0.50528852386E+02  0.29999977313E+02 0.  0.
        -12    1    3    3    0    0 -0.14522415517E+02  0.20115674816E+02 -0.32212192707E+02  0.40659147614E+02  0.00000000000E+00 0.  1.
         11    1    4    4    0    0  0.47501837128E+01 -0.12998959001E+02  0.21387755116E+02  0.25474953378E+02  0.51100000000E-03 0. -1.
        -11    1    4    4    0    0 -0.32670731789E+01 -0.18124820643E+01  0.10311711073E+02  0.10967690910E+02  0.51100000000E-03 0.  1.
        -12    1    4    4    0    0  0.13039304983E+02 -0.53042337500E+01  0.51272651766E+00  0.14086208098E+02  0.00000000000E+00 0.  1.
</event>
<event>
 8    1  0.5829710E-012  0.9118800E+02  0.7816164E-02  0.1184000E+00
        -11   -1    0    0    0    0  0.00000000000E+00  0.00000000000E+00  0.45593999997E+02  0.45594000000E+02  0.51100000000E-03 0.  1.
         11   -1    0    0    0    0 -0.00000000000E+00 -0.00000000000E+00 -0.45593999997E+02  0.45594000000E+02  0.51100000000E-03 0. -1.
         23    2    1    2    0    0  0.00000000000E+00  0.00000000000E+00  0.00000000000E+00  0.91188000000E+02  0.91188000000E+02 0.  0.
    9900012    2    3    3    0    0  0.19762639742E+02  0.33906361274E+02  0.10628247130E+02  0.50528893990E+02  0.30000103773E+02 0.  0.
        -12    1    3    3    0    0 -0.19762639742E+02 -0.33906361274E+02 -0.10628247130E+02  0.40659106010E+02  0.00000000000E+00 0.  1.
         11    1    4    4    0    0  0.35538397474E+01  0.11524279473E+02  0.35422151826E+01  0.12569251489E+02  0.51100000000E-03 0. -1.
        -11    1    4    4    0    0  0.58851681809E+01  0.24009177559E+02 -0.10084522775E+01  0.24740509046E+02  0.51100000000E-03 0.  1.
        -12    1    4    4    0    0  0.10323631814E+02 -0.16270957585E+01  0.80944842253E+01  0.13219133455E+02  0.00000000000E+00 0.  1.
</event>
<event>
 8    1  0.5829710E-012  0.9118800E+02  0.7816164E-02  0.1184000E+00
        -11   -1    0    0    0    0  0.00000000000E+00  0.00000000000E+00  0.45593999997E+02  0.45594000000E+02  0.51100000000E-03 0. -1.
         11   -1    0    0    0    0 -0.00000000000E+00 -0.00000000000E+00 -0.45593999997E+02  0.45594000000E+02  0.51100000000E-03 0.  1.
         23    2    1    2    0    0 -0.35527136788E-14 -0.17763568394E-14  0.35527136788E-14  0.91188000000E+02  0.91188000000E+02 0.  0.
    9900012    2    3    3    0    0 -0.22229307763E+02 -0.12553516751E+02  0.31645426234E+02  0.50528857019E+02  0.29999991394E+02 0.  0.
        -12    1    3    3    0    0  0.22229307763E+02  0.12553516751E+02 -0.31645426234E+02  0.40659142981E+02  0.00000000000E+00 0.  1.
         11    1    4    4    0    0 -0.40557508139E+01 -0.95365518078E+01  0.65112661056E+01  0.12238934660E+02  0.51100000000E-03 0. -1.
        -11    1    4    4    0    0 -0.24905124017E+01 -0.70173471272E+01 -0.10372815505E+01  0.75180959027E+01  0.51100000000E-03 0.  1.
        -12    1    4    4    0    0 -0.15683044547E+02  0.40003821837E+01  0.26171441679E+02  0.30771826456E+02  0.00000000000E+00 0.  1.
</event>
<event>
 8    1  0.9466287E-012  0.9118800E+02  0.7816164E-02  0.1184000E+00
        -11   -1    0    0    0    0  0.00000000000E+00  0.00000000000E+00  0.45593999997E+02  0.45594000000E+02  0.51100000000E-03 0. -1.
         11   -1    0    0    0    0 -0.00000000000E+00 -0.00000000000E+00 -0.45593999997E+02  0.45594000000E+02  0.51100000000E-03 0.  1.
         23    2    1    2    0    0  0.00000000000E+00 -0.19428902931E-14  0.71054273576E-14  0.91188000000E+02  0.91188000000E+02 0.  0.
    9900012    2    3    3    0    0 -0.14116728823E+02  0.32780771142E+00 -0.38128419609E+02  0.50528857455E+02  0.29999992721E+02 0.  0.
         12    1    3    3    0    0  0.14116728823E+02 -0.32780771142E+00  0.38128419609E+02  0.40659142545E+02  0.00000000000E+00 0. -1.
         11    1    4    4    0    0 -0.69320807129E+01  0.22799161961E+01 -0.60212039786E+00  0.73221793277E+01  0.51100000000E-03 0. -1.
        -11    1    4    4    0    0 -0.87478241442E+01 -0.90169617868E+01 -0.31052670694E+02  0.33497737008E+02  0.51100000000E-03 0.  1.
         12    1    4    4    0    0  0.15631760340E+01  0.70648533021E+01 -0.64736285170E+01  0.97089411199E+01  0.00000000000E+00 0. -1.
</event>
<event>
 8    1  0.5829710E-012  0.9118800E+02  0.7816164E-02  0.1184000E+00
        -11   -1    0    0    0    0  0.00000000000E+00  0.00000000000E+00  0.45593999997E+02  0.45594000000E+02  0.51100000000E-03 0. -1.
         11   -1    0    0    0    0 -0.00000000000E+00 -0.00000000000E+00 -0.45593999997E+02  0.45594000000E+02  0.51100000000E-03 0.  1.
         23    2    1    2    0    0  0.00000000000E+00  0.71054273576E-14  0.00000000000E+00  0.91188000000E+02  0.91188000000E+02 0.  0.
    9900012    2    3    3    0    0 -0.82020697408E+01  0.37565099531E+02 -0.13219488153E+02  0.50528861816E+02  0.30000005977E+02 0.  0.
         12    1    3    3    0    0  0.82020697408E+01 -0.37565099531E+02  0.13219488153E+02  0.40659138184E+02  0.00000000000E+00 0. -1.
         11    1    4    4    0    0  0.44252876336E+01  0.11525117434E+02  0.28456184818E+01  0.12669216523E+02  0.51100000000E-03 0. -1.
        -11    1    4    4    0    0 -0.68435908230E-01  0.48845897840E+01 -0.11957292795E+02  0.12916685027E+02  0.51100000000E-03 0.  1.
        -12    1    4    4    0    0 -0.12558921466E+02  0.21155392313E+02 -0.41078138401E+01  0.24942960266E+02  0.00000000000E+00 0.  1.
</event>
<event>
 8    1  0.5829710E-012  0.9118800E+02  0.7816164E-02  0.1184000E+00
        -11   -1    0    0    0    0  0.00000000000E+00  0.00000000000E+00  0.45593999997E+02  0.45594000000E+02  0.51100000000E-03 0. -1.
         11   -1    0    0    0    0 -0.00000000000E+00 -0.00000000000E+00 -0.45593999997E+02  0.45594000000E+02  0.51100000000E-03 0.  1.
         23    2    1    2    0    0  0.00000000000E+00  0.00000000000E+00  0.00000000000E+00  0.91188000000E+02  0.91188000000E+02 0.  0.
    9900012    2    3    3    0    0  0.74865437580E+01  0.16547143772E+02 -0.36377321139E+02  0.50528858374E+02  0.29999995514E+02 0.  0.
         12    1    3    3    0    0 -0.74865437580E+01 -0.16547143772E+02  0.36377321139E+02  0.40659141626E+02  0.00000000000E+00 0. -1.
         11    1    4    4    0    0 -0.41300992646E+01  0.50573056583E+01 -0.14994408923E+02  0.16354398786E+02  0.51100000000E-03 0. -1.
        -11    1    4    4    0    0  0.87256271427E+01  0.17700114689E+02 -0.14729773979E+02  0.24625126817E+02  0.51100000000E-03 0.  1.
         12    1    4    4    0    0  0.28910158799E+01 -0.62102765750E+01 -0.66531382383E+01  0.95493327711E+01  0.00000000000E+00 0. -1.
</event>
<event>
 8    1  0.5829710E-012  0.9118800E+02  0.7816164E-02  0.1184000E+00
        -11   -1    0    0    0    0  0.00000000000E+00  0.00000000000E+00  0.45593999997E+02  0.45594000000E+02  0.51100000000E-03 0. -1.
         11   -1    0    0    0    0 -0.00000000000E+00 -0.00000000000E+00 -0.45593999997E+02  0.45594000000E+02  0.51100000000E-03 0.  1.
         23    2    1    2    0    0 -0.44408920985E-15  0.88817841970E-15  0.00000000000E+00  0.91188000000E+02  0.91188000000E+02 0.  0.
    9900012    2    3    3    0    0  0.38757212084E+01 -0.36645947786E+01 -0.40307751251E+02  0.50528864733E+02  0.30000014842E+02 0.  0.
         12    1    3    3    0    0 -0.38757212084E+01  0.36645947786E+01  0.40307751251E+02  0.40659135267E+02  0.00000000000E+00 0. -1.
         11    1    4    4    0    0 -0.48632553227E+00  0.40709365268E+01  0.14143438726E+01  0.43369811597E+01  0.51100000000E-03 0. -1.
        -11    1    4    4    0    0 -0.24167995967E+01  0.26750960572E+01 -0.25529115250E+02  0.25782412318E+02  0.51100000000E-03 0.  1.
        -12    1    4    4    0    0  0.67788463374E+01 -0.10410627363E+02 -0.16192979873E+02  0.20409471255E+02  0.00000000000E+00 0.  1.
</event>
<event>
 8    1  0.5829710E-012  0.9118800E+02  0.7816164E-02  0.1184000E+00
        -11   -1    0    0    0    0  0.00000000000E+00  0.00000000000E+00  0.45593999997E+02  0.45594000000E+02  0.51100000000E-03 0.  1.
         11   -1    0    0    0    0 -0.00000000000E+00 -0.00000000000E+00 -0.45593999997E+02  0.45594000000E+02  0.51100000000E-03 0. -1.
         23    2    1    2    0    0  0.00000000000E+00  0.71054273576E-14  0.35527136788E-14  0.91188000000E+02  0.91188000000E+02 0.  0.
    9900012    2    3    3    0    0  0.56198446102E+01  0.35470826082E+02  0.19063128143E+02  0.50528868050E+02  0.30000024924E+02 0.  0.
        -12    1    3    3    0    0 -0.56198446102E+01 -0.35470826082E+02 -0.19063128143E+02  0.40659131950E+02  0.00000000000E+00 0.  1.
         11    1    4    4    0    0  0.16299505005E+01  0.91937798850E+01 -0.14252217201E+01  0.94452943004E+01  0.51100000000E-03 0. -1.
        -11    1    4    4    0    0 -0.53048557527E+01 -0.20456900053E+01  0.21099683368E+01  0.60645122473E+01  0.51100000000E-03 0.  1.
        -12    1    4    4    0    0  0.92947498623E+01  0.28322736202E+02  0.18378381526E+02  0.35019061502E+02  0.00000000000E+00 0.  1.
</event>
<event>
 8    1  0.5829710E-012  0.9118800E+02  0.7816164E-02  0.1184000E+00
        -11   -1    0    0    0    0  0.00000000000E+00  0.00000000000E+00  0.45593999997E+02  0.45594000000E+02  0.51100000000E-03 0. -1.
         11   -1    0    0    0    0 -0.00000000000E+00 -0.00000000000E+00 -0.45593999997E+02  0.45594000000E+02  0.51100000000E-03 0.  1.
         23    2    1    2    0    0  0.35527136788E-14 -0.22204460493E-15  0.00000000000E+00  0.91188000000E+02  0.91188000000E+02 0.  0.
    9900012    2    3    3    0    0 -0.31011252118E+02  0.18449617338E+01  0.26230969557E+02  0.50528863196E+02  0.30000010170E+02 0.  0.
        -12    1    3    3    0    0  0.31011252118E+02 -0.18449617338E+01 -0.26230969557E+02  0.40659136804E+02  0.00000000000E+00 0.  1.
         11    1    4    4    0    0 -0.76058162617E+01  0.52046032265E+00  0.33904964375E+01  0.83435475853E+01  0.51100000000E-03 0. -1.
        -11    1    4    4    0    0 -0.27044962063E+02  0.75638611230E+01  0.16482674964E+02  0.32562563509E+02  0.51100000000E-03 0.  1.
        -12    1    4    4    0    0  0.36395262062E+01 -0.62393597119E+01  0.63577981553E+01  0.96227521013E+01  0.00000000000E+00 0.  1.
</event>
<event>
 8    1  0.5829710E-012  0.9118800E+02  0.7816164E-02  0.1184000E+00
        -11   -1    0    0    0    0  0.00000000000E+00  0.00000000000E+00  0.45593999997E+02  0.45594000000E+02  0.51100000000E-03 0.  1.
         11   -1    0    0    0    0 -0.00000000000E+00 -0.00000000000E+00 -0.45593999997E+02  0.45594000000E+02  0.51100000000E-03 0. -1.
         23    2    1    2    0    0  0.00000000000E+00  0.00000000000E+00  0.00000000000E+00  0.91188000000E+02  0.91188000000E+02 0.  0.
    9900012    2    3    3    0    0  0.25546272176E+02  0.25870556612E+02  0.18200765463E+02  0.50528860991E+02  0.30000003467E+02 0.  0.
        -12    1    3    3    0    0 -0.25546272176E+02 -0.25870556612E+02 -0.18200765463E+02  0.40659139009E+02  0.00000000000E+00 0.  1.
         11    1    4    4    0    0  0.95242014222E+01  0.83528206796E+01  0.98503654371E+01  0.16047109570E+02  0.51100000000E-03 0. -1.
        -11    1    4    4    0    0  0.13048976480E+02  0.48578414264E+01  0.14494646317E+02  0.20098984616E+02  0.51100000000E-03 0.  1.
        -12    1    4    4    0    0  0.29730942738E+01  0.12659894506E+02 -0.61442462906E+01  0.14382766805E+02  0.00000000000E+00 0.  1.
</event>
<event>
 8    1  0.5829710E-012  0.9118800E+02  0.7816164E-02  0.1184000E+00
        -11   -1    0    0    0    0  0.00000000000E+00  0.00000000000E+00  0.45593999997E+02  0.45594000000E+02  0.51100000000E-03 0. -1.
         11   -1    0    0    0    0 -0.00000000000E+00 -0.00000000000E+00 -0.45593999997E+02  0.45594000000E+02  0.51100000000E-03 0.  1.
         23    2    1    2    0    0 -0.44408920985E-15 -0.71054273576E-14 -0.17763568394E-14  0.91188000000E+02  0.91188000000E+02 0.  0.
    9900012    2    3    3    0    0 -0.32924296007E+01  0.37498619088E+02  0.15368082043E+02  0.50528874679E+02  0.30000045074E+02 0.  0.
        -12    1    3    3    0    0  0.32924296007E+01 -0.37498619088E+02 -0.15368082043E+02  0.40659125321E+02  0.00000000000E+00 0.  1.
         11    1    4    4    0    0 -0.23465795915E+01  0.17911853849E+02  0.29429417545E+01  0.18303055770E+02  0.51100000000E-03 0. -1.
        -11    1    4    4    0    0 -0.65338832001E+01  0.22433993887E+02  0.10833599630E+02  0.25755438117E+02  0.51100000000E-03 0.  1.
        -12    1    4    4    0    0  0.55880331909E+01 -0.28472286482E+01  0.15915406581E+01  0.64703807913E+01  0.00000000000E+00 0.  1.
</event>
<event>
 8    1  0.5829710E-012  0.9118800E+02  0.7816164E-02  0.1184000E+00
        -11   -1    0    0    0    0  0.00000000000E+00  0.00000000000E+00  0.45593999997E+02  0.45594000000E+02  0.51100000000E-03 0.  1.
         11   -1    0    0    0    0 -0.00000000000E+00 -0.00000000000E+00 -0.45593999997E+02  0.45594000000E+02  0.51100000000E-03 0. -1.
         23    2    1    2    0    0  0.88817841970E-15 -0.35527136788E-14  0.00000000000E+00  0.91188000000E+02  0.91188000000E+02 0.  0.
    9900012    2    3    3    0    0  0.31561808694E+01 -0.25646042203E+02  0.31392432032E+02  0.50528858995E+02  0.29999997402E+02 0.  0.
         12    1    3    3    0    0 -0.31561808694E+01  0.25646042203E+02 -0.31392432032E+02  0.40659141005E+02  0.00000000000E+00 0. -1.
         11    1    4    4    0    0 -0.29766398398E+00 -0.56709487237E+01  0.47498940282E+01  0.74033611836E+01  0.51100000000E-03 0. -1.
        -11    1    4    4    0    0 -0.77955053247E+01 -0.17380016684E+02  0.25052657917E+02  0.31471742121E+02  0.51100000000E-03 0.  1.
         12    1    4    4    0    0  0.11249350178E+02 -0.25950767954E+01  0.15898800870E+01  0.11653755690E+02  0.00000000000E+00 0. -1.
</event>
<event>
 8    1  0.5829710E-012  0.9118800E+02  0.7816164E-02  0.1184000E+00
        -11   -1    0    0    0    0  0.00000000000E+00  0.00000000000E+00  0.45593999997E+02  0.45594000000E+02  0.51100000000E-03 0. -1.
         11   -1    0    0    0    0 -0.00000000000E+00 -0.00000000000E+00 -0.45593999997E+02  0.45594000000E+02  0.51100000000E-03 0.  1.
         23    2    1    2    0    0  0.00000000000E+00  0.00000000000E+00  0.00000000000E+00  0.91188000000E+02  0.91188000000E+02 0.  0.
    9900012    2    3    3    0    0  0.19856936980E+02  0.31310989885E+02 -0.16687997508E+02  0.50528864561E+02  0.30000014321E+02 0.  0.
         12    1    3    3    0    0 -0.19856936980E+02 -0.31310989885E+02  0.16687997508E+02  0.40659135439E+02  0.00000000000E+00 0. -1.
         11    1    4    4    0    0 -0.46019028146E+00 -0.20950599572E+01  0.25302036815E+01  0.33170743510E+01  0.51100000000E-03 0. -1.
        -11    1    4    4    0    0 -0.26784684543E+01  0.35702281209E+01 -0.55896042566E+01  0.71529293372E+01  0.51100000000E-03 0.  1.
        -12    1    4    4    0    0  0.22995595716E+02  0.29835821721E+02 -0.13628596933E+02  0.40058860873E+02  0.00000000000E+00 0.  1.
</event>
<event>
 8    1  0.5829710E-012  0.9118800E+02  0.7816164E-02  0.1184000E+00
        -11   -1    0    0    0    0  0.00000000000E+00  0.00000000000E+00  0.45593999997E+02  0.45594000000E+02  0.51100000000E-03 0. -1.
         11   -1    0    0    0    0 -0.00000000000E+00 -0.00000000000E+00 -0.45593999997E+02  0.45594000000E+02  0.51100000000E-03 0.  1.
         23    2    1    2    0    0  0.81878948066E-15  0.00000000000E+00  0.71054273576E-14  0.91188000000E+02  0.91188000000E+02 0.  0.
    9900012    2    3    3    0    0  0.74870396414E-01 -0.22825329237E+02 -0.33647649701E+02  0.50528860919E+02  0.30000003251E+02 0.  0.
         12    1    3    3    0    0 -0.74870396414E-01  0.22825329237E+02  0.33647649701E+02  0.40659139081E+02  0.00000000000E+00 0. -1.
         11    1    4    4    0    0 -0.10274361089E+02 -0.16700396862E+02 -0.93307957562E+01  0.21714730043E+02  0.51100000000E-03 0. -1.
        -11    1    4    4    0    0  0.16278752644E+01 -0.55582114163E+01 -0.51561917328E+01  0.77543539687E+01  0.51100000000E-03 0.  1.
         12    1    4    4    0    0  0.87213562214E+01 -0.56672095857E+00 -0.19160662212E+02  0.21059776907E+02  0.00000000000E+00 0. -1.
</event>
<event>
 8    1  0.5829710E-012  0.9118800E+02  0.7816164E-02  0.1184000E+00
        -11   -1    0    0    0    0  0.00000000000E+00  0.00000000000E+00  0.45593999997E+02  0.45594000000E+02  0.51100000000E-03 0. -1.
         11   -1    0    0    0    0 -0.00000000000E+00 -0.00000000000E+00 -0.45593999997E+02  0.45594000000E+02  0.51100000000E-03 0.  1.
         23    2    1    2    0    0 -0.44408920985E-15  0.00000000000E+00 -0.71054273576E-14  0.91188000000E+02  0.91188000000E+02 0.  0.
    9900012    2    3    3    0    0  0.25252788636E+01  0.17933254837E+02  0.36403121050E+02  0.50528857306E+02  0.29999992268E+02 0.  0.
        -12    1    3    3    0    0 -0.25252788636E+01 -0.17933254837E+02 -0.36403121050E+02  0.40659142694E+02  0.00000000000E+00 0.  1.
         11    1    4    4    0    0 -0.49756203104E+01 -0.17525831942E+01  0.46463190353E+00  0.52956801634E+01  0.51100000000E-03 0. -1.
        -11    1    4    4    0    0 -0.16476349800E+01 -0.25330744675E+01  0.19055169922E+01  0.35724169065E+01  0.51100000000E-03 0.  1.
         12    1    4    4    0    0  0.91485341540E+01  0.22218912499E+02  0.34032972154E+02  0.41660760236E+02  0.00000000000E+00 0. -1.
</event>
<event>
 8    1  0.5829710E-012  0.9118800E+02  0.7816164E-02  0.1184000E+00
        -11   -1    0    0    0    0  0.00000000000E+00  0.00000000000E+00  0.45593999997E+02  0.45594000000E+02  0.51100000000E-03 0. -1.
         11   -1    0    0    0    0 -0.00000000000E+00 -0.00000000000E+00 -0.45593999997E+02  0.45594000000E+02  0.51100000000E-03 0.  1.
         23    2    1    2    0    0  0.71054273576E-14  0.00000000000E+00 -0.88817841970E-15  0.91188000000E+02  0.91188000000E+02 0.  0.
    9900012    2    3    3    0    0 -0.39275537429E+02  0.71509414701E+01 -0.77111490089E+01  0.50528860520E+02  0.30000002035E+02 0.  0.
         12    1    3    3    0    0  0.39275537429E+02 -0.71509414701E+01  0.77111490089E+01  0.40659139480E+02  0.00000000000E+00 0. -1.
         11    1    4    4    0    0 -0.69080712893E+01  0.18798837606E+01 -0.11578243403E+01  0.72523078641E+01  0.51100000000E-03 0. -1.
        -11    1    4    4    0    0 -0.16621799877E+02  0.15509527186E+02  0.16241756802E+01  0.22791832125E+02  0.51100000000E-03 0.  1.
         12    1    4    4    0    0 -0.15745666262E+02 -0.10238469477E+02 -0.81775003488E+01  0.20484720531E+02  0.00000000000E+00 0. -1.
</event>
<event>
 8    1  0.5829710E-012  0.9118800E+02  0.7816164E-02  0.1184000E+00
        -11   -1    0    0    0    0  0.00000000000E+00  0.00000000000E+00  0.45593999997E+02  0.45594000000E+02  0.51100000000E-03 0. -1.
         11   -1    0    0    0    0 -0.00000000000E+00 -0.00000000000E+00 -0.45593999997E+02  0.45594000000E+02  0.51100000000E-03 0.  1.
         23    2    1    2    0    0  0.88817841970E-15 -0.17763568394E-14  0.00000000000E+00  0.91188000000E+02  0.91188000000E+02 0.  0.
    9900012    2    3    3    0    0 -0.61817568746E+01 -0.14597611513E+02  0.37441439781E+02  0.50528858435E+02  0.29999995699E+02 0.  0.
        -12    1    3    3    0    0  0.61817568746E+01  0.14597611513E+02 -0.37441439781E+02  0.40659141565E+02  0.00000000000E+00 0.  1.
         11    1    4    4    0    0  0.30615052841E+01 -0.11466476195E+01  0.25509014107E+02  0.25717647955E+02  0.51100000000E-03 0. -1.
        -11    1    4    4    0    0  0.16421072624E+01 -0.10003484208E+02  0.72845733042E+01  0.12483237603E+02  0.51100000000E-03 0.  1.
        -12    1    4    4    0    0 -0.10885369421E+02 -0.34474796851E+01  0.46478523701E+01  0.12327972877E+02  0.00000000000E+00 0.  1.
</event>
<event>
 8    1  0.5829710E-012  0.9118800E+02  0.7816164E-02  0.1184000E+00
        -11   -1    0    0    0    0  0.00000000000E+00  0.00000000000E+00  0.45593999997E+02  0.45594000000E+02  0.51100000000E-03 0. -1.
         11   -1    0    0    0    0 -0.00000000000E+00 -0.00000000000E+00 -0.45593999997E+02  0.45594000000E+02  0.51100000000E-03 0.  1.
         23    2    1    2    0    0  0.88817841970E-15 -0.17763568394E-14  0.00000000000E+00  0.91188000000E+02  0.91188000000E+02 0.  0.
    9900012    2    3    3    0    0  0.22419687666E+01  0.14881102506E+02  0.37771562677E+02  0.50528873314E+02  0.30000040926E+02 0.  0.
        -12    1    3    3    0    0 -0.22419687666E+01 -0.14881102506E+02 -0.37771562677E+02  0.40659126686E+02  0.00000000000E+00 0.  1.
         11    1    4    4    0    0  0.50516052222E+01  0.72266487849E+01  0.46049310430E+01  0.99472889852E+01  0.51100000000E-03 0. -1.
        -11    1    4    4    0    0  0.49685138559E+01  0.95483904499E+01  0.61347677585E+01  0.12389239921E+02  0.51100000000E-03 0.  1.
         12    1    4    4    0    0 -0.77781503115E+01 -0.18939367284E+01  0.27031863876E+02  0.28192344408E+02  0.00000000000E+00 0. -1.
</event>
<event>
 8    1  0.5829710E-012  0.9118800E+02  0.7816164E-02  0.1184000E+00
        -11   -1    0    0    0    0  0.00000000000E+00  0.00000000000E+00  0.45593999997E+02  0.45594000000E+02  0.51100000000E-03 0. -1.
         11   -1    0    0    0    0 -0.00000000000E+00 -0.00000000000E+00 -0.45593999997E+02  0.45594000000E+02  0.51100000000E-03 0.  1.
         23    2    1    2    0    0 -0.35527136788E-14 -0.55511151231E-15 -0.71054273576E-14  0.91188000000E+02  0.91188000000E+02 0.  0.
    9900012    2    3    3    0    0 -0.21640766392E+02  0.63585948418E+00 -0.34415677519E+02  0.50528856546E+02  0.29999989957E+02 0.  0.
         12    1    3    3    0    0  0.21640766392E+02 -0.63585948418E+00  0.34415677519E+02  0.40659143454E+02  0.00000000000E+00 0. -1.
         11    1    4    4    0    0 -0.59695373732E+01 -0.10867875604E+01 -0.10744564367E+02  0.12339454905E+02  0.51100000000E-03 0.  1.
        -11    1    4    4    0    0 -0.14140338899E+02  0.83691320019E+01 -0.26190728685E+02  0.30918373566E+02  0.51100000000E-03 0. -1.
         12    1    4    4    0    0 -0.15308901189E+01 -0.66464849573E+01  0.25196155324E+01  0.72710280755E+01  0.00000000000E+00 0. -1.
</event>
<event>
 8    1  0.8019660E-012  0.9118800E+02  0.7816164E-02  0.1184000E+00
        -11   -1    0    0    0    0  0.00000000000E+00  0.00000000000E+00  0.45593999997E+02  0.45594000000E+02  0.51100000000E-03 0. -1.
         11   -1    0    0    0    0 -0.00000000000E+00 -0.00000000000E+00 -0.45593999997E+02  0.45594000000E+02  0.51100000000E-03 0.  1.
         23    2    1    2    0    0 -0.35527136788E-14  0.44408920985E-15  0.00000000000E+00  0.91188000000E+02  0.91188000000E+02 0.  0.
    9900012    2    3    3    0    0 -0.25862807190E+02 -0.20236271480E+01 -0.31307916298E+02  0.50528862214E+02  0.30000007186E+02 0.  0.
         12    1    3    3    0    0  0.25862807190E+02  0.20236271480E+01  0.31307916298E+02  0.40659137786E+02  0.00000000000E+00 0. -1.
         11    1    4    4    0    0  0.21735095819E+01  0.71410450840E+01 -0.50295266105E+01  0.90008225725E+01  0.51100000000E-03 0. -1.
        -11    1    4    4    0    0 -0.16179655404E+02 -0.12933516905E+01 -0.20549713551E+02  0.26186728221E+02  0.51100000000E-03 0.  1.
        -12    1    4    4    0    0 -0.11856661368E+02 -0.78713205415E+01 -0.57286761360E+01  0.15341311421E+02  0.00000000000E+00 0.  1.
</event>
<event>
 8    1  0.5829710E-012  0.9118800E+02  0.7816164E-02  0.1184000E+00
        -11   -1    0    0    0    0  0.00000000000E+00  0.00000000000E+00  0.45593999997E+02  0.45594000000E+02  0.51100000000E-03 0. -1.
         11   -1    0    0    0    0 -0.00000000000E+00 -0.00000000000E+00 -0.45593999997E+02  0.45594000000E+02  0.51100000000E-03 0.  1.
         23    2    1    2    0    0  0.00000000000E+00 -0.17763568394E-14 -0.88817841970E-15  0.91188000000E+02  0.91188000000E+02 0.  0.
    9900012    2    3    3    0    0 -0.39961268332E+02  0.56778677041E+01  0.49014645996E+01  0.50528861992E+02  0.30000006510E+02 0.  0.
        -12    1    3    3    0    0  0.39961268332E+02 -0.56778677041E+01 -0.49014645996E+01  0.40659138008E+02  0.00000000000E+00 0.  1.
         11    1    4    4    0    0 -0.21728645143E+02 -0.49624597665E+01  0.53213434451E+01  0.22914552647E+02  0.51100000000E-03 0.  1.
        -11    1    4    4    0    0 -0.14803144352E+02  0.78470533892E+00  0.52648459566E+01  0.15731098130E+02  0.51100000000E-03 0. -1.
        -12    1    4    4    0    0 -0.34294788365E+01  0.98556221317E+01 -0.56847248021E+01  0.11883211214E+02  0.00000000000E+00 0.  1.
</event>
<event>
 8    1  0.5829710E-012  0.9118800E+02  0.7816164E-02  0.1184000E+00
        -11   -1    0    0    0    0  0.00000000000E+00  0.00000000000E+00  0.45593999997E+02  0.45594000000E+02  0.51100000000E-03 0. -1.
         11   -1    0    0    0    0 -0.00000000000E+00 -0.00000000000E+00 -0.45593999997E+02  0.45594000000E+02  0.51100000000E-03 0.  1.
         23    2    1    2    0    0  0.00000000000E+00 -0.44408920985E-15  0.00000000000E+00  0.91188000000E+02  0.91188000000E+02 0.  0.
    9900012    2    3    3    0    0  0.29073343364E+02 -0.11228151890E+01  0.28401514783E+02  0.50528855269E+02  0.29999986075E+02 0.  0.
        -12    1    3    3    0    0 -0.29073343364E+02  0.11228151890E+01 -0.28401514783E+02  0.40659144731E+02  0.00000000000E+00 0.  1.
         11    1    4    4    0    0 -0.27278544528E+01  0.71696900412E+01  0.54198147873E+01  0.93925522513E+01  0.51100000000E-03 0.  1.
        -11    1    4    4    0    0  0.13203012049E+02 -0.50642744056E+01  0.48151950684E+01  0.14938289936E+02  0.51100000000E-03 0. -1.
        -12    1    4    4    0    0  0.18598185768E+02 -0.32282308246E+01  0.18166504927E+02  0.26198013081E+02  0.00000000000E+00 0.  1.
</event>
<event>
 8    1  0.5829710E-012  0.9118800E+02  0.7816164E-02  0.1184000E+00
        -11   -1    0    0    0    0  0.00000000000E+00  0.00000000000E+00  0.45593999997E+02  0.45594000000E+02  0.51100000000E-03 0. -1.
         11   -1    0    0    0    0 -0.00000000000E+00 -0.00000000000E+00 -0.45593999997E+02  0.45594000000E+02  0.51100000000E-03 0.  1.
         23    2    1    2    0    0 -0.35527136788E-14  0.00000000000E+00  0.35527136788E-14  0.91188000000E+02  0.91188000000E+02 0.  0.
    9900012    2    3    3    0    0 -0.19343549483E+02  0.21342561318E+02 -0.28696473818E+02  0.50528862776E+02  0.30000008895E+02 0.  0.
         12    1    3    3    0    0  0.19343549483E+02 -0.21342561318E+02  0.28696473818E+02  0.40659137224E+02  0.00000000000E+00 0. -1.
         11    1    4    4    0    0  0.34030084923E+01  0.36874910219E+01 -0.48996294718E+01  0.70131609176E+01  0.51100000000E-03 0. -1.
        -11    1    4    4    0    0 -0.59762148322E+01  0.15216805535E+02 -0.20551952089E+02  0.26261169992E+02  0.51100000000E-03 0.  1.
        -12    1    4    4    0    0 -0.16770343143E+02  0.24382647608E+01 -0.32448922573E+01  0.17254531867E+02  0.00000000000E+00 0.  1.
</event>
<event>
 8    1  0.5829710E-012  0.9118800E+02  0.7816164E-02  0.1184000E+00
        -11   -1    0    0    0    0  0.00000000000E+00  0.00000000000E+00  0.45593999997E+02  0.45594000000E+02  0.51100000000E-03 0. -1.
         11   -1    0    0    0    0 -0.00000000000E+00 -0.00000000000E+00 -0.45593999997E+02  0.45594000000E+02  0.51100000000E-03 0.  1.
         23    2    1    2    0    0  0.00000000000E+00 -0.35527136788E-14  0.00000000000E+00  0.91188000000E+02  0.91188000000E+02 0.  0.
    9900012    2    3    3    0    0 -0.18922881833E+02 -0.17340221949E+02 -0.31534169102E+02  0.50528898005E+02  0.30000115975E+02 0.  0.
         12    1    3    3    0    0  0.18922881833E+02  0.17340221949E+02  0.31534169102E+02  0.40659101995E+02  0.00000000000E+00 0. -1.
         11    1    4    4    0    0 -0.31105672131E+01 -0.82624881410E+00  0.20096392647E+01  0.37943333703E+01  0.51100000000E-03 0. -1.
        -11    1    4    4    0    0 -0.20345641127E+02 -0.62074557393E+01 -0.22488953607E+02  0.30955300906E+02  0.51100000000E-03 0.  1.
         12    1    4    4    0    0  0.45333265069E+01 -0.10306517396E+02 -0.11054854760E+02  0.15779263728E+02  0.00000000000E+00 0. -1.
</event>
<event>
 8    1  0.5838458E-012  0.9118800E+02  0.7816164E-02  0.1184000E+00
        -11   -1    0    0    0    0  0.00000000000E+00  0.00000000000E+00  0.45593999997E+02  0.45594000000E+02  0.51100000000E-03 0. -1.
         11   -1    0    0    0    0 -0.00000000000E+00 -0.00000000000E+00 -0.45593999997E+02  0.45594000000E+02  0.51100000000E-03 0.  1.
         23    2    1    2    0    0  0.00000000000E+00  0.88817841970E-15  0.00000000000E+00  0.91188000000E+02  0.91188000000E+02 0.  0.
    9900012    2    3    3    0    0 -0.70998529564E+01  0.76177075264E+01 -0.39303003744E+02  0.50528886836E+02  0.30000082028E+02 0.  0.
         12    1    3    3    0    0  0.70998529564E+01 -0.76177075264E+01  0.39303003744E+02  0.40659113164E+02  0.00000000000E+00 0. -1.
         11    1    4    4    0    0 -0.25938318107E+01 -0.76328469674E+01 -0.65895851314E+01  0.10412057854E+02  0.51100000000E-03 0. -1.
        -11    1    4    4    0    0 -0.28342943124E+01  0.16198219752E+01  0.12394228648E+01  0.34918786892E+01  0.51100000000E-03 0.  1.
        -12    1    4    4    0    0 -0.16717268333E+01  0.13630732519E+02 -0.33952841477E+02  0.36624950293E+02  0.00000000000E+00 0.  1.
</event>
<event>
 8    1  0.5829710E-012  0.9118800E+02  0.7816164E-02  0.1184000E+00
        -11   -1    0    0    0    0  0.00000000000E+00  0.00000000000E+00  0.45593999997E+02  0.45594000000E+02  0.51100000000E-03 0. -1.
         11   -1    0    0    0    0 -0.00000000000E+00 -0.00000000000E+00 -0.45593999997E+02  0.45594000000E+02  0.51100000000E-03 0.  1.
         23    2    1    2    0    0 -0.17763568394E-14  0.35527136788E-14  0.00000000000E+00  0.91188000000E+02  0.91188000000E+02 0.  0.
    9900012    2    3    3    0    0  0.84970455414E+01 -0.21550450279E+02  0.33414694214E+02  0.50528886882E+02  0.30000082165E+02 0.  0.
        -12    1    3    3    0    0 -0.84970455414E+01  0.21550450279E+02 -0.33414694214E+02  0.40659113118E+02  0.00000000000E+00 0.  1.
         11    1    4    4    0    0  0.92262027800E+01 -0.22739768629E+02  0.19747174198E+02  0.31498742579E+02  0.51100000000E-03 0. -1.
        -11    1    4    4    0    0  0.30932612677E+01 -0.85294835886E-01 -0.14266124226E+01  0.34074570789E+01  0.51100000000E-03 0.  1.
        -12    1    4    4    0    0 -0.38224185062E+01  0.12746131854E+01  0.15094132438E+02  0.15622687223E+02  0.00000000000E+00 0.  1.
</event>
<event>
 8    1  0.5829710E-012  0.9118800E+02  0.7816164E-02  0.1184000E+00
        -11   -1    0    0    0    0  0.00000000000E+00  0.00000000000E+00  0.45593999997E+02  0.45594000000E+02  0.51100000000E-03 0. -1.
         11   -1    0    0    0    0 -0.00000000000E+00 -0.00000000000E+00 -0.45593999997E+02  0.45594000000E+02  0.51100000000E-03 0.  1.
         23    2    1    2    0    0  0.00000000000E+00  0.00000000000E+00  0.00000000000E+00  0.91188000000E+02  0.91188000000E+02 0.  0.
    9900012    2    3    3    0    0  0.17388230412E+02  0.15026369593E+02  0.33541319332E+02  0.50528899634E+02  0.30000120928E+02 0.  0.
        -12    1    3    3    0    0 -0.17388230412E+02 -0.15026369593E+02 -0.33541319332E+02  0.40659100366E+02  0.00000000000E+00 0.  1.
         11    1    4    4    0    0  0.36018641675E+00  0.30715714560E+00  0.12672806289E+02  0.12681644186E+02  0.51100000000E-03 0. -1.
        -11    1    4    4    0    0  0.10183611673E+02 -0.28405866702E+01  0.14517848656E+02  0.17959476863E+02  0.51100000000E-03 0.  1.
         12    1    4    4    0    0  0.68444323218E+01  0.17559799118E+02  0.63506643871E+01  0.19887778585E+02  0.00000000000E+00 0. -1.
</event>
<event>
 8    1  0.5829710E-012  0.9118800E+02  0.7816164E-02  0.1184000E+00
        -11   -1    0    0    0    0  0.00000000000E+00  0.00000000000E+00  0.45593999997E+02  0.45594000000E+02  0.51100000000E-03 0. -1.
         11   -1    0    0    0    0 -0.00000000000E+00 -0.00000000000E+00 -0.45593999997E+02  0.45594000000E+02  0.51100000000E-03 0.  1.
         23    2    1    2    0    0  0.00000000000E+00  0.17763568394E-14  0.00000000000E+00  0.91188000000E+02  0.91188000000E+02 0.  0.
    9900012    2    3    3    0    0 -0.14645541914E+02  0.13459757577E+02 -0.35461369485E+02  0.50528859604E+02  0.29999999252E+02 0.  0.
         12    1    3    3    0    0  0.14645541914E+02 -0.13459757577E+02  0.35461369485E+02  0.40659140396E+02  0.00000000000E+00 0. -1.
         11    1    4    4    0    0 -0.62978693683E+01 -0.97330822461E-01 -0.22374339556E+01  0.66842159477E+01  0.51100000000E-03 0. -1.
        -11    1    4    4    0    0 -0.14431751196E+02  0.10773707636E+01 -0.14035486750E+02  0.20160135389E+02  0.51100000000E-03 0.  1.
        -12    1    4    4    0    0  0.60840786496E+01  0.12479717636E+02 -0.19188448779E+02  0.23684508267E+02  0.00000000000E+00 0.  1.
</event>
<event>
 8    1  0.5829710E-012  0.9118800E+02  0.7816164E-02  0.1184000E+00
        -11   -1    0    0    0    0  0.00000000000E+00  0.00000000000E+00  0.45593999997E+02  0.45594000000E+02  0.51100000000E-03 0. -1.
         11   -1    0    0    0    0 -0.00000000000E+00 -0.00000000000E+00 -0.45593999997E+02  0.45594000000E+02  0.51100000000E-03 0.  1.
         23    2    1    2    0    0  0.00000000000E+00  0.00000000000E+00  0.00000000000E+00  0.91188000000E+02  0.91188000000E+02 0.  0.
    9900012    2    3    3    0    0  0.20220670102E+02 -0.44733124098E+01 -0.34989712640E+02  0.50528855716E+02  0.29999987433E+02 0.  0.
         12    1    3    3    0    0 -0.20220670102E+02  0.44733124098E+01  0.34989712640E+02  0.40659144284E+02  0.00000000000E+00 0. -1.
         11    1    4    4    0    0  0.12179627941E+01 -0.48635341440E+01 -0.10415581441E+01  0.51207657011E+01  0.51100000000E-03 0. -1.
        -11    1    4    4    0    0 -0.44216090742E+01  0.28279135679E+01 -0.17836932152E+01  0.55434000126E+01  0.51100000000E-03 0.  1.
        -12    1    4    4    0    0  0.23424316382E+02 -0.24376918338E+01 -0.32164461281E+02  0.39864690002E+02  0.00000000000E+00 0.  1.
</event>
<event>
 8    1  0.5829710E-012  0.9118800E+02  0.7816164E-02  0.1184000E+00
        -11   -1    0    0    0    0  0.00000000000E+00  0.00000000000E+00  0.45593999997E+02  0.45594000000E+02  0.51100000000E-03 0.  1.
         11   -1    0    0    0    0 -0.00000000000E+00 -0.00000000000E+00 -0.45593999997E+02  0.45594000000E+02  0.51100000000E-03 0. -1.
         23    2    1    2    0    0  0.00000000000E+00 -0.17763568394E-14  0.35527136788E-14  0.91188000000E+02  0.91188000000E+02 0.  0.
    9900012    2    3    3    0    0  0.33844295773E+02 -0.14137806240E+02  0.17545690425E+02  0.50528866043E+02  0.30000018825E+02 0.  0.
         12    1    3    3    0    0 -0.33844295773E+02  0.14137806240E+02 -0.17545690425E+02  0.40659133957E+02  0.00000000000E+00 0. -1.
         11    1    4    4    0    0  0.18798691291E+02 -0.24292269015E+00  0.31196177517E+01  0.19057329846E+02  0.51100000000E-03 0. -1.
        -11    1    4    4    0    0  0.16240172897E+02 -0.59966443720E+01  0.30616784839E+01  0.17580581187E+02  0.51100000000E-03 0.  1.
         12    1    4    4    0    0 -0.11945684160E+01 -0.78982391774E+01  0.11364394190E+02  0.13890955010E+02  0.00000000000E+00 0. -1.
</event>
<event>
 8    1  0.5829710E-012  0.9118800E+02  0.7816164E-02  0.1184000E+00
        -11   -1    0    0    0    0  0.00000000000E+00  0.00000000000E+00  0.45593999997E+02  0.45594000000E+02  0.51100000000E-03 0. -1.
         11   -1    0    0    0    0 -0.00000000000E+00 -0.00000000000E+00 -0.45593999997E+02  0.45594000000E+02  0.51100000000E-03 0.  1.
         23    2    1    2    0    0  0.35527136788E-14  0.35527136788E-14  0.00000000000E+00  0.91188000000E+02  0.91188000000E+02 0.  0.
    9900012    2    3    3    0    0  0.29464388386E+02  0.27419247868E+02  0.57620114426E+01  0.50528854504E+02  0.29999983750E+02 0.  0.
         12    1    3    3    0    0 -0.29464388386E+02 -0.27419247868E+02 -0.57620114426E+01  0.40659145496E+02  0.00000000000E+00 0. -1.
         11    1    4    4    0    0  0.13775777857E+02  0.19803962598E+00 -0.48579561092E+01  0.14608593809E+02  0.51100000000E-03 0. -1.
        -11    1    4    4    0    0  0.10759264966E+02  0.65055301242E+01  0.11827050986E+01  0.12628637948E+02  0.51100000000E-03 0.  1.
        -12    1    4    4    0    0  0.49293455626E+01  0.20715678118E+02  0.94372624533E+01  0.23291622747E+02  0.00000000000E+00 0.  1.
</event>
<event>
 8    1  0.5829710E-012  0.9118800E+02  0.7816164E-02  0.1184000E+00
        -11   -1    0    0    0    0  0.00000000000E+00  0.00000000000E+00  0.45593999997E+02  0.45594000000E+02  0.51100000000E-03 0. -1.
         11   -1    0    0    0    0 -0.00000000000E+00 -0.00000000000E+00 -0.45593999997E+02  0.45594000000E+02  0.51100000000E-03 0.  1.
         23    2    1    2    0    0 -0.35527136788E-14  0.35527136788E-14  0.35527136788E-14  0.91188000000E+02  0.91188000000E+02 0.  0.
    9900012    2    3    3    0    0 -0.19710905207E+02  0.22374829461E+02  0.27640776446E+02  0.50528864495E+02  0.30000014119E+02 0.  0.
        -12    1    3    3    0    0  0.19710905207E+02 -0.22374829461E+02 -0.27640776446E+02  0.40659135505E+02  0.00000000000E+00 0.  1.
         11    1    4    4    0    0 -0.47210373816E+01  0.14117753065E+02  0.49889289506E+01  0.15699954073E+02  0.51100000000E-03 0. -1.
        -11    1    4    4    0    0 -0.31744229379E+01  0.85093334040E+01 -0.21931799202E+00  0.90848124148E+01  0.51100000000E-03 0.  1.
        -12    1    4    4    0    0 -0.11815444887E+02 -0.25225700740E+00  0.22871165487E+02  0.25744098008E+02  0.00000000000E+00 0.  1.
</event>
<event>
 8    1  0.5829710E-012  0.9118800E+02  0.7816164E-02  0.1184000E+00
        -11   -1    0    0    0    0  0.00000000000E+00  0.00000000000E+00  0.45593999997E+02  0.45594000000E+02  0.51100000000E-03 0. -1.
         11   -1    0    0    0    0 -0.00000000000E+00 -0.00000000000E+00 -0.45593999997E+02  0.45594000000E+02  0.51100000000E-03 0.  1.
         23    2    1    2    0    0  0.00000000000E+00  0.00000000000E+00 -0.71054273576E-14  0.91188000000E+02  0.91188000000E+02 0.  0.
    9900012    2    3    3    0    0  0.21287942969E+02 -0.24209705167E+01  0.34556155847E+02  0.50528861777E+02  0.30000005857E+02 0.  0.
        -12    1    3    3    0    0 -0.21287942969E+02  0.24209705167E+01 -0.34556155847E+02  0.40659138223E+02  0.00000000000E+00 0.  1.
         11    1    4    4    0    0  0.61870623318E+01  0.20932229508E+01  0.12803256360E+01  0.66558663309E+01  0.51100000000E-03 0. -1.
        -11    1    4    4    0    0  0.21051771803E+02 -0.64338497418E+00  0.21323286578E+02  0.29971212705E+02  0.51100000000E-03 0.  1.
         12    1    4    4    0    0 -0.59508911659E+01 -0.38708084933E+01  0.11952543633E+02  0.13901782741E+02  0.00000000000E+00 0. -1.
</event>
<event>
 8    1  0.5829710E-012  0.9118800E+02  0.7816164E-02  0.1184000E+00
        -11   -1    0    0    0    0  0.00000000000E+00  0.00000000000E+00  0.45593999997E+02  0.45594000000E+02  0.51100000000E-03 0. -1.
         11   -1    0    0    0    0 -0.00000000000E+00 -0.00000000000E+00 -0.45593999997E+02  0.45594000000E+02  0.51100000000E-03 0.  1.
         23    2    1    2    0    0 -0.35527136788E-14  0.17763568394E-14  0.35527136788E-14  0.91188000000E+02  0.91188000000E+02 0.  0.
    9900012    2    3    3    0    0  0.23595669196E+02 -0.98025689094E+01 -0.31627844209E+02  0.50528849845E+02  0.29999969588E+02 0.  0.
         12    1    3    3    0    0 -0.23595669196E+02  0.98025689094E+01  0.31627844209E+02  0.40659150155E+02  0.00000000000E+00 0. -1.
         11    1    4    4    0    0  0.46185828218E+01  0.11980112459E+01  0.17575977745E+01  0.50848489088E+01  0.51100000000E-03 0. -1.
        -11    1    4    4    0    0  0.28280990468E+01  0.55029735014E+01 -0.20454912197E+01  0.65165095079E+01  0.51100000000E-03 0.  1.
        -12    1    4    4    0    0  0.16148987328E+02 -0.16503553657E+02 -0.31339950764E+02  0.38927491428E+02  0.00000000000E+00 0.  1.
</event>
<event>
 8    1  0.5829710E-012  0.9118800E+02  0.7816164E-02  0.1184000E+00
        -11   -1    0    0    0    0  0.00000000000E+00  0.00000000000E+00  0.45593999997E+02  0.45594000000E+02  0.51100000000E-03 0. -1.
         11   -1    0    0    0    0 -0.00000000000E+00 -0.00000000000E+00 -0.45593999997E+02  0.45594000000E+02  0.51100000000E-03 0.  1.
         23    2    1    2    0    0  0.35527136788E-14  0.17763568394E-14  0.00000000000E+00  0.91188000000E+02  0.91188000000E+02 0.  0.
    9900012    2    3    3    0    0 -0.21507140737E+02 -0.81889097586E+01  0.33519376384E+02  0.50528881234E+02  0.30000064997E+02 0.  0.
        -12    1    3    3    0    0  0.21507140737E+02  0.81889097586E+01 -0.33519376384E+02  0.40659118766E+02  0.00000000000E+00 0.  1.
         11    1    4    4    0    0 -0.31925607089E+01  0.69200416293E+01  0.17637375277E+02  0.19213443912E+02  0.51100000000E-03 0. -1.
        -11    1    4    4    0    0 -0.44710189562E-01  0.17126187091E+01  0.27042873105E+01  0.32012859858E+01  0.51100000000E-03 0.  1.
         12    1    4    4    0    0 -0.18269869839E+02 -0.16821570097E+02  0.13177713796E+02  0.28114151336E+02  0.00000000000E+00 0. -1.
</event>
<event>
 8    1  0.5829710E-012  0.9118800E+02  0.7816164E-02  0.1184000E+00
        -11   -1    0    0    0    0  0.00000000000E+00  0.00000000000E+00  0.45593999997E+02  0.45594000000E+02  0.51100000000E-03 0. -1.
         11   -1    0    0    0    0 -0.00000000000E+00 -0.00000000000E+00 -0.45593999997E+02  0.45594000000E+02  0.51100000000E-03 0.  1.
         23    2    1    2    0    0 -0.17763568394E-14 -0.35527136788E-14  0.00000000000E+00  0.91188000000E+02  0.91188000000E+02 0.  0.
    9900012    2    3    3    0    0 -0.13925904795E+02 -0.31296761506E+02  0.21903087766E+02  0.50528888367E+02  0.30000086679E+02 0.  0.
        -12    1    3    3    0    0  0.13925904795E+02  0.31296761506E+02 -0.21903087766E+02  0.40659111633E+02  0.00000000000E+00 0.  1.
         11    1    4    4    0    0  0.64991141995E+01 -0.32248165484E+01  0.71085691038E+01  0.10157247763E+02  0.51100000000E-03 0. -1.
        -11    1    4    4    0    0 -0.56508240659E+01  0.16662537270E+00  0.29063903023E+01  0.63566250077E+01  0.51100000000E-03 0.  1.
        -12    1    4    4    0    0 -0.14774194929E+02 -0.28238570330E+02  0.11888128360E+02  0.34015015596E+02  0.00000000000E+00 0.  1.
</event>
<event>
 8    1  0.5829710E-012  0.9118800E+02  0.7816164E-02  0.1184000E+00
        -11   -1    0    0    0    0  0.00000000000E+00  0.00000000000E+00  0.45593999997E+02  0.45594000000E+02  0.51100000000E-03 0. -1.
         11   -1    0    0    0    0 -0.00000000000E+00 -0.00000000000E+00 -0.45593999997E+02  0.45594000000E+02  0.51100000000E-03 0.  1.
         23    2    1    2    0    0  0.00000000000E+00  0.88817841970E-15  0.00000000000E+00  0.91188000000E+02  0.91188000000E+02 0.  0.
    9900012    2    3    3    0    0 -0.34977708555E+02  0.37619839422E+01  0.20385599452E+02  0.50528864693E+02  0.30000014720E+02 0.  0.
        -12    1    3    3    0    0  0.34977708555E+02 -0.37619839422E+01 -0.20385599452E+02  0.40659135307E+02  0.00000000000E+00 0.  1.
         11    1    4    4    0    0 -0.19571345850E+02 -0.81678818047E+01  0.74371956203E+01  0.22473623440E+02  0.51100000000E-03 0. -1.
        -11    1    4    4    0    0 -0.11817431970E+02  0.54258668719E+01 -0.14160947178E+00  0.13004298642E+02  0.51100000000E-03 0.  1.
         12    1    4    4    0    0 -0.35889307353E+01  0.65039988751E+01  0.13090013304E+02  0.15050942611E+02  0.00000000000E+00 0. -1.
</event>
<event>
 8    1  0.5829710E-012  0.9118800E+02  0.7816164E-02  0.1184000E+00
        -11   -1    0    0    0    0  0.00000000000E+00  0.00000000000E+00  0.45593999997E+02  0.45594000000E+02  0.51100000000E-03 0. -1.
         11   -1    0    0    0    0 -0.00000000000E+00 -0.00000000000E+00 -0.45593999997E+02  0.45594000000E+02  0.51100000000E-03 0.  1.
         23    2    1    2    0    0  0.00000000000E+00  0.44408920985E-15 -0.71054273576E-14  0.91188000000E+02  0.91188000000E+02 0.  0.
    9900012    2    3    3    0    0 -0.30366478525E+02  0.18971894445E+01  0.26971158577E+02  0.50528859075E+02  0.29999997643E+02 0.  0.
        -12    1    3    3    0    0  0.30366478525E+02 -0.18971894445E+01 -0.26971158577E+02  0.40659140925E+02  0.00000000000E+00 0.  1.
         11    1    4    4    0    0 -0.20062821842E+02  0.51060957528E+01  0.17991336594E+02  0.27427672646E+02  0.51100000000E-03 0. -1.
        -11    1    4    4    0    0  0.21570481289E+01  0.52141831790E+01  0.11772709206E+00  0.56439722522E+01  0.51100000000E-03 0.  1.
         12    1    4    4    0    0 -0.12460704812E+02 -0.84230894873E+01  0.88620948912E+01  0.17457214176E+02  0.00000000000E+00 0. -1.
</event>
<event>
 8    1  0.5829710E-012  0.9118800E+02  0.7816164E-02  0.1184000E+00
        -11   -1    0    0    0    0  0.00000000000E+00  0.00000000000E+00  0.45593999997E+02  0.45594000000E+02  0.51100000000E-03 0. -1.
         11   -1    0    0    0    0 -0.00000000000E+00 -0.00000000000E+00 -0.45593999997E+02  0.45594000000E+02  0.51100000000E-03 0.  1.
         23    2    1    2    0    0  0.00000000000E+00  0.00000000000E+00  0.00000000000E+00  0.91188000000E+02  0.91188000000E+02 0.  0.
    9900012    2    3    3    0    0  0.92042238244E+01  0.32300790090E+02 -0.22915219750E+02  0.50528854992E+02  0.29999985232E+02 0.  0.
         12    1    3    3    0    0 -0.92042238244E+01 -0.32300790090E+02  0.22915219750E+02  0.40659145008E+02  0.00000000000E+00 0. -1.
         11    1    4    4    0    0 -0.28334739475E+00 -0.65588587734E+00  0.46637555851E+00  0.85321653342E+00  0.51100000000E-03 0. -1.
        -11    1    4    4    0    0 -0.35759662140E+01  0.23352254549E+02 -0.32820220228E+01  0.23851352073E+02  0.51100000000E-03 0.  1.
         12    1    4    4    0    0  0.13063537433E+02  0.96044214180E+01 -0.20099573286E+02  0.25824286385E+02  0.00000000000E+00 0. -1.
</event>
<event>
 8    1  0.5829710E-012  0.9118800E+02  0.7816164E-02  0.1184000E+00
        -11   -1    0    0    0    0  0.00000000000E+00  0.00000000000E+00  0.45593999997E+02  0.45594000000E+02  0.51100000000E-03 0. -1.
         11   -1    0    0    0    0 -0.00000000000E+00 -0.00000000000E+00 -0.45593999997E+02  0.45594000000E+02  0.51100000000E-03 0.  1.
         23    2    1    2    0    0 -0.17763568394E-14 -0.35527136788E-14 -0.35527136788E-14  0.91188000000E+02  0.91188000000E+02 0.  0.
    9900012    2    3    3    0    0  0.60631142675E+01 -0.28963102536E+02 -0.27884419089E+02  0.50528886740E+02  0.30000081736E+02 0.  0.
         12    1    3    3    0    0 -0.60631142675E+01  0.28963102536E+02  0.27884419089E+02  0.40659113260E+02  0.00000000000E+00 0. -1.
         11    1    4    4    0    0  0.55236385423E+01 -0.58575423687E+01 -0.51373950902E+00  0.80675469562E+01  0.51100000000E-03 0. -1.
        -11    1    4    4    0    0  0.55420523900E+01  0.27081889557E+01 -0.51631214670E+01  0.80440323008E+01  0.51100000000E-03 0.  1.
        -12    1    4    4    0    0 -0.50025766647E+01 -0.25813749123E+02 -0.22207558113E+02  0.34417307483E+02  0.00000000000E+00 0.  1.
</event>
<event>
 8    1  0.5829710E-012  0.9118800E+02  0.7816164E-02  0.1184000E+00
        -11   -1    0    0    0    0  0.00000000000E+00  0.00000000000E+00  0.45593999997E+02  0.45594000000E+02  0.51100000000E-03 0. -1.
         11   -1    0    0    0    0 -0.00000000000E+00 -0.00000000000E+00 -0.45593999997E+02  0.45594000000E+02  0.51100000000E-03 0.  1.
         23    2    1    2    0    0 -0.17763568394E-14 -0.88817841970E-15  0.00000000000E+00  0.91188000000E+02  0.91188000000E+02 0.  0.
    9900012    2    3    3    0    0 -0.13852407032E+02  0.67887993617E+01 -0.37618998692E+02  0.50528855396E+02  0.29999986462E+02 0.  0.
         12    1    3    3    0    0  0.13852407032E+02 -0.67887993617E+01  0.37618998692E+02  0.40659144604E+02  0.00000000000E+00 0. -1.
         11    1    4    4    0    0 -0.31942026207E+01  0.65025720336E+01 -0.52464779200E+01  0.89449373537E+01  0.51100000000E-03 0. -1.
        -11    1    4    4    0    0 -0.10360060851E+02  0.10654624865E+02 -0.13642477155E+02  0.20173474541E+02  0.51100000000E-03 0.  1.
        -12    1    4    4    0    0 -0.29814355981E+00 -0.10368397537E+02 -0.18730043616E+02  0.21410443502E+02  0.00000000000E+00 0.  1.
</event>
<event>
 8    1  0.5935254E-012  0.9118800E+02  0.7816164E-02  0.1184000E+00
        -11   -1    0    0    0    0  0.00000000000E+00  0.00000000000E+00  0.45593999997E+02  0.45594000000E+02  0.51100000000E-03 0. -1.
         11   -1    0    0    0    0 -0.00000000000E+00 -0.00000000000E+00 -0.45593999997E+02  0.45594000000E+02  0.51100000000E-03 0.  1.
         23    2    1    2    0    0  0.00000000000E+00 -0.35527136788E-14  0.00000000000E+00  0.91188000000E+02  0.91188000000E+02 0.  0.
    9900012    2    3    3    0    0  0.19681893201E+02 -0.24924777362E+02 -0.25387904496E+02  0.50528841853E+02  0.29999945295E+02 0.  0.
         12    1    3    3    0    0 -0.19681893201E+02  0.24924777362E+02  0.25387904496E+02  0.40659158147E+02  0.00000000000E+00 0. -1.
         11    1    4    4    0    0  0.11759787780E+01 -0.14392227802E+02 -0.44487927958E+01  0.15109960450E+02  0.51100000000E-03 0. -1.
        -11    1    4    4    0    0  0.41000063772E+01 -0.12352512485E+02 -0.14646115421E+02  0.19593450797E+02  0.51100000000E-03 0.  1.
        -12    1    4    4    0    0  0.14405908046E+02  0.18199629241E+01 -0.62929962796E+01  0.15825430606E+02  0.00000000000E+00 0.  1.
</event>
<event>
 8    1  0.5829710E-012  0.9118800E+02  0.7816164E-02  0.1184000E+00
        -11   -1    0    0    0    0  0.00000000000E+00  0.00000000000E+00  0.45593999997E+02  0.45594000000E+02  0.51100000000E-03 0. -1.
         11   -1    0    0    0    0 -0.00000000000E+00 -0.00000000000E+00 -0.45593999997E+02  0.45594000000E+02  0.51100000000E-03 0.  1.
         23    2    1    2    0    0 -0.44408920985E-15  0.00000000000E+00  0.00000000000E+00  0.91188000000E+02  0.91188000000E+02 0.  0.
    9900012    2    3    3    0    0 -0.24561760763E+01  0.85008708839E+01 -0.39684607410E+02  0.50528859921E+02  0.30000000216E+02 0.  0.
         12    1    3    3    0    0  0.24561760763E+01 -0.85008708839E+01  0.39684607410E+02  0.40659140079E+02  0.00000000000E+00 0. -1.
         11    1    4    4    0    0 -0.17348911164E-01  0.70055766615E+01 -0.36911973324E+01  0.79185442698E+01  0.51100000000E-03 0.  1.
        -11    1    4    4    0    0 -0.84256677028E+01  0.26344801884E+01 -0.34128215424E+01  0.94646560023E+01  0.51100000000E-03 0. -1.
        -12    1    4    4    0    0  0.59868405376E+01 -0.11391859660E+01 -0.32580588535E+02  0.33145659649E+02  0.00000000000E+00 0.  1.
</event>
<event>
 8    1  0.5829710E-012  0.9118800E+02  0.7816164E-02  0.1184000E+00
        -11   -1    0    0    0    0  0.00000000000E+00  0.00000000000E+00  0.45593999997E+02  0.45594000000E+02  0.51100000000E-03 0. -1.
         11   -1    0    0    0    0 -0.00000000000E+00 -0.00000000000E+00 -0.45593999997E+02  0.45594000000E+02  0.51100000000E-03 0.  1.
         23    2    1    2    0    0  0.00000000000E+00 -0.13322676296E-14 -0.35527136788E-14  0.91188000000E+02  0.91188000000E+02 0.  0.
    9900012    2    3    3    0    0  0.34190943009E+02 -0.19421784517E+01  0.21917420547E+02  0.50528856325E+02  0.29999989285E+02 0.  0.
        -12    1    3    3    0    0 -0.34190943009E+02  0.19421784517E+01 -0.21917420547E+02  0.40659143675E+02  0.00000000000E+00 0.  1.
         11    1    4    4    0    0 -0.21052388339E+01  0.14257054867E+01  0.41790701397E+00  0.25766864800E+01  0.51100000000E-03 0. -1.
        -11    1    4    4    0    0  0.19928684706E+02  0.94176528531E+01  0.98981268311E+01  0.24162317239E+02  0.51100000000E-03 0.  1.
        -12    1    4    4    0    0  0.16367497137E+02 -0.12785536791E+02  0.11601386702E+02  0.23789852605E+02  0.00000000000E+00 0.  1.
</event>
<event>
 8    1  0.5829710E-012  0.9118800E+02  0.7816164E-02  0.1184000E+00
        -11   -1    0    0    0    0  0.00000000000E+00  0.00000000000E+00  0.45593999997E+02  0.45594000000E+02  0.51100000000E-03 0.  1.
         11   -1    0    0    0    0 -0.00000000000E+00 -0.00000000000E+00 -0.45593999997E+02  0.45594000000E+02  0.51100000000E-03 0. -1.
         23    2    1    2    0    0 -0.28865798640E-14 -0.35527136788E-14  0.00000000000E+00  0.91188000000E+02  0.91188000000E+02 0.  0.
    9900012    2    3    3    0    0  0.18100273430E+00 -0.30875803058E+02  0.26454057559E+02  0.50528866489E+02  0.30000020181E+02 0.  0.
        -12    1    3    3    0    0 -0.18100273430E+00  0.30875803058E+02 -0.26454057559E+02  0.40659133511E+02  0.00000000000E+00 0.  1.
         11    1    4    4    0    0 -0.11598920494E+02 -0.68705302098E+01  0.67855975843E+01  0.15092497369E+02  0.51100000000E-03 0. -1.
        -11    1    4    4    0    0 -0.67184928402E+00 -0.52514478077E+01 -0.35815710724E+00  0.53063511298E+01  0.51100000000E-03 0.  1.
        -12    1    4    4    0    0  0.12451772512E+02 -0.18753825041E+02  0.20026617082E+02  0.30130017991E+02  0.00000000000E+00 0.  1.
</event>
<event>
 8    1  0.5829710E-012  0.9118800E+02  0.7816164E-02  0.1184000E+00
        -11   -1    0    0    0    0  0.00000000000E+00  0.00000000000E+00  0.45593999997E+02  0.45594000000E+02  0.51100000000E-03 0. -1.
         11   -1    0    0    0    0 -0.00000000000E+00 -0.00000000000E+00 -0.45593999997E+02  0.45594000000E+02  0.51100000000E-03 0.  1.
         23    2    1    2    0    0 -0.88817841970E-15 -0.35527136788E-14  0.00000000000E+00  0.91188000000E+02  0.91188000000E+02 0.  0.
    9900012    2    3    3    0    0 -0.41810402861E+01 -0.23445004966E+02 -0.32954756100E+02  0.50528864430E+02  0.30000013920E+02 0.  0.
         12    1    3    3    0    0  0.41810402861E+01  0.23445004966E+02  0.32954756100E+02  0.40659135570E+02  0.00000000000E+00 0. -1.
         11    1    4    4    0    0 -0.18988555511E+01  0.70181614089E+00  0.15187312533E+01  0.25307594078E+01  0.51100000000E-03 0. -1.
        -11    1    4    4    0    0  0.11007664216E+01 -0.20962347224E+02 -0.10299777181E+02  0.23381982339E+02  0.51100000000E-03 0.  1.
        -12    1    4    4    0    0 -0.33829511567E+01 -0.31844738824E+01 -0.24173710172E+02  0.24616122683E+02  0.00000000000E+00 0.  1.
</event>
<event>
 8    1  0.5829710E-012  0.9118800E+02  0.7816164E-02  0.1184000E+00
        -11   -1    0    0    0    0  0.00000000000E+00  0.00000000000E+00  0.45593999997E+02  0.45594000000E+02  0.51100000000E-03 0. -1.
         11   -1    0    0    0    0 -0.00000000000E+00 -0.00000000000E+00 -0.45593999997E+02  0.45594000000E+02  0.51100000000E-03 0.  1.
         23    2    1    2    0    0 -0.88817841970E-15  0.00000000000E+00  0.00000000000E+00  0.91188000000E+02  0.91188000000E+02 0.  0.
    9900012    2    3    3    0    0 -0.49861673334E+01  0.29978637065E+02  0.27010832935E+02  0.50528860304E+02  0.30000001381E+02 0.  0.
        -12    1    3    3    0    0  0.49861673334E+01 -0.29978637065E+02 -0.27010832935E+02  0.40659139696E+02  0.00000000000E+00 0.  1.
         11    1    4    4    0    0  0.66060053659E+01 -0.13159596517E+01  0.30056913242E+01  0.73759905977E+01  0.51100000000E-03 0.  1.
        -11    1    4    4    0    0 -0.30885168803E+01  0.11443145240E+02  0.14752310589E+01  0.11944070346E+02  0.51100000000E-03 0. -1.
        -12    1    4    4    0    0 -0.85036558191E+01  0.19851451477E+02  0.22529910552E+02  0.31208799360E+02  0.00000000000E+00 0.  1.
</event>
<event>
 8    1  0.5829710E-012  0.9118800E+02  0.7816164E-02  0.1184000E+00
        -11   -1    0    0    0    0  0.00000000000E+00  0.00000000000E+00  0.45593999997E+02  0.45594000000E+02  0.51100000000E-03 0. -1.
         11   -1    0    0    0    0 -0.00000000000E+00 -0.00000000000E+00 -0.45593999997E+02  0.45594000000E+02  0.51100000000E-03 0.  1.
         23    2    1    2    0    0  0.22204460493E-15  0.00000000000E+00  0.00000000000E+00  0.91188000000E+02  0.91188000000E+02 0.  0.
    9900012    2    3    3    0    0  0.10184873097E+01 -0.24248454333E+02  0.32621186393E+02  0.50528847825E+02  0.29999963448E+02 0.  0.
        -12    1    3    3    0    0 -0.10184873097E+01  0.24248454333E+02 -0.32621186393E+02  0.40659152175E+02  0.00000000000E+00 0.  1.
         11    1    4    4    0    0 -0.41284185776E+01  0.47495153281E+00  0.13775551759E+02  0.14388719381E+02  0.51100000000E-03 0. -1.
        -11    1    4    4    0    0  0.47615846548E+01  0.98304009609E+00  0.48532484467E+01  0.68697217557E+01  0.51100000000E-03 0.  1.
         12    1    4    4    0    0  0.38532123253E+00 -0.25706445962E+02  0.13992386188E+02  0.29270406687E+02  0.00000000000E+00 0. -1.
</event>
<event>
 8    1  0.5829710E-012  0.9118800E+02  0.7816164E-02  0.1184000E+00
        -11   -1    0    0    0    0  0.00000000000E+00  0.00000000000E+00  0.45593999997E+02  0.45594000000E+02  0.51100000000E-03 0. -1.
         11   -1    0    0    0    0 -0.00000000000E+00 -0.00000000000E+00 -0.45593999997E+02  0.45594000000E+02  0.51100000000E-03 0.  1.
         23    2    1    2    0    0  0.00000000000E+00 -0.17763568394E-14  0.35527136788E-14  0.91188000000E+02  0.91188000000E+02 0.  0.
    9900012    2    3    3    0    0 -0.34833245846E+02 -0.83306871700E+01  0.19246052962E+02  0.50528856877E+02  0.29999990964E+02 0.  0.
        -12    1    3    3    0    0  0.34833245846E+02  0.83306871700E+01 -0.19246052962E+02  0.40659143123E+02  0.00000000000E+00 0.  1.
         11    1    4    4    0    0 -0.14303620200E+02 -0.79867300984E+01  0.18373352482E+02  0.24616285060E+02  0.51100000000E-03 0. -1.
        -11    1    4    4    0    0 -0.94077593005E+01 -0.29648199561E+00  0.82912443449E+01  0.12543467211E+02  0.51100000000E-03 0.  1.
        -12    1    4    4    0    0 -0.11121866345E+02 -0.47475076092E-01 -0.74185438650E+01  0.13369104606E+02  0.00000000000E+00 0.  1.
</event>
<event>
 8    1  0.5829710E-012  0.9118800E+02  0.7816164E-02  0.1184000E+00
        -11   -1    0    0    0    0  0.00000000000E+00  0.00000000000E+00  0.45593999997E+02  0.45594000000E+02  0.51100000000E-03 0. -1.
         11   -1    0    0    0    0 -0.00000000000E+00 -0.00000000000E+00 -0.45593999997E+02  0.45594000000E+02  0.51100000000E-03 0.  1.
         23    2    1    2    0    0 -0.35527136788E-14  0.35527136788E-14 -0.35527136788E-14  0.91188000000E+02  0.91188000000E+02 0.  0.
    9900012    2    3    3    0    0 -0.20540891643E+02  0.19682076235E+02 -0.29049131654E+02  0.50528875510E+02  0.30000047602E+02 0.  0.
         12    1    3    3    0    0  0.20540891643E+02 -0.19682076235E+02  0.29049131654E+02  0.40659124490E+02  0.00000000000E+00 0. -1.
         11    1    4    4    0    0 -0.10679936439E+02  0.15933221312E+02 -0.61169447571E+01  0.20133196397E+02  0.51100000000E-03 0. -1.
        -11    1    4    4    0    0 -0.64574806319E+01  0.72396961139E+01 -0.23560844097E+02  0.25479906412E+02  0.51100000000E-03 0.  1.
         12    1    4    4    0    0 -0.34034745722E+01 -0.34908411911E+01  0.62865719986E+00  0.49157727022E+01  0.00000000000E+00 0. -1.
</event>
<event>
 8    1  0.5829710E-012  0.9118800E+02  0.7816164E-02  0.1184000E+00
        -11   -1    0    0    0    0  0.00000000000E+00  0.00000000000E+00  0.45593999997E+02  0.45594000000E+02  0.51100000000E-03 0. -1.
         11   -1    0    0    0    0 -0.00000000000E+00 -0.00000000000E+00 -0.45593999997E+02  0.45594000000E+02  0.51100000000E-03 0.  1.
         23    2    1    2    0    0  0.35527136788E-14 -0.66613381478E-15 -0.35527136788E-14  0.91188000000E+02  0.91188000000E+02 0.  0.
    9900012    2    3    3    0    0  0.26674870657E+02  0.14240628523E+01  0.30652532803E+02  0.50528997961E+02  0.30000419799E+02 0.  0.
        -12    1    3    3    0    0 -0.26674870657E+02 -0.14240628523E+01 -0.30652532803E+02  0.40659002039E+02  0.00000000000E+00 0.  1.
         11    1    4    4    0    0  0.50852692235E+01  0.47928424897E+01  0.20698595838E+01  0.72880464574E+01  0.51100000000E-03 0. -1.
        -11    1    4    4    0    0  0.16254116877E+02  0.37212317640E+01  0.40593236113E+01  0.17161642979E+02  0.51100000000E-03 0.  1.
         12    1    4    4    0    0  0.53354845563E+01 -0.70900114015E+01  0.24523349608E+02  0.26079308525E+02  0.00000000000E+00 0. -1.
</event>
<event>
 8    1  0.5829710E-012  0.9118800E+02  0.7816164E-02  0.1184000E+00
        -11   -1    0    0    0    0  0.00000000000E+00  0.00000000000E+00  0.45593999997E+02  0.45594000000E+02  0.51100000000E-03 0. -1.
         11   -1    0    0    0    0 -0.00000000000E+00 -0.00000000000E+00 -0.45593999997E+02  0.45594000000E+02  0.51100000000E-03 0.  1.
         23    2    1    2    0    0  0.00000000000E+00  0.17763568394E-14  0.00000000000E+00  0.91188000000E+02  0.91188000000E+02 0.  0.
    9900012    2    3    3    0    0 -0.19480551462E+02 -0.15713981231E+02 -0.32042853424E+02  0.50528861458E+02  0.30000004888E+02 0.  0.
         12    1    3    3    0    0  0.19480551462E+02  0.15713981231E+02  0.32042853424E+02  0.40659138542E+02  0.00000000000E+00 0. -1.
         11    1    4    4    0    0 -0.41325957616E+01 -0.94296804538E+01 -0.70461698497E+01  0.12475805826E+02  0.51100000000E-03 0. -1.
        -11    1    4    4    0    0 -0.19369599309E+02 -0.11160413033E+02 -0.18950782462E+02  0.29306455818E+02  0.51100000000E-03 0.  1.
        -12    1    4    4    0    0  0.40216436085E+01  0.48761122554E+01 -0.60459011129E+01  0.87465998141E+01  0.00000000000E+00 0.  1.
</event>
<event>
 8    1  0.5829710E-012  0.9118800E+02  0.7816164E-02  0.1184000E+00
        -11   -1    0    0    0    0  0.00000000000E+00  0.00000000000E+00  0.45593999997E+02  0.45594000000E+02  0.51100000000E-03 0. -1.
         11   -1    0    0    0    0 -0.00000000000E+00 -0.00000000000E+00 -0.45593999997E+02  0.45594000000E+02  0.51100000000E-03 0.  1.
         23    2    1    2    0    0  0.00000000000E+00 -0.17763568394E-14 -0.71054273576E-14  0.91188000000E+02  0.91188000000E+02 0.  0.
    9900012    2    3    3    0    0 -0.16919564777E+02 -0.14742251200E+02 -0.33905151661E+02  0.50528868777E+02  0.30000027134E+02 0.  0.
         12    1    3    3    0    0  0.16919564777E+02  0.14742251200E+02  0.33905151661E+02  0.40659131223E+02  0.00000000000E+00 0. -1.
         11    1    4    4    0    0 -0.21742961251E+01 -0.90690458928E+01 -0.43845851553E+01  0.10305326016E+02  0.51100000000E-03 0. -1.
        -11    1    4    4    0    0  0.50912326612E+01 -0.38909174662E+01 -0.30484864320E+01  0.70959959503E+01  0.51100000000E-03 0.  1.
        -12    1    4    4    0    0 -0.19836501313E+02 -0.17822878411E+01 -0.26472080074E+02  0.33127546811E+02  0.00000000000E+00 0.  1.
</event>
<event>
 8    1  0.5829710E-012  0.9118800E+02  0.7816164E-02  0.1184000E+00
        -11   -1    0    0    0    0  0.00000000000E+00  0.00000000000E+00  0.45593999997E+02  0.45594000000E+02  0.51100000000E-03 0. -1.
         11   -1    0    0    0    0 -0.00000000000E+00 -0.00000000000E+00 -0.45593999997E+02  0.45594000000E+02  0.51100000000E-03 0.  1.
         23    2    1    2    0    0 -0.83266726847E-16  0.71054273576E-14  0.00000000000E+00  0.91188000000E+02  0.91188000000E+02 0.  0.
    9900012    2    3    3    0    0  0.31785954452E-01 -0.32525796740E+02  0.24397475996E+02  0.50528864509E+02  0.30000014161E+02 0.  0.
        -12    1    3    3    0    0 -0.31785954452E-01  0.32525796740E+02 -0.24397475996E+02  0.40659135491E+02  0.00000000000E+00 0.  1.
         11    1    4    4    0    0  0.17023433877E+01 -0.18745592799E+02  0.59711804901E+01  0.19747157241E+02  0.51100000000E-03 0.  1.
        -11    1    4    4    0    0 -0.30820514094E+01 -0.97371578449E+01 -0.15688914041E+01  0.10333087839E+02  0.51100000000E-03 0. -1.
        -12    1    4    4    0    0  0.14114939762E+01 -0.40430460961E+01  0.19995186910E+02  0.20448619429E+02  0.00000000000E+00 0.  1.
</event>
<event>
 8    1  0.5829710E-012  0.9118800E+02  0.7816164E-02  0.1184000E+00
        -11   -1    0    0    0    0  0.00000000000E+00  0.00000000000E+00  0.45593999997E+02  0.45594000000E+02  0.51100000000E-03 0. -1.
         11   -1    0    0    0    0 -0.00000000000E+00 -0.00000000000E+00 -0.45593999997E+02  0.45594000000E+02  0.51100000000E-03 0.  1.
         23    2    1    2    0    0  0.00000000000E+00  0.00000000000E+00  0.00000000000E+00  0.91188000000E+02  0.91188000000E+02 0.  0.
    9900012    2    3    3    0    0  0.13527998526E+02 -0.21825979076E+02  0.31524394768E+02  0.50528836553E+02  0.29999929186E+02 0.  0.
        -12    1    3    3    0    0 -0.13527998526E+02  0.21825979076E+02 -0.31524394768E+02  0.40659163447E+02  0.00000000000E+00 0.  1.
         11    1    4    4    0    0 -0.77716646964E+00 -0.58903974763E+01  0.18281925643E+02  0.19223152073E+02  0.51100000000E-03 0.  1.
        -11    1    4    4    0    0 -0.25384698703E+01 -0.54435684789E+00 -0.24849652043E+01  0.35937732243E+01  0.51100000000E-03 0. -1.
         12    1    4    4    0    0  0.16843634865E+02 -0.15391224752E+02  0.15727434329E+02  0.27711911255E+02  0.00000000000E+00 0. -1.
</event>
<event>
 8    1  0.5829710E-012  0.9118800E+02  0.7816164E-02  0.1184000E+00
        -11   -1    0    0    0    0  0.00000000000E+00  0.00000000000E+00  0.45593999997E+02  0.45594000000E+02  0.51100000000E-03 0. -1.
         11   -1    0    0    0    0 -0.00000000000E+00 -0.00000000000E+00 -0.45593999997E+02  0.45594000000E+02  0.51100000000E-03 0.  1.
         23    2    1    2    0    0  0.00000000000E+00  0.16653345369E-15  0.71054273576E-14  0.91188000000E+02  0.91188000000E+02 0.  0.
    9900012    2    3    3    0    0 -0.13184756571E+02  0.24392724156E+00 -0.38461256071E+02  0.50528861729E+02  0.30000005712E+02 0.  0.
         12    1    3    3    0    0  0.13184756571E+02 -0.24392724156E+00  0.38461256071E+02  0.40659138271E+02  0.00000000000E+00 0. -1.
         11    1    4    4    0    0 -0.58287592178E+01 -0.25896339591E+01 -0.23538311617E+02  0.24387143173E+02  0.51100000000E-03 0. -1.
        -11    1    4    4    0    0 -0.64090670377E+01 -0.49732994044E+00 -0.19425510718E+02  0.20461523509E+02  0.51100000000E-03 0.  1.
         12    1    4    4    0    0 -0.94693031557E+00  0.33308911411E+01  0.45025662644E+01  0.56801950478E+01  0.00000000000E+00 0. -1.
</event>
<event>
 8    1  0.5829710E-012  0.9118800E+02  0.7816164E-02  0.1184000E+00
        -11   -1    0    0    0    0  0.00000000000E+00  0.00000000000E+00  0.45593999997E+02  0.45594000000E+02  0.51100000000E-03 0. -1.
         11   -1    0    0    0    0 -0.00000000000E+00 -0.00000000000E+00 -0.45593999997E+02  0.45594000000E+02  0.51100000000E-03 0.  1.
         23    2    1    2    0    0  0.88817841970E-15  0.00000000000E+00  0.26645352591E-14  0.91188000000E+02  0.91188000000E+02 0.  0.
    9900012    2    3    3    0    0  0.53116499898E+01  0.39846695497E+02  0.60983747333E+01  0.50528893492E+02  0.30000102259E+02 0.  0.
         12    1    3    3    0    0 -0.53116499898E+01 -0.39846695497E+02 -0.60983747333E+01  0.40659106508E+02  0.00000000000E+00 0. -1.
         11    1    4    4    0    0 -0.26015778792E+01  0.11092426338E+02  0.10764590234E+02  0.15674390983E+02  0.51100000000E-03 0. -1.
        -11    1    4    4    0    0 -0.84687492005E+00  0.14192852820E+01  0.44421685582E+01  0.47396655580E+01  0.51100000000E-03 0.  1.
        -12    1    4    4    0    0  0.87601027890E+01  0.27334983877E+02 -0.91083840590E+01  0.30114836951E+02  0.00000000000E+00 0.  1.
</event>
<event>
 8    1  0.5829710E-012  0.9118800E+02  0.7816164E-02  0.1184000E+00
        -11   -1    0    0    0    0  0.00000000000E+00  0.00000000000E+00  0.45593999997E+02  0.45594000000E+02  0.51100000000E-03 0.  1.
         11   -1    0    0    0    0 -0.00000000000E+00 -0.00000000000E+00 -0.45593999997E+02  0.45594000000E+02  0.51100000000E-03 0. -1.
         23    2    1    2    0    0  0.17763568394E-14  0.00000000000E+00 -0.35527136788E-14  0.91188000000E+02  0.91188000000E+02 0.  0.
    9900012    2    3    3    0    0  0.85315440688E+01 -0.32088889445E+02  0.23466611864E+02  0.50528856596E+02  0.29999990109E+02 0.  0.
        -12    1    3    3    0    0 -0.85315440688E+01  0.32088889445E+02 -0.23466611864E+02  0.40659143404E+02  0.00000000000E+00 0.  1.
         11    1    4    4    0    0  0.11476288658E+02 -0.25966270538E+02  0.13763854248E+02  0.31549898431E+02  0.51100000000E-03 0. -1.
        -11    1    4    4    0    0 -0.23194695671E+01 -0.59521467127E+01  0.13601383688E+02  0.15026830273E+02  0.51100000000E-03 0.  1.
        -12    1    4    4    0    0 -0.62527502242E+00 -0.17047219395E+00 -0.38986260720E+01  0.39521278916E+01  0.00000000000E+00 0.  1.
</event>
<event>
 8    1  0.5829710E-012  0.9118800E+02  0.7816164E-02  0.1184000E+00
        -11   -1    0    0    0    0  0.00000000000E+00  0.00000000000E+00  0.45593999997E+02  0.45594000000E+02  0.51100000000E-03 0.  1.
         11   -1    0    0    0    0 -0.00000000000E+00 -0.00000000000E+00 -0.45593999997E+02  0.45594000000E+02  0.51100000000E-03 0. -1.
         23    2    1    2    0    0  0.71054273576E-14  0.00000000000E+00 -0.88817841970E-15  0.91188000000E+02  0.91188000000E+02 0.  0.
    9900012    2    3    3    0    0  0.39508440238E+02  0.83160368588E+01  0.48045141820E+01  0.50528970552E+02  0.30000336489E+02 0.  0.
        -12    1    3    3    0    0 -0.39508440238E+02 -0.83160368588E+01 -0.48045141820E+01  0.40659029448E+02  0.00000000000E+00 0.  1.
         11    1    4    4    0    0  0.40599110949E+02  0.76991465796E+00  0.61358790084E+01  0.41067378659E+02  0.51100000000E-03 0. -1.
        -11    1    4    4    0    0 -0.85512722522E+00 -0.68272850732E+00 -0.44694514033E+00  0.11819987333E+01  0.51100000000E-03 0.  1.
        -12    1    4    4    0    0 -0.23554348563E+00  0.82288507082E+01 -0.88441968611E+00  0.82795931599E+01  0.00000000000E+00 0.  1.
</event>
<event>
 8    1  0.5829710E-012  0.9118800E+02  0.7816164E-02  0.1184000E+00
        -11   -1    0    0    0    0  0.00000000000E+00  0.00000000000E+00  0.45593999997E+02  0.45594000000E+02  0.51100000000E-03 0. -1.
         11   -1    0    0    0    0 -0.00000000000E+00 -0.00000000000E+00 -0.45593999997E+02  0.45594000000E+02  0.51100000000E-03 0.  1.
         23    2    1    2    0    0  0.35527136788E-14  0.44408920985E-15 -0.71054273576E-14  0.91188000000E+02  0.91188000000E+02 0.  0.
    9900012    2    3    3    0    0  0.23175638106E+02  0.26508041339E+01  0.33302084985E+02  0.50528857996E+02  0.29999994364E+02 0.  0.
        -12    1    3    3    0    0 -0.23175638106E+02 -0.26508041339E+01 -0.33302084985E+02  0.40659142004E+02  0.00000000000E+00 0.  1.
         11    1    4    4    0    0  0.11016437451E+02 -0.46850259193E+01  0.20964089183E+02  0.24141342082E+02  0.51100000000E-03 0.  1.
        -11    1    4    4    0    0  0.16469645244E+02  0.67139244525E+01  0.12934845171E+02  0.21991730625E+02  0.51100000000E-03 0. -1.
        -12    1    4    4    0    0 -0.43104445899E+01  0.62190560077E+00 -0.59684936860E+00  0.43957852891E+01  0.00000000000E+00 0.  1.
</event>
<event>
 8    1  0.5829710E-012  0.9118800E+02  0.7816164E-02  0.1184000E+00
        -11   -1    0    0    0    0  0.00000000000E+00  0.00000000000E+00  0.45593999997E+02  0.45594000000E+02  0.51100000000E-03 0. -1.
         11   -1    0    0    0    0 -0.00000000000E+00 -0.00000000000E+00 -0.45593999997E+02  0.45594000000E+02  0.51100000000E-03 0.  1.
         23    2    1    2    0    0  0.44408920985E-15 -0.17763568394E-14  0.00000000000E+00  0.91188000000E+02  0.91188000000E+02 0.  0.
    9900012    2    3    3    0    0 -0.35120414488E+01  0.14658569905E+02 -0.37761866373E+02  0.50528847785E+02  0.29999963328E+02 0.  0.
         12    1    3    3    0    0  0.35120414488E+01 -0.14658569905E+02  0.37761866373E+02  0.40659152215E+02  0.00000000000E+00 0. -1.
         11    1    4    4    0    0 -0.44254897123E+01  0.14866750119E+01 -0.15980032620E+02  0.16648021041E+02  0.51100000000E-03 0. -1.
        -11    1    4    4    0    0  0.32664748473E+01 -0.25356254471E+01 -0.16700779089E+02  0.17205094501E+02  0.51100000000E-03 0.  1.
         12    1    4    4    0    0 -0.23530265837E+01  0.15707520341E+02 -0.50810546642E+01  0.16675732243E+02  0.00000000000E+00 0. -1.
</event>
<event>
 8    1  0.5829710E-012  0.9118800E+02  0.7816164E-02  0.1184000E+00
        -11   -1    0    0    0    0  0.00000000000E+00  0.00000000000E+00  0.45593999997E+02  0.45594000000E+02  0.51100000000E-03 0. -1.
         11   -1    0    0    0    0 -0.00000000000E+00 -0.00000000000E+00 -0.45593999997E+02  0.45594000000E+02  0.51100000000E-03 0.  1.
         23    2    1    2    0    0  0.00000000000E+00  0.35527136788E-14 -0.35527136788E-14  0.91188000000E+02  0.91188000000E+02 0.  0.
    9900012    2    3    3    0    0 -0.17653088284E+02 -0.23886363876E+02  0.27766438052E+02  0.50528868341E+02  0.30000025810E+02 0.  0.
        -12    1    3    3    0    0  0.17653088284E+02  0.23886363876E+02 -0.27766438052E+02  0.40659131659E+02  0.00000000000E+00 0.  1.
         11    1    4    4    0    0 -0.68127499503E+01 -0.17223565477E+02  0.26678003978E+02  0.32477386997E+02  0.51100000000E-03 0. -1.
        -11    1    4    4    0    0 -0.90561025944E+01 -0.89945654063E+01  0.45151889920E+01  0.13538911808E+02  0.51100000000E-03 0.  1.
        -12    1    4    4    0    0 -0.17842357391E+01  0.23317670069E+01 -0.34267549187E+01  0.45125695363E+01  0.00000000000E+00 0.  1.
</event>
<event>
 8    1  0.5829710E-012  0.9118800E+02  0.7816164E-02  0.1184000E+00
        -11   -1    0    0    0    0  0.00000000000E+00  0.00000000000E+00  0.45593999997E+02  0.45594000000E+02  0.51100000000E-03 0. -1.
         11   -1    0    0    0    0 -0.00000000000E+00 -0.00000000000E+00 -0.45593999997E+02  0.45594000000E+02  0.51100000000E-03 0.  1.
         23    2    1    2    0    0  0.35527136788E-14  0.17763568394E-14  0.71054273576E-14  0.91188000000E+02  0.91188000000E+02 0.  0.
    9900012    2    3    3    0    0  0.22888095113E+02  0.15213006293E+02  0.29964421684E+02  0.50528843280E+02  0.29999949633E+02 0.  0.
        -12    1    3    3    0    0 -0.22888095113E+02 -0.15213006293E+02 -0.29964421684E+02  0.40659156720E+02  0.00000000000E+00 0.  1.
         11    1    4    4    0    0  0.40264778991E+01  0.12642608811E+00 -0.53487194380E+01  0.66960665853E+01  0.51100000000E-03 0. -1.
        -11    1    4    4    0    0  0.50751661686E+01  0.35378740214E+01  0.30543673119E+01  0.68994944864E+01  0.51100000000E-03 0.  1.
         12    1    4    4    0    0  0.13786451045E+02  0.11548706184E+02  0.32258773810E+02  0.36933282208E+02  0.00000000000E+00 0. -1.
</event>
<event>
 8    1  0.5829710E-012  0.9118800E+02  0.7816164E-02  0.1184000E+00
        -11   -1    0    0    0    0  0.00000000000E+00  0.00000000000E+00  0.45593999997E+02  0.45594000000E+02  0.51100000000E-03 0. -1.
         11   -1    0    0    0    0 -0.00000000000E+00 -0.00000000000E+00 -0.45593999997E+02  0.45594000000E+02  0.51100000000E-03 0.  1.
         23    2    1    2    0    0  0.22204460493E-15  0.00000000000E+00  0.00000000000E+00  0.91188000000E+02  0.91188000000E+02 0.  0.
    9900012    2    3    3    0    0  0.16015596773E+01  0.17189202852E+02 -0.36812118464E+02  0.50528858913E+02  0.29999997152E+02 0.  0.
         12    1    3    3    0    0 -0.16015596773E+01 -0.17189202852E+02  0.36812118464E+02  0.40659141087E+02  0.00000000000E+00 0. -1.
         11    1    4    4    0    0  0.10093860953E+02  0.25462677865E+01 -0.37569186853E+01  0.11067246579E+02  0.51100000000E-03 0. -1.
        -11    1    4    4    0    0  0.26222711904E+01 -0.58129906328E+00 -0.46818020233E+01  0.53975443716E+01  0.51100000000E-03 0.  1.
        -12    1    4    4    0    0 -0.11114572466E+02  0.15224234129E+02 -0.28373397756E+02  0.34064067962E+02  0.00000000000E+00 0.  1.
</event>
<event>
 8    1  0.5829710E-012  0.9118800E+02  0.7816164E-02  0.1184000E+00
        -11   -1    0    0    0    0  0.00000000000E+00  0.00000000000E+00  0.45593999997E+02  0.45594000000E+02  0.51100000000E-03 0. -1.
         11   -1    0    0    0    0 -0.00000000000E+00 -0.00000000000E+00 -0.45593999997E+02  0.45594000000E+02  0.51100000000E-03 0.  1.
         23    2    1    2    0    0  0.00000000000E+00 -0.88817841970E-15 -0.71054273576E-14  0.91188000000E+02  0.91188000000E+02 0.  0.
    9900012    2    3    3    0    0 -0.16455283695E+02  0.53519690169E+01  0.36793286037E+02  0.50528857962E+02  0.29999994261E+02 0.  0.
        -12    1    3    3    0    0  0.16455283695E+02 -0.53519690169E+01 -0.36793286037E+02  0.40659142038E+02  0.00000000000E+00 0.  1.
         11    1    4    4    0    0 -0.10327835209E+02  0.12239710648E+02  0.10054090386E+02  0.18909241936E+02  0.51100000000E-03 0. -1.
        -11    1    4    4    0    0 -0.10414934252E+02 -0.41636424668E+01  0.14234651604E+02  0.18122695180E+02  0.51100000000E-03 0.  1.
         12    1    4    4    0    0  0.42874857660E+01 -0.27240991644E+01  0.12504544048E+02  0.13496920845E+02  0.00000000000E+00 0. -1.
</event>
<event>
 8    1  0.5829710E-012  0.9118800E+02  0.7816164E-02  0.1184000E+00
        -11   -1    0    0    0    0  0.00000000000E+00  0.00000000000E+00  0.45593999997E+02  0.45594000000E+02  0.51100000000E-03 0.  1.
         11   -1    0    0    0    0 -0.00000000000E+00 -0.00000000000E+00 -0.45593999997E+02  0.45594000000E+02  0.51100000000E-03 0. -1.
         23    2    1    2    0    0  0.00000000000E+00  0.00000000000E+00 -0.17763568394E-14  0.91188000000E+02  0.91188000000E+02 0.  0.
    9900012    2    3    3    0    0  0.33006312822E+02 -0.22154294787E+02  0.85395745241E+01  0.50529005956E+02  0.30000444101E+02 0.  0.
        -12    1    3    3    0    0 -0.33006312822E+02  0.22154294787E+02 -0.85395745241E+01  0.40658994044E+02  0.00000000000E+00 0.  1.
         11    1    4    4    0    0 -0.87974045444E+00 -0.11318494558E+01 -0.56504478050E+00  0.15408771278E+01  0.51100000000E-03 0. -1.
        -11    1    4    4    0    0  0.74504518246E+01 -0.19583223625E+02 -0.11813730287E+00  0.20952943388E+02  0.51100000000E-03 0.  1.
        -12    1    4    4    0    0  0.26435601452E+02 -0.14392217063E+01  0.92227566074E+01  0.28035185440E+02  0.00000000000E+00 0.  1.
</event>
<event>
 8    1  0.5829710E-012  0.9118800E+02  0.7816164E-02  0.1184000E+00
        -11   -1    0    0    0    0  0.00000000000E+00  0.00000000000E+00  0.45593999997E+02  0.45594000000E+02  0.51100000000E-03 0. -1.
         11   -1    0    0    0    0 -0.00000000000E+00 -0.00000000000E+00 -0.45593999997E+02  0.45594000000E+02  0.51100000000E-03 0.  1.
         23    2    1    2    0    0  0.11102230246E-14  0.00000000000E+00  0.00000000000E+00  0.91188000000E+02  0.91188000000E+02 0.  0.
    9900012    2    3    3    0    0 -0.16627244454E+01  0.26224171408E+02 -0.31027291400E+02  0.50528872732E+02  0.30000039155E+02 0.  0.
         12    1    3    3    0    0  0.16627244454E+01 -0.26224171408E+02  0.31027291400E+02  0.40659127268E+02  0.00000000000E+00 0. -1.
         11    1    4    4    0    0  0.62471388732E+01  0.15774578431E+00 -0.65807370044E+01  0.90751158458E+01  0.51100000000E-03 0. -1.
        -11    1    4    4    0    0 -0.32928629009E+00 -0.71847273414E+00 -0.10111947282E+02  0.10142786137E+02  0.51100000000E-03 0.  1.
         12    1    4    4    0    0 -0.75805770285E+01  0.26784898358E+02 -0.14334607113E+02  0.31310970748E+02  0.00000000000E+00 0. -1.
</event>
<event>
 8    1  0.5829710E-012  0.9118800E+02  0.7816164E-02  0.1184000E+00
        -11   -1    0    0    0    0  0.00000000000E+00  0.00000000000E+00  0.45593999997E+02  0.45594000000E+02  0.51100000000E-03 0. -1.
         11   -1    0    0    0    0 -0.00000000000E+00 -0.00000000000E+00 -0.45593999997E+02  0.45594000000E+02  0.51100000000E-03 0.  1.
         23    2    1    2    0    0 -0.35527136788E-14  0.00000000000E+00 -0.35527136788E-14  0.91188000000E+02  0.91188000000E+02 0.  0.
    9900012    2    3    3    0    0  0.18022875631E+02  0.30015663946E+02 -0.20673685790E+02  0.50528863115E+02  0.30000009925E+02 0.  0.
         12    1    3    3    0    0 -0.18022875631E+02 -0.30015663946E+02  0.20673685790E+02  0.40659136885E+02  0.00000000000E+00 0. -1.
         11    1    4    4    0    0 -0.10182097685E+01  0.15310084630E+02 -0.99272813281E+01  0.18275293633E+02  0.51100000000E-03 0. -1.
        -11    1    4    4    0    0 -0.71496586161E+00  0.94475521459E+01 -0.77099867134E+00  0.95058853846E+01  0.51100000000E-03 0.  1.
         12    1    4    4    0    0  0.19756051261E+02  0.52580271692E+01 -0.99754057901E+01  0.22747684098E+02  0.00000000000E+00 0. -1.
</event>
<event>
 8    1  0.5829710E-012  0.9118800E+02  0.7816164E-02  0.1184000E+00
        -11   -1    0    0    0    0  0.00000000000E+00  0.00000000000E+00  0.45593999997E+02  0.45594000000E+02  0.51100000000E-03 0.  1.
         11   -1    0    0    0    0 -0.00000000000E+00 -0.00000000000E+00 -0.45593999997E+02  0.45594000000E+02  0.51100000000E-03 0. -1.
         23    2    1    2    0    0  0.00000000000E+00  0.00000000000E+00  0.00000000000E+00  0.91188000000E+02  0.91188000000E+02 0.  0.
    9900012    2    3    3    0    0  0.37386967745E+02 -0.10045709624E+02 -0.12428349962E+02  0.50528861768E+02  0.30000005831E+02 0.  0.
         12    1    3    3    0    0 -0.37386967745E+02  0.10045709624E+02  0.12428349962E+02  0.40659138232E+02  0.00000000000E+00 0. -1.
         11    1    4    4    0    0  0.64226119160E+00 -0.14944875153E+00  0.20984877492E+01  0.21996557599E+01  0.51100000000E-03 0. -1.
        -11    1    4    4    0    0  0.31116529898E+02 -0.17135413180E+01 -0.53160488374E+00  0.31168209136E+02  0.51100000000E-03 0.  1.
        -12    1    4    4    0    0  0.56281766548E+01 -0.81827195543E+01 -0.13995232827E+02  0.17160996872E+02  0.00000000000E+00 0.  1.
</event>
<event>
 8    1  0.5829710E-012  0.9118800E+02  0.7816164E-02  0.1184000E+00
        -11   -1    0    0    0    0  0.00000000000E+00  0.00000000000E+00  0.45593999997E+02  0.45594000000E+02  0.51100000000E-03 0. -1.
         11   -1    0    0    0    0 -0.00000000000E+00 -0.00000000000E+00 -0.45593999997E+02  0.45594000000E+02  0.51100000000E-03 0.  1.
         23    2    1    2    0    0  0.00000000000E+00 -0.17763568394E-14 -0.14210854715E-13  0.91188000000E+02  0.91188000000E+02 0.  0.
    9900012    2    3    3    0    0 -0.46041818399E+01 -0.14912748462E+02 -0.37544342070E+02  0.50528853691E+02  0.29999981279E+02 0.  0.
         12    1    3    3    0    0  0.46041818399E+01  0.14912748462E+02  0.37544342070E+02  0.40659146309E+02  0.00000000000E+00 0. -1.
         11    1    4    4    0    0 -0.14150839772E+00  0.54846336334E+00  0.87342853913E+00  0.10410160237E+01  0.51100000000E-03 0. -1.
        -11    1    4    4    0    0  0.56062523351E+01  0.48311607696E+01 -0.15944956544E+02  0.17578732010E+02  0.51100000000E-03 0.  1.
        -12    1    4    4    0    0 -0.10068925777E+02 -0.20292372595E+02 -0.22472814065E+02  0.31909105657E+02  0.00000000000E+00 0.  1.
</event>
<event>
 8    1  0.5829710E-012  0.9118800E+02  0.7816164E-02  0.1184000E+00
        -11   -1    0    0    0    0  0.00000000000E+00  0.00000000000E+00  0.45593999997E+02  0.45594000000E+02  0.51100000000E-03 0. -1.
         11   -1    0    0    0    0 -0.00000000000E+00 -0.00000000000E+00 -0.45593999997E+02  0.45594000000E+02  0.51100000000E-03 0.  1.
         23    2    1    2    0    0  0.17763568394E-14  0.17763568394E-14  0.00000000000E+00  0.91188000000E+02  0.91188000000E+02 0.  0.
    9900012    2    3    3    0    0 -0.43121135928E+01  0.93792988054E+01  0.39326880582E+02  0.50528817691E+02  0.29999871853E+02 0.  0.
        -12    1    3    3    0    0  0.43121135928E+01 -0.93792988054E+01 -0.39326880582E+02  0.40659182309E+02  0.00000000000E+00 0.  1.
         11    1    4    4    0    0  0.74380767571E+01  0.13842907599E+02  0.27230231823E+02  0.31439411605E+02  0.51100000000E-03 0. -1.
        -11    1    4    4    0    0  0.49641461071E+00 -0.15476772776E+00 -0.69222877657E+00  0.86577217299E+00  0.51100000000E-03 0.  1.
        -12    1    4    4    0    0 -0.12246604961E+02 -0.43088410658E+01  0.12788877535E+02  0.18223633913E+02  0.00000000000E+00 0.  1.
</event>
<event>
 8    1  0.6242763E-012  0.9118800E+02  0.7816164E-02  0.1184000E+00
        -11   -1    0    0    0    0  0.00000000000E+00  0.00000000000E+00  0.45593999997E+02  0.45594000000E+02  0.51100000000E-03 0. -1.
         11   -1    0    0    0    0 -0.00000000000E+00 -0.00000000000E+00 -0.45593999997E+02  0.45594000000E+02  0.51100000000E-03 0.  1.
         23    2    1    2    0    0 -0.35527136788E-14 -0.44408920985E-15  0.00000000000E+00  0.91188000000E+02  0.91188000000E+02 0.  0.
    9900012    2    3    3    0    0 -0.19276489230E+02  0.32509742062E+01 -0.35651302746E+02  0.50528840419E+02  0.29999940937E+02 0.  0.
         12    1    3    3    0    0  0.19276489230E+02 -0.32509742062E+01  0.35651302746E+02  0.40659159581E+02  0.00000000000E+00 0. -1.
         11    1    4    4    0    0 -0.10623602709E+02  0.10965195528E+02 -0.20832596638E+02  0.25828153833E+02  0.51100000000E-03 0. -1.
        -11    1    4    4    0    0 -0.93495485809E+01  0.22459542803E+01 -0.56952882099E+01  0.11175628723E+02  0.51100000000E-03 0.  1.
         12    1    4    4    0    0  0.69666205982E+00 -0.99601756019E+01 -0.91234178988E+01  0.13525057863E+02  0.00000000000E+00 0. -1.
</event>
<event>
 8    1  0.5829710E-012  0.9118800E+02  0.7816164E-02  0.1184000E+00
        -11   -1    0    0    0    0  0.00000000000E+00  0.00000000000E+00  0.45593999997E+02  0.45594000000E+02  0.51100000000E-03 0. -1.
         11   -1    0    0    0    0 -0.00000000000E+00 -0.00000000000E+00 -0.45593999997E+02  0.45594000000E+02  0.51100000000E-03 0.  1.
         23    2    1    2    0    0 -0.88817841970E-15  0.00000000000E+00  0.00000000000E+00  0.91188000000E+02  0.91188000000E+02 0.  0.
    9900012    2    3    3    0    0  0.70969167718E+01 -0.26943577524E+02  0.29611530484E+02  0.50528864065E+02  0.30000012810E+02 0.  0.
        -12    1    3    3    0    0 -0.70969167718E+01  0.26943577524E+02 -0.29611530484E+02  0.40659135935E+02  0.00000000000E+00 0.  1.
         11    1    4    4    0    0  0.20505118346E+01  0.20700969901E+00 -0.12013983003E+00  0.20644334911E+01  0.51100000000E-03 0.  1.
        -11    1    4    4    0    0  0.15063574815E+02 -0.90310140190E+01  0.14058607919E+02  0.22496998851E+02  0.51100000000E-03 0. -1.
        -12    1    4    4    0    0 -0.10017169878E+02 -0.18119573204E+02  0.15673062395E+02  0.25967431723E+02  0.00000000000E+00 0.  1.
</event>
<event>
 8    1  0.5829710E-012  0.9118800E+02  0.7816164E-02  0.1184000E+00
        -11   -1    0    0    0    0  0.00000000000E+00  0.00000000000E+00  0.45593999997E+02  0.45594000000E+02  0.51100000000E-03 0. -1.
         11   -1    0    0    0    0 -0.00000000000E+00 -0.00000000000E+00 -0.45593999997E+02  0.45594000000E+02  0.51100000000E-03 0.  1.
         23    2    1    2    0    0  0.00000000000E+00  0.00000000000E+00  0.00000000000E+00  0.91188000000E+02  0.91188000000E+02 0.  0.
    9900012    2    3    3    0    0 -0.21122426545E+02  0.52082369013E+01  0.34349418152E+02  0.50528866191E+02  0.30000019273E+02 0.  0.
        -12    1    3    3    0    0  0.21122426545E+02 -0.52082369013E+01 -0.34349418152E+02  0.40659133809E+02  0.00000000000E+00 0.  1.
         11    1    4    4    0    0 -0.11119854049E+02 -0.79528369150E+01  0.15191111769E+02  0.20436943169E+02  0.51100000000E-03 0.  1.
        -11    1    4    4    0    0 -0.13780092943E+02  0.63956489012E+01  0.14763087718E+02  0.21183579622E+02  0.51100000000E-03 0. -1.
        -12    1    4    4    0    0  0.37775204468E+01  0.67654249152E+01  0.43952186647E+01  0.89083433993E+01  0.00000000000E+00 0.  1.
</event>
<event>
 8    1  0.5829710E-012  0.9118800E+02  0.7816164E-02  0.1184000E+00
        -11   -1    0    0    0    0  0.00000000000E+00  0.00000000000E+00  0.45593999997E+02  0.45594000000E+02  0.51100000000E-03 0. -1.
         11   -1    0    0    0    0 -0.00000000000E+00 -0.00000000000E+00 -0.45593999997E+02  0.45594000000E+02  0.51100000000E-03 0.  1.
         23    2    1    2    0    0 -0.35527136788E-14 -0.44408920985E-14 -0.71054273576E-14  0.91188000000E+02  0.91188000000E+02 0.  0.
    9900012    2    3    3    0    0  0.13061878539E+02  0.58610652594E+01  0.38055237410E+02  0.50528857716E+02  0.29999993513E+02 0.  0.
        -12    1    3    3    0    0 -0.13061878539E+02 -0.58610652594E+01 -0.38055237410E+02  0.40659142284E+02  0.00000000000E+00 0.  1.
         11    1    4    4    0    0  0.83351035706E+01  0.14000218470E+02  0.86612788190E+01  0.18452583011E+02  0.51100000000E-03 0.  1.
        -11    1    4    4    0    0 -0.12763971775E+00  0.17744226214E+01  0.34486584458E+01  0.38804784336E+01  0.51100000000E-03 0. -1.
        -12    1    4    4    0    0  0.48544146857E+01 -0.99135758320E+01  0.25945300146E+02  0.28195796271E+02  0.00000000000E+00 0.  1.
</event>
<event>
 8    1  0.5829710E-012  0.9118800E+02  0.7816164E-02  0.1184000E+00
        -11   -1    0    0    0    0  0.00000000000E+00  0.00000000000E+00  0.45593999997E+02  0.45594000000E+02  0.51100000000E-03 0.  1.
         11   -1    0    0    0    0 -0.00000000000E+00 -0.00000000000E+00 -0.45593999997E+02  0.45594000000E+02  0.51100000000E-03 0. -1.
         23    2    1    2    0    0  0.00000000000E+00  0.17763568394E-14  0.00000000000E+00  0.91188000000E+02  0.91188000000E+02 0.  0.
    9900012    2    3    3    0    0  0.40277510460E+02 -0.51702883696E+01 -0.20385719469E+01  0.50528861959E+02  0.30000006410E+02 0.  0.
         12    1    3    3    0    0 -0.40277510460E+02  0.51702883696E+01  0.20385719469E+01  0.40659138041E+02  0.00000000000E+00 0. -1.
         11    1    4    4    0    0  0.18071597782E+02 -0.12597239070E+02 -0.35053693386E+01  0.22306068524E+02  0.51100000000E-03 0. -1.
        -11    1    4    4    0    0  0.33740061719E+00 -0.27527726050E+01  0.29582585699E+01  0.40549833809E+01  0.51100000000E-03 0.  1.
        -12    1    4    4    0    0  0.21868512061E+02  0.10179723305E+02 -0.14914611782E+01  0.24167810054E+02  0.00000000000E+00 0.  1.
</event>
<event>
 8    1  0.5829710E-012  0.9118800E+02  0.7816164E-02  0.1184000E+00
        -11   -1    0    0    0    0  0.00000000000E+00  0.00000000000E+00  0.45593999997E+02  0.45594000000E+02  0.51100000000E-03 0. -1.
         11   -1    0    0    0    0 -0.00000000000E+00 -0.00000000000E+00 -0.45593999997E+02  0.45594000000E+02  0.51100000000E-03 0.  1.
         23    2    1    2    0    0  0.17763568394E-14 -0.35527136788E-14  0.00000000000E+00  0.91188000000E+02  0.91188000000E+02 0.  0.
    9900012    2    3    3    0    0  0.15902754708E+02 -0.16955419510E+02  0.33358385955E+02  0.50528858696E+02  0.29999996492E+02 0.  0.
        -12    1    3    3    0    0 -0.15902754708E+02  0.16955419510E+02 -0.33358385955E+02  0.40659141304E+02  0.00000000000E+00 0.  1.
         11    1    4    4    0    0 -0.50876131622E+01 -0.48677693720E+01  0.16681814788E+02  0.18106958089E+02  0.51100000000E-03 0. -1.
        -11    1    4    4    0    0  0.86510987595E+01  0.17247243998E+01  0.82341453581E+01  0.12067200754E+02  0.51100000000E-03 0.  1.
         12    1    4    4    0    0  0.12339269110E+02 -0.13812374538E+02  0.84424258089E+01  0.20354699853E+02  0.00000000000E+00 0. -1.
</event>
<event>
 8    1  0.5829710E-012  0.9118800E+02  0.7816164E-02  0.1184000E+00
        -11   -1    0    0    0    0  0.00000000000E+00  0.00000000000E+00  0.45593999997E+02  0.45594000000E+02  0.51100000000E-03 0. -1.
         11   -1    0    0    0    0 -0.00000000000E+00 -0.00000000000E+00 -0.45593999997E+02  0.45594000000E+02  0.51100000000E-03 0.  1.
         23    2    1    2    0    0  0.00000000000E+00  0.35527136788E-14 -0.71054273576E-14  0.91188000000E+02  0.91188000000E+02 0.  0.
    9900012    2    3    3    0    0 -0.39221063683E+01  0.18725615845E+02 -0.35876648571E+02  0.50528861792E+02  0.30000005903E+02 0.  0.
         12    1    3    3    0    0  0.39221063683E+01 -0.18725615845E+02  0.35876648571E+02  0.40659138208E+02  0.00000000000E+00 0. -1.
         11    1    4    4    0    0 -0.10379837892E+02  0.18181553541E+02 -0.19884593105E+02  0.28873984260E+02  0.51100000000E-03 0. -1.
        -11    1    4    4    0    0  0.74918492964E+00  0.63870856904E+01 -0.68990829883E+01  0.94315156797E+01  0.51100000000E-03 0.  1.
        -12    1    4    4    0    0  0.57085465945E+01 -0.58430233858E+01 -0.90929724768E+01  0.12223361852E+02  0.00000000000E+00 0.  1.
</event>
<event>
 8    1  0.5829710E-012  0.9118800E+02  0.7816164E-02  0.1184000E+00
        -11   -1    0    0    0    0  0.00000000000E+00  0.00000000000E+00  0.45593999997E+02  0.45594000000E+02  0.51100000000E-03 0. -1.
         11   -1    0    0    0    0 -0.00000000000E+00 -0.00000000000E+00 -0.45593999997E+02  0.45594000000E+02  0.51100000000E-03 0.  1.
         23    2    1    2    0    0  0.00000000000E+00  0.00000000000E+00  0.00000000000E+00  0.91188000000E+02  0.91188000000E+02 0.  0.
    9900012    2    3    3    0    0 -0.21840036075E+02  0.29293437158E+02 -0.17834643268E+02  0.50528841908E+02  0.29999945462E+02 0.  0.
         12    1    3    3    0    0  0.21840036075E+02 -0.29293437158E+02  0.17834643268E+02  0.40659158092E+02  0.00000000000E+00 0. -1.
         11    1    4    4    0    0 -0.98561866834E+01  0.47189137889E+01  0.70205870188E+01  0.12988502825E+02  0.51100000000E-03 0. -1.
        -11    1    4    4    0    0 -0.10657001458E+01  0.63541440729E+01 -0.88371006937E+01  0.10936416810E+02  0.51100000000E-03 0.  1.
        -12    1    4    4    0    0 -0.10918149246E+02  0.18220379296E+02 -0.16018129593E+02  0.26603922273E+02  0.00000000000E+00 0.  1.
</event>
<event>
 8    1  0.5859362E-012  0.9118800E+02  0.7816164E-02  0.1184000E+00
        -11   -1    0    0    0    0  0.00000000000E+00  0.00000000000E+00  0.45593999997E+02  0.45594000000E+02  0.51100000000E-03 0. -1.
         11   -1    0    0    0    0 -0.00000000000E+00 -0.00000000000E+00 -0.45593999997E+02  0.45594000000E+02  0.51100000000E-03 0.  1.
         23    2    1    2    0    0  0.00000000000E+00  0.35527136788E-14 -0.35527136788E-14  0.91188000000E+02  0.91188000000E+02 0.  0.
    9900012    2    3    3    0    0 -0.96894762607E+01  0.30676317844E+02 -0.24864500360E+02  0.50528858287E+02  0.29999995248E+02 0.  0.
         12    1    3    3    0    0  0.96894762607E+01 -0.30676317844E+02  0.24864500360E+02  0.40659141713E+02  0.00000000000E+00 0. -1.
         11    1    4    4    0    0  0.44045316333E+01  0.34910392720E+01 -0.10432001263E+02  0.11849637325E+02  0.51100000000E-03 0.  1.
        -11    1    4    4    0    0 -0.25253279858E+01 -0.24367750220E+01 -0.37404646669E+01  0.51289599461E+01  0.51100000000E-03 0. -1.
        -12    1    4    4    0    0 -0.11568679908E+02  0.29622053595E+02 -0.10692034430E+02  0.33550261016E+02  0.00000000000E+00 0.  1.
</event>
<event>
 8    1  0.5829710E-012  0.9118800E+02  0.7816164E-02  0.1184000E+00
        -11   -1    0    0    0    0  0.00000000000E+00  0.00000000000E+00  0.45593999997E+02  0.45594000000E+02  0.51100000000E-03 0. -1.
         11   -1    0    0    0    0 -0.00000000000E+00 -0.00000000000E+00 -0.45593999997E+02  0.45594000000E+02  0.51100000000E-03 0.  1.
         23    2    1    2    0    0  0.88817841970E-15  0.00000000000E+00  0.00000000000E+00  0.91188000000E+02  0.91188000000E+02 0.  0.
    9900012    2    3    3    0    0 -0.49562366544E+01  0.14155844260E+02  0.37791693644E+02  0.50528876584E+02  0.30000050863E+02 0.  0.
        -12    1    3    3    0    0  0.49562366544E+01 -0.14155844260E+02 -0.37791693644E+02  0.40659123416E+02  0.00000000000E+00 0.  1.
         11    1    4    4    0    0 -0.52058660883E+01  0.29008499275E+01  0.10373324469E+02  0.11963353745E+02  0.51100000000E-03 0. -1.
        -11    1    4    4    0    0 -0.46017484865E+01 -0.57287707991E+01  0.15796414834E+02  0.17421872054E+02  0.51100000000E-03 0.  1.
         12    1    4    4    0    0  0.48513779204E+01  0.16983765132E+02  0.11621954341E+02  0.21143650784E+02  0.00000000000E+00 0. -1.
</event>
<event>
 8    1  0.5829710E-012  0.9118800E+02  0.7816164E-02  0.1184000E+00
        -11   -1    0    0    0    0  0.00000000000E+00  0.00000000000E+00  0.45593999997E+02  0.45594000000E+02  0.51100000000E-03 0. -1.
         11   -1    0    0    0    0 -0.00000000000E+00 -0.00000000000E+00 -0.45593999997E+02  0.45594000000E+02  0.51100000000E-03 0.  1.
         23    2    1    2    0    0 -0.35527136788E-14  0.88817841970E-15  0.00000000000E+00  0.91188000000E+02  0.91188000000E+02 0.  0.
    9900012    2    3    3    0    0 -0.22453973103E+02 -0.64301276642E+01 -0.33281199539E+02  0.50528859667E+02  0.29999999444E+02 0.  0.
         12    1    3    3    0    0  0.22453973103E+02  0.64301276642E+01  0.33281199539E+02  0.40659140333E+02  0.00000000000E+00 0. -1.
         11    1    4    4    0    0 -0.15179801470E+02 -0.32423089652E+01 -0.12678088804E+02  0.20041778266E+02  0.51100000000E-03 0. -1.
        -11    1    4    4    0    0 -0.12245025330E+02 -0.40985332111E+01 -0.21759881114E+02  0.25302787320E+02  0.51100000000E-03 0.  1.
         12    1    4    4    0    0  0.49708536978E+01  0.91071451213E+00  0.11567703783E+01  0.51842940807E+01  0.00000000000E+00 0. -1.
</event>
<event>
 8    1  0.5829710E-012  0.9118800E+02  0.7816164E-02  0.1184000E+00
        -11   -1    0    0    0    0  0.00000000000E+00  0.00000000000E+00  0.45593999997E+02  0.45594000000E+02  0.51100000000E-03 0. -1.
         11   -1    0    0    0    0 -0.00000000000E+00 -0.00000000000E+00 -0.45593999997E+02  0.45594000000E+02  0.51100000000E-03 0.  1.
         23    2    1    2    0    0  0.35527136788E-14  0.35527136788E-14  0.35527136788E-14  0.91188000000E+02  0.91188000000E+02 0.  0.
    9900012    2    3    3    0    0 -0.26013642283E+02 -0.24416815597E+02 -0.19500661270E+02  0.50528852706E+02  0.29999978285E+02 0.  0.
         12    1    3    3    0    0  0.26013642283E+02  0.24416815597E+02  0.19500661270E+02  0.40659147294E+02  0.00000000000E+00 0. -1.
         11    1    4    4    0    0 -0.13232753119E+02 -0.15104169489E+02 -0.13568495312E+02  0.24235217275E+02  0.51100000000E-03 0.  1.
        -11    1    4    4    0    0  0.44297510396E+01  0.20765373765E+00  0.22720906435E+01  0.49827914367E+01  0.51100000000E-03 0. -1.
         12    1    4    4    0    0 -0.17210640203E+02 -0.95202998455E+01 -0.82042566012E+01  0.21310843994E+02  0.00000000000E+00 0. -1.
</event>
<event>
 8    1  0.5829710E-012  0.9118800E+02  0.7816164E-02  0.1184000E+00
        -11   -1    0    0    0    0  0.00000000000E+00  0.00000000000E+00  0.45593999997E+02  0.45594000000E+02  0.51100000000E-03 0. -1.
         11   -1    0    0    0    0 -0.00000000000E+00 -0.00000000000E+00 -0.45593999997E+02  0.45594000000E+02  0.51100000000E-03 0.  1.
         23    2    1    2    0    0  0.00000000000E+00 -0.17763568394E-14  0.00000000000E+00  0.91188000000E+02  0.91188000000E+02 0.  0.
    9900012    2    3    3    0    0 -0.33012935112E+02 -0.11951293543E+02 -0.20505579044E+02  0.50528854977E+02  0.29999985190E+02 0.  0.
         12    1    3    3    0    0  0.33012935112E+02  0.11951293543E+02  0.20505579044E+02  0.40659145023E+02  0.00000000000E+00 0. -1.
         11    1    4    4    0    0  0.29220401863E+01 -0.52437630675E-01 -0.33889697462E+01  0.44750625423E+01  0.51100000000E-03 0. -1.
        -11    1    4    4    0    0 -0.50723607064E+01  0.48676146730E+01 -0.59163409331E+01  0.91883407663E+01  0.51100000000E-03 0.  1.
         12    1    4    4    0    0 -0.30862614592E+02 -0.16766470585E+02 -0.11200268364E+02  0.36865451669E+02  0.00000000000E+00 0. -1.
</event>
<event>
 8    1  0.5829710E-012  0.9118800E+02  0.7816164E-02  0.1184000E+00
        -11   -1    0    0    0    0  0.00000000000E+00  0.00000000000E+00  0.45593999997E+02  0.45594000000E+02  0.51100000000E-03 0. -1.
         11   -1    0    0    0    0 -0.00000000000E+00 -0.00000000000E+00 -0.45593999997E+02  0.45594000000E+02  0.51100000000E-03 0.  1.
         23    2    1    2    0    0  0.00000000000E+00 -0.44408920985E-15  0.71054273576E-14  0.91188000000E+02  0.91188000000E+02 0.  0.
    9900012    2    3    3    0    0 -0.27505792989E+02 -0.22219467620E+01  0.29860683699E+02  0.50528854333E+02  0.29999983231E+02 0.  0.
        -12    1    3    3    0    0  0.27505792989E+02  0.22219467620E+01 -0.29860683699E+02  0.40659145667E+02  0.00000000000E+00 0.  1.
         11    1    4    4    0    0  0.25974875429E+01 -0.19672966081E+01  0.40368449197E+01  0.51878044148E+01  0.51100000000E-03 0.  1.
        -11    1    4    4    0    0 -0.21912564644E+02 -0.70521899151E+01  0.25960199772E+02  0.34696193514E+02  0.51100000000E-03 0. -1.
         12    1    4    4    0    0 -0.81907158879E+01  0.67975397612E+01 -0.13636099240E+00  0.10644856405E+02  0.00000000000E+00 0. -1.
</event>
<event>
 8    1  0.5829710E-012  0.9118800E+02  0.7816164E-02  0.1184000E+00
        -11   -1    0    0    0    0  0.00000000000E+00  0.00000000000E+00  0.45593999997E+02  0.45594000000E+02  0.51100000000E-03 0. -1.
         11   -1    0    0    0    0 -0.00000000000E+00 -0.00000000000E+00 -0.45593999997E+02  0.45594000000E+02  0.51100000000E-03 0.  1.
         23    2    1    2    0    0  0.88817841970E-15  0.35527136788E-14 -0.35527136788E-14  0.91188000000E+02  0.91188000000E+02 0.  0.
    9900012    2    3    3    0    0 -0.50591648120E+01 -0.25193204008E+02  0.31509862081E+02  0.50528879435E+02  0.30000059530E+02 0.  0.
        -12    1    3    3    0    0  0.50591648120E+01  0.25193204008E+02 -0.31509862081E+02  0.40659120565E+02  0.00000000000E+00 0.  1.
         11    1    4    4    0    0 -0.13500803618E+00  0.10968648053E+01  0.10539415423E+02  0.10597198559E+02  0.51100000000E-03 0. -1.
        -11    1    4    4    0    0  0.19408681203E+01  0.22731083107E+01 -0.11033494374E+01  0.31861215756E+01  0.51100000000E-03 0.  1.
         12    1    4    4    0    0 -0.68650248961E+01 -0.28563177124E+02  0.22073796095E+02  0.36745559300E+02  0.00000000000E+00 0. -1.
</event>
<event>
 8    1  0.5829710E-012  0.9118800E+02  0.7816164E-02  0.1184000E+00
        -11   -1    0    0    0    0  0.00000000000E+00  0.00000000000E+00  0.45593999997E+02  0.45594000000E+02  0.51100000000E-03 0.  1.
         11   -1    0    0    0    0 -0.00000000000E+00 -0.00000000000E+00 -0.45593999997E+02  0.45594000000E+02  0.51100000000E-03 0. -1.
         23    2    1    2    0    0  0.00000000000E+00  0.00000000000E+00  0.00000000000E+00  0.91188000000E+02  0.91188000000E+02 0.  0.
    9900012    2    3    3    0    0 -0.32679480396E+02  0.23099936877E+02  0.71839489463E+01  0.50528872548E+02  0.30000038598E+02 0.  0.
        -12    1    3    3    0    0  0.32679480396E+02 -0.23099936877E+02 -0.71839489463E+01  0.40659127452E+02  0.00000000000E+00 0.  1.
         11    1    4    4    0    0 -0.54675629478E+00 -0.23860407994E+00 -0.26510650906E+01  0.27173554660E+01  0.51100000000E-03 0. -1.
        -11    1    4    4    0    0  0.34046839073E+01 -0.11903518297E+01  0.65469347711E+00  0.36657105446E+01  0.51100000000E-03 0.  1.
         12    1    4    4    0    0 -0.35537408008E+02  0.24528892787E+02  0.91803205598E+01  0.44145806538E+02  0.00000000000E+00 0. -1.
</event>
<event>
 8    1  0.5829710E-012  0.9118800E+02  0.7816164E-02  0.1184000E+00
        -11   -1    0    0    0    0  0.00000000000E+00  0.00000000000E+00  0.45593999997E+02  0.45594000000E+02  0.51100000000E-03 0. -1.
         11   -1    0    0    0    0 -0.00000000000E+00 -0.00000000000E+00 -0.45593999997E+02  0.45594000000E+02  0.51100000000E-03 0.  1.
         23    2    1    2    0    0 -0.35527136788E-14  0.00000000000E+00  0.00000000000E+00  0.91188000000E+02  0.91188000000E+02 0.  0.
    9900012    2    3    3    0    0 -0.16953677262E+02 -0.31707875097E+02 -0.18982815540E+02  0.50528882921E+02  0.30000070126E+02 0.  0.
         12    1    3    3    0    0  0.16953677262E+02  0.31707875097E+02  0.18982815540E+02  0.40659117079E+02  0.00000000000E+00 0. -1.
         11    1    4    4    0    0 -0.10564498389E+02 -0.12365510046E+02  0.24124297667E+01  0.16441845473E+02  0.51100000000E-03 0. -1.
        -11    1    4    4    0    0 -0.38456563779E+01 -0.31122757753E+00 -0.12205468882E+02  0.12800758043E+02  0.51100000000E-03 0.  1.
         12    1    4    4    0    0 -0.25435224952E+01 -0.19031137473E+02 -0.91897764245E+01  0.21286279405E+02  0.00000000000E+00 0. -1.
</event>
<event>
 8    1  0.5829710E-012  0.9118800E+02  0.7816164E-02  0.1184000E+00
        -11   -1    0    0    0    0  0.00000000000E+00  0.00000000000E+00  0.45593999997E+02  0.45594000000E+02  0.51100000000E-03 0. -1.
         11   -1    0    0    0    0 -0.00000000000E+00 -0.00000000000E+00 -0.45593999997E+02  0.45594000000E+02  0.51100000000E-03 0.  1.
         23    2    1    2    0    0  0.00000000000E+00  0.00000000000E+00  0.00000000000E+00  0.91188000000E+02  0.91188000000E+02 0.  0.
    9900012    2    3    3    0    0  0.33804502407E+02  0.94625397114E+01 -0.20515397992E+02  0.50528860861E+02  0.30000003074E+02 0.  0.
         12    1    3    3    0    0 -0.33804502407E+02 -0.94625397114E+01  0.20515397992E+02  0.40659139139E+02  0.00000000000E+00 0. -1.
         11    1    4    4    0    0  0.31164810267E+01  0.60694241008E+01  0.16371710116E+01  0.70164586572E+01  0.51100000000E-03 0. -1.
        -11    1    4    4    0    0  0.12663184384E+02  0.62326520291E+01 -0.20904011828E+02  0.25222606940E+02  0.51100000000E-03 0.  1.
         12    1    4    4    0    0  0.18024836996E+02 -0.28395364185E+01 -0.12485571749E+01  0.18289795265E+02  0.00000000000E+00 0. -1.
</event>
<event>
 8    1  0.5829710E-012  0.9118800E+02  0.7816164E-02  0.1184000E+00
        -11   -1    0    0    0    0  0.00000000000E+00  0.00000000000E+00  0.45593999997E+02  0.45594000000E+02  0.51100000000E-03 0. -1.
         11   -1    0    0    0    0 -0.00000000000E+00 -0.00000000000E+00 -0.45593999997E+02  0.45594000000E+02  0.51100000000E-03 0.  1.
         23    2    1    2    0    0  0.17763568394E-14  0.00000000000E+00  0.00000000000E+00  0.91188000000E+02  0.91188000000E+02 0.  0.
    9900012    2    3    3    0    0  0.10066623631E+02  0.39154136641E+02  0.43337510650E+01  0.50528871557E+02  0.30000035584E+02 0.  0.
        -12    1    3    3    0    0 -0.10066623631E+02 -0.39154136641E+02 -0.43337510650E+01  0.40659128443E+02  0.00000000000E+00 0.  1.
         11    1    4    4    0    0 -0.64738074117E+01  0.57603263309E+01  0.12863439204E+01  0.87604921542E+01  0.51100000000E-03 0. -1.
        -11    1    4    4    0    0  0.52745166964E+01  0.12280559477E+02 -0.78205296953E+01  0.15485262427E+02  0.51100000000E-03 0.  1.
         12    1    4    4    0    0  0.11265914346E+02  0.21113250834E+02  0.10867936840E+02  0.26283116976E+02  0.00000000000E+00 0. -1.
</event>
<event>
 8    1  0.5829710E-012  0.9118800E+02  0.7816164E-02  0.1184000E+00
        -11   -1    0    0    0    0  0.00000000000E+00  0.00000000000E+00  0.45593999997E+02  0.45594000000E+02  0.51100000000E-03 0. -1.
         11   -1    0    0    0    0 -0.00000000000E+00 -0.00000000000E+00 -0.45593999997E+02  0.45594000000E+02  0.51100000000E-03 0.  1.
         23    2    1    2    0    0  0.17763568394E-14  0.00000000000E+00  0.71054273576E-14  0.91188000000E+02  0.91188000000E+02 0.  0.
    9900012    2    3    3    0    0 -0.15195934583E+02  0.14244590435E+02 -0.34919060133E+02  0.50528861481E+02  0.30000004959E+02 0.  0.
         12    1    3    3    0    0  0.15195934583E+02 -0.14244590435E+02  0.34919060133E+02  0.40659138519E+02  0.00000000000E+00 0. -1.
         11    1    4    4    0    0  0.27392794423E+01  0.16733142987E+01  0.32136245783E-02  0.32099288455E+01  0.51100000000E-03 0. -1.
        -11    1    4    4    0    0  0.10086637750E+01 -0.51829257007E+01 -0.26758394829E+01  0.59194795911E+01  0.51100000000E-03 0.  1.
        -12    1    4    4    0    0 -0.18943877801E+02  0.17754201837E+02 -0.32246434275E+02  0.41399453045E+02  0.00000000000E+00 0.  1.
</event>
<event>
 8    1  0.5829710E-012  0.9118800E+02  0.7816164E-02  0.1184000E+00
        -11   -1    0    0    0    0  0.00000000000E+00  0.00000000000E+00  0.45593999997E+02  0.45594000000E+02  0.51100000000E-03 0.  1.
         11   -1    0    0    0    0 -0.00000000000E+00 -0.00000000000E+00 -0.45593999997E+02  0.45594000000E+02  0.51100000000E-03 0. -1.
         23    2    1    2    0    0  0.00000000000E+00  0.00000000000E+00  0.35527136788E-14  0.91188000000E+02  0.91188000000E+02 0.  0.
    9900012    2    3    3    0    0  0.30335389152E+02 -0.12450379315E+02  0.24039962617E+02  0.50528836424E+02  0.29999928794E+02 0.  0.
        -12    1    3    3    0    0 -0.30335389152E+02  0.12450379315E+02 -0.24039962617E+02  0.40659163576E+02  0.00000000000E+00 0.  1.
         11    1    4    4    0    0  0.24972135183E+02 -0.36337108053E+01  0.80094686276E+01  0.26475705425E+02  0.51100000000E-03 0. -1.
        -11    1    4    4    0    0  0.73256886838E+01 -0.15708233628E+00  0.12517201176E+02  0.14504161992E+02  0.51100000000E-03 0.  1.
         12    1    4    4    0    0 -0.19624347144E+01 -0.86595861733E+01  0.35132928137E+01  0.95489690070E+01  0.00000000000E+00 0. -1.
</event>
<event>
 8    1  0.5829710E-012  0.9118800E+02  0.7816164E-02  0.1184000E+00
        -11   -1    0    0    0    0  0.00000000000E+00  0.00000000000E+00  0.45593999997E+02  0.45594000000E+02  0.51100000000E-03 0.  1.
         11   -1    0    0    0    0 -0.00000000000E+00 -0.00000000000E+00 -0.45593999997E+02  0.45594000000E+02  0.51100000000E-03 0. -1.
         23    2    1    2    0    0 -0.35527136788E-14  0.71054273576E-14  0.17763568394E-14  0.91188000000E+02  0.91188000000E+02 0.  0.
    9900012    2    3    3    0    0 -0.15093408466E+02  0.35929880670E+02  0.11593067573E+02  0.50528849495E+02  0.29999968524E+02 0.  0.
        -12    1    3    3    0    0  0.15093408466E+02 -0.35929880670E+02 -0.11593067573E+02  0.40659150505E+02  0.00000000000E+00 0.  1.
         11    1    4    4    0    0 -0.87384565714E+00  0.40031839561E-01 -0.16093713927E+01  0.18317437925E+01  0.51100000000E-03 0. -1.
        -11    1    4    4    0    0 -0.12095042174E+02  0.26462272044E+02 -0.35964433199E+01  0.29316826086E+02  0.51100000000E-03 0.  1.
        -12    1    4    4    0    0 -0.21245206357E+01  0.94275767858E+01  0.16798882285E+02  0.19380279617E+02  0.00000000000E+00 0.  1.
</event>
<event>
 8    1  0.5829710E-012  0.9118800E+02  0.7816164E-02  0.1184000E+00
        -11   -1    0    0    0    0  0.00000000000E+00  0.00000000000E+00  0.45593999997E+02  0.45594000000E+02  0.51100000000E-03 0.  1.
         11   -1    0    0    0    0 -0.00000000000E+00 -0.00000000000E+00 -0.45593999997E+02  0.45594000000E+02  0.51100000000E-03 0. -1.
         23    2    1    2    0    0  0.00000000000E+00  0.00000000000E+00  0.00000000000E+00  0.91188000000E+02  0.91188000000E+02 0.  0.
    9900012    2    3    3    0    0  0.15812599647E+02  0.32893614861E+02  0.17920219542E+02  0.50528899239E+02  0.30000119727E+02 0.  0.
        -12    1    3    3    0    0 -0.15812599647E+02 -0.32893614861E+02 -0.17920219542E+02  0.40659100761E+02  0.00000000000E+00 0.  1.
         11    1    4    4    0    0  0.15454086664E+02  0.53700730456E+01  0.22466328689E+01  0.16514049735E+02  0.51100000000E-03 0.  1.
        -11    1    4    4    0    0  0.11775948877E+01  0.10866688998E+02 -0.28277637699E+00  0.10933966446E+02  0.51100000000E-03 0. -1.
        -12    1    4    4    0    0 -0.81908190525E+00  0.16656852817E+02  0.15956363050E+02  0.23080883058E+02  0.00000000000E+00 0.  1.
</event>
<event>
 8    1  0.5829710E-012  0.9118800E+02  0.7816164E-02  0.1184000E+00
        -11   -1    0    0    0    0  0.00000000000E+00  0.00000000000E+00  0.45593999997E+02  0.45594000000E+02  0.51100000000E-03 0. -1.
         11   -1    0    0    0    0 -0.00000000000E+00 -0.00000000000E+00 -0.45593999997E+02  0.45594000000E+02  0.51100000000E-03 0.  1.
         23    2    1    2    0    0 -0.22204460493E-15 -0.44408920985E-15  0.00000000000E+00  0.91188000000E+02  0.91188000000E+02 0.  0.
    9900012    2    3    3    0    0  0.51336097316E+00  0.20848464117E+01 -0.40602409999E+02  0.50528858078E+02  0.29999994615E+02 0.  0.
         12    1    3    3    0    0 -0.51336097316E+00 -0.20848464117E+01  0.40602409999E+02  0.40659141922E+02  0.00000000000E+00 0. -1.
         11    1    4    4    0    0 -0.90527880522E+00 -0.69586899664E+01 -0.73007409138E+01  0.10126387012E+02  0.51100000000E-03 0. -1.
        -11    1    4    4    0    0  0.52094868106E+01 -0.55168876834E+01 -0.14058824632E+02  0.15975773936E+02  0.51100000000E-03 0.  1.
         12    1    4    4    0    0 -0.37908470322E+01  0.14560424061E+02 -0.19242844453E+02  0.24426697131E+02  0.00000000000E+00 0. -1.
</event>
<event>
 8    1  0.5829710E-012  0.9118800E+02  0.7816164E-02  0.1184000E+00
        -11   -1    0    0    0    0  0.00000000000E+00  0.00000000000E+00  0.45593999997E+02  0.45594000000E+02  0.51100000000E-03 0. -1.
         11   -1    0    0    0    0 -0.00000000000E+00 -0.00000000000E+00 -0.45593999997E+02  0.45594000000E+02  0.51100000000E-03 0.  1.
         23    2    1    2    0    0 -0.17763568394E-14 -0.17763568394E-14  0.00000000000E+00  0.91188000000E+02  0.91188000000E+02 0.  0.
    9900012    2    3    3    0    0 -0.12205166723E+02 -0.98270313779E+01  0.37518351489E+02  0.50528888611E+02  0.30000087423E+02 0.  0.
        -12    1    3    3    0    0  0.12205166723E+02  0.98270313779E+01 -0.37518351489E+02  0.40659111389E+02  0.00000000000E+00 0.  1.
         11    1    4    4    0    0  0.56505841121E+01 -0.80567106917E+01  0.13963174679E+02  0.17082445240E+02  0.51100000000E-03 0. -1.
        -11    1    4    4    0    0 -0.78194096635E+00 -0.60725469912E-01  0.13571617771E+02  0.13594260865E+02  0.51100000000E-03 0.  1.
        -12    1    4    4    0    0 -0.17073809869E+02 -0.17095952163E+01  0.99835590384E+01  0.19852182507E+02  0.00000000000E+00 0.  1.
</event>
<event>
 8    1  0.5829710E-012  0.9118800E+02  0.7816164E-02  0.1184000E+00
        -11   -1    0    0    0    0  0.00000000000E+00  0.00000000000E+00  0.45593999997E+02  0.45594000000E+02  0.51100000000E-03 0. -1.
         11   -1    0    0    0    0 -0.00000000000E+00 -0.00000000000E+00 -0.45593999997E+02  0.45594000000E+02  0.51100000000E-03 0.  1.
         23    2    1    2    0    0  0.00000000000E+00  0.17763568394E-14  0.00000000000E+00  0.91188000000E+02  0.91188000000E+02 0.  0.
    9900012    2    3    3    0    0 -0.27599830697E+02 -0.10440484525E+02  0.27971610178E+02  0.50528863910E+02  0.30000012341E+02 0.  0.
        -12    1    3    3    0    0  0.27599830697E+02  0.10440484525E+02 -0.27971610178E+02  0.40659136090E+02  0.00000000000E+00 0.  1.
         11    1    4    4    0    0 -0.19350698411E+02 -0.14423039100E+02  0.10164518652E+02  0.26187612063E+02  0.51100000000E-03 0. -1.
        -11    1    4    4    0    0 -0.28722016379E+01 -0.29468985335E+01 -0.39721098338E+00  0.41341903733E+01  0.51100000000E-03 0.  1.
        -12    1    4    4    0    0 -0.53769306479E+01  0.69294531076E+01  0.18204302509E+02  0.20207061474E+02  0.00000000000E+00 0.  1.
</event>
<event>
 8    1  0.5829710E-012  0.9118800E+02  0.7816164E-02  0.1184000E+00
        -11   -1    0    0    0    0  0.00000000000E+00  0.00000000000E+00  0.45593999997E+02  0.45594000000E+02  0.51100000000E-03 0. -1.
         11   -1    0    0    0    0 -0.00000000000E+00 -0.00000000000E+00 -0.45593999997E+02  0.45594000000E+02  0.51100000000E-03 0.  1.
         23    2    1    2    0    0  0.00000000000E+00 -0.35527136788E-14  0.71054273576E-14  0.91188000000E+02  0.91188000000E+02 0.  0.
    9900012    2    3    3    0    0  0.91193752325E+01  0.18495439003E+02 -0.35041711880E+02  0.50528857854E+02  0.29999993934E+02 0.  0.
         12    1    3    3    0    0 -0.91193752325E+01 -0.18495439003E+02  0.35041711880E+02  0.40659142146E+02  0.00000000000E+00 0. -1.
         11    1    4    4    0    0  0.23394938881E+01  0.15084060419E+02 -0.63841556553E+01  0.16545680828E+02  0.51100000000E-03 0. -1.
        -11    1    4    4    0    0  0.41067995039E+01  0.78098065373E+01 -0.58141115448E+01  0.10567060785E+02  0.51100000000E-03 0.  1.
        -12    1    4    4    0    0  0.26730818405E+01 -0.43984279531E+01 -0.22843444680E+02  0.23416116241E+02  0.00000000000E+00 0.  1.
</event>
<event>
 8    1  0.5829710E-012  0.9118800E+02  0.7816164E-02  0.1184000E+00
        -11   -1    0    0    0    0  0.00000000000E+00  0.00000000000E+00  0.45593999997E+02  0.45594000000E+02  0.51100000000E-03 0. -1.
         11   -1    0    0    0    0 -0.00000000000E+00 -0.00000000000E+00 -0.45593999997E+02  0.45594000000E+02  0.51100000000E-03 0.  1.
         23    2    1    2    0    0  0.00000000000E+00  0.00000000000E+00  0.00000000000E+00  0.91188000000E+02  0.91188000000E+02 0.  0.
    9900012    2    3    3    0    0  0.18616732625E+02 -0.35116856657E+02  0.85668726616E+01  0.50528835445E+02  0.29999925818E+02 0.  0.
        -12    1    3    3    0    0 -0.18616732625E+02  0.35116856657E+02 -0.85668726616E+01  0.40659164555E+02  0.00000000000E+00 0.  1.
         11    1    4    4    0    0  0.61756101335E+01 -0.66897876619E+01  0.21490018460E+01  0.93546581272E+01  0.51100000000E-03 0. -1.
        -11    1    4    4    0    0  0.13146743593E+02 -0.95064567449E+00  0.23629114867E+01  0.13391189091E+02  0.51100000000E-03 0.  1.
        -12    1    4    4    0    0 -0.70562110176E+00 -0.27476423321E+02  0.40549593288E+01  0.27782988227E+02  0.00000000000E+00 0.  1.
</event>
<event>
 8    1  0.5829710E-012  0.9118800E+02  0.7816164E-02  0.1184000E+00
        -11   -1    0    0    0    0  0.00000000000E+00  0.00000000000E+00  0.45593999997E+02  0.45594000000E+02  0.51100000000E-03 0. -1.
         11   -1    0    0    0    0 -0.00000000000E+00 -0.00000000000E+00 -0.45593999997E+02  0.45594000000E+02  0.51100000000E-03 0.  1.
         23    2    1    2    0    0  0.00000000000E+00  0.00000000000E+00  0.00000000000E+00  0.91188000000E+02  0.91188000000E+02 0.  0.
    9900012    2    3    3    0    0  0.93590691808E+01  0.14835343316E+02  0.36680889242E+02  0.50528840850E+02  0.29999942248E+02 0.  0.
        -12    1    3    3    0    0 -0.93590691808E+01 -0.14835343316E+02 -0.36680889242E+02  0.40659159150E+02  0.00000000000E+00 0.  1.
         11    1    4    4    0    0 -0.43183764798E+01  0.10025768140E+02  0.21148866455E+02  0.23799978042E+02  0.51100000000E-03 0. -1.
        -11    1    4    4    0    0 -0.22072463191E+01  0.19694063992E+01  0.87293990081E+01  0.92169900283E+01  0.51100000000E-03 0.  1.
        -12    1    4    4    0    0  0.15884691980E+02  0.28401687767E+01  0.68026237784E+01  0.17511872779E+02  0.00000000000E+00 0.  1.
</event>
<event>
 8    1  0.5829710E-012  0.9118800E+02  0.7816164E-02  0.1184000E+00
        -11   -1    0    0    0    0  0.00000000000E+00  0.00000000000E+00  0.45593999997E+02  0.45594000000E+02  0.51100000000E-03 0. -1.
         11   -1    0    0    0    0 -0.00000000000E+00 -0.00000000000E+00 -0.45593999997E+02  0.45594000000E+02  0.51100000000E-03 0.  1.
         23    2    1    2    0    0 -0.17763568394E-14  0.88817841970E-15  0.00000000000E+00  0.91188000000E+02  0.91188000000E+02 0.  0.
    9900012    2    3    3    0    0  0.15060015601E+02  0.11549360875E+01  0.37749519204E+02  0.50528878669E+02  0.30000057201E+02 0.  0.
        -12    1    3    3    0    0 -0.15060015601E+02 -0.11549360875E+01 -0.37749519204E+02  0.40659121331E+02  0.00000000000E+00 0.  1.
         11    1    4    4    0    0  0.50538149678E+00 -0.54922768358E+01 -0.88877773778E+00  0.55866305970E+01  0.51100000000E-03 0. -1.
        -11    1    4    4    0    0  0.56221632790E+01 -0.53630771658E+01  0.16240504268E+02  0.18003480101E+02  0.51100000000E-03 0.  1.
         12    1    4    4    0    0  0.89324708257E+01  0.12010290089E+02  0.22397792674E+02  0.26938767970E+02  0.00000000000E+00 0. -1.
</event>
<event>
 8    1  0.5829710E-012  0.9118800E+02  0.7816164E-02  0.1184000E+00
        -11   -1    0    0    0    0  0.00000000000E+00  0.00000000000E+00  0.45593999997E+02  0.45594000000E+02  0.51100000000E-03 0. -1.
         11   -1    0    0    0    0 -0.00000000000E+00 -0.00000000000E+00 -0.45593999997E+02  0.45594000000E+02  0.51100000000E-03 0.  1.
         23    2    1    2    0    0  0.00000000000E+00  0.17763568394E-14 -0.71054273576E-14  0.91188000000E+02  0.91188000000E+02 0.  0.
    9900012    2    3    3    0    0  0.17872735231E+02  0.48195220068E+01  0.36200845709E+02  0.50528884330E+02  0.30000074410E+02 0.  0.
        -12    1    3    3    0    0 -0.17872735231E+02 -0.48195220068E+01 -0.36200845709E+02  0.40659115670E+02  0.00000000000E+00 0.  1.
         11    1    4    4    0    0  0.20333370900E+01 -0.52890976707E+01  0.10567200663E+02  0.11990610660E+02  0.51100000000E-03 0. -1.
        -11    1    4    4    0    0  0.41011073470E+01 -0.48625612006E+01 -0.30797007756E+00  0.63685499708E+01  0.51100000000E-03 0.  1.
        -12    1    4    4    0    0  0.11738290794E+02  0.14971180878E+02  0.25941615124E+02  0.32169723699E+02  0.00000000000E+00 0.  1.
</event>
<event>
 8    1  0.5829710E-012  0.9118800E+02  0.7816164E-02  0.1184000E+00
        -11   -1    0    0    0    0  0.00000000000E+00  0.00000000000E+00  0.45593999997E+02  0.45594000000E+02  0.51100000000E-03 0. -1.
         11   -1    0    0    0    0 -0.00000000000E+00 -0.00000000000E+00 -0.45593999997E+02  0.45594000000E+02  0.51100000000E-03 0.  1.
         23    2    1    2    0    0  0.00000000000E+00  0.00000000000E+00  0.00000000000E+00  0.91188000000E+02  0.91188000000E+02 0.  0.
    9900012    2    3    3    0    0 -0.11263782680E+02 -0.28284547383E+02 -0.26949470796E+02  0.50528900193E+02  0.30000122627E+02 0.  0.
         12    1    3    3    0    0  0.11263782680E+02  0.28284547383E+02  0.26949470796E+02  0.40659099807E+02  0.00000000000E+00 0. -1.
         11    1    4    4    0    0 -0.12391685941E+02 -0.32212740820E+01 -0.53298735345E+01  0.13868599040E+02  0.51100000000E-03 0.  1.
        -11    1    4    4    0    0  0.33185738745E+00  0.88470371653E+00  0.15821867184E+01  0.18428632789E+01  0.51100000000E-03 0. -1.
         12    1    4    4    0    0  0.79604587339E+00 -0.25947977018E+02 -0.23201783979E+02  0.34817437875E+02  0.00000000000E+00 0. -1.
</event>
<event>
 8    1  0.5829710E-012  0.9118800E+02  0.7816164E-02  0.1184000E+00
        -11   -1    0    0    0    0  0.00000000000E+00  0.00000000000E+00  0.45593999997E+02  0.45594000000E+02  0.51100000000E-03 0.  1.
         11   -1    0    0    0    0 -0.00000000000E+00 -0.00000000000E+00 -0.45593999997E+02  0.45594000000E+02  0.51100000000E-03 0. -1.
         23    2    1    2    0    0  0.17763568394E-14  0.00000000000E+00  0.00000000000E+00  0.91188000000E+02  0.91188000000E+02 0.  0.
    9900012    2    3    3    0    0 -0.12968883733E+02 -0.33176876516E+02  0.19602768142E+02  0.50528860813E+02  0.30000002926E+02 0.  0.
        -12    1    3    3    0    0  0.12968883733E+02  0.33176876516E+02 -0.19602768142E+02  0.40659139187E+02  0.00000000000E+00 0.  1.
         11    1    4    4    0    0 -0.44448428707E+01  0.53081729782E+00  0.61337510247E+01  0.75935036079E+01  0.51100000000E-03 0. -1.
        -11    1    4    4    0    0  0.61225467804E+01 -0.70353621921E+01  0.74030533026E+01  0.11907438797E+02  0.51100000000E-03 0.  1.
         12    1    4    4    0    0 -0.14646587642E+02 -0.26672331622E+02  0.60659638147E+01  0.31027918407E+02  0.00000000000E+00 0. -1.
</event>
<event>
 8    1  0.6423531E-012  0.9118800E+02  0.7816164E-02  0.1184000E+00
        -11   -1    0    0    0    0  0.00000000000E+00  0.00000000000E+00  0.45593999997E+02  0.45594000000E+02  0.51100000000E-03 0. -1.
         11   -1    0    0    0    0 -0.00000000000E+00 -0.00000000000E+00 -0.45593999997E+02  0.45594000000E+02  0.51100000000E-03 0.  1.
         23    2    1    2    0    0  0.00000000000E+00 -0.35527136788E-14 -0.71054273576E-14  0.91188000000E+02  0.91188000000E+02 0.  0.
    9900012    2    3    3    0    0  0.73325223371E+01 -0.22470059103E+02 -0.33083170628E+02  0.50528860576E+02  0.30000002205E+02 0.  0.
         12    1    3    3    0    0 -0.73325223371E+01  0.22470059103E+02  0.33083170628E+02  0.40659139424E+02  0.00000000000E+00 0. -1.
         11    1    4    4    0    0  0.56797757569E+01  0.22934843777E+01 -0.14499099341E+02  0.15739879453E+02  0.51100000000E-03 0. -1.
        -11    1    4    4    0    0  0.44139530101E-01  0.18410073496E+01  0.61435692896E+00  0.19413116845E+01  0.51100000000E-03 0.  1.
        -12    1    4    4    0    0  0.16086070501E+01 -0.26604550830E+02 -0.19198428216E+02  0.32847669438E+02  0.00000000000E+00 0.  1.
</event>
<event>
 8    1  0.5829710E-012  0.9118800E+02  0.7816164E-02  0.1184000E+00
        -11   -1    0    0    0    0  0.00000000000E+00  0.00000000000E+00  0.45593999997E+02  0.45594000000E+02  0.51100000000E-03 0. -1.
         11   -1    0    0    0    0 -0.00000000000E+00 -0.00000000000E+00 -0.45593999997E+02  0.45594000000E+02  0.51100000000E-03 0.  1.
         23    2    1    2    0    0 -0.35527136788E-14 -0.35527136788E-14  0.10658141036E-13  0.91188000000E+02  0.91188000000E+02 0.  0.
    9900012    2    3    3    0    0 -0.14999436506E+02 -0.25514161023E+02  0.27878514261E+02  0.50528842783E+02  0.29999948123E+02 0.  0.
        -12    1    3    3    0    0  0.14999436506E+02  0.25514161023E+02 -0.27878514261E+02  0.40659157217E+02  0.00000000000E+00 0.  1.
         11    1    4    4    0    0 -0.78208212252E+01 -0.27966517220E+01  0.11601729101E+02  0.14268378460E+02  0.51100000000E-03 0. -1.
        -11    1    4    4    0    0  0.16063509510E+00 -0.57426920949E+01  0.16804573916E+02  0.17759448777E+02  0.51100000000E-03 0.  1.
         12    1    4    4    0    0 -0.73392503757E+01 -0.16974817206E+02 -0.52778875491E+00  0.18501015546E+02  0.00000000000E+00 0. -1.
</event>
<event>
 8    1  0.5829710E-012  0.9118800E+02  0.7816164E-02  0.1184000E+00
        -11   -1    0    0    0    0  0.00000000000E+00  0.00000000000E+00  0.45593999997E+02  0.45594000000E+02  0.51100000000E-03 0. -1.
         11   -1    0    0    0    0 -0.00000000000E+00 -0.00000000000E+00 -0.45593999997E+02  0.45594000000E+02  0.51100000000E-03 0.  1.
         23    2    1    2    0    0  0.00000000000E+00  0.49960036108E-15  0.00000000000E+00  0.91188000000E+02  0.91188000000E+02 0.  0.
    9900012    2    3    3    0    0  0.20627536967E+02 -0.36131137755E+00 -0.35036200587E+02  0.50528915175E+02  0.30000168165E+02 0.  0.
         12    1    3    3    0    0 -0.20627536967E+02  0.36131137755E+00  0.35036200587E+02  0.40659084825E+02  0.00000000000E+00 0. -1.
         11    1    4    4    0    0  0.68770683558E+01  0.24491687780E+01 -0.15987929275E+02  0.17575732691E+02  0.51100000000E-03 0.  1.
        -11    1    4    4    0    0  0.11659342388E+02  0.83986396440E+01 -0.15204624606E+02  0.20920277782E+02  0.51100000000E-03 0. -1.
        -12    1    4    4    0    0  0.20911262223E+01 -0.11209119800E+02 -0.38436467062E+01  0.12032904702E+02  0.00000000000E+00 0.  1.
</event>
<event>
 8    1  0.5829710E-012  0.9118800E+02  0.7816164E-02  0.1184000E+00
        -11   -1    0    0    0    0  0.00000000000E+00  0.00000000000E+00  0.45593999997E+02  0.45594000000E+02  0.51100000000E-03 0. -1.
         11   -1    0    0    0    0 -0.00000000000E+00 -0.00000000000E+00 -0.45593999997E+02  0.45594000000E+02  0.51100000000E-03 0.  1.
         23    2    1    2    0    0  0.00000000000E+00  0.17763568394E-14  0.00000000000E+00  0.91188000000E+02  0.91188000000E+02 0.  0.
    9900012    2    3    3    0    0 -0.27011231074E+02 -0.14317529249E+02  0.26806143578E+02  0.50528836439E+02  0.29999928841E+02 0.  0.
        -12    1    3    3    0    0  0.27011231074E+02  0.14317529249E+02 -0.26806143578E+02  0.40659163561E+02  0.00000000000E+00 0.  1.
         11    1    4    4    0    0 -0.16378664469E+02 -0.35595057653E+01  0.81463792578E+01  0.18635831786E+02  0.51100000000E-03 0. -1.
        -11    1    4    4    0    0 -0.16461431917E+02 -0.11187498625E+02  0.15648215450E+02  0.25318086682E+02  0.51100000000E-03 0.  1.
        -12    1    4    4    0    0  0.58288653122E+01  0.42947514084E+00  0.30115488710E+01  0.65749179711E+01  0.00000000000E+00 0.  1.
</event>
<event>
 8    1  0.5829710E-012  0.9118800E+02  0.7816164E-02  0.1184000E+00
        -11   -1    0    0    0    0  0.00000000000E+00  0.00000000000E+00  0.45593999997E+02  0.45594000000E+02  0.51100000000E-03 0. -1.
         11   -1    0    0    0    0 -0.00000000000E+00 -0.00000000000E+00 -0.45593999997E+02  0.45594000000E+02  0.51100000000E-03 0.  1.
         23    2    1    2    0    0 -0.35527136788E-14  0.00000000000E+00  0.00000000000E+00  0.91188000000E+02  0.91188000000E+02 0.  0.
    9900012    2    3    3    0    0  0.23377886432E+02  0.28818272145E+02  0.16617681771E+02  0.50528859196E+02  0.29999998012E+02 0.  0.
        -12    1    3    3    0    0 -0.23377886432E+02 -0.28818272145E+02 -0.16617681771E+02  0.40659140804E+02  0.00000000000E+00 0.  1.
         11    1    4    4    0    0  0.59597946317E+01 -0.13079835928E+01  0.57500738018E+01  0.83841112897E+01  0.51100000000E-03 0. -1.
        -11    1    4    4    0    0 -0.35003810013E+01  0.19784456735E+00  0.33815103677E+01  0.48709775461E+01  0.51100000000E-03 0.  1.
        -12    1    4    4    0    0  0.20918472802E+02  0.29928411170E+02  0.74860976018E+01  0.37273770360E+02  0.00000000000E+00 0.  1.
</event>
<event>
 8    1  0.5829710E-012  0.9118800E+02  0.7816164E-02  0.1184000E+00
        -11   -1    0    0    0    0  0.00000000000E+00  0.00000000000E+00  0.45593999997E+02  0.45594000000E+02  0.51100000000E-03 0.  1.
         11   -1    0    0    0    0 -0.00000000000E+00 -0.00000000000E+00 -0.45593999997E+02  0.45594000000E+02  0.51100000000E-03 0. -1.
         23    2    1    2    0    0  0.00000000000E+00  0.00000000000E+00  0.00000000000E+00  0.91188000000E+02  0.91188000000E+02 0.  0.
    9900012    2    3    3    0    0 -0.30111946624E+02 -0.24733584507E+02 -0.11605395562E+02  0.50528871404E+02  0.30000035120E+02 0.  0.
         12    1    3    3    0    0  0.30111946624E+02  0.24733584507E+02  0.11605395562E+02  0.40659128596E+02  0.00000000000E+00 0. -1.
         11    1    4    4    0    0 -0.73019470327E+01 -0.47140013335E+01  0.69274680393E+01  0.11114407440E+02  0.51100000000E-03 0. -1.
        -11    1    4    4    0    0 -0.11485631367E+01 -0.11313987934E+01  0.30654410358E+01  0.34635515751E+01  0.51100000000E-03 0.  1.
         12    1    4    4    0    0 -0.21661436454E+02 -0.18888184380E+02 -0.21598304637E+02  0.35950912389E+02  0.00000000000E+00 0. -1.
</event>
<event>
 8    1  0.5829710E-012  0.9118800E+02  0.7816164E-02  0.1184000E+00
        -11   -1    0    0    0    0  0.00000000000E+00  0.00000000000E+00  0.45593999997E+02  0.45594000000E+02  0.51100000000E-03 0. -1.
         11   -1    0    0    0    0 -0.00000000000E+00 -0.00000000000E+00 -0.45593999997E+02  0.45594000000E+02  0.51100000000E-03 0.  1.
         23    2    1    2    0    0 -0.17763568394E-14 -0.35527136788E-14  0.00000000000E+00  0.91188000000E+02  0.91188000000E+02 0.  0.
    9900012    2    3    3    0    0  0.11433852199E+02 -0.27884746807E+02 -0.27292345356E+02  0.50528878076E+02  0.30000055400E+02 0.  0.
         12    1    3    3    0    0 -0.11433852199E+02  0.27884746807E+02  0.27292345356E+02  0.40659121924E+02  0.00000000000E+00 0. -1.
         11    1    4    4    0    0  0.14192437232E+01  0.14179221510E+00 -0.17276560959E+01  0.22403467644E+01  0.51100000000E-03 0. -1.
        -11    1    4    4    0    0  0.63424167130E+01 -0.22016087738E+02 -0.31587007397E+02  0.39021448021E+02  0.51100000000E-03 0.  1.
         12    1    4    4    0    0  0.36721917629E+01 -0.60104512837E+01  0.60223181370E+01  0.92670832909E+01  0.00000000000E+00 0. -1.
</event>
<event>
 8    1  0.5829710E-012  0.9118800E+02  0.7816164E-02  0.1184000E+00
        -11   -1    0    0    0    0  0.00000000000E+00  0.00000000000E+00  0.45593999997E+02  0.45594000000E+02  0.51100000000E-03 0. -1.
         11   -1    0    0    0    0 -0.00000000000E+00 -0.00000000000E+00 -0.45593999997E+02  0.45594000000E+02  0.51100000000E-03 0.  1.
         23    2    1    2    0    0 -0.88817841970E-15  0.00000000000E+00 -0.35527136788E-14  0.91188000000E+02  0.91188000000E+02 0.  0.
    9900012    2    3    3    0    0 -0.23636947781E+01  0.35625033805E+02 -0.19453487351E+02  0.50528828136E+02  0.29999903601E+02 0.  0.
         12    1    3    3    0    0  0.23636947781E+01 -0.35625033805E+02  0.19453487351E+02  0.40659171864E+02  0.00000000000E+00 0. -1.
         11    1    4    4    0    0 -0.46545912505E+01  0.73710471119E+01  0.35076993599E+01  0.93968883304E+01  0.51100000000E-03 0. -1.
        -11    1    4    4    0    0 -0.38817820860E+01  0.15094727261E+02 -0.21455634206E+02  0.26519111272E+02  0.51100000000E-03 0.  1.
         12    1    4    4    0    0  0.61726785584E+01  0.13159259432E+02 -0.15055525044E+01  0.14612828533E+02  0.00000000000E+00 0. -1.
</event>
<event>
 8    1  0.5829710E-012  0.9118800E+02  0.7816164E-02  0.1184000E+00
        -11   -1    0    0    0    0  0.00000000000E+00  0.00000000000E+00  0.45593999997E+02  0.45594000000E+02  0.51100000000E-03 0. -1.
         11   -1    0    0    0    0 -0.00000000000E+00 -0.00000000000E+00 -0.45593999997E+02  0.45594000000E+02  0.51100000000E-03 0.  1.
         23    2    1    2    0    0  0.17763568394E-14  0.00000000000E+00 -0.17763568394E-14  0.91188000000E+02  0.91188000000E+02 0.  0.
    9900012    2    3    3    0    0  0.11540212693E+02 -0.37918439021E+02  0.90654056697E+01  0.50528854574E+02  0.29999983964E+02 0.  0.
        -12    1    3    3    0    0 -0.11540212693E+02  0.37918439021E+02 -0.90654056697E+01  0.40659145426E+02  0.00000000000E+00 0.  1.
         11    1    4    4    0    0  0.64551838004E+00 -0.10695371342E+02  0.33070520616E+01  0.11213574619E+02  0.51100000000E-03 0. -1.
        -11    1    4    4    0    0 -0.60430331127E+01 -0.19236916771E+02  0.28145231607E+01  0.20359242543E+02  0.51100000000E-03 0.  1.
         12    1    4    4    0    0  0.16937727426E+02 -0.79861509081E+01  0.29438304473E+01  0.18956037412E+02  0.00000000000E+00 0. -1.
</event>
<event>
 8    1  0.5829710E-012  0.9118800E+02  0.7816164E-02  0.1184000E+00
        -11   -1    0    0    0    0  0.00000000000E+00  0.00000000000E+00  0.45593999997E+02  0.45594000000E+02  0.51100000000E-03 0.  1.
         11   -1    0    0    0    0 -0.00000000000E+00 -0.00000000000E+00 -0.45593999997E+02  0.45594000000E+02  0.51100000000E-03 0. -1.
         23    2    1    2    0    0  0.00000000000E+00  0.00000000000E+00  0.00000000000E+00  0.91188000000E+02  0.91188000000E+02 0.  0.
    9900012    2    3    3    0    0 -0.36780121017E+02  0.11318077596E+02 -0.13125893788E+02  0.50528864861E+02  0.30000015231E+02 0.  0.
         12    1    3    3    0    0  0.36780121017E+02 -0.11318077596E+02  0.13125893788E+02  0.40659135139E+02  0.00000000000E+00 0. -1.
         11    1    4    4    0    0  0.14819538636E+01  0.84664523975E+01 -0.21261382249E+01  0.88542344370E+01  0.51100000000E-03 0. -1.
        -11    1    4    4    0    0 -0.58622728712E+01  0.33199669709E+01  0.15720821720E+01  0.69180825755E+01  0.51100000000E-03 0.  1.
         12    1    4    4    0    0 -0.32399802010E+02 -0.46834177245E+00 -0.12571837736E+02  0.34756547848E+02  0.00000000000E+00 0. -1.
</event>
<event>
 8    1  0.5829710E-012  0.9118800E+02  0.7816164E-02  0.1184000E+00
        -11   -1    0    0    0    0  0.00000000000E+00  0.00000000000E+00  0.45593999997E+02  0.45594000000E+02  0.51100000000E-03 0. -1.
         11   -1    0    0    0    0 -0.00000000000E+00 -0.00000000000E+00 -0.45593999997E+02  0.45594000000E+02  0.51100000000E-03 0.  1.
         23    2    1    2    0    0  0.00000000000E+00 -0.35527136788E-14  0.00000000000E+00  0.91188000000E+02  0.91188000000E+02 0.  0.
    9900012    2    3    3    0    0  0.22564640913E+02  0.26162160474E+02 -0.21437004928E+02  0.50528845552E+02  0.29999956539E+02 0.  0.
         12    1    3    3    0    0 -0.22564640913E+02 -0.26162160474E+02  0.21437004928E+02  0.40659154448E+02  0.00000000000E+00 0. -1.
         11    1    4    4    0    0  0.76671118257E+01 -0.56778842622E+00 -0.49331465230E+01  0.91347097558E+01  0.51100000000E-03 0. -1.
        -11    1    4    4    0    0  0.11632007185E+02  0.10422413769E+01 -0.79328129542E+01  0.14118051561E+02  0.51100000000E-03 0.  1.
        -12    1    4    4    0    0  0.32655219020E+01  0.25687707523E+02 -0.85710454507E+01  0.27276084235E+02  0.00000000000E+00 0.  1.
</event>
<event>
 8    1  0.5829710E-012  0.9118800E+02  0.7816164E-02  0.1184000E+00
        -11   -1    0    0    0    0  0.00000000000E+00  0.00000000000E+00  0.45593999997E+02  0.45594000000E+02  0.51100000000E-03 0. -1.
         11   -1    0    0    0    0 -0.00000000000E+00 -0.00000000000E+00 -0.45593999997E+02  0.45594000000E+02  0.51100000000E-03 0.  1.
         23    2    1    2    0    0 -0.88817841970E-15  0.17763568394E-14  0.00000000000E+00  0.91188000000E+02  0.91188000000E+02 0.  0.
    9900012    2    3    3    0    0  0.37207130387E+01  0.10829846040E+02  0.39013285658E+02  0.50528859224E+02  0.29999998098E+02 0.  0.
        -12    1    3    3    0    0 -0.37207130387E+01 -0.10829846040E+02 -0.39013285658E+02  0.40659140776E+02  0.00000000000E+00 0.  1.
         11    1    4    4    0    0  0.15194812563E+01  0.90269570234E+01  0.13516074300E+02  0.16324185772E+02  0.51100000000E-03 0. -1.
        -11    1    4    4    0    0 -0.66644241841E+01  0.90319864020E+01  0.10762186390E+02  0.15550433570E+02  0.51100000000E-03 0.  1.
         12    1    4    4    0    0  0.88656559665E+01 -0.72290973858E+01  0.14735024969E+02  0.18654239882E+02  0.00000000000E+00 0. -1.
</event>
<event>
 8    1  0.5829710E-012  0.9118800E+02  0.7816164E-02  0.1184000E+00
        -11   -1    0    0    0    0  0.00000000000E+00  0.00000000000E+00  0.45593999997E+02  0.45594000000E+02  0.51100000000E-03 0.  1.
         11   -1    0    0    0    0 -0.00000000000E+00 -0.00000000000E+00 -0.45593999997E+02  0.45594000000E+02  0.51100000000E-03 0. -1.
         23    2    1    2    0    0  0.17763568394E-14  0.00000000000E+00  0.00000000000E+00  0.91188000000E+02  0.91188000000E+02 0.  0.
    9900012    2    3    3    0    0  0.10441749782E+02 -0.38130750556E+02  0.94963893776E+01  0.50528859727E+02  0.29999999627E+02 0.  0.
         12    1    3    3    0    0 -0.10441749782E+02  0.38130750556E+02 -0.94963893776E+01  0.40659140273E+02  0.00000000000E+00 0. -1.
         11    1    4    4    0    0  0.30421597564E+01  0.14305941691E+01 -0.34699117309E+01  0.48313169365E+01  0.51100000000E-03 0. -1.
        -11    1    4    4    0    0 -0.52394773708E+01 -0.13138443263E+02  0.14276763714E+01  0.14216507116E+02  0.51100000000E-03 0.  1.
        -12    1    4    4    0    0  0.12639067397E+02 -0.26422901462E+02  0.11538624737E+02  0.31481035675E+02  0.00000000000E+00 0.  1.
</event>
<event>
 8    1  0.5829710E-012  0.9118800E+02  0.7816164E-02  0.1184000E+00
        -11   -1    0    0    0    0  0.00000000000E+00  0.00000000000E+00  0.45593999997E+02  0.45594000000E+02  0.51100000000E-03 0. -1.
         11   -1    0    0    0    0 -0.00000000000E+00 -0.00000000000E+00 -0.45593999997E+02  0.45594000000E+02  0.51100000000E-03 0.  1.
         23    2    1    2    0    0  0.00000000000E+00  0.00000000000E+00 -0.71054273576E-14  0.91188000000E+02  0.91188000000E+02 0.  0.
    9900012    2    3    3    0    0 -0.79657374200E+01  0.80298530660E+01 -0.39054217822E+02  0.50528887337E+02  0.30000083548E+02 0.  0.
         12    1    3    3    0    0  0.79657374200E+01 -0.80298530660E+01  0.39054217822E+02  0.40659112663E+02  0.00000000000E+00 0. -1.
         11    1    4    4    0    0 -0.37259795113E-01  0.25815977655E+01 -0.35253506715E+02  0.35347924568E+02  0.51100000000E-03 0. -1.
        -11    1    4    4    0    0 -0.25200713579E+01 -0.25092739953E+01 -0.42590259496E+01  0.55485599874E+01  0.51100000000E-03 0.  1.
         12    1    4    4    0    0 -0.54084062670E+01  0.79575292958E+01  0.45831484276E+00  0.96324027811E+01  0.00000000000E+00 0. -1.
</event>
<event>
 8    1  0.5829710E-012  0.9118800E+02  0.7816164E-02  0.1184000E+00
        -11   -1    0    0    0    0  0.00000000000E+00  0.00000000000E+00  0.45593999997E+02  0.45594000000E+02  0.51100000000E-03 0. -1.
         11   -1    0    0    0    0 -0.00000000000E+00 -0.00000000000E+00 -0.45593999997E+02  0.45594000000E+02  0.51100000000E-03 0.  1.
         23    2    1    2    0    0  0.00000000000E+00  0.00000000000E+00  0.35527136788E-14  0.91188000000E+02  0.91188000000E+02 0.  0.
    9900012    2    3    3    0    0 -0.25463948814E+01 -0.26798080574E+02  0.30472032143E+02  0.50528855983E+02  0.29999988245E+02 0.  0.
        -12    1    3    3    0    0  0.25463948814E+01  0.26798080574E+02 -0.30472032143E+02  0.40659144017E+02  0.00000000000E+00 0.  1.
         11    1    4    4    0    0 -0.64677793096E-01 -0.21631990821E+02  0.29274457563E+02  0.36399740054E+02  0.51100000000E-03 0. -1.
        -11    1    4    4    0    0 -0.46261649354E+01  0.22954669923E+01  0.32460794664E+01  0.60998035121E+01  0.51100000000E-03 0.  1.
        -12    1    4    4    0    0  0.21444478471E+01 -0.74615567445E+01 -0.20485048865E+01  0.80293124171E+01  0.00000000000E+00 0.  1.
</event>
<event>
 8    1  0.5829710E-012  0.9118800E+02  0.7816164E-02  0.1184000E+00
        -11   -1    0    0    0    0  0.00000000000E+00  0.00000000000E+00  0.45593999997E+02  0.45594000000E+02  0.51100000000E-03 0. -1.
         11   -1    0    0    0    0 -0.00000000000E+00 -0.00000000000E+00 -0.45593999997E+02  0.45594000000E+02  0.51100000000E-03 0.  1.
         23    2    1    2    0    0  0.53290705182E-14  0.35527136788E-14  0.35527136788E-14  0.91188000000E+02  0.91188000000E+02 0.  0.
    9900012    2    3    3    0    0  0.14708504664E+02  0.28208966446E+02  0.25319560712E+02  0.50528855247E+02  0.29999986009E+02 0.  0.
        -12    1    3    3    0    0 -0.14708504664E+02 -0.28208966446E+02 -0.25319560712E+02  0.40659144753E+02  0.00000000000E+00 0.  1.
         11    1    4    4    0    0  0.18710913992E+02  0.21069317342E+02  0.22585297715E+02  0.36112464729E+02  0.51100000000E-03 0. -1.
        -11    1    4    4    0    0  0.22785873828E+01  0.15412688425E+01 -0.31250756506E+01  0.41633602041E+01  0.51100000000E-03 0.  1.
        -12    1    4    4    0    0 -0.62809967105E+01  0.55983802620E+01  0.58593386474E+01  0.10253030314E+02  0.00000000000E+00 0.  1.
</event>
<event>
 8    1  0.5829710E-012  0.9118800E+02  0.7816164E-02  0.1184000E+00
        -11   -1    0    0    0    0  0.00000000000E+00  0.00000000000E+00  0.45593999997E+02  0.45594000000E+02  0.51100000000E-03 0. -1.
         11   -1    0    0    0    0 -0.00000000000E+00 -0.00000000000E+00 -0.45593999997E+02  0.45594000000E+02  0.51100000000E-03 0.  1.
         23    2    1    2    0    0  0.00000000000E+00  0.00000000000E+00  0.00000000000E+00  0.91188000000E+02  0.91188000000E+02 0.  0.
    9900012    2    3    3    0    0 -0.22769078265E+02 -0.44358053944E+01 -0.33392483488E+02  0.50528865134E+02  0.30000016062E+02 0.  0.
         12    1    3    3    0    0  0.22769078265E+02  0.44358053944E+01  0.33392483488E+02  0.40659134866E+02  0.00000000000E+00 0. -1.
         11    1    4    4    0    0 -0.26251582047E+01  0.39937703599E+01 -0.54049046933E+00  0.48097596090E+01  0.51100000000E-03 0. -1.
        -11    1    4    4    0    0 -0.69929764564E+00  0.45464403687E+01  0.87538344480E+00  0.46824602145E+01  0.51100000000E-03 0.  1.
        -12    1    4    4    0    0 -0.19444622414E+02 -0.12976016123E+02 -0.33727376464E+02  0.41036645311E+02  0.00000000000E+00 0.  1.
</event>
<event>
 8    1  0.5829710E-012  0.9118800E+02  0.7816164E-02  0.1184000E+00
        -11   -1    0    0    0    0  0.00000000000E+00  0.00000000000E+00  0.45593999997E+02  0.45594000000E+02  0.51100000000E-03 0. -1.
         11   -1    0    0    0    0 -0.00000000000E+00 -0.00000000000E+00 -0.45593999997E+02  0.45594000000E+02  0.51100000000E-03 0.  1.
         23    2    1    2    0    0  0.00000000000E+00  0.00000000000E+00  0.71054273576E-14  0.91188000000E+02  0.91188000000E+02 0.  0.
    9900012    2    3    3    0    0 -0.69660779431E+01 -0.17032259686E+02  0.36256605585E+02  0.50528861292E+02  0.30000004382E+02 0.  0.
        -12    1    3    3    0    0  0.69660779431E+01  0.17032259686E+02 -0.36256605585E+02  0.40659138708E+02  0.00000000000E+00 0.  1.
         11    1    4    4    0    0  0.21705094632E+01 -0.13239525222E+02  0.17243008275E+02  0.21847596528E+02  0.51100000000E-03 0. -1.
        -11    1    4    4    0    0 -0.20003744568E+01 -0.40843128186E+01  0.20822679544E+02  0.21313542475E+02  0.51100000000E-03 0.  1.
        -12    1    4    4    0    0 -0.71362129495E+01  0.29157835408E+00 -0.18090822335E+01  0.73677222888E+01  0.00000000000E+00 0.  1.
</event>
<event>
 8    1  0.5829710E-012  0.9118800E+02  0.7816164E-02  0.1184000E+00
        -11   -1    0    0    0    0  0.00000000000E+00  0.00000000000E+00  0.45593999997E+02  0.45594000000E+02  0.51100000000E-03 0. -1.
         11   -1    0    0    0    0 -0.00000000000E+00 -0.00000000000E+00 -0.45593999997E+02  0.45594000000E+02  0.51100000000E-03 0.  1.
         23    2    1    2    0    0  0.88817841970E-15  0.88817841970E-15  0.00000000000E+00  0.91188000000E+02  0.91188000000E+02 0.  0.
    9900012    2    3    3    0    0 -0.36600058540E+01 -0.77208015593E+01  0.39751269543E+02  0.50528808544E+02  0.29999844050E+02 0.  0.
        -12    1    3    3    0    0  0.36600058540E+01  0.77208015593E+01 -0.39751269543E+02  0.40659191456E+02  0.00000000000E+00 0.  1.
         11    1    4    4    0    0  0.22015886265E+00 -0.11635028289E+02  0.20064446403E+02  0.23194921059E+02  0.51100000000E-03 0. -1.
        -11    1    4    4    0    0 -0.55229443832E+01  0.42173735471E+01  0.22781149592E+02  0.23817429150E+02  0.51100000000E-03 0.  1.
        -12    1    4    4    0    0  0.16427796666E+01 -0.30314681694E+00 -0.30943264525E+01  0.35164583348E+01  0.00000000000E+00 0.  1.
</event>
<event>
 8    1  0.5829710E-012  0.9118800E+02  0.7816164E-02  0.1184000E+00
        -11   -1    0    0    0    0  0.00000000000E+00  0.00000000000E+00  0.45593999997E+02  0.45594000000E+02  0.51100000000E-03 0. -1.
         11   -1    0    0    0    0 -0.00000000000E+00 -0.00000000000E+00 -0.45593999997E+02  0.45594000000E+02  0.51100000000E-03 0.  1.
         23    2    1    2    0    0  0.00000000000E+00  0.17763568394E-14 -0.35527136788E-14  0.91188000000E+02  0.91188000000E+02 0.  0.
    9900012    2    3    3    0    0 -0.32542148132E+02  0.96829546621E+01 -0.22369921364E+02  0.50528875589E+02  0.30000047841E+02 0.  0.
         12    1    3    3    0    0  0.32542148132E+02 -0.96829546621E+01  0.22369921364E+02  0.40659124411E+02  0.00000000000E+00 0. -1.
         11    1    4    4    0    0  0.40948754313E+01  0.48478819828E+01 -0.12366075729E+01  0.64652272247E+01  0.51100000000E-03 0. -1.
        -11    1    4    4    0    0 -0.18630533274E+01  0.25753757096E+01  0.23371642822E+00  0.31871854945E+01  0.51100000000E-03 0.  1.
        -12    1    4    4    0    0 -0.34773970236E+02  0.22596969697E+01 -0.21367030219E+02  0.40876462870E+02  0.00000000000E+00 0.  1.
</event>
<event>
 8    1  0.5829710E-012  0.9118800E+02  0.7816164E-02  0.1184000E+00
        -11   -1    0    0    0    0  0.00000000000E+00  0.00000000000E+00  0.45593999997E+02  0.45594000000E+02  0.51100000000E-03 0. -1.
         11   -1    0    0    0    0 -0.00000000000E+00 -0.00000000000E+00 -0.45593999997E+02  0.45594000000E+02  0.51100000000E-03 0.  1.
         23    2    1    2    0    0  0.00000000000E+00  0.00000000000E+00  0.35527136788E-14  0.91188000000E+02  0.91188000000E+02 0.  0.
    9900012    2    3    3    0    0 -0.40802317937E+01  0.25420312864E+02  0.31469417996E+02  0.50528869825E+02  0.30000030321E+02 0.  0.
        -12    1    3    3    0    0  0.40802317937E+01 -0.25420312864E+02 -0.31469417996E+02  0.40659130175E+02  0.00000000000E+00 0.  1.
         11    1    4    4    0    0  0.14740650675E+01  0.35789646002E-01 -0.34378636819E+01  0.37407292976E+01  0.51100000000E-03 0. -1.
        -11    1    4    4    0    0 -0.61434041800E+00 -0.25279129739E-01  0.12605410335E+02  0.12620397108E+02  0.51100000000E-03 0.  1.
         12    1    4    4    0    0 -0.49399564432E+01  0.25409802348E+02  0.22301871342E+02  0.34167743419E+02  0.00000000000E+00 0. -1.
</event>
<event>
 8    1  0.5829710E-012  0.9118800E+02  0.7816164E-02  0.1184000E+00
        -11   -1    0    0    0    0  0.00000000000E+00  0.00000000000E+00  0.45593999997E+02  0.45594000000E+02  0.51100000000E-03 0. -1.
         11   -1    0    0    0    0 -0.00000000000E+00 -0.00000000000E+00 -0.45593999997E+02  0.45594000000E+02  0.51100000000E-03 0.  1.
         23    2    1    2    0    0  0.00000000000E+00  0.66613381478E-15  0.00000000000E+00  0.91188000000E+02  0.91188000000E+02 0.  0.
    9900012    2    3    3    0    0  0.16595371166E+02 -0.19882793621E+01 -0.37064891011E+02  0.50528859027E+02  0.29999997499E+02 0.  0.
         12    1    3    3    0    0 -0.16595371166E+02  0.19882793621E+01  0.37064891011E+02  0.40659140973E+02  0.00000000000E+00 0. -1.
         11    1    4    4    0    0  0.47120077394E+01  0.40500237636E+01 -0.17573187544E+02  0.18639276546E+02  0.51100000000E-03 0. -1.
        -11    1    4    4    0    0 -0.50496306914E+01  0.21081673864E+01 -0.85328631398E+01  0.10136710190E+02  0.51100000000E-03 0.  1.
         12    1    4    4    0    0  0.16932994118E+02 -0.81464705121E+01 -0.10958840327E+02  0.21752872291E+02  0.00000000000E+00 0. -1.
</event>
<event>
 8    1  0.5829710E-012  0.9118800E+02  0.7816164E-02  0.1184000E+00
        -11   -1    0    0    0    0  0.00000000000E+00  0.00000000000E+00  0.45593999997E+02  0.45594000000E+02  0.51100000000E-03 0.  1.
         11   -1    0    0    0    0 -0.00000000000E+00 -0.00000000000E+00 -0.45593999997E+02  0.45594000000E+02  0.51100000000E-03 0. -1.
         23    2    1    2    0    0 -0.17763568394E-14  0.00000000000E+00 -0.35527136788E-14  0.91188000000E+02  0.91188000000E+02 0.  0.
    9900012    2    3    3    0    0 -0.94405162020E+01 -0.27813411750E+02  0.28115107824E+02  0.50528825055E+02  0.29999894236E+02 0.  0.
        -12    1    3    3    0    0  0.94405162020E+01  0.27813411750E+02 -0.28115107824E+02  0.40659174945E+02  0.00000000000E+00 0.  1.
         11    1    4    4    0    0  0.43467410783E+01  0.25758434850E+00  0.67555214583E+01  0.80372618555E+01  0.51100000000E-03 0. -1.
        -11    1    4    4    0    0  0.39567650896E+01 -0.71907717622E+00  0.34164993006E+01  0.52768863633E+01  0.51100000000E-03 0.  1.
         12    1    4    4    0    0 -0.17744022370E+02 -0.27351918922E+02  0.17943087065E+02  0.37214676836E+02  0.00000000000E+00 0. -1.
</event>
<event>
 8    1  0.5829710E-012  0.9118800E+02  0.7816164E-02  0.1184000E+00
        -11   -1    0    0    0    0  0.00000000000E+00  0.00000000000E+00  0.45593999997E+02  0.45594000000E+02  0.51100000000E-03 0. -1.
         11   -1    0    0    0    0 -0.00000000000E+00 -0.00000000000E+00 -0.45593999997E+02  0.45594000000E+02  0.51100000000E-03 0.  1.
         23    2    1    2    0    0 -0.11102230246E-15 -0.35527136788E-14  0.71054273576E-14  0.91188000000E+02  0.91188000000E+02 0.  0.
    9900012    2    3    3    0    0 -0.68020164699E+00  0.18694729929E+02 -0.36100007335E+02  0.50528854276E+02  0.29999983059E+02 0.  0.
         12    1    3    3    0    0  0.68020164699E+00 -0.18694729929E+02  0.36100007335E+02  0.40659145724E+02  0.00000000000E+00 0. -1.
         11    1    4    4    0    0  0.19071294647E+01  0.47141280162E+01 -0.66444649062E+01  0.83671416803E+01  0.51100000000E-03 0. -1.
        -11    1    4    4    0    0 -0.39332253511E+01  0.20605260196E+02 -0.28419158471E+02  0.35322734575E+02  0.51100000000E-03 0.  1.
         12    1    4    4    0    0  0.13458942394E+01 -0.66246582825E+01 -0.10363839572E+01  0.68389780209E+01  0.00000000000E+00 0. -1.
</event>
<event>
 8    1  0.5829710E-012  0.9118800E+02  0.7816164E-02  0.1184000E+00
        -11   -1    0    0    0    0  0.00000000000E+00  0.00000000000E+00  0.45593999997E+02  0.45594000000E+02  0.51100000000E-03 0. -1.
         11   -1    0    0    0    0 -0.00000000000E+00 -0.00000000000E+00 -0.45593999997E+02  0.45594000000E+02  0.51100000000E-03 0.  1.
         23    2    1    2    0    0  0.00000000000E+00  0.71054273576E-14 -0.17763568394E-14  0.91188000000E+02  0.91188000000E+02 0.  0.
    9900012    2    3    3    0    0  0.10035977574E+02  0.37545703881E+02 -0.11948398700E+02  0.50528868709E+02  0.30000026929E+02 0.  0.
         12    1    3    3    0    0 -0.10035977574E+02 -0.37545703881E+02  0.11948398700E+02  0.40659131291E+02  0.00000000000E+00 0. -1.
         11    1    4    4    0    0 -0.26116352305E+01  0.10669850073E+02  0.15863042394E+00  0.10985968461E+02  0.51100000000E-03 0. -1.
        -11    1    4    4    0    0  0.14048449339E+02  0.23421302691E+02 -0.46159052717E+00  0.27315369568E+02  0.51100000000E-03 0.  1.
         12    1    4    4    0    0 -0.14008365344E+01  0.34545511169E+01 -0.11645438596E+02  0.12227530679E+02  0.00000000000E+00 0. -1.
</event>
<event>
 8    1  0.5829710E-012  0.9118800E+02  0.7816164E-02  0.1184000E+00
        -11   -1    0    0    0    0  0.00000000000E+00  0.00000000000E+00  0.45593999997E+02  0.45594000000E+02  0.51100000000E-03 0. -1.
         11   -1    0    0    0    0 -0.00000000000E+00 -0.00000000000E+00 -0.45593999997E+02  0.45594000000E+02  0.51100000000E-03 0.  1.
         23    2    1    2    0    0  0.00000000000E+00  0.35527136788E-14  0.00000000000E+00  0.91188000000E+02  0.91188000000E+02 0.  0.
    9900012    2    3    3    0    0  0.21804771908E+02 -0.17090770071E+02  0.29759367729E+02  0.50528899331E+02  0.30000120006E+02 0.  0.
        -12    1    3    3    0    0 -0.21804771908E+02  0.17090770071E+02 -0.29759367729E+02  0.40659100669E+02  0.00000000000E+00 0.  1.
         11    1    4    4    0    0 -0.12147335896E+00  0.31385357811E+01  0.36020789371E+01  0.47791354402E+01  0.51100000000E-03 0. -1.
        -11    1    4    4    0    0  0.75589348731E+01  0.40343153147E+01  0.24545822018E+01  0.89128093506E+01  0.51100000000E-03 0.  1.
         12    1    4    4    0    0  0.14367310394E+02 -0.24263621167E+02  0.23702706590E+02  0.36836954540E+02  0.00000000000E+00 0. -1.
</event>
<event>
 8    1  0.5829710E-012  0.9118800E+02  0.7816164E-02  0.1184000E+00
        -11   -1    0    0    0    0  0.00000000000E+00  0.00000000000E+00  0.45593999997E+02  0.45594000000E+02  0.51100000000E-03 0. -1.
         11   -1    0    0    0    0 -0.00000000000E+00 -0.00000000000E+00 -0.45593999997E+02  0.45594000000E+02  0.51100000000E-03 0.  1.
         23    2    1    2    0    0 -0.35527136788E-14  0.00000000000E+00  0.00000000000E+00  0.91188000000E+02  0.91188000000E+02 0.  0.
    9900012    2    3    3    0    0 -0.26936907149E+02 -0.19234975183E+02  0.23613221208E+02  0.50528862615E+02  0.30000008405E+02 0.  0.
        -12    1    3    3    0    0  0.26936907149E+02  0.19234975183E+02 -0.23613221208E+02  0.40659137385E+02  0.00000000000E+00 0.  1.
         11    1    4    4    0    0 -0.11406857048E+02 -0.79234539192E+01 -0.71683509690E+00  0.13907241370E+02  0.51100000000E-03 0. -1.
        -11    1    4    4    0    0 -0.11021529251E+02  0.17664291833E+01  0.36545734046E+01  0.11745223971E+02  0.51100000000E-03 0.  1.
        -12    1    4    4    0    0 -0.45085208500E+01 -0.13077950447E+02  0.20675482901E+02  0.24876397274E+02  0.00000000000E+00 0.  1.
</event>
<event>
 8    1  0.5829710E-012  0.9118800E+02  0.7816164E-02  0.1184000E+00
        -11   -1    0    0    0    0  0.00000000000E+00  0.00000000000E+00  0.45593999997E+02  0.45594000000E+02  0.51100000000E-03 0. -1.
         11   -1    0    0    0    0 -0.00000000000E+00 -0.00000000000E+00 -0.45593999997E+02  0.45594000000E+02  0.51100000000E-03 0.  1.
         23    2    1    2    0    0  0.00000000000E+00 -0.35527136788E-14 -0.71054273576E-14  0.91188000000E+02  0.91188000000E+02 0.  0.
    9900012    2    3    3    0    0  0.94972261294E+01  0.22215963588E+02 -0.32701969269E+02  0.50528866508E+02  0.30000020237E+02 0.  0.
         12    1    3    3    0    0 -0.94972261294E+01 -0.22215963588E+02  0.32701969269E+02  0.40659133492E+02  0.00000000000E+00 0. -1.
         11    1    4    4    0    0  0.25570901769E+01  0.18646933384E+02 -0.16548944677E+02  0.25062210696E+02  0.51100000000E-03 0. -1.
        -11    1    4    4    0    0 -0.46072232340E+01 -0.36620696139E+01 -0.33580388175E+01  0.67759637503E+01  0.51100000000E-03 0.  1.
         12    1    4    4    0    0  0.11547359186E+02  0.72310998174E+01 -0.12794985774E+02  0.18690692061E+02  0.00000000000E+00 0. -1.
</event>
<event>
 8    1  0.5829710E-012  0.9118800E+02  0.7816164E-02  0.1184000E+00
        -11   -1    0    0    0    0  0.00000000000E+00  0.00000000000E+00  0.45593999997E+02  0.45594000000E+02  0.51100000000E-03 0. -1.
         11   -1    0    0    0    0 -0.00000000000E+00 -0.00000000000E+00 -0.45593999997E+02  0.45594000000E+02  0.51100000000E-03 0.  1.
         23    2    1    2    0    0 -0.35527136788E-14  0.00000000000E+00  0.35527136788E-14  0.91188000000E+02  0.91188000000E+02 0.  0.
    9900012    2    3    3    0    0  0.24317545766E+02 -0.76739233456E+01 -0.31669126567E+02  0.50528859464E+02  0.29999998828E+02 0.  0.
         12    1    3    3    0    0 -0.24317545766E+02  0.76739233456E+01  0.31669126567E+02  0.40659140536E+02  0.00000000000E+00 0. -1.
         11    1    4    4    0    0  0.78646651958E+01  0.43672765235E+01 -0.97011176507E+01  0.13230183174E+02  0.51100000000E-03 0. -1.
        -11    1    4    4    0    0  0.19416973881E+02 -0.18252653425E+01 -0.13957428139E+02  0.23982499219E+02  0.51100000000E-03 0.  1.
         12    1    4    4    0    0 -0.29640933111E+01 -0.10215934527E+02 -0.80105807773E+01  0.13316177072E+02  0.00000000000E+00 0. -1.
</event>
<event>
 8    1  0.7403613E-012  0.9118800E+02  0.7816164E-02  0.1184000E+00
        -11   -1    0    0    0    0  0.00000000000E+00  0.00000000000E+00  0.45593999997E+02  0.45594000000E+02  0.51100000000E-03 0.  1.
         11   -1    0    0    0    0 -0.00000000000E+00 -0.00000000000E+00 -0.45593999997E+02  0.45594000000E+02  0.51100000000E-03 0. -1.
         23    2    1    2    0    0  0.00000000000E+00  0.88817841970E-15  0.00000000000E+00  0.91188000000E+02  0.91188000000E+02 0.  0.
    9900012    2    3    3    0    0  0.23820856317E+02 -0.59025994791E+01 -0.32417463838E+02  0.50528857880E+02  0.29999994011E+02 0.  0.
         12    1    3    3    0    0 -0.23820856317E+02  0.59025994791E+01  0.32417463838E+02  0.40659142120E+02  0.00000000000E+00 0. -1.
         11    1    4    4    0    0  0.78481150598E+01 -0.25629561145E+01 -0.20998896442E+02  0.22563583627E+02  0.51100000000E-03 0. -1.
        -11    1    4    4    0    0  0.14326276257E+02 -0.46891439820E+01 -0.16564295500E+02  0.22396565548E+02  0.51100000000E-03 0.  1.
         12    1    4    4    0    0  0.16464650006E+01  0.13495006175E+01  0.51457281046E+01  0.55687087050E+01  0.00000000000E+00 0. -1.
</event>
<event>
 8    1  0.5829710E-012  0.9118800E+02  0.7816164E-02  0.1184000E+00
        -11   -1    0    0    0    0  0.00000000000E+00  0.00000000000E+00  0.45593999997E+02  0.45594000000E+02  0.51100000000E-03 0. -1.
         11   -1    0    0    0    0 -0.00000000000E+00 -0.00000000000E+00 -0.45593999997E+02  0.45594000000E+02  0.51100000000E-03 0.  1.
         23    2    1    2    0    0  0.00000000000E+00  0.00000000000E+00  0.17763568394E-14  0.91188000000E+02  0.91188000000E+02 0.  0.
    9900012    2    3    3    0    0 -0.27161858941E+02  0.25971779959E+02 -0.15519860719E+02  0.50528855738E+02  0.29999987501E+02 0.  0.
         12    1    3    3    0    0  0.27161858941E+02 -0.25971779959E+02  0.15519860719E+02  0.40659144262E+02  0.00000000000E+00 0. -1.
         11    1    4    4    0    0 -0.63528355741E+01  0.43412001537E+00 -0.98980432492E+01  0.11769377233E+02  0.51100000000E-03 0. -1.
        -11    1    4    4    0    0 -0.20694940350E+01  0.17969409555E+02 -0.16549133162E+01  0.18163733748E+02  0.51100000000E-03 0.  1.
         12    1    4    4    0    0 -0.18739529332E+02  0.75682503884E+01 -0.39669041537E+01  0.20595744757E+02  0.00000000000E+00 0. -1.
</event>
<event>
 8    1  0.5829710E-012  0.9118800E+02  0.7816164E-02  0.1184000E+00
        -11   -1    0    0    0    0  0.00000000000E+00  0.00000000000E+00  0.45593999997E+02  0.45594000000E+02  0.51100000000E-03 0. -1.
         11   -1    0    0    0    0 -0.00000000000E+00 -0.00000000000E+00 -0.45593999997E+02  0.45594000000E+02  0.51100000000E-03 0.  1.
         23    2    1    2    0    0  0.00000000000E+00  0.00000000000E+00  0.00000000000E+00  0.91188000000E+02  0.91188000000E+02 0.  0.
    9900012    2    3    3    0    0 -0.57667354974E+01 -0.36584192274E+02 -0.16778186957E+02  0.50528856869E+02  0.29999990938E+02 0.  0.
         12    1    3    3    0    0  0.57667354974E+01  0.36584192274E+02  0.16778186957E+02  0.40659143131E+02  0.00000000000E+00 0. -1.
         11    1    4    4    0    0 -0.70690678166E+01 -0.18660762672E+02 -0.94726350590E+01  0.22089060607E+02  0.51100000000E-03 0. -1.
        -11    1    4    4    0    0  0.37283533094E+01 -0.71549922188E+01 -0.13540730644E+02  0.15762167322E+02  0.51100000000E-03 0.  1.
         12    1    4    4    0    0 -0.24260209902E+01 -0.10768437383E+02  0.62351787465E+01  0.12677628939E+02  0.00000000000E+00 0. -1.
</event>
<event>
 8    1  0.5829710E-012  0.9118800E+02  0.7816164E-02  0.1184000E+00
        -11   -1    0    0    0    0  0.00000000000E+00  0.00000000000E+00  0.45593999997E+02  0.45594000000E+02  0.51100000000E-03 0. -1.
         11   -1    0    0    0    0 -0.00000000000E+00 -0.00000000000E+00 -0.45593999997E+02  0.45594000000E+02  0.51100000000E-03 0.  1.
         23    2    1    2    0    0 -0.17763568394E-14 -0.35527136788E-14  0.71054273576E-14  0.91188000000E+02  0.91188000000E+02 0.  0.
    9900012    2    3    3    0    0  0.53935776293E+01 -0.20568522694E+02 -0.34655615587E+02  0.50528849773E+02  0.29999969369E+02 0.  0.
         12    1    3    3    0    0 -0.53935776293E+01  0.20568522694E+02  0.34655615587E+02  0.40659150227E+02  0.00000000000E+00 0. -1.
         11    1    4    4    0    0  0.47681941624E+01 -0.19357429296E+02 -0.99160011331E+01  0.22265956599E+02  0.51100000000E-03 0. -1.
        -11    1    4    4    0    0  0.57506148287E+01 -0.45818405715E+01 -0.11191970353E+02  0.13391155087E+02  0.51100000000E-03 0.  1.
         12    1    4    4    0    0 -0.51252313618E+01  0.33707471735E+01 -0.13547644101E+02  0.14871738087E+02  0.00000000000E+00 0. -1.
</event>
<event>
 8    1  0.5829710E-012  0.9118800E+02  0.7816164E-02  0.1184000E+00
        -11   -1    0    0    0    0  0.00000000000E+00  0.00000000000E+00  0.45593999997E+02  0.45594000000E+02  0.51100000000E-03 0. -1.
         11   -1    0    0    0    0 -0.00000000000E+00 -0.00000000000E+00 -0.45593999997E+02  0.45594000000E+02  0.51100000000E-03 0.  1.
         23    2    1    2    0    0  0.00000000000E+00  0.00000000000E+00  0.00000000000E+00  0.91188000000E+02  0.91188000000E+02 0.  0.
    9900012    2    3    3    0    0  0.18718241402E+02  0.19684206572E+02  0.30254352524E+02  0.50528851015E+02  0.29999973145E+02 0.  0.
        -12    1    3    3    0    0 -0.18718241402E+02 -0.19684206572E+02 -0.30254352524E+02  0.40659148985E+02  0.00000000000E+00 0.  1.
         11    1    4    4    0    0 -0.41103169420E+01  0.55814933269E+01  0.76776072517E+01  0.10343762686E+02  0.51100000000E-03 0. -1.
        -11    1    4    4    0    0  0.42327246993E+01 -0.48716889382E+01  0.26567874258E+01  0.69790995965E+01  0.51100000000E-03 0.  1.
         12    1    4    4    0    0  0.18595833644E+02  0.18974402183E+02  0.19919957846E+02  0.33205988733E+02  0.00000000000E+00 0. -1.
</event>
<event>
 8    1  0.5829710E-012  0.9118800E+02  0.7816164E-02  0.1184000E+00
        -11   -1    0    0    0    0  0.00000000000E+00  0.00000000000E+00  0.45593999997E+02  0.45594000000E+02  0.51100000000E-03 0. -1.
         11   -1    0    0    0    0 -0.00000000000E+00 -0.00000000000E+00 -0.45593999997E+02  0.45594000000E+02  0.51100000000E-03 0.  1.
         23    2    1    2    0    0  0.35527136788E-14 -0.35527136788E-14 -0.35527136788E-14  0.91188000000E+02  0.91188000000E+02 0.  0.
    9900012    2    3    3    0    0 -0.26521410853E+02 -0.21811477812E+02 -0.21772256963E+02  0.50528966917E+02  0.30000325439E+02 0.  0.
         12    1    3    3    0    0  0.26521410853E+02  0.21811477812E+02  0.21772256963E+02  0.40659033083E+02  0.00000000000E+00 0. -1.
         11    1    4    4    0    0  0.13593056878E+01  0.26850739437E+00 -0.14107916697E+01  0.19774077906E+01  0.51100000000E-03 0. -1.
        -11    1    4    4    0    0 -0.70091612436E+00 -0.38124306989E+01 -0.14844034464E+02  0.15341814452E+02  0.51100000000E-03 0.  1.
        -12    1    4    4    0    0 -0.27179800417E+02 -0.18267554507E+02 -0.55174308292E+01  0.33209744674E+02  0.00000000000E+00 0.  1.
</event>
<event>
 8    1  0.5829710E-012  0.9118800E+02  0.7816164E-02  0.1184000E+00
        -11   -1    0    0    0    0  0.00000000000E+00  0.00000000000E+00  0.45593999997E+02  0.45594000000E+02  0.51100000000E-03 0. -1.
         11   -1    0    0    0    0 -0.00000000000E+00 -0.00000000000E+00 -0.45593999997E+02  0.45594000000E+02  0.51100000000E-03 0.  1.
         23    2    1    2    0    0  0.00000000000E+00  0.17763568394E-14  0.00000000000E+00  0.91188000000E+02  0.91188000000E+02 0.  0.
    9900012    2    3    3    0    0 -0.85225667695E+01  0.11692073589E+02  0.37997703526E+02  0.50528877993E+02  0.30000055146E+02 0.  0.
        -12    1    3    3    0    0  0.85225667695E+01 -0.11692073589E+02 -0.37997703526E+02  0.40659122007E+02  0.00000000000E+00 0.  1.
         11    1    4    4    0    0 -0.52343158484E+01  0.59250646767E+01  0.30525696755E+02  0.31532881513E+02  0.51100000000E-03 0. -1.
        -11    1    4    4    0    0 -0.29276478240E+01  0.11319285970E+02  0.64030021801E+01  0.13330258581E+02  0.51100000000E-03 0.  1.
        -12    1    4    4    0    0 -0.36060309706E+00 -0.55522770583E+01  0.10690045909E+01  0.56657378991E+01  0.00000000000E+00 0.  1.
</event>
<event>
 8    1  0.5829710E-012  0.9118800E+02  0.7816164E-02  0.1184000E+00
        -11   -1    0    0    0    0  0.00000000000E+00  0.00000000000E+00  0.45593999997E+02  0.45594000000E+02  0.51100000000E-03 0. -1.
         11   -1    0    0    0    0 -0.00000000000E+00 -0.00000000000E+00 -0.45593999997E+02  0.45594000000E+02  0.51100000000E-03 0.  1.
         23    2    1    2    0    0  0.00000000000E+00 -0.71054273576E-14  0.35527136788E-14  0.91188000000E+02  0.91188000000E+02 0.  0.
    9900012    2    3    3    0    0 -0.52598441978E+01  0.27748115172E+02 -0.29249658709E+02  0.50528851076E+02  0.29999973331E+02 0.  0.
         12    1    3    3    0    0  0.52598441978E+01 -0.27748115172E+02  0.29249658709E+02  0.40659148924E+02  0.00000000000E+00 0. -1.
         11    1    4    4    0    0  0.45918633940E+01  0.15705599855E+02 -0.20464030922E+02  0.26201672429E+02  0.51100000000E-03 0. -1.
        -11    1    4    4    0    0  0.20534674724E+01 -0.36245130714E+00 -0.66887997715E+01  0.70062930465E+01  0.51100000000E-03 0.  1.
         12    1    4    4    0    0 -0.11905175064E+02  0.12404966624E+02 -0.20968280159E+01  0.17320885601E+02  0.00000000000E+00 0. -1.
</event>
<event>
 8    1  0.5829710E-012  0.9118800E+02  0.7816164E-02  0.1184000E+00
        -11   -1    0    0    0    0  0.00000000000E+00  0.00000000000E+00  0.45593999997E+02  0.45594000000E+02  0.51100000000E-03 0. -1.
         11   -1    0    0    0    0 -0.00000000000E+00 -0.00000000000E+00 -0.45593999997E+02  0.45594000000E+02  0.51100000000E-03 0.  1.
         23    2    1    2    0    0  0.00000000000E+00  0.00000000000E+00  0.00000000000E+00  0.91188000000E+02  0.91188000000E+02 0.  0.
    9900012    2    3    3    0    0 -0.42043827453E+01 -0.15489316816E+02  0.37357321476E+02  0.50528865263E+02  0.30000016454E+02 0.  0.
        -12    1    3    3    0    0  0.42043827453E+01  0.15489316816E+02 -0.37357321476E+02  0.40659134737E+02  0.00000000000E+00 0.  1.
         11    1    4    4    0    0 -0.62194740669E+01  0.69594060489E+00  0.16149429614E+02  0.17319649768E+02  0.51100000000E-03 0. -1.
        -11    1    4    4    0    0  0.92095426293E+01 -0.34768681406E+01  0.13465989304E+02  0.16680442312E+02  0.51100000000E-03 0.  1.
        -12    1    4    4    0    0 -0.71944513077E+01 -0.12708389280E+02  0.77419025575E+01  0.16528773183E+02  0.00000000000E+00 0.  1.
</event>
<event>
 8    1  0.5829710E-012  0.9118800E+02  0.7816164E-02  0.1184000E+00
        -11   -1    0    0    0    0  0.00000000000E+00  0.00000000000E+00  0.45593999997E+02  0.45594000000E+02  0.51100000000E-03 0. -1.
         11   -1    0    0    0    0 -0.00000000000E+00 -0.00000000000E+00 -0.45593999997E+02  0.45594000000E+02  0.51100000000E-03 0.  1.
         23    2    1    2    0    0  0.00000000000E+00 -0.35527136788E-14  0.00000000000E+00  0.91188000000E+02  0.91188000000E+02 0.  0.
    9900012    2    3    3    0    0  0.49149087045E+01 -0.30135894952E+02  0.26848411522E+02  0.50528859657E+02  0.29999999415E+02 0.  0.
        -12    1    3    3    0    0 -0.49149087045E+01  0.30135894952E+02 -0.26848411522E+02  0.40659140343E+02  0.00000000000E+00 0.  1.
         11    1    4    4    0    0  0.11635408848E+02 -0.10472752020E+02  0.16783261987E+02  0.22950798616E+02  0.51100000000E-03 0. -1.
        -11    1    4    4    0    0 -0.63676651465E+01 -0.70401197221E+01  0.11451331495E+02  0.14874254213E+02  0.51100000000E-03 0.  1.
        -12    1    4    4    0    0 -0.35283499736E+00 -0.12623023210E+02 -0.13861819602E+01  0.12703806828E+02  0.00000000000E+00 0.  1.
</event>
<event>
 8    1  0.5829710E-012  0.9118800E+02  0.7816164E-02  0.1184000E+00
        -11   -1    0    0    0    0  0.00000000000E+00  0.00000000000E+00  0.45593999997E+02  0.45594000000E+02  0.51100000000E-03 0. -1.
         11   -1    0    0    0    0 -0.00000000000E+00 -0.00000000000E+00 -0.45593999997E+02  0.45594000000E+02  0.51100000000E-03 0.  1.
         23    2    1    2    0    0  0.00000000000E+00  0.00000000000E+00  0.35527136788E-14  0.91188000000E+02  0.91188000000E+02 0.  0.
    9900012    2    3    3    0    0  0.23620947044E+02  0.84576201437E+01  0.31995080816E+02  0.50528859894E+02  0.30000000134E+02 0.  0.
        -12    1    3    3    0    0 -0.23620947044E+02 -0.84576201437E+01 -0.31995080816E+02  0.40659140106E+02  0.00000000000E+00 0.  1.
         11    1    4    4    0    0 -0.41080380486E+01 -0.45762426859E+01  0.51306024584E+01  0.80088111213E+01  0.51100000000E-03 0.  1.
        -11    1    4    4    0    0  0.27615452864E+01  0.61743234567E+00  0.89262467169E+01  0.93640395013E+01  0.51100000000E-03 0. -1.
         12    1    4    4    0    0  0.24967439806E+02  0.12416430484E+02  0.17938231640E+02  0.33156009272E+02  0.00000000000E+00 0. -1.
</event>
<event>
 8    1  0.5829710E-012  0.9118800E+02  0.7816164E-02  0.1184000E+00
        -11   -1    0    0    0    0  0.00000000000E+00  0.00000000000E+00  0.45593999997E+02  0.45594000000E+02  0.51100000000E-03 0. -1.
         11   -1    0    0    0    0 -0.00000000000E+00 -0.00000000000E+00 -0.45593999997E+02  0.45594000000E+02  0.51100000000E-03 0.  1.
         23    2    1    2    0    0 -0.17763568394E-14  0.00000000000E+00  0.00000000000E+00  0.91188000000E+02  0.91188000000E+02 0.  0.
    9900012    2    3    3    0    0  0.72916168593E+01  0.19995659545E+02 -0.34643551491E+02  0.50528809932E+02  0.29999848270E+02 0.  0.
         12    1    3    3    0    0 -0.72916168593E+01 -0.19995659545E+02  0.34643551491E+02  0.40659190068E+02  0.00000000000E+00 0. -1.
         11    1    4    4    0    0 -0.20915696967E+01  0.24768515094E+01  0.30681722944E+01  0.44635343267E+01  0.51100000000E-03 0. -1.
        -11    1    4    4    0    0  0.75560739718E+01 -0.98549580562E+00 -0.82879294969E+01  0.11258562584E+02  0.51100000000E-03 0.  1.
        -12    1    4    4    0    0  0.18271125842E+01  0.18504303841E+02 -0.29423794289E+02  0.34806713022E+02  0.00000000000E+00 0.  1.
</event>
<event>
 8    1  0.5829710E-012  0.9118800E+02  0.7816164E-02  0.1184000E+00
        -11   -1    0    0    0    0  0.00000000000E+00  0.00000000000E+00  0.45593999997E+02  0.45594000000E+02  0.51100000000E-03 0. -1.
         11   -1    0    0    0    0 -0.00000000000E+00 -0.00000000000E+00 -0.45593999997E+02  0.45594000000E+02  0.51100000000E-03 0.  1.
         23    2    1    2    0    0  0.00000000000E+00 -0.35527136788E-14  0.00000000000E+00  0.91188000000E+02  0.91188000000E+02 0.  0.
    9900012    2    3    3    0    0 -0.19696231655E+02  0.18109758683E+02  0.30614715875E+02  0.50528859218E+02  0.29999998080E+02 0.  0.
        -12    1    3    3    0    0  0.19696231655E+02 -0.18109758683E+02 -0.30614715875E+02  0.40659140782E+02  0.00000000000E+00 0.  1.
         11    1    4    4    0    0 -0.55802091938E+01 -0.32438072450E+01  0.78659267966E+00  0.65022879353E+01  0.51100000000E-03 0.  1.
        -11    1    4    4    0    0 -0.94311565658E+01  0.21061034768E+01  0.20006315734E+01  0.98683794504E+01  0.51100000000E-03 0. -1.
        -12    1    4    4    0    0 -0.46848658950E+01  0.19247462452E+02  0.27827491622E+02  0.34158191833E+02  0.00000000000E+00 0.  1.
</event>
<event>
 8    1  0.5829710E-012  0.9118800E+02  0.7816164E-02  0.1184000E+00
        -11   -1    0    0    0    0  0.00000000000E+00  0.00000000000E+00  0.45593999997E+02  0.45594000000E+02  0.51100000000E-03 0. -1.
         11   -1    0    0    0    0 -0.00000000000E+00 -0.00000000000E+00 -0.45593999997E+02  0.45594000000E+02  0.51100000000E-03 0.  1.
         23    2    1    2    0    0  0.88817841970E-15  0.00000000000E+00  0.00000000000E+00  0.91188000000E+02  0.91188000000E+02 0.  0.
    9900012    2    3    3    0    0 -0.75963539314E+01  0.28943707921E+02  0.27526800560E+02  0.50528836576E+02  0.29999929256E+02 0.  0.
        -12    1    3    3    0    0  0.75963539314E+01 -0.28943707921E+02 -0.27526800560E+02  0.40659163424E+02  0.00000000000E+00 0.  1.
         11    1    4    4    0    0 -0.33511613537E+01  0.45025666321E+01  0.15759110807E+02  0.16728806365E+02  0.51100000000E-03 0. -1.
        -11    1    4    4    0    0 -0.16521227156E+01 -0.16534003692E+01  0.66944038368E+01  0.70907182457E+01  0.51100000000E-03 0.  1.
        -12    1    4    4    0    0 -0.25930698621E+01  0.26094541658E+02  0.50732859159E+01  0.26709311965E+02  0.00000000000E+00 0.  1.
</event>
<event>
 8    1  0.5829710E-012  0.9118800E+02  0.7816164E-02  0.1184000E+00
        -11   -1    0    0    0    0  0.00000000000E+00  0.00000000000E+00  0.45593999997E+02  0.45594000000E+02  0.51100000000E-03 0.  1.
         11   -1    0    0    0    0 -0.00000000000E+00 -0.00000000000E+00 -0.45593999997E+02  0.45594000000E+02  0.51100000000E-03 0. -1.
         23    2    1    2    0    0  0.00000000000E+00  0.00000000000E+00  0.00000000000E+00  0.91188000000E+02  0.91188000000E+02 0.  0.
    9900012    2    3    3    0    0  0.36358306197E+02 -0.14065910724E+02 -0.11549426976E+02  0.50528861575E+02  0.30000005243E+02 0.  0.
         12    1    3    3    0    0 -0.36358306197E+02  0.14065910724E+02  0.11549426976E+02  0.40659138425E+02  0.00000000000E+00 0. -1.
         11    1    4    4    0    0  0.24504679926E+02 -0.28558422765E+01 -0.14364496693E+01  0.24712315984E+02  0.51100000000E-03 0. -1.
        -11    1    4    4    0    0  0.14043751277E+02 -0.19887383488E+01 -0.71647374132E+01  0.15890736062E+02  0.51100000000E-03 0.  1.
         12    1    4    4    0    0 -0.21901250058E+01 -0.92213300986E+01 -0.29482398938E+01  0.99258095287E+01  0.00000000000E+00 0. -1.
</event>
<event>
 8    1  0.8440675E-012  0.9118800E+02  0.7816164E-02  0.1184000E+00
        -11   -1    0    0    0    0  0.00000000000E+00  0.00000000000E+00  0.45593999997E+02  0.45594000000E+02  0.51100000000E-03 0. -1.
         11   -1    0    0    0    0 -0.00000000000E+00 -0.00000000000E+00 -0.45593999997E+02  0.45594000000E+02  0.51100000000E-03 0.  1.
         23    2    1    2    0    0  0.00000000000E+00  0.00000000000E+00  0.00000000000E+00  0.91188000000E+02  0.91188000000E+02 0.  0.
    9900012    2    3    3    0    0  0.86262559727E+01 -0.24688399984E+02 -0.31132582520E+02  0.50528842603E+02  0.29999947576E+02 0.  0.
         12    1    3    3    0    0 -0.86262559727E+01  0.24688399984E+02  0.31132582520E+02  0.40659157397E+02  0.00000000000E+00 0. -1.
         11    1    4    4    0    0  0.31977894068E+01 -0.95484861491E+01 -0.17735906536E+02  0.20395142210E+02  0.51100000000E-03 0. -1.
        -11    1    4    4    0    0  0.11902796152E+02 -0.67506661108E+01 -0.13925498709E+02  0.19523513099E+02  0.51100000000E-03 0.  1.
         12    1    4    4    0    0 -0.64743295858E+01 -0.83892477236E+01  0.52882272483E+00  0.10610187295E+02  0.00000000000E+00 0. -1.
</event>
<event>
 8    1  0.5829710E-012  0.9118800E+02  0.7816164E-02  0.1184000E+00
        -11   -1    0    0    0    0  0.00000000000E+00  0.00000000000E+00  0.45593999997E+02  0.45594000000E+02  0.51100000000E-03 0. -1.
         11   -1    0    0    0    0 -0.00000000000E+00 -0.00000000000E+00 -0.45593999997E+02  0.45594000000E+02  0.51100000000E-03 0.  1.
         23    2    1    2    0    0  0.00000000000E+00  0.00000000000E+00  0.00000000000E+00  0.91188000000E+02  0.91188000000E+02 0.  0.
    9900012    2    3    3    0    0  0.11877454779E+02 -0.37120900958E+02  0.11581581325E+02  0.50528828268E+02  0.29999904004E+02 0.  0.
        -12    1    3    3    0    0 -0.11877454779E+02  0.37120900958E+02 -0.11581581325E+02  0.40659171732E+02  0.00000000000E+00 0.  1.
         11    1    4    4    0    0  0.28150842409E+01 -0.15583876399E+02  0.15207766766E+02  0.21955820940E+02  0.51100000000E-03 0. -1.
        -11    1    4    4    0    0  0.68864118142E+01 -0.20106651176E+00 -0.11342250059E+01  0.69820886590E+01  0.51100000000E-03 0.  1.
         12    1    4    4    0    0  0.21759587238E+01 -0.21335958047E+02 -0.24919604352E+01  0.21590918669E+02  0.00000000000E+00 0. -1.
</event>
<event>
 8    1  0.5829710E-012  0.9118800E+02  0.7816164E-02  0.1184000E+00
        -11   -1    0    0    0    0  0.00000000000E+00  0.00000000000E+00  0.45593999997E+02  0.45594000000E+02  0.51100000000E-03 0. -1.
         11   -1    0    0    0    0 -0.00000000000E+00 -0.00000000000E+00 -0.45593999997E+02  0.45594000000E+02  0.51100000000E-03 0.  1.
         23    2    1    2    0    0  0.00000000000E+00 -0.17763568394E-14  0.00000000000E+00  0.91188000000E+02  0.91188000000E+02 0.  0.
    9900012    2    3    3    0    0  0.99410518424E+01  0.11187440992E+02 -0.37804521403E+02  0.50528865895E+02  0.30000018373E+02 0.  0.
         12    1    3    3    0    0 -0.99410518424E+01 -0.11187440992E+02  0.37804521403E+02  0.40659134105E+02  0.00000000000E+00 0. -1.
         11    1    4    4    0    0  0.82143177962E+01  0.15081167863E+01  0.54486921307E+00  0.83693677072E+01  0.51100000000E-03 0. -1.
        -11    1    4    4    0    0  0.62876472590E+00  0.12052615828E+02 -0.18180610741E+02  0.21821904145E+02  0.51100000000E-03 0.  1.
        -12    1    4    4    0    0  0.10979693203E+01 -0.23732916221E+01 -0.20168779876E+02  0.20337594042E+02  0.00000000000E+00 0.  1.
</event>
<event>
 8    1  0.5829710E-012  0.9118800E+02  0.7816164E-02  0.1184000E+00
        -11   -1    0    0    0    0  0.00000000000E+00  0.00000000000E+00  0.45593999997E+02  0.45594000000E+02  0.51100000000E-03 0. -1.
         11   -1    0    0    0    0 -0.00000000000E+00 -0.00000000000E+00 -0.45593999997E+02  0.45594000000E+02  0.51100000000E-03 0.  1.
         23    2    1    2    0    0 -0.13322676296E-14  0.00000000000E+00  0.00000000000E+00  0.91188000000E+02  0.91188000000E+02 0.  0.
    9900012    2    3    3    0    0 -0.21107688730E+01 -0.75317783475E+01 -0.39899657683E+02  0.50528859410E+02  0.29999998662E+02 0.  0.
         12    1    3    3    0    0  0.21107688730E+01  0.75317783475E+01  0.39899657683E+02  0.40659140590E+02  0.00000000000E+00 0. -1.
         11    1    4    4    0    0 -0.10528997317E+01  0.22059437671E+01 -0.10010782930E+02  0.10304880440E+02  0.51100000000E-03 0. -1.
        -11    1    4    4    0    0 -0.83083216210E+01 -0.17565365664E+01 -0.28022389971E+02  0.29280846450E+02  0.51100000000E-03 0.  1.
        -12    1    4    4    0    0  0.72504524796E+01 -0.79811855483E+01 -0.18664847825E+01  0.10943132520E+02  0.00000000000E+00 0.  1.
</event>
<event>
 8    1  0.5829710E-012  0.9118800E+02  0.7816164E-02  0.1184000E+00
        -11   -1    0    0    0    0  0.00000000000E+00  0.00000000000E+00  0.45593999997E+02  0.45594000000E+02  0.51100000000E-03 0. -1.
         11   -1    0    0    0    0 -0.00000000000E+00 -0.00000000000E+00 -0.45593999997E+02  0.45594000000E+02  0.51100000000E-03 0.  1.
         23    2    1    2    0    0 -0.17763568394E-14  0.00000000000E+00  0.71054273576E-14  0.91188000000E+02  0.91188000000E+02 0.  0.
    9900012    2    3    3    0    0  0.10138042907E+02 -0.21070006222E+02 -0.33263199461E+02  0.50528861857E+02  0.30000006100E+02 0.  0.
         12    1    3    3    0    0 -0.10138042907E+02  0.21070006222E+02  0.33263199461E+02  0.40659138143E+02  0.00000000000E+00 0. -1.
         11    1    4    4    0    0  0.14416173749E+02 -0.96271269355E+01 -0.18345013272E+02  0.25239793002E+02  0.51100000000E-03 0. -1.
        -11    1    4    4    0    0  0.34249420623E+01  0.22447434948E+01 -0.58876077222E+01  0.71716822601E+01  0.51100000000E-03 0.  1.
        -12    1    4    4    0    0 -0.77030729044E+01 -0.13687622781E+02 -0.90305784671E+01  0.18117386595E+02  0.00000000000E+00 0.  1.
</event>
<event>
 8    1  0.5829710E-012  0.9118800E+02  0.7816164E-02  0.1184000E+00
        -11   -1    0    0    0    0  0.00000000000E+00  0.00000000000E+00  0.45593999997E+02  0.45594000000E+02  0.51100000000E-03 0.  1.
         11   -1    0    0    0    0 -0.00000000000E+00 -0.00000000000E+00 -0.45593999997E+02  0.45594000000E+02  0.51100000000E-03 0. -1.
         23    2    1    2    0    0  0.00000000000E+00  0.35527136788E-14 -0.35527136788E-14  0.91188000000E+02  0.91188000000E+02 0.  0.
    9900012    2    3    3    0    0 -0.69710028686E+01 -0.27558755329E+02  0.29070349464E+02  0.50528867025E+02  0.30000021810E+02 0.  0.
        -12    1    3    3    0    0  0.69710028686E+01  0.27558755329E+02 -0.29070349464E+02  0.40659132975E+02  0.00000000000E+00 0.  1.
         11    1    4    4    0    0 -0.33141205035E+01 -0.11520191868E+02 -0.15789797883E+01  0.12090963271E+02  0.51100000000E-03 0. -1.
        -11    1    4    4    0    0 -0.78224501230E+01 -0.13650744231E+01  0.10209718215E+02  0.12934160212E+02  0.51100000000E-03 0.  1.
        -12    1    4    4    0    0  0.41655677579E+01 -0.14673489038E+02  0.20439611037E+02  0.25503743542E+02  0.00000000000E+00 0.  1.
</event>
<event>
 8    1  0.5829710E-012  0.9118800E+02  0.7816164E-02  0.1184000E+00
        -11   -1    0    0    0    0  0.00000000000E+00  0.00000000000E+00  0.45593999997E+02  0.45594000000E+02  0.51100000000E-03 0. -1.
         11   -1    0    0    0    0 -0.00000000000E+00 -0.00000000000E+00 -0.45593999997E+02  0.45594000000E+02  0.51100000000E-03 0.  1.
         23    2    1    2    0    0  0.00000000000E+00  0.00000000000E+00  0.00000000000E+00  0.91188000000E+02  0.91188000000E+02 0.  0.
    9900012    2    3    3    0    0  0.23144471603E+02  0.27750024346E+02  0.18639616011E+02  0.50528859551E+02  0.29999999092E+02 0.  0.
        -12    1    3    3    0    0 -0.23144471603E+02 -0.27750024346E+02 -0.18639616011E+02  0.40659140449E+02  0.00000000000E+00 0.  1.
         11    1    4    4    0    0  0.43206128902E+01  0.47227213349E+01 -0.12275011209E+01  0.65175571971E+01  0.51100000000E-03 0. -1.
        -11    1    4    4    0    0 -0.18131922397E+01  0.36814957846E+00 -0.44943159471E+01  0.48602547570E+01  0.51100000000E-03 0.  1.
         12    1    4    4    0    0  0.20637050953E+02  0.22659153433E+02  0.24361433079E+02  0.39151047597E+02  0.00000000000E+00 0. -1.
</event>
<event>
 8    1  0.5829710E-012  0.9118800E+02  0.7816164E-02  0.1184000E+00
        -11   -1    0    0    0    0  0.00000000000E+00  0.00000000000E+00  0.45593999997E+02  0.45594000000E+02  0.51100000000E-03 0. -1.
         11   -1    0    0    0    0 -0.00000000000E+00 -0.00000000000E+00 -0.45593999997E+02  0.45594000000E+02  0.51100000000E-03 0.  1.
         23    2    1    2    0    0  0.17763568394E-14 -0.17763568394E-14  0.71054273576E-14  0.91188000000E+02  0.91188000000E+02 0.  0.
    9900012    2    3    3    0    0  0.40301794945E+01 -0.87722853404E+01 -0.39496388652E+02  0.50528929014E+02  0.30000210231E+02 0.  0.
         12    1    3    3    0    0 -0.40301794945E+01  0.87722853404E+01  0.39496388652E+02  0.40659070986E+02  0.00000000000E+00 0. -1.
         11    1    4    4    0    0  0.58715195290E+01 -0.28331107505E+01 -0.13225519817E+02  0.14745020610E+02  0.51100000000E-03 0. -1.
        -11    1    4    4    0    0  0.78854824725E+01 -0.70366177241E+01 -0.37267160601E+01  0.11206392625E+02  0.51100000000E-03 0.  1.
         12    1    4    4    0    0 -0.97268225069E+01  0.10974431342E+01 -0.22544152775E+02  0.24577515779E+02  0.00000000000E+00 0. -1.
</event>
<event>
 8    1  0.5829710E-012  0.9118800E+02  0.7816164E-02  0.1184000E+00
        -11   -1    0    0    0    0  0.00000000000E+00  0.00000000000E+00  0.45593999997E+02  0.45594000000E+02  0.51100000000E-03 0. -1.
         11   -1    0    0    0    0 -0.00000000000E+00 -0.00000000000E+00 -0.45593999997E+02  0.45594000000E+02  0.51100000000E-03 0.  1.
         23    2    1    2    0    0  0.00000000000E+00  0.00000000000E+00  0.00000000000E+00  0.91188000000E+02  0.91188000000E+02 0.  0.
    9900012    2    3    3    0    0  0.10021629665E+02  0.33262588338E+02  0.21126603484E+02  0.50528853195E+02  0.29999979773E+02 0.  0.
        -12    1    3    3    0    0 -0.10021629665E+02 -0.33262588338E+02 -0.21126603484E+02  0.40659146805E+02  0.00000000000E+00 0.  1.
         11    1    4    4    0    0  0.36555267243E+01 -0.17989079764E+01  0.82931969736E+01  0.92399167661E+01  0.51100000000E-03 0. -1.
        -11    1    4    4    0    0  0.75102019969E+01  0.58058770260E+01  0.59808816197E+01  0.11219727594E+02  0.51100000000E-03 0.  1.
         12    1    4    4    0    0 -0.11440990559E+01  0.29255619288E+02  0.68525248909E+01  0.30069208835E+02  0.00000000000E+00 0. -1.
</event>
<event>
 8    1  0.5829710E-012  0.9118800E+02  0.7816164E-02  0.1184000E+00
        -11   -1    0    0    0    0  0.00000000000E+00  0.00000000000E+00  0.45593999997E+02  0.45594000000E+02  0.51100000000E-03 0.  1.
         11   -1    0    0    0    0 -0.00000000000E+00 -0.00000000000E+00 -0.45593999997E+02  0.45594000000E+02  0.51100000000E-03 0. -1.
         23    2    1    2    0    0  0.00000000000E+00  0.35527136788E-14  0.00000000000E+00  0.91188000000E+02  0.91188000000E+02 0.  0.
    9900012    2    3    3    0    0 -0.20151891293E+02 -0.18632446585E+02  0.29998315625E+02  0.50528859222E+02  0.29999998091E+02 0.  0.
        -12    1    3    3    0    0  0.20151891293E+02  0.18632446585E+02 -0.29998315625E+02  0.40659140778E+02  0.00000000000E+00 0.  1.
         11    1    4    4    0    0 -0.46191579369E+01 -0.18421331121E+02  0.78356610372E+01  0.20544577009E+02  0.51100000000E-03 0. -1.
        -11    1    4    4    0    0 -0.83355392732E+01  0.51551267148E+00  0.20344667708E+01  0.85956979701E+01  0.51100000000E-03 0.  1.
        -12    1    4    4    0    0 -0.71971940833E+01 -0.72662813569E+00  0.20128187817E+02  0.21388584243E+02  0.00000000000E+00 0.  1.
</event>
<event>
 8    1  0.5829710E-012  0.9118800E+02  0.7816164E-02  0.1184000E+00
        -11   -1    0    0    0    0  0.00000000000E+00  0.00000000000E+00  0.45593999997E+02  0.45594000000E+02  0.51100000000E-03 0. -1.
         11   -1    0    0    0    0 -0.00000000000E+00 -0.00000000000E+00 -0.45593999997E+02  0.45594000000E+02  0.51100000000E-03 0.  1.
         23    2    1    2    0    0  0.00000000000E+00  0.00000000000E+00  0.00000000000E+00  0.91188000000E+02  0.91188000000E+02 0.  0.
    9900012    2    3    3    0    0 -0.25822898980E+01 -0.39947662995E+02 -0.71190940009E+01  0.50528862045E+02  0.30000006672E+02 0.  0.
         12    1    3    3    0    0  0.25822898980E+01  0.39947662995E+02  0.71190940009E+01  0.40659137955E+02  0.00000000000E+00 0. -1.
         11    1    4    4    0    0  0.86021294745E+00 -0.11100388513E+02 -0.78780719460E+01  0.13639010569E+02  0.51100000000E-03 0.  1.
        -11    1    4    4    0    0  0.19342654752E+01 -0.42934620176E+01 -0.88139199349E+01  0.99930167569E+01  0.51100000000E-03 0. -1.
         12    1    4    4    0    0 -0.53767683206E+01 -0.24553812464E+02  0.95728978800E+01  0.26896834719E+02  0.00000000000E+00 0. -1.
</event>
<event>
 8    1  0.5829710E-012  0.9118800E+02  0.7816164E-02  0.1184000E+00
        -11   -1    0    0    0    0  0.00000000000E+00  0.00000000000E+00  0.45593999997E+02  0.45594000000E+02  0.51100000000E-03 0.  1.
         11   -1    0    0    0    0 -0.00000000000E+00 -0.00000000000E+00 -0.45593999997E+02  0.45594000000E+02  0.51100000000E-03 0. -1.
         23    2    1    2    0    0  0.00000000000E+00  0.00000000000E+00  0.00000000000E+00  0.91188000000E+02  0.91188000000E+02 0.  0.
    9900012    2    3    3    0    0 -0.20826641430E+02 -0.23745502388E+02 -0.25603915672E+02  0.50528949659E+02  0.30000272982E+02 0.  0.
         12    1    3    3    0    0  0.20826641430E+02  0.23745502388E+02  0.25603915672E+02  0.40659050341E+02  0.00000000000E+00 0. -1.
         11    1    4    4    0    0 -0.49180674340E+01  0.42795461459E+01  0.15312850464E+01  0.66967706138E+01  0.51100000000E-03 0. -1.
        -11    1    4    4    0    0  0.20297656390E+01 -0.25283788787E+01 -0.23227453970E+01  0.39884576898E+01  0.51100000000E-03 0.  1.
         12    1    4    4    0    0 -0.17938339635E+02 -0.25496669655E+02 -0.24812455322E+02  0.39843721355E+02  0.00000000000E+00 0. -1.
</event>
<event>
 8    1  0.5829710E-012  0.9118800E+02  0.7816164E-02  0.1184000E+00
        -11   -1    0    0    0    0  0.00000000000E+00  0.00000000000E+00  0.45593999997E+02  0.45594000000E+02  0.51100000000E-03 0. -1.
         11   -1    0    0    0    0 -0.00000000000E+00 -0.00000000000E+00 -0.45593999997E+02  0.45594000000E+02  0.51100000000E-03 0.  1.
         23    2    1    2    0    0  0.35527136788E-14  0.00000000000E+00  0.00000000000E+00  0.91188000000E+02  0.91188000000E+02 0.  0.
    9900012    2    3    3    0    0  0.22666587681E+02  0.27639829758E+00 -0.33753739377E+02  0.50528861850E+02  0.30000006081E+02 0.  0.
         12    1    3    3    0    0 -0.22666587681E+02 -0.27639829758E+00  0.33753739377E+02  0.40659138150E+02  0.00000000000E+00 0. -1.
         11    1    4    4    0    0  0.48137119136E+01 -0.10283737496E+01 -0.43805754916E+01  0.65892956266E+01  0.51100000000E-03 0. -1.
        -11    1    4    4    0    0  0.24900633332E+02  0.57009372899E+00 -0.18775197287E+02  0.31190937476E+02  0.51100000000E-03 0.  1.
        -12    1    4    4    0    0 -0.70477575650E+01  0.73467831816E+00 -0.10597966599E+02  0.12748628748E+02  0.00000000000E+00 0.  1.
</event>
<event>
 8    1  0.5829710E-012  0.9118800E+02  0.7816164E-02  0.1184000E+00
        -11   -1    0    0    0    0  0.00000000000E+00  0.00000000000E+00  0.45593999997E+02  0.45594000000E+02  0.51100000000E-03 0.  1.
         11   -1    0    0    0    0 -0.00000000000E+00 -0.00000000000E+00 -0.45593999997E+02  0.45594000000E+02  0.51100000000E-03 0. -1.
         23    2    1    2    0    0  0.00000000000E+00  0.00000000000E+00  0.00000000000E+00  0.91188000000E+02  0.91188000000E+02 0.  0.
    9900012    2    3    3    0    0 -0.24459655955E+02 -0.31439852061E+02 -0.81502491255E+01  0.50528860463E+02  0.30000001864E+02 0.  0.
         12    1    3    3    0    0  0.24459655955E+02  0.31439852061E+02  0.81502491255E+01  0.40659139537E+02  0.00000000000E+00 0. -1.
         11    1    4    4    0    0 -0.18859466359E+01  0.15617118108E+01  0.45739631375E+01  0.51881477945E+01  0.51100000000E-03 0.  1.
        -11    1    4    4    0    0 -0.50669693715E-01  0.12528856345E+01  0.14929581677E+01  0.19496702754E+01  0.51100000000E-03 0. -1.
        -12    1    4    4    0    0 -0.22523039626E+02 -0.34254449506E+02 -0.14217170431E+02  0.43391042394E+02  0.00000000000E+00 0.  1.
</event>
<event>
 8    1  0.5829710E-012  0.9118800E+02  0.7816164E-02  0.1184000E+00
        -11   -1    0    0    0    0  0.00000000000E+00  0.00000000000E+00  0.45593999997E+02  0.45594000000E+02  0.51100000000E-03 0. -1.
         11   -1    0    0    0    0 -0.00000000000E+00 -0.00000000000E+00 -0.45593999997E+02  0.45594000000E+02  0.51100000000E-03 0.  1.
         23    2    1    2    0    0  0.44408920985E-15 -0.17763568394E-14 -0.71054273576E-14  0.91188000000E+02  0.91188000000E+02 0.  0.
    9900012    2    3    3    0    0  0.39686885893E+01  0.22573917822E+01 -0.40401970217E+02  0.50528861984E+02  0.30000006487E+02 0.  0.
         12    1    3    3    0    0 -0.39686885893E+01 -0.22573917822E+01  0.40401970217E+02  0.40659138016E+02  0.00000000000E+00 0. -1.
         11    1    4    4    0    0  0.15196123807E+01  0.10631417370E+02 -0.79976296289E+01  0.13390232897E+02  0.51100000000E-03 0. -1.
        -11    1    4    4    0    0  0.35123120240E+01  0.78252387898E+00 -0.25156115848E+02  0.25412179052E+02  0.51100000000E-03 0.  1.
        -12    1    4    4    0    0 -0.10632358154E+01 -0.91565494670E+01 -0.72482247406E+01  0.11726450035E+02  0.00000000000E+00 0.  1.
</event>
<event>
 8    1  0.5829710E-012  0.9118800E+02  0.7816164E-02  0.1184000E+00
        -11   -1    0    0    0    0  0.00000000000E+00  0.00000000000E+00  0.45593999997E+02  0.45594000000E+02  0.51100000000E-03 0. -1.
         11   -1    0    0    0    0 -0.00000000000E+00 -0.00000000000E+00 -0.45593999997E+02  0.45594000000E+02  0.51100000000E-03 0.  1.
         23    2    1    2    0    0  0.00000000000E+00  0.00000000000E+00  0.00000000000E+00  0.91188000000E+02  0.91188000000E+02 0.  0.
    9900012    2    3    3    0    0  0.21647999004E+02  0.28692629871E+01 -0.34297180653E+02  0.50528866565E+02  0.30000020411E+02 0.  0.
         12    1    3    3    0    0 -0.21647999004E+02 -0.28692629871E+01  0.34297180653E+02  0.40659133435E+02  0.00000000000E+00 0. -1.
         11    1    4    4    0    0 -0.14107322932E+01  0.48920678163E+00  0.16640332200E+00  0.15023911625E+01  0.51100000000E-03 0. -1.
        -11    1    4    4    0    0 -0.24052842360E+01  0.17783086685E+01 -0.18988880049E+02  0.19223041896E+02  0.51100000000E-03 0.  1.
         12    1    4    4    0    0  0.25464015533E+02  0.60174753702E+00 -0.15474703926E+02  0.29803433506E+02  0.00000000000E+00 0. -1.
</event>
<event>
 8    1  0.5829710E-012  0.9118800E+02  0.7816164E-02  0.1184000E+00
        -11   -1    0    0    0    0  0.00000000000E+00  0.00000000000E+00  0.45593999997E+02  0.45594000000E+02  0.51100000000E-03 0. -1.
         11   -1    0    0    0    0 -0.00000000000E+00 -0.00000000000E+00 -0.45593999997E+02  0.45594000000E+02  0.51100000000E-03 0.  1.
         23    2    1    2    0    0  0.00000000000E+00  0.17763568394E-14  0.00000000000E+00  0.91188000000E+02  0.91188000000E+02 0.  0.
    9900012    2    3    3    0    0 -0.23925750710E+02  0.96302189483E+01  0.31432299585E+02  0.50528780612E+02  0.29999759149E+02 0.  0.
        -12    1    3    3    0    0  0.23925750710E+02 -0.96302189483E+01 -0.31432299585E+02  0.40659219388E+02  0.00000000000E+00 0.  1.
         11    1    4    4    0    0 -0.13346995569E+02  0.52814449324E+01  0.15556622261E+02  0.21167060441E+02  0.51100000000E-03 0. -1.
        -11    1    4    4    0    0 -0.16975850701E-01  0.11755277896E+02  0.66910078151E+01  0.13526138859E+02  0.51100000000E-03 0.  1.
         12    1    4    4    0    0 -0.10561779290E+02 -0.74065038804E+01  0.91846695087E+01  0.15835581312E+02  0.00000000000E+00 0. -1.
</event>
<event>
 8    1  0.5829710E-012  0.9118800E+02  0.7816164E-02  0.1184000E+00
        -11   -1    0    0    0    0  0.00000000000E+00  0.00000000000E+00  0.45593999997E+02  0.45594000000E+02  0.51100000000E-03 0. -1.
         11   -1    0    0    0    0 -0.00000000000E+00 -0.00000000000E+00 -0.45593999997E+02  0.45594000000E+02  0.51100000000E-03 0.  1.
         23    2    1    2    0    0  0.00000000000E+00  0.17763568394E-14  0.00000000000E+00  0.91188000000E+02  0.91188000000E+02 0.  0.
    9900012    2    3    3    0    0  0.24327499547E+02 -0.14021067643E+02 -0.29406593548E+02  0.50528864297E+02  0.30000013516E+02 0.  0.
         12    1    3    3    0    0 -0.24327499547E+02  0.14021067643E+02  0.29406593548E+02  0.40659135703E+02  0.00000000000E+00 0. -1.
         11    1    4    4    0    0  0.18479734411E+02 -0.14915052634E+01 -0.12695699582E+02  0.22470112594E+02  0.51100000000E-03 0. -1.
        -11    1    4    4    0    0  0.12203679414E+02 -0.91944611983E+01 -0.12465540540E+02  0.19719472843E+02  0.51100000000E-03 0.  1.
        -12    1    4    4    0    0 -0.63559142782E+01 -0.33351011812E+01 -0.42453534254E+01  0.83392788602E+01  0.00000000000E+00 0.  1.
</event>
<event>
 8    1  0.5829710E-012  0.9118800E+02  0.7816164E-02  0.1184000E+00
        -11   -1    0    0    0    0  0.00000000000E+00  0.00000000000E+00  0.45593999997E+02  0.45594000000E+02  0.51100000000E-03 0. -1.
         11   -1    0    0    0    0 -0.00000000000E+00 -0.00000000000E+00 -0.45593999997E+02  0.45594000000E+02  0.51100000000E-03 0.  1.
         23    2    1    2    0    0 -0.35527136788E-14  0.00000000000E+00  0.71054273576E-14  0.91188000000E+02  0.91188000000E+02 0.  0.
    9900012    2    3    3    0    0 -0.18049029170E+02 -0.71475746740E+01  0.35725489990E+02  0.50528856960E+02  0.29999991215E+02 0.  0.
        -12    1    3    3    0    0  0.18049029170E+02  0.71475746740E+01 -0.35725489990E+02  0.40659143040E+02  0.00000000000E+00 0.  1.
         11    1    4    4    0    0 -0.10850516508E+02 -0.28106375908E+01  0.25580757571E+02  0.27928633163E+02  0.51100000000E-03 0. -1.
        -11    1    4    4    0    0 -0.17939825895E+00  0.26557717762E+01  0.12195271143E+02  0.12482385429E+02  0.51100000000E-03 0.  1.
        -12    1    4    4    0    0 -0.70191144028E+01 -0.69927088594E+01 -0.20505387243E+01  0.10117838368E+02  0.00000000000E+00 0.  1.
</event>
<event>
 8    1  0.5829710E-012  0.9118800E+02  0.7816164E-02  0.1184000E+00
        -11   -1    0    0    0    0  0.00000000000E+00  0.00000000000E+00  0.45593999997E+02  0.45594000000E+02  0.51100000000E-03 0. -1.
         11   -1    0    0    0    0 -0.00000000000E+00 -0.00000000000E+00 -0.45593999997E+02  0.45594000000E+02  0.51100000000E-03 0.  1.
         23    2    1    2    0    0  0.00000000000E+00  0.44408920985E-15  0.35527136788E-14  0.91188000000E+02  0.91188000000E+02 0.  0.
    9900012    2    3    3    0    0  0.26319090853E+02 -0.29343867318E+01  0.30852248067E+02  0.50528851219E+02  0.29999973765E+02 0.  0.
        -12    1    3    3    0    0 -0.26319090853E+02  0.29343867318E+01 -0.30852248067E+02  0.40659148781E+02  0.00000000000E+00 0.  1.
         11    1    4    4    0    0  0.12256995853E+02  0.77451006875E+01  0.53875752885E+01  0.15467595151E+02  0.51100000000E-03 0. -1.
        -11    1    4    4    0    0  0.45214738808E+01  0.35464954229E+01  0.11888908638E+02  0.13204828840E+02  0.51100000000E-03 0.  1.
        -12    1    4    4    0    0  0.95406211190E+01 -0.14225982842E+02  0.13575764140E+02  0.21856427228E+02  0.00000000000E+00 0.  1.
</event>
<event>
 8    1  0.5829710E-012  0.9118800E+02  0.7816164E-02  0.1184000E+00
        -11   -1    0    0    0    0  0.00000000000E+00  0.00000000000E+00  0.45593999997E+02  0.45594000000E+02  0.51100000000E-03 0. -1.
         11   -1    0    0    0    0 -0.00000000000E+00 -0.00000000000E+00 -0.45593999997E+02  0.45594000000E+02  0.51100000000E-03 0.  1.
         23    2    1    2    0    0 -0.88817841970E-15 -0.35527136788E-14  0.00000000000E+00  0.91188000000E+02  0.91188000000E+02 0.  0.
    9900012    2    3    3    0    0 -0.66328507335E+01 -0.23803224518E+02  0.32288940189E+02  0.50528882144E+02  0.30000067763E+02 0.  0.
        -12    1    3    3    0    0  0.66328507335E+01  0.23803224518E+02 -0.32288940189E+02  0.40659117856E+02  0.00000000000E+00 0.  1.
         11    1    4    4    0    0 -0.64295791307E+01 -0.17391980885E+02  0.20086779377E+02  0.27336773637E+02  0.51100000000E-03 0. -1.
        -11    1    4    4    0    0 -0.89942761959E+01 -0.61604820325E+01  0.73468040536E+01  0.13146257004E+02  0.51100000000E-03 0.  1.
        -12    1    4    4    0    0  0.87910045932E+01 -0.25076160009E+00  0.48553567592E+01  0.10045851502E+02  0.00000000000E+00 0.  1.
</event>
<event>
 8    1  0.5829710E-012  0.9118800E+02  0.7816164E-02  0.1184000E+00
        -11   -1    0    0    0    0  0.00000000000E+00  0.00000000000E+00  0.45593999997E+02  0.45594000000E+02  0.51100000000E-03 0. -1.
         11   -1    0    0    0    0 -0.00000000000E+00 -0.00000000000E+00 -0.45593999997E+02  0.45594000000E+02  0.51100000000E-03 0.  1.
         23    2    1    2    0    0 -0.88817841970E-15  0.00000000000E+00 -0.35527136788E-14  0.91188000000E+02  0.91188000000E+02 0.  0.
    9900012    2    3    3    0    0 -0.46911254642E+01  0.29166546051E+02 -0.27936932135E+02  0.50528852890E+02  0.29999978843E+02 0.  0.
         12    1    3    3    0    0  0.46911254642E+01 -0.29166546051E+02  0.27936932135E+02  0.40659147110E+02  0.00000000000E+00 0. -1.
         11    1    4    4    0    0  0.26697372201E+01  0.77477850168E+01 -0.97435281676E+00  0.82525773649E+01  0.51100000000E-03 0. -1.
        -11    1    4    4    0    0 -0.38984367480E+01  0.24385967065E+02 -0.13677137277E+02  0.28230077632E+02  0.51100000000E-03 0.  1.
        -12    1    4    4    0    0 -0.34624259363E+01 -0.29672060316E+01 -0.13285442041E+02  0.14046197892E+02  0.00000000000E+00 0.  1.
</event>
<event>
 8    1  0.5829710E-012  0.9118800E+02  0.7816164E-02  0.1184000E+00
        -11   -1    0    0    0    0  0.00000000000E+00  0.00000000000E+00  0.45593999997E+02  0.45594000000E+02  0.51100000000E-03 0. -1.
         11   -1    0    0    0    0 -0.00000000000E+00 -0.00000000000E+00 -0.45593999997E+02  0.45594000000E+02  0.51100000000E-03 0.  1.
         23    2    1    2    0    0  0.00000000000E+00  0.00000000000E+00  0.00000000000E+00  0.91188000000E+02  0.91188000000E+02 0.  0.
    9900012    2    3    3    0    0  0.15800071961E+02 -0.29405061967E+02 -0.23213485140E+02  0.50528857909E+02  0.29999994102E+02 0.  0.
         12    1    3    3    0    0 -0.15800071961E+02  0.29405061967E+02  0.23213485140E+02  0.40659142091E+02  0.00000000000E+00 0. -1.
         11    1    4    4    0    0  0.11902365675E+02  0.40952764534E+00 -0.21018094317E+01  0.12093453796E+02  0.51100000000E-03 0. -1.
        -11    1    4    4    0    0 -0.26246626357E+01 -0.80234816788E+01 -0.18800615556E+01  0.86486845194E+01  0.51100000000E-03 0.  1.
        -12    1    4    4    0    0  0.65223689209E+01 -0.21791107933E+02 -0.19231614152E+02  0.29786719594E+02  0.00000000000E+00 0.  1.
</event>
<event>
 8    1  0.5829710E-012  0.9118800E+02  0.7816164E-02  0.1184000E+00
        -11   -1    0    0    0    0  0.00000000000E+00  0.00000000000E+00  0.45593999997E+02  0.45594000000E+02  0.51100000000E-03 0. -1.
         11   -1    0    0    0    0 -0.00000000000E+00 -0.00000000000E+00 -0.45593999997E+02  0.45594000000E+02  0.51100000000E-03 0.  1.
         23    2    1    2    0    0  0.00000000000E+00 -0.17763568394E-14  0.00000000000E+00  0.91188000000E+02  0.91188000000E+02 0.  0.
    9900012    2    3    3    0    0 -0.88485141147E+01 -0.94313494686E+01 -0.38547601519E+02  0.50528878789E+02  0.30000057566E+02 0.  0.
         12    1    3    3    0    0  0.88485141147E+01  0.94313494686E+01  0.38547601519E+02  0.40659121211E+02  0.00000000000E+00 0. -1.
         11    1    4    4    0    0 -0.36402585508E+01  0.81717116870E+01 -0.61710800528E+01  0.10867869317E+02  0.51100000000E-03 0.  1.
        -11    1    4    4    0    0  0.31503732481E+01  0.28458442250E+00 -0.44237502859E+01  0.54383275691E+01  0.51100000000E-03 0. -1.
        -12    1    4    4    0    0 -0.83586288121E+01 -0.17887645578E+02 -0.27952771180E+02  0.34222681902E+02  0.00000000000E+00 0.  1.
</event>
<event>
 8    1  0.5829710E-012  0.9118800E+02  0.7816164E-02  0.1184000E+00
        -11   -1    0    0    0    0  0.00000000000E+00  0.00000000000E+00  0.45593999997E+02  0.45594000000E+02  0.51100000000E-03 0.  1.
         11   -1    0    0    0    0 -0.00000000000E+00 -0.00000000000E+00 -0.45593999997E+02  0.45594000000E+02  0.51100000000E-03 0. -1.
         23    2    1    2    0    0  0.00000000000E+00  0.44408920985E-15  0.00000000000E+00  0.91188000000E+02  0.91188000000E+02 0.  0.
    9900012    2    3    3    0    0  0.38715595537E+02  0.16739721024E+01  0.12307157225E+02  0.50528860322E+02  0.30000001434E+02 0.  0.
        -12    1    3    3    0    0 -0.38715595537E+02 -0.16739721024E+01 -0.12307157225E+02  0.40659139678E+02  0.00000000000E+00 0.  1.
         11    1    4    4    0    0  0.52096150396E+01 -0.62003677036E+01 -0.11966560998E+01  0.81863688289E+01  0.51100000000E-03 0. -1.
        -11    1    4    4    0    0  0.43593983357E+01  0.65310263756E+00  0.11421445615E+02  0.12242561705E+02  0.51100000000E-03 0.  1.
         12    1    4    4    0    0  0.29146582162E+02  0.72212371685E+01  0.20823677097E+01  0.30099929788E+02  0.00000000000E+00 0. -1.
</event>
<event>
 8    1  0.5829710E-012  0.9118800E+02  0.7816164E-02  0.1184000E+00
        -11   -1    0    0    0    0  0.00000000000E+00  0.00000000000E+00  0.45593999997E+02  0.45594000000E+02  0.51100000000E-03 0. -1.
         11   -1    0    0    0    0 -0.00000000000E+00 -0.00000000000E+00 -0.45593999997E+02  0.45594000000E+02  0.51100000000E-03 0.  1.
         23    2    1    2    0    0 -0.88817841970E-15 -0.88817841970E-15  0.00000000000E+00  0.91188000000E+02  0.91188000000E+02 0.  0.
    9900012    2    3    3    0    0  0.76340192433E+01  0.67725382770E+01 -0.39357585054E+02  0.50528867867E+02  0.30000024367E+02 0.  0.
         12    1    3    3    0    0 -0.76340192433E+01 -0.67725382770E+01  0.39357585054E+02  0.40659132133E+02  0.00000000000E+00 0. -1.
         11    1    4    4    0    0  0.20834533115E+01 -0.81081093481E+01 -0.11496977793E+02  0.14221909630E+02  0.51100000000E-03 0. -1.
        -11    1    4    4    0    0 -0.41402680106E+01 -0.47934205121E+00 -0.17947001888E+01  0.45379000684E+01  0.51100000000E-03 0.  1.
         12    1    4    4    0    0  0.96908339424E+01  0.15359989676E+02 -0.26065907073E+02  0.31769058168E+02  0.00000000000E+00 0. -1.
</event>
<event>
 8    1  0.5829710E-012  0.9118800E+02  0.7816164E-02  0.1184000E+00
        -11   -1    0    0    0    0  0.00000000000E+00  0.00000000000E+00  0.45593999997E+02  0.45594000000E+02  0.51100000000E-03 0. -1.
         11   -1    0    0    0    0 -0.00000000000E+00 -0.00000000000E+00 -0.45593999997E+02  0.45594000000E+02  0.51100000000E-03 0.  1.
         23    2    1    2    0    0  0.35527136788E-14  0.00000000000E+00  0.00000000000E+00  0.91188000000E+02  0.91188000000E+02 0.  0.
    9900012    2    3    3    0    0  0.16185301411E+02  0.96947404043E+01  0.36016860218E+02  0.50528853510E+02  0.29999980730E+02 0.  0.
        -12    1    3    3    0    0 -0.16185301411E+02 -0.96947404043E+01 -0.36016860218E+02  0.40659146490E+02  0.00000000000E+00 0.  1.
         11    1    4    4    0    0  0.28568179105E+01 -0.18540183038E+00  0.27502426391E+02  0.27651026021E+02  0.51100000000E-03 0. -1.
        -11    1    4    4    0    0  0.17362696955E+01 -0.15038283418E+01  0.60159648848E+01  0.64395625545E+01  0.51100000000E-03 0.  1.
        -12    1    4    4    0    0  0.11592213805E+02  0.11383970577E+02  0.24984689427E+01  0.16438264934E+02  0.00000000000E+00 0.  1.
</event>
<event>
 8    1  0.5829710E-012  0.9118800E+02  0.7816164E-02  0.1184000E+00
        -11   -1    0    0    0    0  0.00000000000E+00  0.00000000000E+00  0.45593999997E+02  0.45594000000E+02  0.51100000000E-03 0. -1.
         11   -1    0    0    0    0 -0.00000000000E+00 -0.00000000000E+00 -0.45593999997E+02  0.45594000000E+02  0.51100000000E-03 0.  1.
         23    2    1    2    0    0  0.17763568394E-14  0.00000000000E+00 -0.71054273576E-14  0.91188000000E+02  0.91188000000E+02 0.  0.
    9900012    2    3    3    0    0  0.10770739750E+02  0.20687477836E+01 -0.39151973735E+02  0.50528860812E+02  0.30000002924E+02 0.  0.
         12    1    3    3    0    0 -0.10770739750E+02 -0.20687477836E+01  0.39151973735E+02  0.40659139188E+02  0.00000000000E+00 0. -1.
         11    1    4    4    0    0  0.12230539527E+02  0.32721894413E+01 -0.80782048861E+01  0.15018345957E+02  0.51100000000E-03 0. -1.
        -11    1    4    4    0    0 -0.57482665544E+01 -0.51281263761E+01 -0.59793540237E+01  0.97515600450E+01  0.51100000000E-03 0.  1.
         12    1    4    4    0    0  0.42884667783E+01  0.39246847185E+01 -0.25094414825E+02  0.25758954809E+02  0.00000000000E+00 0. -1.
</event>
<event>
 8    1  0.5829710E-012  0.9118800E+02  0.7816164E-02  0.1184000E+00
        -11   -1    0    0    0    0  0.00000000000E+00  0.00000000000E+00  0.45593999997E+02  0.45594000000E+02  0.51100000000E-03 0. -1.
         11   -1    0    0    0    0 -0.00000000000E+00 -0.00000000000E+00 -0.45593999997E+02  0.45594000000E+02  0.51100000000E-03 0.  1.
         23    2    1    2    0    0  0.88817841970E-15  0.00000000000E+00  0.17763568394E-14  0.91188000000E+02  0.91188000000E+02 0.  0.
    9900012    2    3    3    0    0 -0.49970216557E+01 -0.38824739792E+02 -0.10992478711E+02  0.50528865312E+02  0.30000016603E+02 0.  0.
         12    1    3    3    0    0  0.49970216557E+01  0.38824739792E+02  0.10992478711E+02  0.40659134688E+02  0.00000000000E+00 0. -1.
         11    1    4    4    0    0  0.76496583430E+00 -0.87179460940E+01  0.85381642794E+01  0.12226528794E+02  0.51100000000E-03 0. -1.
        -11    1    4    4    0    0  0.27867929649E+01 -0.17476183768E+02 -0.10542230325E+02  0.20599073634E+02  0.51100000000E-03 0.  1.
        -12    1    4    4    0    0 -0.85487804549E+01 -0.12630609930E+02 -0.89884126661E+01  0.17703262884E+02  0.00000000000E+00 0.  1.
</event>
<event>
 8    1  0.5829710E-012  0.9118800E+02  0.7816164E-02  0.1184000E+00
        -11   -1    0    0    0    0  0.00000000000E+00  0.00000000000E+00  0.45593999997E+02  0.45594000000E+02  0.51100000000E-03 0.  1.
         11   -1    0    0    0    0 -0.00000000000E+00 -0.00000000000E+00 -0.45593999997E+02  0.45594000000E+02  0.51100000000E-03 0. -1.
         23    2    1    2    0    0 -0.35527136788E-14  0.00000000000E+00 -0.35527136788E-14  0.91188000000E+02  0.91188000000E+02 0.  0.
    9900012    2    3    3    0    0  0.23160400422E+02 -0.26236207134E+02 -0.20698388202E+02  0.50528856051E+02  0.29999988452E+02 0.  0.
         12    1    3    3    0    0 -0.23160400422E+02  0.26236207134E+02  0.20698388202E+02  0.40659143949E+02  0.00000000000E+00 0. -1.
         11    1    4    4    0    0  0.16930365989E+02 -0.11646647424E+02 -0.85767072984E+01  0.22267500917E+02  0.51100000000E-03 0. -1.
        -11    1    4    4    0    0  0.98198342296E+01 -0.10753318867E+01 -0.10109176598E+02  0.14134388374E+02  0.51100000000E-03 0.  1.
         12    1    4    4    0    0 -0.35897997966E+01 -0.13514227823E+02 -0.20125043057E+01  0.14126966759E+02  0.00000000000E+00 0. -1.
</event>
<event>
 8    1  0.6494140E-012  0.9118800E+02  0.7816164E-02  0.1184000E+00
        -11   -1    0    0    0    0  0.00000000000E+00  0.00000000000E+00  0.45593999997E+02  0.45594000000E+02  0.51100000000E-03 0.  1.
         11   -1    0    0    0    0 -0.00000000000E+00 -0.00000000000E+00 -0.45593999997E+02  0.45594000000E+02  0.51100000000E-03 0. -1.
         23    2    1    2    0    0  0.00000000000E+00 -0.35527136788E-14  0.00000000000E+00  0.91188000000E+02  0.91188000000E+02 0.  0.
    9900012    2    3    3    0    0 -0.95205996401E+01  0.22790882569E+02 -0.32297053138E+02  0.50528858504E+02  0.29999995909E+02 0.  0.
         12    1    3    3    0    0  0.95205996401E+01 -0.22790882569E+02  0.32297053138E+02  0.40659141496E+02  0.00000000000E+00 0. -1.
         11    1    4    4    0    0 -0.43228072022E+01 -0.30040118739E+01 -0.85613747907E+01  0.10050268057E+02  0.51100000000E-03 0. -1.
        -11    1    4    4    0    0 -0.11263181192E+02  0.11641817525E+02 -0.67394651263E+01  0.17544559165E+02  0.51100000000E-03 0.  1.
         12    1    4    4    0    0  0.60653887545E+01  0.14153076918E+02 -0.16996213221E+02  0.22934031282E+02  0.00000000000E+00 0. -1.
</event>
<event>
 8    1  0.5829710E-012  0.9118800E+02  0.7816164E-02  0.1184000E+00
        -11   -1    0    0    0    0  0.00000000000E+00  0.00000000000E+00  0.45593999997E+02  0.45594000000E+02  0.51100000000E-03 0. -1.
         11   -1    0    0    0    0 -0.00000000000E+00 -0.00000000000E+00 -0.45593999997E+02  0.45594000000E+02  0.51100000000E-03 0.  1.
         23    2    1    2    0    0  0.00000000000E+00  0.00000000000E+00  0.35527136788E-14  0.91188000000E+02  0.91188000000E+02 0.  0.
    9900012    2    3    3    0    0  0.26027466668E+02  0.70248421981E+01 -0.30436614329E+02  0.50528869157E+02  0.30000028289E+02 0.  0.
         12    1    3    3    0    0 -0.26027466668E+02 -0.70248421981E+01  0.30436614329E+02  0.40659130843E+02  0.00000000000E+00 0. -1.
         11    1    4    4    0    0 -0.19398346498E+01  0.46846709779E+01 -0.44435661236E+01  0.67419864132E+01  0.51100000000E-03 0. -1.
        -11    1    4    4    0    0  0.26472914029E+02  0.60699424720E+01 -0.12855595465E+02  0.30048722333E+02  0.51100000000E-03 0.  1.
         12    1    4    4    0    0  0.14943872893E+01 -0.37297712519E+01 -0.13137452741E+02  0.13738160411E+02  0.00000000000E+00 0. -1.
</event>
<event>
 8    1  0.5829710E-012  0.9118800E+02  0.7816164E-02  0.1184000E+00
        -11   -1    0    0    0    0  0.00000000000E+00  0.00000000000E+00  0.45593999997E+02  0.45594000000E+02  0.51100000000E-03 0. -1.
         11   -1    0    0    0    0 -0.00000000000E+00 -0.00000000000E+00 -0.45593999997E+02  0.45594000000E+02  0.51100000000E-03 0.  1.
         23    2    1    2    0    0  0.00000000000E+00  0.00000000000E+00  0.00000000000E+00  0.91188000000E+02  0.91188000000E+02 0.  0.
    9900012    2    3    3    0    0 -0.15209671184E+02 -0.19837288507E+02  0.32067328799E+02  0.50528859710E+02  0.29999999574E+02 0.  0.
        -12    1    3    3    0    0  0.15209671184E+02  0.19837288507E+02 -0.32067328799E+02  0.40659140290E+02  0.00000000000E+00 0.  1.
         11    1    4    4    0    0 -0.84787908620E+01 -0.67648969273E+01  0.80702840847E+01  0.13519734109E+02  0.51100000000E-03 0. -1.
        -11    1    4    4    0    0 -0.79825750487E+01 -0.24102826931E+01 -0.22624316507E+01  0.86399979343E+01  0.51100000000E-03 0.  1.
        -12    1    4    4    0    0  0.12516947264E+01 -0.10662108887E+02  0.26259476365E+02  0.28369127666E+02  0.00000000000E+00 0.  1.
</event>
<event>
 8    1  0.5829710E-012  0.9118800E+02  0.7816164E-02  0.1184000E+00
        -11   -1    0    0    0    0  0.00000000000E+00  0.00000000000E+00  0.45593999997E+02  0.45594000000E+02  0.51100000000E-03 0. -1.
         11   -1    0    0    0    0 -0.00000000000E+00 -0.00000000000E+00 -0.45593999997E+02  0.45594000000E+02  0.51100000000E-03 0.  1.
         23    2    1    2    0    0 -0.35527136788E-14  0.17763568394E-14  0.71054273576E-14  0.91188000000E+02  0.91188000000E+02 0.  0.
    9900012    2    3    3    0    0  0.19294179481E+02 -0.10848454474E+02 -0.34105893486E+02  0.50528852237E+02  0.29999976860E+02 0.  0.
         12    1    3    3    0    0 -0.19294179481E+02  0.10848454474E+02  0.34105893486E+02  0.40659147763E+02  0.00000000000E+00 0. -1.
         11    1    4    4    0    0  0.13473638000E+02 -0.94127484713E+01 -0.13279318673E+01  0.16489455966E+02  0.51100000000E-03 0. -1.
        -11    1    4    4    0    0  0.60844754012E+01 -0.19494916226E+00 -0.14614486934E+02  0.15831679465E+02  0.51100000000E-03 0.  1.
        -12    1    4    4    0    0 -0.26393392085E+00 -0.12407568403E+01 -0.18163474685E+02  0.18207716806E+02  0.00000000000E+00 0.  1.
</event>
<event>
 8    1  0.5829710E-012  0.9118800E+02  0.7816164E-02  0.1184000E+00
        -11   -1    0    0    0    0  0.00000000000E+00  0.00000000000E+00  0.45593999997E+02  0.45594000000E+02  0.51100000000E-03 0. -1.
         11   -1    0    0    0    0 -0.00000000000E+00 -0.00000000000E+00 -0.45593999997E+02  0.45594000000E+02  0.51100000000E-03 0.  1.
         23    2    1    2    0    0 -0.44408920985E-15 -0.17763568394E-14  0.00000000000E+00  0.91188000000E+02  0.91188000000E+02 0.  0.
    9900012    2    3    3    0    0 -0.53963531373E+00  0.12783125153E+02 -0.38593609410E+02  0.50528853646E+02  0.29999981141E+02 0.  0.
         12    1    3    3    0    0  0.53963531373E+00 -0.12783125153E+02  0.38593609410E+02  0.40659146354E+02  0.00000000000E+00 0. -1.
         11    1    4    4    0    0 -0.28567336376E+01 -0.28063012489E+01 -0.55565377347E+01  0.68491872244E+01  0.51100000000E-03 0. -1.
        -11    1    4    4    0    0 -0.40964418212E+00 -0.44821335614E+00 -0.25913391162E+02  0.25920504342E+02  0.51100000000E-03 0.  1.
        -12    1    4    4    0    0  0.27267425060E+01  0.16037639758E+02 -0.71236805137E+01  0.17759162079E+02  0.00000000000E+00 0.  1.
</event>
<event>
 8    1  0.5829710E-012  0.9118800E+02  0.7816164E-02  0.1184000E+00
        -11   -1    0    0    0    0  0.00000000000E+00  0.00000000000E+00  0.45593999997E+02  0.45594000000E+02  0.51100000000E-03 0.  1.
         11   -1    0    0    0    0 -0.00000000000E+00 -0.00000000000E+00 -0.45593999997E+02  0.45594000000E+02  0.51100000000E-03 0. -1.
         23    2    1    2    0    0  0.00000000000E+00  0.00000000000E+00  0.00000000000E+00  0.91188000000E+02  0.91188000000E+02 0.  0.
    9900012    2    3    3    0    0 -0.22296823447E+02 -0.32858880529E+02  0.87356285246E+01  0.50528861160E+02  0.30000003983E+02 0.  0.
         12    1    3    3    0    0  0.22296823447E+02  0.32858880529E+02 -0.87356285246E+01  0.40659138840E+02  0.00000000000E+00 0. -1.
         11    1    4    4    0    0 -0.11361448270E+02 -0.15485090400E+02  0.16819722732E+01  0.19279511469E+02  0.51100000000E-03 0. -1.
        -11    1    4    4    0    0 -0.69875769992E+01 -0.22594451974E+02  0.38481445836E+01  0.23961296069E+02  0.51100000000E-03 0.  1.
         12    1    4    4    0    0 -0.39477981778E+01  0.52206618448E+01  0.32055116679E+01  0.72880536224E+01  0.00000000000E+00 0. -1.
</event>
<event>
 8    1  0.5829710E-012  0.9118800E+02  0.7816164E-02  0.1184000E+00
        -11   -1    0    0    0    0  0.00000000000E+00  0.00000000000E+00  0.45593999997E+02  0.45594000000E+02  0.51100000000E-03 0.  1.
         11   -1    0    0    0    0 -0.00000000000E+00 -0.00000000000E+00 -0.45593999997E+02  0.45594000000E+02  0.51100000000E-03 0. -1.
         23    2    1    2    0    0 -0.44408920985E-15  0.00000000000E+00  0.00000000000E+00  0.91188000000E+02  0.91188000000E+02 0.  0.
    9900012    2    3    3    0    0  0.17298843453E+01  0.39352568227E+02 -0.10077107430E+02  0.50528865478E+02  0.30000017108E+02 0.  0.
         12    1    3    3    0    0 -0.17298843453E+01 -0.39352568227E+02  0.10077107430E+02  0.40659134522E+02  0.00000000000E+00 0. -1.
         11    1    4    4    0    0 -0.40473684175E+01  0.10492774187E+02 -0.39813297551E+01  0.11930234203E+02  0.51100000000E-03 0. -1.
        -11    1    4    4    0    0  0.33192963123E+01  0.25575745520E+02 -0.14254032255E+02  0.29467166859E+02  0.51100000000E-03 0.  1.
         12    1    4    4    0    0  0.24579564505E+01  0.32840485195E+01  0.81582545803E+01  0.91314644164E+01  0.00000000000E+00 0. -1.
</event>
<event>
 8    1  0.5829710E-012  0.9118800E+02  0.7816164E-02  0.1184000E+00
        -11   -1    0    0    0    0  0.00000000000E+00  0.00000000000E+00  0.45593999997E+02  0.45594000000E+02  0.51100000000E-03 0. -1.
         11   -1    0    0    0    0 -0.00000000000E+00 -0.00000000000E+00 -0.45593999997E+02  0.45594000000E+02  0.51100000000E-03 0.  1.
         23    2    1    2    0    0 -0.35527136788E-14  0.00000000000E+00  0.35527136788E-14  0.91188000000E+02  0.91188000000E+02 0.  0.
    9900012    2    3    3    0    0 -0.22783164341E+02  0.21929408330E+02  0.25557648267E+02  0.50528869266E+02  0.30000028621E+02 0.  0.
        -12    1    3    3    0    0  0.22783164341E+02 -0.21929408330E+02 -0.25557648267E+02  0.40659130734E+02  0.00000000000E+00 0.  1.
         11    1    4    4    0    0  0.74419645493E+00  0.37065568916E+01  0.13154908047E+02  0.13687366377E+02  0.51100000000E-03 0. -1.
        -11    1    4    4    0    0 -0.61033166606E+01 -0.22478705623E+01  0.67457512436E+01  0.93706219872E+01  0.51100000000E-03 0.  1.
         12    1    4    4    0    0 -0.17424044135E+02  0.20470722001E+02  0.56569889770E+01  0.27470880902E+02  0.00000000000E+00 0. -1.
</event>
<event>
 8    1  0.5829710E-012  0.9118800E+02  0.7816164E-02  0.1184000E+00
        -11   -1    0    0    0    0  0.00000000000E+00  0.00000000000E+00  0.45593999997E+02  0.45594000000E+02  0.51100000000E-03 0.  1.
         11   -1    0    0    0    0 -0.00000000000E+00 -0.00000000000E+00 -0.45593999997E+02  0.45594000000E+02  0.51100000000E-03 0. -1.
         23    2    1    2    0    0  0.00000000000E+00  0.17763568394E-14  0.00000000000E+00  0.91188000000E+02  0.91188000000E+02 0.  0.
    9900012    2    3    3    0    0 -0.16617986777E+02  0.15322657793E+02 -0.33796871349E+02  0.50528808673E+02  0.29999844443E+02 0.  0.
         12    1    3    3    0    0  0.16617986777E+02 -0.15322657793E+02  0.33796871349E+02  0.40659191327E+02  0.00000000000E+00 0. -1.
         11    1    4    4    0    0  0.56546717352E+01  0.61587267353E+01 -0.14607495139E+02  0.16831046965E+02  0.51100000000E-03 0.  1.
        -11    1    4    4    0    0  0.73903921868E+00 -0.66917204262E+00 -0.46508218476E+01  0.47564812949E+01  0.51100000000E-03 0. -1.
        -12    1    4    4    0    0 -0.23011697731E+02  0.98331031000E+01 -0.14538554362E+02  0.28941280414E+02  0.00000000000E+00 0.  1.
</event>
<event>
 8    1  0.5829710E-012  0.9118800E+02  0.7816164E-02  0.1184000E+00
        -11   -1    0    0    0    0  0.00000000000E+00  0.00000000000E+00  0.45593999997E+02  0.45594000000E+02  0.51100000000E-03 0. -1.
         11   -1    0    0    0    0 -0.00000000000E+00 -0.00000000000E+00 -0.45593999997E+02  0.45594000000E+02  0.51100000000E-03 0.  1.
         23    2    1    2    0    0  0.00000000000E+00 -0.22204460493E-15  0.17763568394E-14  0.91188000000E+02  0.91188000000E+02 0.  0.
    9900012    2    3    3    0    0 -0.38120045766E+02  0.14583572951E+01  0.14067756301E+02  0.50528850199E+02  0.29999970666E+02 0.  0.
        -12    1    3    3    0    0  0.38120045766E+02 -0.14583572951E+01 -0.14067756301E+02  0.40659149801E+02  0.00000000000E+00 0.  1.
         11    1    4    4    0    0 -0.18251745795E+02 -0.42752663142E+01  0.12404056286E+02  0.22478094652E+02  0.51100000000E-03 0. -1.
        -11    1    4    4    0    0 -0.26719298304E+01 -0.45156315334E+01  0.55721997079E+01  0.76537276545E+01  0.51100000000E-03 0.  1.
        -12    1    4    4    0    0 -0.17196370141E+02  0.10249255143E+02 -0.39084996930E+01  0.20397027892E+02  0.00000000000E+00 0.  1.
</event>
<event>
 8    1  0.5829710E-012  0.9118800E+02  0.7816164E-02  0.1184000E+00
        -11   -1    0    0    0    0  0.00000000000E+00  0.00000000000E+00  0.45593999997E+02  0.45594000000E+02  0.51100000000E-03 0. -1.
         11   -1    0    0    0    0 -0.00000000000E+00 -0.00000000000E+00 -0.45593999997E+02  0.45594000000E+02  0.51100000000E-03 0.  1.
         23    2    1    2    0    0 -0.35527136788E-14 -0.44408920985E-15  0.71054273576E-14  0.91188000000E+02  0.91188000000E+02 0.  0.
    9900012    2    3    3    0    0 -0.15020828766E+02  0.24909091914E+01  0.37700606696E+02  0.50528859937E+02  0.30000000265E+02 0.  0.
        -12    1    3    3    0    0  0.15020828766E+02 -0.24909091914E+01 -0.37700606696E+02  0.40659140063E+02  0.00000000000E+00 0.  1.
         11    1    4    4    0    0 -0.97332870761E+00  0.12852898835E+02  0.15559582899E+02  0.20205073558E+02  0.51100000000E-03 0. -1.
        -11    1    4    4    0    0 -0.23088591319E+01 -0.73199703442E+01  0.13156283024E+02  0.15231565238E+02  0.51100000000E-03 0.  1.
        -12    1    4    4    0    0 -0.11738640926E+02 -0.30420192996E+01  0.89847407721E+01  0.15092221141E+02  0.00000000000E+00 0.  1.
</event>
<event>
 8    1  0.5829710E-012  0.9118800E+02  0.7816164E-02  0.1184000E+00
        -11   -1    0    0    0    0  0.00000000000E+00  0.00000000000E+00  0.45593999997E+02  0.45594000000E+02  0.51100000000E-03 0. -1.
         11   -1    0    0    0    0 -0.00000000000E+00 -0.00000000000E+00 -0.45593999997E+02  0.45594000000E+02  0.51100000000E-03 0.  1.
         23    2    1    2    0    0  0.00000000000E+00  0.00000000000E+00  0.35527136788E-14  0.91188000000E+02  0.91188000000E+02 0.  0.
    9900012    2    3    3    0    0 -0.15159717232E+02  0.21902036894E+02 -0.30718883354E+02  0.50528855381E+02  0.29999986415E+02 0.  0.
         12    1    3    3    0    0  0.15159717232E+02 -0.21902036894E+02  0.30718883354E+02  0.40659144619E+02  0.00000000000E+00 0. -1.
         11    1    4    4    0    0 -0.12118435719E+01  0.67974274340E+01  0.31485905342E+01  0.75886235364E+01  0.51100000000E-03 0. -1.
        -11    1    4    4    0    0  0.17200141795E+01  0.77159332276E+01 -0.52551773229E+01  0.94926794587E+01  0.51100000000E-03 0.  1.
         12    1    4    4    0    0 -0.15667887839E+02  0.73886762320E+01 -0.28612296566E+02  0.33447552386E+02  0.00000000000E+00 0. -1.
</event>
<event>
 8    1  0.5829710E-012  0.9118800E+02  0.7816164E-02  0.1184000E+00
        -11   -1    0    0    0    0  0.00000000000E+00  0.00000000000E+00  0.45593999997E+02  0.45594000000E+02  0.51100000000E-03 0.  1.
         11   -1    0    0    0    0 -0.00000000000E+00 -0.00000000000E+00 -0.45593999997E+02  0.45594000000E+02  0.51100000000E-03 0. -1.
         23    2    1    2    0    0  0.35527136788E-14  0.00000000000E+00  0.00000000000E+00  0.91188000000E+02  0.91188000000E+02 0.  0.
    9900012    2    3    3    0    0 -0.23851254893E+02  0.15772251725E+02 -0.28905356830E+02  0.50528856651E+02  0.29999990275E+02 0.  0.
         12    1    3    3    0    0  0.23851254893E+02 -0.15772251725E+02  0.28905356830E+02  0.40659143349E+02  0.00000000000E+00 0. -1.
         11    1    4    4    0    0 -0.59545651781E+01  0.61818753320E+01 -0.60639744647E+01  0.10509244295E+02  0.51100000000E-03 0. -1.
        -11    1    4    4    0    0 -0.17017723452E+02  0.84930086399E+01 -0.28458647569E+02  0.34229062636E+02  0.51100000000E-03 0.  1.
        -12    1    4    4    0    0 -0.87896626357E+00  0.10973677529E+01  0.56172652042E+01  0.57905497194E+01  0.00000000000E+00 0.  1.
</event>
<event>
 8    1  0.5829710E-012  0.9118800E+02  0.7816164E-02  0.1184000E+00
        -11   -1    0    0    0    0  0.00000000000E+00  0.00000000000E+00  0.45593999997E+02  0.45594000000E+02  0.51100000000E-03 0. -1.
         11   -1    0    0    0    0 -0.00000000000E+00 -0.00000000000E+00 -0.45593999997E+02  0.45594000000E+02  0.51100000000E-03 0.  1.
         23    2    1    2    0    0  0.17763568394E-14  0.00000000000E+00  0.00000000000E+00  0.91188000000E+02  0.91188000000E+02 0.  0.
    9900012    2    3    3    0    0  0.12637465380E+02  0.58608319862E+01 -0.38198309740E+02  0.50528858964E+02  0.29999997306E+02 0.  0.
         12    1    3    3    0    0 -0.12637465380E+02 -0.58608319862E+01  0.38198309740E+02  0.40659141036E+02  0.00000000000E+00 0. -1.
         11    1    4    4    0    0  0.11131823312E+02 -0.20658783012E+01 -0.14293490623E+02  0.18234286875E+02  0.51100000000E-03 0. -1.
        -11    1    4    4    0    0  0.10716196202E+02  0.44290484463E+01 -0.15413203889E+02  0.19287824801E+02  0.51100000000E-03 0.  1.
        -12    1    4    4    0    0 -0.92105541338E+01  0.34976618411E+01 -0.84916152286E+01  0.13006747287E+02  0.00000000000E+00 0.  1.
</event>
<event>
 8    1  0.5829710E-012  0.9118800E+02  0.7816164E-02  0.1184000E+00
        -11   -1    0    0    0    0  0.00000000000E+00  0.00000000000E+00  0.45593999997E+02  0.45594000000E+02  0.51100000000E-03 0. -1.
         11   -1    0    0    0    0 -0.00000000000E+00 -0.00000000000E+00 -0.45593999997E+02  0.45594000000E+02  0.51100000000E-03 0.  1.
         23    2    1    2    0    0  0.00000000000E+00  0.00000000000E+00  0.00000000000E+00  0.91188000000E+02  0.91188000000E+02 0.  0.
    9900012    2    3    3    0    0  0.10712271476E+02 -0.26440519077E+02 -0.28970878297E+02  0.50528860825E+02  0.30000002963E+02 0.  0.
         12    1    3    3    0    0 -0.10712271476E+02  0.26440519077E+02  0.28970878297E+02  0.40659139175E+02  0.00000000000E+00 0. -1.
         11    1    4    4    0    0  0.27351232645E+01 -0.19532405999E+01  0.46105372211E+01  0.57055325643E+01  0.51100000000E-03 0. -1.
        -11    1    4    4    0    0  0.96752385400E+00  0.74996803498E+00  0.90174033587E+00  0.15204244000E+01  0.51100000000E-03 0.  1.
        -12    1    4    4    0    0  0.70096243571E+01 -0.25237246512E+02 -0.34483155854E+02  0.43302903860E+02  0.00000000000E+00 0.  1.
</event>
<event>
 8    1  0.5829710E-012  0.9118800E+02  0.7816164E-02  0.1184000E+00
        -11   -1    0    0    0    0  0.00000000000E+00  0.00000000000E+00  0.45593999997E+02  0.45594000000E+02  0.51100000000E-03 0. -1.
         11   -1    0    0    0    0 -0.00000000000E+00 -0.00000000000E+00 -0.45593999997E+02  0.45594000000E+02  0.51100000000E-03 0.  1.
         23    2    1    2    0    0  0.88817841970E-15  0.25535129566E-14  0.00000000000E+00  0.91188000000E+02  0.91188000000E+02 0.  0.
    9900012    2    3    3    0    0 -0.39145099530E+01  0.60326592236E+00 -0.40465754739E+02  0.50528872801E+02  0.30000039367E+02 0.  0.
         12    1    3    3    0    0  0.39145099530E+01 -0.60326592236E+00  0.40465754739E+02  0.40659127199E+02  0.00000000000E+00 0. -1.
         11    1    4    4    0    0 -0.67782918188E+01 -0.45130290662E+01 -0.26453592836E+01  0.85621607865E+01  0.51100000000E-03 0. -1.
        -11    1    4    4    0    0  0.67891306376E+00 -0.63372710686E+01 -0.10845969408E+02  0.12580023061E+02  0.51100000000E-03 0.  1.
        -12    1    4    4    0    0  0.21848688021E+01  0.11453566057E+02 -0.26974426047E+02  0.29386688954E+02  0.00000000000E+00 0.  1.
</event>
<event>
 8    1  0.5829710E-012  0.9118800E+02  0.7816164E-02  0.1184000E+00
        -11   -1    0    0    0    0  0.00000000000E+00  0.00000000000E+00  0.45593999997E+02  0.45594000000E+02  0.51100000000E-03 0. -1.
         11   -1    0    0    0    0 -0.00000000000E+00 -0.00000000000E+00 -0.45593999997E+02  0.45594000000E+02  0.51100000000E-03 0.  1.
         23    2    1    2    0    0  0.00000000000E+00  0.00000000000E+00  0.71054273576E-14  0.91188000000E+02  0.91188000000E+02 0.  0.
    9900012    2    3    3    0    0  0.13403084892E+02 -0.54845633853E+01 -0.37992663375E+02  0.50528860923E+02  0.30000003262E+02 0.  0.
         12    1    3    3    0    0 -0.13403084892E+02  0.54845633853E+01  0.37992663375E+02  0.40659139077E+02  0.00000000000E+00 0. -1.
         11    1    4    4    0    0 -0.34014687182E+01  0.55557580880E+01 -0.35280693409E+01  0.74083541295E+01  0.51100000000E-03 0. -1.
        -11    1    4    4    0    0  0.88946907946E+01 -0.53608608039E+01 -0.39856863416E+01  0.11123850447E+02  0.51100000000E-03 0.  1.
        -12    1    4    4    0    0  0.79098628160E+01 -0.56794606694E+01 -0.30478907692E+02  0.31996656347E+02  0.00000000000E+00 0.  1.
</event>
<event>
 8    1  0.5829710E-012  0.9118800E+02  0.7816164E-02  0.1184000E+00
        -11   -1    0    0    0    0  0.00000000000E+00  0.00000000000E+00  0.45593999997E+02  0.45594000000E+02  0.51100000000E-03 0. -1.
         11   -1    0    0    0    0 -0.00000000000E+00 -0.00000000000E+00 -0.45593999997E+02  0.45594000000E+02  0.51100000000E-03 0.  1.
         23    2    1    2    0    0  0.35527136788E-14  0.35527136788E-14 -0.17763568394E-14  0.91188000000E+02  0.91188000000E+02 0.  0.
    9900012    2    3    3    0    0  0.24572135336E+02  0.29478039921E+02 -0.13432039851E+02  0.50528875967E+02  0.30000048990E+02 0.  0.
         12    1    3    3    0    0 -0.24572135336E+02 -0.29478039921E+02  0.13432039851E+02  0.40659124033E+02  0.00000000000E+00 0. -1.
         11    1    4    4    0    0  0.10264700558E+02  0.17812314944E+02  0.22552483214E+01  0.20681605026E+02  0.51100000000E-03 0. -1.
        -11    1    4    4    0    0 -0.38809857214E+01  0.13154993257E+01 -0.46140727060E+01  0.61710822262E+01  0.51100000000E-03 0.  1.
        -12    1    4    4    0    0  0.18188420499E+02  0.10350225652E+02 -0.11073215466E+02  0.23676188715E+02  0.00000000000E+00 0.  1.
</event>
<event>
 8    1  0.5829710E-012  0.9118800E+02  0.7816164E-02  0.1184000E+00
        -11   -1    0    0    0    0  0.00000000000E+00  0.00000000000E+00  0.45593999997E+02  0.45594000000E+02  0.51100000000E-03 0. -1.
         11   -1    0    0    0    0 -0.00000000000E+00 -0.00000000000E+00 -0.45593999997E+02  0.45594000000E+02  0.51100000000E-03 0.  1.
         23    2    1    2    0    0  0.00000000000E+00  0.00000000000E+00  0.00000000000E+00  0.91188000000E+02  0.91188000000E+02 0.  0.
    9900012    2    3    3    0    0  0.22424233459E+02 -0.36361712860E+01 -0.33720885436E+02  0.50528854628E+02  0.29999984126E+02 0.  0.
         12    1    3    3    0    0 -0.22424233459E+02  0.36361712860E+01  0.33720885436E+02  0.40659145372E+02  0.00000000000E+00 0. -1.
         11    1    4    4    0    0  0.72205647448E+01  0.62632363368E+01  0.28571060196E-01  0.95585302851E+01  0.51100000000E-03 0. -1.
        -11    1    4    4    0    0  0.90551540970E+01 -0.36613653123E+00 -0.56805332921E+01  0.10695715517E+02  0.51100000000E-03 0.  1.
        -12    1    4    4    0    0  0.61485146172E+01 -0.95332710916E+01 -0.28068923204E+02  0.30274608825E+02  0.00000000000E+00 0.  1.
</event>
<event>
 8    1  0.5829710E-012  0.9118800E+02  0.7816164E-02  0.1184000E+00
        -11   -1    0    0    0    0  0.00000000000E+00  0.00000000000E+00  0.45593999997E+02  0.45594000000E+02  0.51100000000E-03 0. -1.
         11   -1    0    0    0    0 -0.00000000000E+00 -0.00000000000E+00 -0.45593999997E+02  0.45594000000E+02  0.51100000000E-03 0.  1.
         23    2    1    2    0    0  0.35527136788E-14  0.71054273576E-14  0.00000000000E+00  0.91188000000E+02  0.91188000000E+02 0.  0.
    9900012    2    3    3    0    0 -0.24123801207E+02 -0.24994761771E+02 -0.21129860414E+02  0.50528844798E+02  0.29999954247E+02 0.  0.
         12    1    3    3    0    0  0.24123801207E+02  0.24994761771E+02  0.21129860414E+02  0.40659155202E+02  0.00000000000E+00 0. -1.
         11    1    4    4    0    0  0.15286545774E+01  0.35855711119E+00 -0.65006065104E+01  0.66875431426E+01  0.51100000000E-03 0. -1.
        -11    1    4    4    0    0 -0.20165462930E+02 -0.20731028458E+02 -0.15973385594E+01  0.28965029377E+02  0.51100000000E-03 0.  1.
         12    1    4    4    0    0 -0.54869928545E+01 -0.46222904248E+01 -0.13031915344E+02  0.14876272278E+02  0.00000000000E+00 0. -1.
</event>
<event>
 8    1  0.5829710E-012  0.9118800E+02  0.7816164E-02  0.1184000E+00
        -11   -1    0    0    0    0  0.00000000000E+00  0.00000000000E+00  0.45593999997E+02  0.45594000000E+02  0.51100000000E-03 0. -1.
         11   -1    0    0    0    0 -0.00000000000E+00 -0.00000000000E+00 -0.45593999997E+02  0.45594000000E+02  0.51100000000E-03 0.  1.
         23    2    1    2    0    0  0.35527136788E-14 -0.35527136788E-14 -0.35527136788E-14  0.91188000000E+02  0.91188000000E+02 0.  0.
    9900012    2    3    3    0    0  0.24340991290E+02 -0.17469257424E+02 -0.27486452098E+02  0.50528882192E+02  0.30000067911E+02 0.  0.
         12    1    3    3    0    0 -0.24340991290E+02  0.17469257424E+02  0.27486452098E+02  0.40659117808E+02  0.00000000000E+00 0. -1.
         11    1    4    4    0    0  0.25729038795E+01  0.10502382798E+01 -0.39066116899E+00  0.28063234360E+01  0.51100000000E-03 0. -1.
        -11    1    4    4    0    0  0.19965903237E+02  0.47945249581E+00 -0.11283143574E+02  0.22938537354E+02  0.51100000000E-03 0.  1.
        -12    1    4    4    0    0  0.18021841742E+01 -0.18998948199E+02 -0.15812647356E+02  0.24784021403E+02  0.00000000000E+00 0.  1.
</event>
<event>
 8    1  0.5829710E-012  0.9118800E+02  0.7816164E-02  0.1184000E+00
        -11   -1    0    0    0    0  0.00000000000E+00  0.00000000000E+00  0.45593999997E+02  0.45594000000E+02  0.51100000000E-03 0. -1.
         11   -1    0    0    0    0 -0.00000000000E+00 -0.00000000000E+00 -0.45593999997E+02  0.45594000000E+02  0.51100000000E-03 0.  1.
         23    2    1    2    0    0  0.88817841970E-15  0.88817841970E-15 -0.71054273576E-14  0.91188000000E+02  0.91188000000E+02 0.  0.
    9900012    2    3    3    0    0  0.47759302103E+01  0.63416725385E+01  0.39876550725E+02  0.50528860589E+02  0.30000002246E+02 0.  0.
        -12    1    3    3    0    0 -0.47759302103E+01 -0.63416725385E+01 -0.39876550725E+02  0.40659139411E+02  0.00000000000E+00 0.  1.
         11    1    4    4    0    0  0.79270049867E+01 -0.37039768763E+01  0.10744598203E+02  0.13856523502E+02  0.51100000000E-03 0. -1.
        -11    1    4    4    0    0  0.81617413394E+01  0.25544509590E+01  0.92055140776E+01  0.12565059932E+02  0.51100000000E-03 0.  1.
        -12    1    4    4    0    0 -0.11312816116E+02  0.74911984558E+01  0.19926438444E+02  0.24107277156E+02  0.00000000000E+00 0.  1.
</event>
<event>
 8    1  0.5829710E-012  0.9118800E+02  0.7816164E-02  0.1184000E+00
        -11   -1    0    0    0    0  0.00000000000E+00  0.00000000000E+00  0.45593999997E+02  0.45594000000E+02  0.51100000000E-03 0. -1.
         11   -1    0    0    0    0 -0.00000000000E+00 -0.00000000000E+00 -0.45593999997E+02  0.45594000000E+02  0.51100000000E-03 0.  1.
         23    2    1    2    0    0  0.00000000000E+00  0.17763568394E-14  0.00000000000E+00  0.91188000000E+02  0.91188000000E+02 0.  0.
    9900012    2    3    3    0    0  0.39266283594E+02  0.85410979773E+01  0.61947229196E+01  0.50528856207E+02  0.29999988927E+02 0.  0.
        -12    1    3    3    0    0 -0.39266283594E+02 -0.85410979773E+01 -0.61947229196E+01  0.40659143793E+02  0.00000000000E+00 0.  1.
         11    1    4    4    0    0  0.48839187340E+01  0.61930682799E+01 -0.27651908356E+01  0.83578129638E+01  0.51100000000E-03 0.  1.
        -11    1    4    4    0    0  0.53844441429E+00  0.23465308841E+01  0.79559487173E+01  0.83122349480E+01  0.51100000000E-03 0. -1.
        -12    1    4    4    0    0  0.33843920446E+02  0.14988132965E-02  0.10039650379E+01  0.33858808295E+02  0.00000000000E+00 0.  1.
</event>
<event>
 8    1  0.5829710E-012  0.9118800E+02  0.7816164E-02  0.1184000E+00
        -11   -1    0    0    0    0  0.00000000000E+00  0.00000000000E+00  0.45593999997E+02  0.45594000000E+02  0.51100000000E-03 0.  1.
         11   -1    0    0    0    0 -0.00000000000E+00 -0.00000000000E+00 -0.45593999997E+02  0.45594000000E+02  0.51100000000E-03 0. -1.
         23    2    1    2    0    0  0.00000000000E+00  0.00000000000E+00  0.00000000000E+00  0.91188000000E+02  0.91188000000E+02 0.  0.
    9900012    2    3    3    0    0 -0.34396835096E+02 -0.18726596853E+02  0.10924231116E+02  0.50528849495E+02  0.29999968525E+02 0.  0.
        -12    1    3    3    0    0  0.34396835096E+02  0.18726596853E+02 -0.10924231116E+02  0.40659150505E+02  0.00000000000E+00 0.  1.
         11    1    4    4    0    0 -0.40375975521E+01 -0.11372984005E+01  0.54171338163E+01  0.68513488226E+01  0.51100000000E-03 0. -1.
        -11    1    4    4    0    0 -0.25541434600E+01 -0.14595907382E+02  0.52199977152E+01  0.15710268538E+02  0.51100000000E-03 0.  1.
         12    1    4    4    0    0 -0.27805094083E+02 -0.29933910703E+01  0.28709958499E+00  0.27967232134E+02  0.00000000000E+00 0. -1.
</event>
<event>
 8    1  0.5829710E-012  0.9118800E+02  0.7816164E-02  0.1184000E+00
        -11   -1    0    0    0    0  0.00000000000E+00  0.00000000000E+00  0.45593999997E+02  0.45594000000E+02  0.51100000000E-03 0. -1.
         11   -1    0    0    0    0 -0.00000000000E+00 -0.00000000000E+00 -0.45593999997E+02  0.45594000000E+02  0.51100000000E-03 0.  1.
         23    2    1    2    0    0 -0.44408920985E-15  0.00000000000E+00 -0.17763568394E-14  0.91188000000E+02  0.91188000000E+02 0.  0.
    9900012    2    3    3    0    0 -0.36473033125E+01  0.38514590086E+02 -0.12509558497E+02  0.50528861731E+02  0.30000005718E+02 0.  0.
         12    1    3    3    0    0  0.36473033125E+01 -0.38514590086E+02  0.12509558497E+02  0.40659138269E+02  0.00000000000E+00 0. -1.
         11    1    4    4    0    0 -0.38260723097E+01  0.12713904803E+02  0.50278585365E+01  0.14197237984E+02  0.51100000000E-03 0. -1.
        -11    1    4    4    0    0 -0.76374382083E+01  0.21569356432E+02 -0.11714078714E+02  0.25705782222E+02  0.51100000000E-03 0.  1.
         12    1    4    4    0    0  0.78162072055E+01  0.42313288516E+01 -0.58233383202E+01  0.10625841525E+02  0.00000000000E+00 0. -1.
</event>
<event>
 8    1  0.5829710E-012  0.9118800E+02  0.7816164E-02  0.1184000E+00
        -11   -1    0    0    0    0  0.00000000000E+00  0.00000000000E+00  0.45593999997E+02  0.45594000000E+02  0.51100000000E-03 0. -1.
         11   -1    0    0    0    0 -0.00000000000E+00 -0.00000000000E+00 -0.45593999997E+02  0.45594000000E+02  0.51100000000E-03 0.  1.
         23    2    1    2    0    0  0.00000000000E+00  0.00000000000E+00  0.71054273576E-14  0.91188000000E+02  0.91188000000E+02 0.  0.
    9900012    2    3    3    0    0  0.14021516070E+02 -0.10272532252E+02  0.36756467996E+02  0.50528858699E+02  0.29999996503E+02 0.  0.
        -12    1    3    3    0    0 -0.14021516070E+02  0.10272532252E+02 -0.36756467996E+02  0.40659141301E+02  0.00000000000E+00 0.  1.
         11    1    4    4    0    0  0.45363175122E+01 -0.10404217187E+02  0.59372898765E+01  0.12809267082E+02  0.51100000000E-03 0.  1.
        -11    1    4    4    0    0  0.91589426478E+01  0.26852394248E+01  0.32995752164E+02  0.34348455603E+02  0.51100000000E-03 0. -1.
         12    1    4    4    0    0  0.32625591021E+00 -0.25535544902E+01 -0.21765740447E+01  0.33711360141E+01  0.00000000000E+00 0. -1.
</event>
<event>
 8    1  0.5829710E-012  0.9118800E+02  0.7816164E-02  0.1184000E+00
        -11   -1    0    0    0    0  0.00000000000E+00  0.00000000000E+00  0.45593999997E+02  0.45594000000E+02  0.51100000000E-03 0. -1.
         11   -1    0    0    0    0 -0.00000000000E+00 -0.00000000000E+00 -0.45593999997E+02  0.45594000000E+02  0.51100000000E-03 0.  1.
         23    2    1    2    0    0  0.35527136788E-14 -0.35527136788E-14  0.00000000000E+00  0.91188000000E+02  0.91188000000E+02 0.  0.
    9900012    2    3    3    0    0 -0.20886518738E+02  0.18229956783E+02  0.29742019832E+02  0.50528859171E+02  0.29999997935E+02 0.  0.
        -12    1    3    3    0    0  0.20886518738E+02 -0.18229956783E+02 -0.29742019832E+02  0.40659140829E+02  0.00000000000E+00 0.  1.
         11    1    4    4    0    0 -0.34821624707E+01  0.69816008705E+01  0.38708741975E+01  0.87092981061E+01  0.51100000000E-03 0. -1.
        -11    1    4    4    0    0 -0.72977441233E+01  0.17006153695E+02  0.23562591081E+02  0.29961008520E+02  0.51100000000E-03 0.  1.
        -12    1    4    4    0    0 -0.10106612144E+02 -0.57577977833E+01  0.23085545539E+01  0.11858552545E+02  0.00000000000E+00 0.  1.
</event>
<event>
 8    1  0.5829710E-012  0.9118800E+02  0.7816164E-02  0.1184000E+00
        -11   -1    0    0    0    0  0.00000000000E+00  0.00000000000E+00  0.45593999997E+02  0.45594000000E+02  0.51100000000E-03 0.  1.
         11   -1    0    0    0    0 -0.00000000000E+00 -0.00000000000E+00 -0.45593999997E+02  0.45594000000E+02  0.51100000000E-03 0. -1.
         23    2    1    2    0    0  0.71054273576E-14  0.88817841970E-15  0.00000000000E+00  0.91188000000E+02  0.91188000000E+02 0.  0.
    9900012    2    3    3    0    0 -0.39284394829E+02 -0.65998807183E+01  0.81451330417E+01  0.50528864558E+02  0.30000014311E+02 0.  0.
        -12    1    3    3    0    0  0.39284394829E+02  0.65998807183E+01 -0.81451330417E+01  0.40659135442E+02  0.00000000000E+00 0.  1.
         11    1    4    4    0    0 -0.11841906303E+02 -0.32788388733E+00  0.31056527093E+01  0.12246768216E+02  0.51100000000E-03 0. -1.
        -11    1    4    4    0    0 -0.28966079102E+02 -0.10544125021E+02 -0.86373334339E+00  0.30837612530E+02  0.51100000000E-03 0.  1.
        -12    1    4    4    0    0  0.15235905761E+01  0.42721281898E+01  0.59032136758E+01  0.74444838113E+01  0.00000000000E+00 0.  1.
</event>
<event>
 8    1  0.1036239E-011  0.9118800E+02  0.7816164E-02  0.1184000E+00
        -11   -1    0    0    0    0  0.00000000000E+00  0.00000000000E+00  0.45593999997E+02  0.45594000000E+02  0.51100000000E-03 0. -1.
         11   -1    0    0    0    0 -0.00000000000E+00 -0.00000000000E+00 -0.45593999997E+02  0.45594000000E+02  0.51100000000E-03 0.  1.
         23    2    1    2    0    0 -0.66613381478E-15  0.00000000000E+00  0.71054273576E-14  0.91188000000E+02  0.91188000000E+02 0.  0.
    9900012    2    3    3    0    0 -0.11224170901E+01 -0.20328169091E+02 -0.35194740682E+02  0.50528879862E+02  0.30000060829E+02 0.  0.
         12    1    3    3    0    0  0.11224170901E+01  0.20328169091E+02  0.35194740682E+02  0.40659120138E+02  0.00000000000E+00 0. -1.
         11    1    4    4    0    0  0.23974448676E+01 -0.21508542473E+01 -0.10829032160E+02  0.11297869431E+02  0.51100000000E-03 0. -1.
        -11    1    4    4    0    0  0.27879368719E+01 -0.18226713579E+02 -0.26748511795E+02  0.32487975674E+02  0.51100000000E-03 0.  1.
         12    1    4    4    0    0 -0.63077988296E+01  0.49398735505E-01  0.23828032729E+01  0.67430347579E+01  0.00000000000E+00 0. -1.
</event>
<event>
 8    1  0.5829710E-012  0.9118800E+02  0.7816164E-02  0.1184000E+00
        -11   -1    0    0    0    0  0.00000000000E+00  0.00000000000E+00  0.45593999997E+02  0.45594000000E+02  0.51100000000E-03 0. -1.
         11   -1    0    0    0    0 -0.00000000000E+00 -0.00000000000E+00 -0.45593999997E+02  0.45594000000E+02  0.51100000000E-03 0.  1.
         23    2    1    2    0    0  0.88817841970E-15  0.00000000000E+00  0.00000000000E+00  0.91188000000E+02  0.91188000000E+02 0.  0.
    9900012    2    3    3    0    0  0.60276393322E+01 -0.11281342563E+02  0.38594873099E+02  0.50528863813E+02  0.30000012045E+02 0.  0.
        -12    1    3    3    0    0 -0.60276393322E+01  0.11281342563E+02 -0.38594873099E+02  0.40659136187E+02  0.00000000000E+00 0.  1.
         11    1    4    4    0    0  0.51884996750E+01 -0.14210082755E+02  0.23246032528E+02  0.27734905973E+02  0.51100000000E-03 0. -1.
        -11    1    4    4    0    0  0.65271200880E+01 -0.40149015892E+01  0.88833666403E+01  0.11731876855E+02  0.51100000000E-03 0.  1.
         12    1    4    4    0    0 -0.56879804307E+01  0.69436417806E+01  0.64654739314E+01  0.11062080985E+02  0.00000000000E+00 0. -1.
</event>
<event>
 8    1  0.5829710E-012  0.9118800E+02  0.7816164E-02  0.1184000E+00
        -11   -1    0    0    0    0  0.00000000000E+00  0.00000000000E+00  0.45593999997E+02  0.45594000000E+02  0.51100000000E-03 0. -1.
         11   -1    0    0    0    0 -0.00000000000E+00 -0.00000000000E+00 -0.45593999997E+02  0.45594000000E+02  0.51100000000E-03 0.  1.
         23    2    1    2    0    0 -0.35527136788E-14  0.00000000000E+00 -0.71054273576E-14  0.91188000000E+02  0.91188000000E+02 0.  0.
    9900012    2    3    3    0    0  0.20406398613E+02 -0.53475808724E+01  0.34758415315E+02  0.50528866207E+02  0.30000019324E+02 0.  0.
        -12    1    3    3    0    0 -0.20406398613E+02  0.53475808724E+01 -0.34758415315E+02  0.40659133793E+02  0.00000000000E+00 0.  1.
         11    1    4    4    0    0  0.12487198553E+02  0.45233468839E+01  0.12266954942E+02  0.18079518205E+02  0.51100000000E-03 0. -1.
        -11    1    4    4    0    0  0.16938719997E+01 -0.50265423233E+01 -0.27706743990E+01  0.59843100660E+01  0.51100000000E-03 0.  1.
        -12    1    4    4    0    0  0.62253280602E+01 -0.48443854330E+01  0.25262134773E+02  0.26465037936E+02  0.00000000000E+00 0.  1.
</event>
<event>
 8    1  0.5829710E-012  0.9118800E+02  0.7816164E-02  0.1184000E+00
        -11   -1    0    0    0    0  0.00000000000E+00  0.00000000000E+00  0.45593999997E+02  0.45594000000E+02  0.51100000000E-03 0. -1.
         11   -1    0    0    0    0 -0.00000000000E+00 -0.00000000000E+00 -0.45593999997E+02  0.45594000000E+02  0.51100000000E-03 0.  1.
         23    2    1    2    0    0 -0.88817841970E-15  0.00000000000E+00  0.71054273576E-14  0.91188000000E+02  0.91188000000E+02 0.  0.
    9900012    2    3    3    0    0 -0.71242562873E+01 -0.13227556338E+02 -0.37781516435E+02  0.50528852709E+02  0.29999978293E+02 0.  0.
         12    1    3    3    0    0  0.71242562873E+01  0.13227556338E+02  0.37781516435E+02  0.40659147291E+02  0.00000000000E+00 0. -1.
         11    1    4    4    0    0  0.49386979091E+01 -0.33952761199E+01 -0.34749597418E+01  0.69277689364E+01  0.51100000000E-03 0. -1.
        -11    1    4    4    0    0  0.47783511862E+01 -0.79947933749E+01 -0.16991339806E+02  0.19376660957E+02  0.51100000000E-03 0.  1.
        -12    1    4    4    0    0 -0.16841305383E+02 -0.18374868434E+01 -0.17315216887E+02  0.24224422816E+02  0.00000000000E+00 0.  1.
</event>
<event>
 8    1  0.5829710E-012  0.9118800E+02  0.7816164E-02  0.1184000E+00
        -11   -1    0    0    0    0  0.00000000000E+00  0.00000000000E+00  0.45593999997E+02  0.45594000000E+02  0.51100000000E-03 0. -1.
         11   -1    0    0    0    0 -0.00000000000E+00 -0.00000000000E+00 -0.45593999997E+02  0.45594000000E+02  0.51100000000E-03 0.  1.
         23    2    1    2    0    0  0.17763568394E-14  0.00000000000E+00 -0.71054273576E-14  0.91188000000E+02  0.91188000000E+02 0.  0.
    9900012    2    3    3    0    0 -0.38338466386E+01 -0.17671323068E+02  0.36416912136E+02  0.50528861684E+02  0.30000005576E+02 0.  0.
        -12    1    3    3    0    0  0.38338466386E+01  0.17671323068E+02 -0.36416912136E+02  0.40659138316E+02  0.00000000000E+00 0.  1.
         11    1    4    4    0    0 -0.12069774955E+02 -0.69059273415E+01  0.20946577547E+02  0.25142203784E+02  0.51100000000E-03 0. -1.
        -11    1    4    4    0    0  0.43645107727E+01  0.31906815627E+01  0.60286441387E+01  0.80977746037E+01  0.51100000000E-03 0.  1.
        -12    1    4    4    0    0  0.38714175437E+01 -0.13956077289E+02  0.94416904507E+01  0.17288883297E+02  0.00000000000E+00 0.  1.
</event>
<event>
 8    1  0.5829710E-012  0.9118800E+02  0.7816164E-02  0.1184000E+00
        -11   -1    0    0    0    0  0.00000000000E+00  0.00000000000E+00  0.45593999997E+02  0.45594000000E+02  0.51100000000E-03 0. -1.
         11   -1    0    0    0    0 -0.00000000000E+00 -0.00000000000E+00 -0.45593999997E+02  0.45594000000E+02  0.51100000000E-03 0.  1.
         23    2    1    2    0    0  0.35527136788E-14  0.35527136788E-14  0.00000000000E+00  0.91188000000E+02  0.91188000000E+02 0.  0.
    9900012    2    3    3    0    0 -0.29006562532E+02  0.28394774194E+02  0.23499028561E+01  0.50528856934E+02  0.29999991136E+02 0.  0.
        -12    1    3    3    0    0  0.29006562532E+02 -0.28394774194E+02 -0.23499028561E+01  0.40659143066E+02  0.00000000000E+00 0.  1.
         11    1    4    4    0    0 -0.12986268226E+01  0.49131694643E+00 -0.14761782706E+01  0.20265553320E+01  0.51100000000E-03 0. -1.
        -11    1    4    4    0    0  0.21425722692E+01  0.73613909887E+01 -0.73107389679E+01  0.10593752769E+02  0.51100000000E-03 0.  1.
         12    1    4    4    0    0 -0.29850507979E+02  0.20542066259E+02  0.11136820095E+02  0.37908548832E+02  0.00000000000E+00 0. -1.
</event>
<event>
 8    1  0.5829710E-012  0.9118800E+02  0.7816164E-02  0.1184000E+00
        -11   -1    0    0    0    0  0.00000000000E+00  0.00000000000E+00  0.45593999997E+02  0.45594000000E+02  0.51100000000E-03 0. -1.
         11   -1    0    0    0    0 -0.00000000000E+00 -0.00000000000E+00 -0.45593999997E+02  0.45594000000E+02  0.51100000000E-03 0.  1.
         23    2    1    2    0    0 -0.35527136788E-14 -0.35527136788E-14  0.35527136788E-14  0.91188000000E+02  0.91188000000E+02 0.  0.
    9900012    2    3    3    0    0  0.17838617061E+02  0.20472847647E+02 -0.30262371379E+02  0.50528869772E+02  0.30000030158E+02 0.  0.
         12    1    3    3    0    0 -0.17838617061E+02 -0.20472847647E+02  0.30262371379E+02  0.40659130228E+02  0.00000000000E+00 0. -1.
         11    1    4    4    0    0  0.18981857281E+01  0.33101514803E+01  0.15004876524E+01  0.41002043043E+01  0.51100000000E-03 0. -1.
        -11    1    4    4    0    0  0.12529231491E+02  0.19642033637E+02 -0.11972729990E+02  0.26194224380E+02  0.51100000000E-03 0.  1.
         12    1    4    4    0    0  0.34111998420E+01 -0.24793374707E+01 -0.19790129041E+02  0.20234441088E+02  0.00000000000E+00 0. -1.
</event>
<event>
 8    1  0.5829710E-012  0.9118800E+02  0.7816164E-02  0.1184000E+00
        -11   -1    0    0    0    0  0.00000000000E+00  0.00000000000E+00  0.45593999997E+02  0.45594000000E+02  0.51100000000E-03 0. -1.
         11   -1    0    0    0    0 -0.00000000000E+00 -0.00000000000E+00 -0.45593999997E+02  0.45594000000E+02  0.51100000000E-03 0.  1.
         23    2    1    2    0    0  0.17763568394E-14 -0.17763568394E-14  0.00000000000E+00  0.91188000000E+02  0.91188000000E+02 0.  0.
    9900012    2    3    3    0    0  0.13297858491E+02  0.12168114773E+02 -0.36445426039E+02  0.50528866502E+02  0.30000020220E+02 0.  0.
         12    1    3    3    0    0 -0.13297858491E+02 -0.12168114773E+02  0.36445426039E+02  0.40659133498E+02  0.00000000000E+00 0. -1.
         11    1    4    4    0    0 -0.21920888202E+00 -0.18271572256E+01 -0.43046220124E+00  0.18899349272E+01  0.51100000000E-03 0. -1.
        -11    1    4    4    0    0 -0.29691231265E+01 -0.58318775988E+01 -0.46136519553E+01  0.80070139936E+01  0.51100000000E-03 0.  1.
        -12    1    4    4    0    0  0.16486190500E+02  0.19827149598E+02 -0.31401311883E+02  0.40631917581E+02  0.00000000000E+00 0.  1.
</event>
<event>
 8    1  0.5829710E-012  0.9118800E+02  0.7816164E-02  0.1184000E+00
        -11   -1    0    0    0    0  0.00000000000E+00  0.00000000000E+00  0.45593999997E+02  0.45594000000E+02  0.51100000000E-03 0. -1.
         11   -1    0    0    0    0 -0.00000000000E+00 -0.00000000000E+00 -0.45593999997E+02  0.45594000000E+02  0.51100000000E-03 0.  1.
         23    2    1    2    0    0  0.71054273576E-14  0.88817841970E-15  0.35527136788E-14  0.91188000000E+02  0.91188000000E+02 0.  0.
    9900012    2    3    3    0    0  0.33203462106E+02  0.57765173070E+01  0.22744837768E+02  0.50528859661E+02  0.29999999426E+02 0.  0.
        -12    1    3    3    0    0 -0.33203462106E+02 -0.57765173070E+01 -0.22744837768E+02  0.40659140339E+02  0.00000000000E+00 0.  1.
         11    1    4    4    0    0  0.16878228029E+02  0.60439220993E+01  0.22682223048E+02  0.28911707290E+02  0.51100000000E-03 0. -1.
        -11    1    4    4    0    0  0.13965140598E+02 -0.56251078532E+01 -0.24369132697E+01  0.15251410978E+02  0.51100000000E-03 0.  1.
         12    1    4    4    0    0  0.23600934784E+01  0.53577030608E+01  0.24995279903E+01  0.63657413935E+01  0.00000000000E+00 0. -1.
</event>
<event>
 8    1  0.5829710E-012  0.9118800E+02  0.7816164E-02  0.1184000E+00
        -11   -1    0    0    0    0  0.00000000000E+00  0.00000000000E+00  0.45593999997E+02  0.45594000000E+02  0.51100000000E-03 0.  1.
         11   -1    0    0    0    0 -0.00000000000E+00 -0.00000000000E+00 -0.45593999997E+02  0.45594000000E+02  0.51100000000E-03 0. -1.
         23    2    1    2    0    0 -0.33306690739E-15  0.71054273576E-14  0.00000000000E+00  0.91188000000E+02  0.91188000000E+02 0.  0.
    9900012    2    3    3    0    0 -0.81801413055E+00  0.32501256282E+02  0.24416482677E+02  0.50528862855E+02  0.30000009135E+02 0.  0.
        -12    1    3    3    0    0  0.81801413055E+00 -0.32501256282E+02 -0.24416482677E+02  0.40659137145E+02  0.00000000000E+00 0.  1.
         11    1    4    4    0    0  0.43214572653E+01  0.57297875382E+01  0.17552192951E+02  0.18962724904E+02  0.51100000000E-03 0. -1.
        -11    1    4    4    0    0 -0.28862860242E+00 -0.17625050256E+01  0.95651302402E+00  0.20259930557E+01  0.51100000000E-03 0.  1.
         12    1    4    4    0    0 -0.48508427934E+01  0.28533973770E+02  0.59077767021E+01  0.29540144896E+02  0.00000000000E+00 0. -1.
</event>
<event>
 8    1  0.5829710E-012  0.9118800E+02  0.7816164E-02  0.1184000E+00
        -11   -1    0    0    0    0  0.00000000000E+00  0.00000000000E+00  0.45593999997E+02  0.45594000000E+02  0.51100000000E-03 0.  1.
         11   -1    0    0    0    0 -0.00000000000E+00 -0.00000000000E+00 -0.45593999997E+02  0.45594000000E+02  0.51100000000E-03 0. -1.
         23    2    1    2    0    0  0.00000000000E+00  0.35527136788E-14 -0.88817841970E-15  0.91188000000E+02  0.91188000000E+02 0.  0.
    9900012    2    3    3    0    0  0.36677117038E+02 -0.16120042608E+02  0.69353347021E+01  0.50528861355E+02  0.30000004575E+02 0.  0.
        -12    1    3    3    0    0 -0.36677117038E+02  0.16120042608E+02 -0.69353347021E+01  0.40659138645E+02  0.00000000000E+00 0.  1.
         11    1    4    4    0    0  0.33457435439E+01  0.43691896649E+01  0.24361803377E+01  0.60182051384E+01  0.51100000000E-03 0. -1.
        -11    1    4    4    0    0  0.10384886541E+01 -0.27874579370E+01  0.69935558456E+01  0.75998818452E+01  0.51100000000E-03 0.  1.
         12    1    4    4    0    0  0.32292884840E+02 -0.17701774336E+02 -0.24944014812E+01  0.36910774371E+02  0.00000000000E+00 0. -1.
</event>
<event>
 8    1  0.5829710E-012  0.9118800E+02  0.7816164E-02  0.1184000E+00
        -11   -1    0    0    0    0  0.00000000000E+00  0.00000000000E+00  0.45593999997E+02  0.45594000000E+02  0.51100000000E-03 0.  1.
         11   -1    0    0    0    0 -0.00000000000E+00 -0.00000000000E+00 -0.45593999997E+02  0.45594000000E+02  0.51100000000E-03 0. -1.
         23    2    1    2    0    0  0.44408920985E-15  0.00000000000E+00  0.17763568394E-14  0.91188000000E+02  0.91188000000E+02 0.  0.
    9900012    2    3    3    0    0  0.25351940885E+01  0.39310807042E+02 -0.10069700394E+02  0.50528860493E+02  0.30000001956E+02 0.  0.
         12    1    3    3    0    0 -0.25351940885E+01 -0.39310807042E+02  0.10069700394E+02  0.40659139507E+02  0.00000000000E+00 0. -1.
         11    1    4    4    0    0  0.29571059187E+01 -0.13534837674E+01  0.36325426216E+01  0.48756291781E+01  0.51100000000E-03 0. -1.
        -11    1    4    4    0    0  0.39129800988E+01  0.37473922437E+01 -0.52278047866E+01  0.75288979957E+01  0.51100000000E-03 0.  1.
        -12    1    4    4    0    0 -0.43348919290E+01  0.36916898566E+02 -0.84744382288E+01  0.38124333320E+02  0.00000000000E+00 0.  1.
</event>
<event>
 8    1  0.5829710E-012  0.9118800E+02  0.7816164E-02  0.1184000E+00
        -11   -1    0    0    0    0  0.00000000000E+00  0.00000000000E+00  0.45593999997E+02  0.45594000000E+02  0.51100000000E-03 0. -1.
         11   -1    0    0    0    0 -0.00000000000E+00 -0.00000000000E+00 -0.45593999997E+02  0.45594000000E+02  0.51100000000E-03 0.  1.
         23    2    1    2    0    0  0.00000000000E+00  0.35527136788E-14  0.00000000000E+00  0.91188000000E+02  0.91188000000E+02 0.  0.
    9900012    2    3    3    0    0  0.30417044590E+02 -0.25169647099E+02 -0.97189395345E+01  0.50528861761E+02  0.30000005809E+02 0.  0.
         12    1    3    3    0    0 -0.30417044590E+02  0.25169647099E+02  0.97189395345E+01  0.40659138239E+02  0.00000000000E+00 0. -1.
         11    1    4    4    0    0  0.78337884969E+01 -0.54416989329E+01  0.42537171420E+01  0.10443870895E+02  0.51100000000E-03 0. -1.
        -11    1    4    4    0    0  0.11141958704E+01  0.42541087402E+01  0.11145898365E+01  0.45366490250E+01  0.51100000000E-03 0.  1.
        -12    1    4    4    0    0  0.21469060222E+02 -0.23982056906E+02 -0.15087246513E+02  0.35548341841E+02  0.00000000000E+00 0.  1.
</event>
<event>
 8    1  0.5829710E-012  0.9118800E+02  0.7816164E-02  0.1184000E+00
        -11   -1    0    0    0    0  0.00000000000E+00  0.00000000000E+00  0.45593999997E+02  0.45594000000E+02  0.51100000000E-03 0. -1.
         11   -1    0    0    0    0 -0.00000000000E+00 -0.00000000000E+00 -0.45593999997E+02  0.45594000000E+02  0.51100000000E-03 0.  1.
         23    2    1    2    0    0 -0.88817841970E-15 -0.17763568394E-14  0.00000000000E+00  0.91188000000E+02  0.91188000000E+02 0.  0.
    9900012    2    3    3    0    0 -0.67397375318E+01 -0.10957975488E+02  0.38570223895E+02  0.50528887121E+02  0.30000082893E+02 0.  0.
        -12    1    3    3    0    0  0.67397375318E+01  0.10957975488E+02 -0.38570223895E+02  0.40659112879E+02  0.00000000000E+00 0.  1.
         11    1    4    4    0    0  0.16728608755E+01  0.65378914373E+01  0.20150714962E+02  0.21250736498E+02  0.51100000000E-03 0. -1.
        -11    1    4    4    0    0 -0.29112125908E+01 -0.41309210520E+00 -0.73381109589E+00  0.30305581700E+01  0.51100000000E-03 0.  1.
         12    1    4    4    0    0 -0.55013858165E+01 -0.17082774820E+02  0.19153320029E+02  0.26247592453E+02  0.00000000000E+00 0. -1.
</event>
<event>
 8    1  0.5829710E-012  0.9118800E+02  0.7816164E-02  0.1184000E+00
        -11   -1    0    0    0    0  0.00000000000E+00  0.00000000000E+00  0.45593999997E+02  0.45594000000E+02  0.51100000000E-03 0. -1.
         11   -1    0    0    0    0 -0.00000000000E+00 -0.00000000000E+00 -0.45593999997E+02  0.45594000000E+02  0.51100000000E-03 0.  1.
         23    2    1    2    0    0  0.00000000000E+00  0.13322676296E-14  0.00000000000E+00  0.91188000000E+02  0.91188000000E+02 0.  0.
    9900012    2    3    3    0    0  0.20222381418E+02  0.39991984765E+01 -0.35046085300E+02  0.50528851048E+02  0.29999973244E+02 0.  0.
         12    1    3    3    0    0 -0.20222381418E+02 -0.39991984765E+01  0.35046085300E+02  0.40659148952E+02  0.00000000000E+00 0. -1.
         11    1    4    4    0    0  0.74710287332E+01 -0.76981094697E+01 -0.14382673050E+02  0.17942643174E+02  0.51100000000E-03 0.  1.
        -11    1    4    4    0    0  0.99318315044E+00 -0.36948900892E+01 -0.94732787972E+01  0.10216733185E+02  0.51100000000E-03 0. -1.
         12    1    4    4    0    0  0.11758169534E+02  0.15392198035E+02 -0.11190133453E+02  0.22369474689E+02  0.00000000000E+00 0. -1.
</event>
<event>
 8    1  0.5829710E-012  0.9118800E+02  0.7816164E-02  0.1184000E+00
        -11   -1    0    0    0    0  0.00000000000E+00  0.00000000000E+00  0.45593999997E+02  0.45594000000E+02  0.51100000000E-03 0. -1.
         11   -1    0    0    0    0 -0.00000000000E+00 -0.00000000000E+00 -0.45593999997E+02  0.45594000000E+02  0.51100000000E-03 0.  1.
         23    2    1    2    0    0 -0.17763568394E-14 -0.35527136788E-14 -0.71054273576E-14  0.91188000000E+02  0.91188000000E+02 0.  0.
    9900012    2    3    3    0    0 -0.11272179471E+02 -0.16117860207E+02 -0.35585369651E+02  0.50528856122E+02  0.29999988669E+02 0.  0.
         12    1    3    3    0    0  0.11272179471E+02  0.16117860207E+02  0.35585369651E+02  0.40659143878E+02  0.00000000000E+00 0. -1.
         11    1    4    4    0    0  0.16086947776E+01 -0.14335549186E+01 -0.51220291698E+01  0.55568121859E+01  0.51100000000E-03 0. -1.
        -11    1    4    4    0    0 -0.12369379463E+02 -0.13189117138E+02 -0.35420602213E+02  0.39769000749E+02  0.51100000000E-03 0.  1.
         12    1    4    4    0    0 -0.51149478601E+00 -0.14951881504E+01  0.49572617323E+01  0.52030431868E+01  0.00000000000E+00 0. -1.
</event>
<event>
 8    1  0.5829710E-012  0.9118800E+02  0.7816164E-02  0.1184000E+00
        -11   -1    0    0    0    0  0.00000000000E+00  0.00000000000E+00  0.45593999997E+02  0.45594000000E+02  0.51100000000E-03 0. -1.
         11   -1    0    0    0    0 -0.00000000000E+00 -0.00000000000E+00 -0.45593999997E+02  0.45594000000E+02  0.51100000000E-03 0.  1.
         23    2    1    2    0    0  0.00000000000E+00 -0.17763568394E-14  0.88817841970E-15  0.91188000000E+02  0.91188000000E+02 0.  0.
    9900012    2    3    3    0    0 -0.38413081383E+02  0.11984692064E+02 -0.58281640892E+01  0.50528866194E+02  0.30000019284E+02 0.  0.
         12    1    3    3    0    0  0.38413081383E+02 -0.11984692064E+02  0.58281640892E+01  0.40659133806E+02  0.00000000000E+00 0. -1.
         11    1    4    4    0    0 -0.11223515710E+02 -0.57824861370E+01 -0.18663670030E+01  0.12762749581E+02  0.51100000000E-03 0.  1.
        -11    1    4    4    0    0 -0.78929904598E+00 -0.35375112363E+01 -0.62547820055E+00  0.36780704142E+01  0.51100000000E-03 0. -1.
        -12    1    4    4    0    0 -0.26400266627E+02  0.21304689437E+02 -0.33363188856E+01  0.34088046199E+02  0.00000000000E+00 0.  1.
</event>
<event>
 8    1  0.5829710E-012  0.9118800E+02  0.7816164E-02  0.1184000E+00
        -11   -1    0    0    0    0  0.00000000000E+00  0.00000000000E+00  0.45593999997E+02  0.45594000000E+02  0.51100000000E-03 0. -1.
         11   -1    0    0    0    0 -0.00000000000E+00 -0.00000000000E+00 -0.45593999997E+02  0.45594000000E+02  0.51100000000E-03 0.  1.
         23    2    1    2    0    0 -0.17763568394E-14  0.00000000000E+00  0.71054273576E-14  0.91188000000E+02  0.91188000000E+02 0.  0.
    9900012    2    3    3    0    0 -0.87668987494E+01 -0.99361916719E+01  0.38439300508E+02  0.50528852909E+02  0.29999978902E+02 0.  0.
        -12    1    3    3    0    0  0.87668987494E+01  0.99361916719E+01 -0.38439300508E+02  0.40659147091E+02  0.00000000000E+00 0.  1.
         11    1    4    4    0    0 -0.30741738841E+01 -0.11444817957E+01  0.19213108015E+02  0.19491123711E+02  0.51100000000E-03 0. -1.
        -11    1    4    4    0    0 -0.39562426346E+01  0.63780915725E+01  0.11979437325E+02  0.14136436141E+02  0.51100000000E-03 0.  1.
         12    1    4    4    0    0 -0.17364822306E+01 -0.15169801449E+02  0.72467551682E+01  0.16901293057E+02  0.00000000000E+00 0. -1.
</event>
<event>
 8    1  0.5829710E-012  0.9118800E+02  0.7816164E-02  0.1184000E+00
        -11   -1    0    0    0    0  0.00000000000E+00  0.00000000000E+00  0.45593999997E+02  0.45594000000E+02  0.51100000000E-03 0. -1.
         11   -1    0    0    0    0 -0.00000000000E+00 -0.00000000000E+00 -0.45593999997E+02  0.45594000000E+02  0.51100000000E-03 0.  1.
         23    2    1    2    0    0  0.88817841970E-15 -0.17763568394E-14  0.00000000000E+00  0.91188000000E+02  0.91188000000E+02 0.  0.
    9900012    2    3    3    0    0 -0.75111179605E+01  0.13959658207E+02  0.37441635814E+02  0.50528867659E+02  0.30000023736E+02 0.  0.
        -12    1    3    3    0    0  0.75111179605E+01 -0.13959658207E+02 -0.37441635814E+02  0.40659132341E+02  0.00000000000E+00 0.  1.
         11    1    4    4    0    0 -0.40197357369E+01  0.83076584693E+01  0.97734299446E+01  0.13442298828E+02  0.51100000000E-03 0. -1.
        -11    1    4    4    0    0 -0.96033566402E+01  0.96861208624E+01  0.73612373318E+01  0.15499458424E+02  0.51100000000E-03 0.  1.
         12    1    4    4    0    0  0.61119744166E+01 -0.40341211248E+01  0.20306968538E+02  0.21587110407E+02  0.00000000000E+00 0. -1.
</event>
<event>
 8    1  0.5829710E-012  0.9118800E+02  0.7816164E-02  0.1184000E+00
        -11   -1    0    0    0    0  0.00000000000E+00  0.00000000000E+00  0.45593999997E+02  0.45594000000E+02  0.51100000000E-03 0.  1.
         11   -1    0    0    0    0 -0.00000000000E+00 -0.00000000000E+00 -0.45593999997E+02  0.45594000000E+02  0.51100000000E-03 0. -1.
         23    2    1    2    0    0  0.35527136788E-14 -0.71054273576E-14  0.00000000000E+00  0.91188000000E+02  0.91188000000E+02 0.  0.
    9900012    2    3    3    0    0  0.16736363194E+02 -0.32988340400E+02 -0.16876907077E+02  0.50528850380E+02  0.29999971216E+02 0.  0.
         12    1    3    3    0    0 -0.16736363194E+02  0.32988340400E+02  0.16876907077E+02  0.40659149620E+02  0.00000000000E+00 0. -1.
         11    1    4    4    0    0 -0.22123565228E+01 -0.66371009674E+01  0.74974470120E-01  0.69965171384E+01  0.51100000000E-03 0. -1.
        -11    1    4    4    0    0  0.80036859573E+01 -0.14661964228E+02  0.39855134909E+01  0.17173133144E+02  0.51100000000E-03 0.  1.
        -12    1    4    4    0    0  0.10945033760E+02 -0.11689275204E+02 -0.20937395038E+02  0.26359200098E+02  0.00000000000E+00 0.  1.
</event>
<event>
 8    1  0.5829710E-012  0.9118800E+02  0.7816164E-02  0.1184000E+00
        -11   -1    0    0    0    0  0.00000000000E+00  0.00000000000E+00  0.45593999997E+02  0.45594000000E+02  0.51100000000E-03 0. -1.
         11   -1    0    0    0    0 -0.00000000000E+00 -0.00000000000E+00 -0.45593999997E+02  0.45594000000E+02  0.51100000000E-03 0.  1.
         23    2    1    2    0    0  0.00000000000E+00  0.00000000000E+00  0.00000000000E+00  0.91188000000E+02  0.91188000000E+02 0.  0.
    9900012    2    3    3    0    0  0.32753302877E+02 -0.89991702136E+01 -0.22347309190E+02  0.50528854142E+02  0.29999982649E+02 0.  0.
         12    1    3    3    0    0 -0.32753302877E+02  0.89991702136E+01  0.22347309190E+02  0.40659145858E+02  0.00000000000E+00 0. -1.
         11    1    4    4    0    0 -0.47353432093E+00  0.46212368852E+01 -0.69125705350E+01  0.83284870633E+01  0.51100000000E-03 0. -1.
        -11    1    4    4    0    0 -0.37543707685E+00 -0.12960023652E+01  0.19810741225E+01  0.23969209560E+01  0.51100000000E-03 0.  1.
        -12    1    4    4    0    0  0.33602274275E+02 -0.12324404734E+02 -0.17415812777E+02  0.39803446122E+02  0.00000000000E+00 0.  1.
</event>
<event>
 8    1  0.5829710E-012  0.9118800E+02  0.7816164E-02  0.1184000E+00
        -11   -1    0    0    0    0  0.00000000000E+00  0.00000000000E+00  0.45593999997E+02  0.45594000000E+02  0.51100000000E-03 0. -1.
         11   -1    0    0    0    0 -0.00000000000E+00 -0.00000000000E+00 -0.45593999997E+02  0.45594000000E+02  0.51100000000E-03 0.  1.
         23    2    1    2    0    0  0.00000000000E+00 -0.17763568394E-14  0.00000000000E+00  0.91188000000E+02  0.91188000000E+02 0.  0.
    9900012    2    3    3    0    0  0.16456362106E+02  0.14326466971E+02 -0.34308877267E+02  0.50528947270E+02  0.30000265719E+02 0.  0.
         12    1    3    3    0    0 -0.16456362106E+02 -0.14326466971E+02  0.34308877267E+02  0.40659052730E+02  0.00000000000E+00 0. -1.
         11    1    4    4    0    0 -0.51057618445E+01  0.51158691170E+01 -0.54103342981E+01  0.90284349870E+01  0.51100000000E-03 0. -1.
        -11    1    4    4    0    0 -0.53680184845E+00 -0.85978072926E+00 -0.11695807388E+02  0.11739646070E+02  0.51100000000E-03 0.  1.
         12    1    4    4    0    0  0.22098925799E+02  0.10070378583E+02 -0.17202735581E+02  0.29760866213E+02  0.00000000000E+00 0. -1.
</event>
<event>
 8    1  0.5829710E-012  0.9118800E+02  0.7816164E-02  0.1184000E+00
        -11   -1    0    0    0    0  0.00000000000E+00  0.00000000000E+00  0.45593999997E+02  0.45594000000E+02  0.51100000000E-03 0. -1.
         11   -1    0    0    0    0 -0.00000000000E+00 -0.00000000000E+00 -0.45593999997E+02  0.45594000000E+02  0.51100000000E-03 0.  1.
         23    2    1    2    0    0  0.00000000000E+00  0.66613381478E-15  0.35527136788E-14  0.91188000000E+02  0.91188000000E+02 0.  0.
    9900012    2    3    3    0    0 -0.31386912055E+02  0.15168993064E+01  0.25801659038E+02  0.50528870140E+02  0.30000031277E+02 0.  0.
        -12    1    3    3    0    0  0.31386912055E+02 -0.15168993064E+01 -0.25801659038E+02  0.40659129860E+02  0.00000000000E+00 0.  1.
         11    1    4    4    0    0  0.24918218265E+01 -0.11812350753E+01  0.64386774951E+01  0.70043601039E+01  0.51100000000E-03 0. -1.
        -11    1    4    4    0    0 -0.29238743546E+01 -0.59868064066E+01  0.49028813770E+01  0.82721906560E+01  0.51100000000E-03 0.  1.
         12    1    4    4    0    0 -0.30954859527E+02  0.86849407883E+01  0.14460100166E+02  0.35252319380E+02  0.00000000000E+00 0. -1.
</event>
<event>
 8    1  0.5829710E-012  0.9118800E+02  0.7816164E-02  0.1184000E+00
        -11   -1    0    0    0    0  0.00000000000E+00  0.00000000000E+00  0.45593999997E+02  0.45594000000E+02  0.51100000000E-03 0. -1.
         11   -1    0    0    0    0 -0.00000000000E+00 -0.00000000000E+00 -0.45593999997E+02  0.45594000000E+02  0.51100000000E-03 0.  1.
         23    2    1    2    0    0  0.00000000000E+00  0.71054273576E-14  0.00000000000E+00  0.91188000000E+02  0.91188000000E+02 0.  0.
    9900012    2    3    3    0    0  0.11107540776E+02 -0.38703298371E+02  0.56429457139E+01  0.50528860766E+02  0.30000002786E+02 0.  0.
        -12    1    3    3    0    0 -0.11107540776E+02  0.38703298371E+02 -0.56429457139E+01  0.40659139234E+02  0.00000000000E+00 0.  1.
         11    1    4    4    0    0 -0.51757893954E+01 -0.53940702605E+01 -0.57890012224E+01  0.94550158781E+01  0.51100000000E-03 0. -1.
        -11    1    4    4    0    0  0.28021588029E+01 -0.91561289148E+01 -0.27867905891E+01  0.99726121307E+01  0.51100000000E-03 0.  1.
         12    1    4    4    0    0  0.13481171368E+02 -0.24153099196E+02  0.14218737526E+02  0.31101232758E+02  0.00000000000E+00 0. -1.
</event>
<event>
 8    1  0.5829710E-012  0.9118800E+02  0.7816164E-02  0.1184000E+00
        -11   -1    0    0    0    0  0.00000000000E+00  0.00000000000E+00  0.45593999997E+02  0.45594000000E+02  0.51100000000E-03 0. -1.
         11   -1    0    0    0    0 -0.00000000000E+00 -0.00000000000E+00 -0.45593999997E+02  0.45594000000E+02  0.51100000000E-03 0.  1.
         23    2    1    2    0    0  0.00000000000E+00  0.71054273576E-14 -0.88817841970E-15  0.91188000000E+02  0.91188000000E+02 0.  0.
    9900012    2    3    3    0    0  0.15840086804E+02 -0.36888783293E+02  0.64400880962E+01  0.50528863050E+02  0.30000009728E+02 0.  0.
        -12    1    3    3    0    0 -0.15840086804E+02  0.36888783293E+02 -0.64400880962E+01  0.40659136950E+02  0.00000000000E+00 0.  1.
         11    1    4    4    0    0  0.30773295726E+01  0.12480972127E+01 -0.20911822467E+01  0.39243786006E+01  0.51100000000E-03 0. -1.
        -11    1    4    4    0    0  0.63142516189E+01  0.65321785674E+00 -0.87601878122E-01  0.63485542784E+01  0.51100000000E-03 0.  1.
         12    1    4    4    0    0  0.64485056127E+01 -0.38790098362E+02  0.86188722210E+01  0.40255930171E+02  0.00000000000E+00 0. -1.
</event>
<event>
 8    1  0.5829710E-012  0.9118800E+02  0.7816164E-02  0.1184000E+00
        -11   -1    0    0    0    0  0.00000000000E+00  0.00000000000E+00  0.45593999997E+02  0.45594000000E+02  0.51100000000E-03 0. -1.
         11   -1    0    0    0    0 -0.00000000000E+00 -0.00000000000E+00 -0.45593999997E+02  0.45594000000E+02  0.51100000000E-03 0.  1.
         23    2    1    2    0    0  0.00000000000E+00 -0.17763568394E-14  0.71054273576E-14  0.91188000000E+02  0.91188000000E+02 0.  0.
    9900012    2    3    3    0    0 -0.95187764465E+01  0.98100026857E+01  0.38292594446E+02  0.50528855308E+02  0.29999986193E+02 0.  0.
        -12    1    3    3    0    0  0.95187764465E+01 -0.98100026857E+01 -0.38292594446E+02  0.40659144692E+02  0.00000000000E+00 0.  1.
         11    1    4    4    0    0  0.19841093632E+01 -0.65227683606E+01  0.20362168191E+02  0.21473264557E+02  0.51100000000E-03 0. -1.
        -11    1    4    4    0    0  0.50445388308E+00  0.70385799984E+01  0.27180659513E+01  0.75620079933E+01  0.51100000000E-03 0.  1.
        -12    1    4    4    0    0 -0.12007339693E+02  0.92941910480E+01  0.15212360303E+02  0.21493582757E+02  0.00000000000E+00 0.  1.
</event>
<event>
 8    1  0.5829710E-012  0.9118800E+02  0.7816164E-02  0.1184000E+00
        -11   -1    0    0    0    0  0.00000000000E+00  0.00000000000E+00  0.45593999997E+02  0.45594000000E+02  0.51100000000E-03 0.  1.
         11   -1    0    0    0    0 -0.00000000000E+00 -0.00000000000E+00 -0.45593999997E+02  0.45594000000E+02  0.51100000000E-03 0. -1.
         23    2    1    2    0    0  0.00000000000E+00  0.17763568394E-14  0.00000000000E+00  0.91188000000E+02  0.91188000000E+02 0.  0.
    9900012    2    3    3    0    0 -0.33710111252E+02 -0.93341183931E+01  0.20728439892E+02  0.50528860964E+02  0.30000003386E+02 0.  0.
         12    1    3    3    0    0  0.33710111252E+02  0.93341183931E+01 -0.20728439892E+02  0.40659139036E+02  0.00000000000E+00 0. -1.
         11    1    4    4    0    0 -0.82676015291E+01 -0.12291652773E+02  0.48288081911E+01  0.15580608196E+02  0.51100000000E-03 0. -1.
        -11    1    4    4    0    0 -0.16309542690E+02 -0.68748203807E+01  0.87965280418E+01  0.19764696908E+02  0.51100000000E-03 0.  1.
         12    1    4    4    0    0 -0.91329670329E+01  0.98323547608E+01  0.71031036592E+01  0.15183555860E+02  0.00000000000E+00 0. -1.
</event>
<event>
 8    1  0.5829710E-012  0.9118800E+02  0.7816164E-02  0.1184000E+00
        -11   -1    0    0    0    0  0.00000000000E+00  0.00000000000E+00  0.45593999997E+02  0.45594000000E+02  0.51100000000E-03 0. -1.
         11   -1    0    0    0    0 -0.00000000000E+00 -0.00000000000E+00 -0.45593999997E+02  0.45594000000E+02  0.51100000000E-03 0.  1.
         23    2    1    2    0    0  0.00000000000E+00  0.00000000000E+00  0.00000000000E+00  0.91188000000E+02  0.91188000000E+02 0.  0.
    9900012    2    3    3    0    0  0.30394742007E+02 -0.19837505364E+02 -0.18324836330E+02  0.50528848665E+02  0.29999966004E+02 0.  0.
         12    1    3    3    0    0 -0.30394742007E+02  0.19837505364E+02  0.18324836330E+02  0.40659151335E+02  0.00000000000E+00 0. -1.
         11    1    4    4    0    0  0.14062652209E+02 -0.83362425861E+01 -0.12776648559E+00  0.16348316492E+02  0.51100000000E-03 0. -1.
        -11    1    4    4    0    0 -0.15361052782E+01 -0.22115214690E+01  0.36056068435E+01  0.45000941773E+01  0.51100000000E-03 0.  1.
        -12    1    4    4    0    0  0.17868195076E+02 -0.92897413091E+01 -0.21802676688E+02  0.29680437996E+02  0.00000000000E+00 0.  1.
</event>
<event>
 8    1  0.5829710E-012  0.9118800E+02  0.7816164E-02  0.1184000E+00
        -11   -1    0    0    0    0  0.00000000000E+00  0.00000000000E+00  0.45593999997E+02  0.45594000000E+02  0.51100000000E-03 0. -1.
         11   -1    0    0    0    0 -0.00000000000E+00 -0.00000000000E+00 -0.45593999997E+02  0.45594000000E+02  0.51100000000E-03 0.  1.
         23    2    1    2    0    0  0.00000000000E+00 -0.26645352591E-14  0.00000000000E+00  0.91188000000E+02  0.91188000000E+02 0.  0.
    9900012    2    3    3    0    0 -0.16766076624E+02 -0.78585422393E+01  0.36198170770E+02  0.50528861070E+02  0.30000003708E+02 0.  0.
        -12    1    3    3    0    0  0.16766076624E+02  0.78585422393E+01 -0.36198170770E+02  0.40659138930E+02  0.00000000000E+00 0.  1.
         11    1    4    4    0    0 -0.21739146033E+01 -0.41283793824E+01  0.97019367426E+01  0.10765546797E+02  0.51100000000E-03 0. -1.
        -11    1    4    4    0    0 -0.46504473898E+01 -0.10987328558E+02  0.24558176968E+02  0.27302968813E+02  0.51100000000E-03 0.  1.
         12    1    4    4    0    0 -0.99417146306E+01  0.72571657010E+01  0.19380570594E+01  0.12460345460E+02  0.00000000000E+00 0. -1.
</event>
<event>
 8    1  0.5829710E-012  0.9118800E+02  0.7816164E-02  0.1184000E+00
        -11   -1    0    0    0    0  0.00000000000E+00  0.00000000000E+00  0.45593999997E+02  0.45594000000E+02  0.51100000000E-03 0. -1.
         11   -1    0    0    0    0 -0.00000000000E+00 -0.00000000000E+00 -0.45593999997E+02  0.45594000000E+02  0.51100000000E-03 0.  1.
         23    2    1    2    0    0 -0.17763568394E-14  0.00000000000E+00  0.00000000000E+00  0.91188000000E+02  0.91188000000E+02 0.  0.
    9900012    2    3    3    0    0  0.10567148578E+02 -0.66445570126E+01 -0.38695611608E+02  0.50528866651E+02  0.30000020673E+02 0.  0.
         12    1    3    3    0    0 -0.10567148578E+02  0.66445570126E+01  0.38695611608E+02  0.40659133349E+02  0.00000000000E+00 0. -1.
         11    1    4    4    0    0 -0.16178357703E+01  0.61160800148E+01 -0.44077172920E+01  0.77104992909E+01  0.51100000000E-03 0. -1.
        -11    1    4    4    0    0  0.64164756382E+01 -0.61510775308E+01 -0.32720928368E+02  0.33906725998E+02  0.51100000000E-03 0.  1.
        -12    1    4    4    0    0  0.57685087106E+01 -0.66095594967E+01 -0.15669659482E+01  0.89116413621E+01  0.00000000000E+00 0.  1.
</event>
<event>
 8    1  0.5829710E-012  0.9118800E+02  0.7816164E-02  0.1184000E+00
        -11   -1    0    0    0    0  0.00000000000E+00  0.00000000000E+00  0.45593999997E+02  0.45594000000E+02  0.51100000000E-03 0. -1.
         11   -1    0    0    0    0 -0.00000000000E+00 -0.00000000000E+00 -0.45593999997E+02  0.45594000000E+02  0.51100000000E-03 0.  1.
         23    2    1    2    0    0  0.00000000000E+00  0.17763568394E-14  0.00000000000E+00  0.91188000000E+02  0.91188000000E+02 0.  0.
    9900012    2    3    3    0    0  0.37279439437E+02  0.15173352546E+02  0.57600736839E+01  0.50528859809E+02  0.29999999877E+02 0.  0.
         12    1    3    3    0    0 -0.37279439437E+02 -0.15173352546E+02 -0.57600736839E+01  0.40659140191E+02  0.00000000000E+00 0. -1.
         11    1    4    4    0    0  0.14063266458E+02  0.12917668214E+02  0.44904046245E+01  0.19616456090E+02  0.51100000000E-03 0. -1.
        -11    1    4    4    0    0  0.15198054813E+02  0.11072312649E+02 -0.78126234098E+00  0.18819865797E+02  0.51100000000E-03 0.  1.
         12    1    4    4    0    0  0.80181181656E+01 -0.88166283177E+01  0.20509314004E+01  0.12092537923E+02  0.00000000000E+00 0. -1.
</event>
<event>
 8    1  0.5829710E-012  0.9118800E+02  0.7816164E-02  0.1184000E+00
        -11   -1    0    0    0    0  0.00000000000E+00  0.00000000000E+00  0.45593999997E+02  0.45594000000E+02  0.51100000000E-03 0. -1.
         11   -1    0    0    0    0 -0.00000000000E+00 -0.00000000000E+00 -0.45593999997E+02  0.45594000000E+02  0.51100000000E-03 0.  1.
         23    2    1    2    0    0  0.00000000000E+00  0.00000000000E+00  0.35527136788E-14  0.91188000000E+02  0.91188000000E+02 0.  0.
    9900012    2    3    3    0    0 -0.16638535868E+02 -0.21680462152E+02 -0.30104469411E+02  0.50528900237E+02  0.30000122761E+02 0.  0.
         12    1    3    3    0    0  0.16638535868E+02  0.21680462152E+02  0.30104469411E+02  0.40659099763E+02  0.00000000000E+00 0. -1.
         11    1    4    4    0    0 -0.16547875172E+02 -0.52520486941E+01 -0.11228064529E+02  0.20675725417E+02  0.51100000000E-03 0. -1.
        -11    1    4    4    0    0 -0.81675483640E+01 -0.75375737048E+01 -0.92601087658E+01  0.14466287646E+02  0.51100000000E-03 0.  1.
         12    1    4    4    0    0  0.80768876680E+01 -0.88908397533E+01 -0.96162961164E+01  0.15386887174E+02  0.00000000000E+00 0. -1.
</event>
<event>
 8    1  0.5829710E-012  0.9118800E+02  0.7816164E-02  0.1184000E+00
        -11   -1    0    0    0    0  0.00000000000E+00  0.00000000000E+00  0.45593999997E+02  0.45594000000E+02  0.51100000000E-03 0. -1.
         11   -1    0    0    0    0 -0.00000000000E+00 -0.00000000000E+00 -0.45593999997E+02  0.45594000000E+02  0.51100000000E-03 0.  1.
         23    2    1    2    0    0  0.00000000000E+00  0.35527136788E-14  0.00000000000E+00  0.91188000000E+02  0.91188000000E+02 0.  0.
    9900012    2    3    3    0    0 -0.98572683101E+01  0.31724562612E+02  0.23442512184E+02  0.50528868320E+02  0.30000025746E+02 0.  0.
        -12    1    3    3    0    0  0.98572683101E+01 -0.31724562612E+02 -0.23442512184E+02  0.40659131680E+02  0.00000000000E+00 0.  1.
         11    1    4    4    0    0  0.16717772204E+01  0.19319615558E+02  0.16407369836E+02  0.25401656827E+02  0.51100000000E-03 0. -1.
        -11    1    4    4    0    0 -0.38402989717E+01  0.62687257731E+01  0.12027063150E+02  0.14095923782E+02  0.51100000000E-03 0.  1.
        -12    1    4    4    0    0 -0.76887465588E+01  0.61362212812E+01 -0.49919208019E+01  0.11031287710E+02  0.00000000000E+00 0.  1.
</event>
<event>
 8    1  0.5829710E-012  0.9118800E+02  0.7816164E-02  0.1184000E+00
        -11   -1    0    0    0    0  0.00000000000E+00  0.00000000000E+00  0.45593999997E+02  0.45594000000E+02  0.51100000000E-03 0. -1.
         11   -1    0    0    0    0 -0.00000000000E+00 -0.00000000000E+00 -0.45593999997E+02  0.45594000000E+02  0.51100000000E-03 0.  1.
         23    2    1    2    0    0 -0.88817841970E-15  0.17763568394E-14  0.00000000000E+00  0.91188000000E+02  0.91188000000E+02 0.  0.
    9900012    2    3    3    0    0 -0.53695199527E+01 -0.13162067149E+02  0.38093179722E+02  0.50528903877E+02  0.30000133825E+02 0.  0.
        -12    1    3    3    0    0  0.53695199527E+01  0.13162067149E+02 -0.38093179722E+02  0.40659096123E+02  0.00000000000E+00 0.  1.
         11    1    4    4    0    0 -0.57526374044E+01  0.56813885797E+01  0.15256860732E+02  0.17266812472E+02  0.51100000000E-03 0. -1.
        -11    1    4    4    0    0 -0.12142114294E+00  0.20063971963E+01  0.63990983158E+01  0.67073714911E+01  0.51100000000E-03 0.  1.
        -12    1    4    4    0    0  0.50453859464E+00 -0.20849852925E+02  0.16437220675E+02  0.26554719914E+02  0.00000000000E+00 0.  1.
</event>
<event>
 8    1  0.5829710E-012  0.9118800E+02  0.7816164E-02  0.1184000E+00
        -11   -1    0    0    0    0  0.00000000000E+00  0.00000000000E+00  0.45593999997E+02  0.45594000000E+02  0.51100000000E-03 0.  1.
         11   -1    0    0    0    0 -0.00000000000E+00 -0.00000000000E+00 -0.45593999997E+02  0.45594000000E+02  0.51100000000E-03 0. -1.
         23    2    1    2    0    0  0.00000000000E+00 -0.71054273576E-14  0.35527136788E-14  0.91188000000E+02  0.91188000000E+02 0.  0.
    9900012    2    3    3    0    0  0.80090343818E+01 -0.34819741326E+02  0.19406327368E+02  0.50528873599E+02  0.30000041792E+02 0.  0.
        -12    1    3    3    0    0 -0.80090343818E+01  0.34819741326E+02 -0.19406327368E+02  0.40659126401E+02  0.00000000000E+00 0.  1.
         11    1    4    4    0    0 -0.29162617840E+00 -0.16186281683E+02  0.60366312335E+01  0.17277779876E+02  0.51100000000E-03 0. -1.
        -11    1    4    4    0    0 -0.40437657694E+01 -0.16091378199E+02  0.28508357362E+01  0.16834837646E+02  0.51100000000E-03 0.  1.
        -12    1    4    4    0    0  0.12344426330E+02 -0.25420814449E+01  0.10518860398E+02  0.16416256076E+02  0.00000000000E+00 0.  1.
</event>
<event>
 8    1  0.5829710E-012  0.9118800E+02  0.7816164E-02  0.1184000E+00
        -11   -1    0    0    0    0  0.00000000000E+00  0.00000000000E+00  0.45593999997E+02  0.45594000000E+02  0.51100000000E-03 0. -1.
         11   -1    0    0    0    0 -0.00000000000E+00 -0.00000000000E+00 -0.45593999997E+02  0.45594000000E+02  0.51100000000E-03 0.  1.
         23    2    1    2    0    0  0.11102230246E-14  0.00000000000E+00  0.00000000000E+00  0.91188000000E+02  0.91188000000E+02 0.  0.
    9900012    2    3    3    0    0  0.12045639617E+01 -0.72472347458E+01  0.39989900003E+02  0.50528862182E+02  0.30000007089E+02 0.  0.
        -12    1    3    3    0    0 -0.12045639617E+01  0.72472347458E+01 -0.39989900003E+02  0.40659137818E+02  0.00000000000E+00 0.  1.
         11    1    4    4    0    0  0.50469331604E+01 -0.29643151255E+01  0.27284585775E+02  0.27905327800E+02  0.51100000000E-03 0. -1.
        -11    1    4    4    0    0  0.12399363196E+01  0.18990932994E+00  0.15316075515E+02  0.15367357517E+02  0.51100000000E-03 0.  1.
        -12    1    4    4    0    0 -0.50823055183E+01 -0.44728289502E+01 -0.26107612860E+01  0.72561768647E+01  0.00000000000E+00 0.  1.
</event>
<event>
 8    1  0.5829710E-012  0.9118800E+02  0.7816164E-02  0.1184000E+00
        -11   -1    0    0    0    0  0.00000000000E+00  0.00000000000E+00  0.45593999997E+02  0.45594000000E+02  0.51100000000E-03 0. -1.
         11   -1    0    0    0    0 -0.00000000000E+00 -0.00000000000E+00 -0.45593999997E+02  0.45594000000E+02  0.51100000000E-03 0.  1.
         23    2    1    2    0    0  0.00000000000E+00 -0.17763568394E-14  0.00000000000E+00  0.91188000000E+02  0.91188000000E+02 0.  0.
    9900012    2    3    3    0    0 -0.77743220639E+01  0.39542184148E+01 -0.39712596419E+02  0.50528852921E+02  0.29999978938E+02 0.  0.
         12    1    3    3    0    0  0.77743220639E+01 -0.39542184148E+01  0.39712596419E+02  0.40659147079E+02  0.00000000000E+00 0. -1.
         11    1    4    4    0    0 -0.82029431401E+01  0.38339884018E+01 -0.74573317051E+01  0.11730283016E+02  0.51100000000E-03 0. -1.
        -11    1    4    4    0    0  0.28673769255E+01 -0.97117468944E+01 -0.94760269297E+01  0.13868488195E+02  0.51100000000E-03 0.  1.
         12    1    4    4    0    0 -0.24387558493E+01  0.98319769074E+01 -0.22779237785E+02  0.24930081710E+02  0.00000000000E+00 0. -1.
</event>
<event>
 8    1  0.5829710E-012  0.9118800E+02  0.7816164E-02  0.1184000E+00
        -11   -1    0    0    0    0  0.00000000000E+00  0.00000000000E+00  0.45593999997E+02  0.45594000000E+02  0.51100000000E-03 0. -1.
         11   -1    0    0    0    0 -0.00000000000E+00 -0.00000000000E+00 -0.45593999997E+02  0.45594000000E+02  0.51100000000E-03 0.  1.
         23    2    1    2    0    0 -0.53290705182E-14  0.00000000000E+00  0.00000000000E+00  0.91188000000E+02  0.91188000000E+02 0.  0.
    9900012    2    3    3    0    0  0.82950397849E+01 -0.23428763016E+02  0.32178421772E+02  0.50528862660E+02  0.30000008541E+02 0.  0.
        -12    1    3    3    0    0 -0.82950397849E+01  0.23428763016E+02 -0.32178421772E+02  0.40659137340E+02  0.00000000000E+00 0.  1.
         11    1    4    4    0    0  0.39034495090E+01 -0.16837557863E+01  0.83256566818E+01  0.93481822330E+01  0.51100000000E-03 0. -1.
        -11    1    4    4    0    0  0.14321829068E+02 -0.83140114342E+01  0.91031270812E+01  0.18897208706E+02  0.51100000000E-03 0.  1.
         12    1    4    4    0    0 -0.99302387917E+01 -0.13430995795E+02  0.14749638009E+02  0.22283471721E+02  0.00000000000E+00 0. -1.
</event>
<event>
 8    1  0.5829710E-012  0.9118800E+02  0.7816164E-02  0.1184000E+00
        -11   -1    0    0    0    0  0.00000000000E+00  0.00000000000E+00  0.45593999997E+02  0.45594000000E+02  0.51100000000E-03 0.  1.
         11   -1    0    0    0    0 -0.00000000000E+00 -0.00000000000E+00 -0.45593999997E+02  0.45594000000E+02  0.51100000000E-03 0. -1.
         23    2    1    2    0    0 -0.71054273576E-14  0.35527136788E-14  0.00000000000E+00  0.91188000000E+02  0.91188000000E+02 0.  0.
    9900012    2    3    3    0    0 -0.35779761367E+02  0.18617912881E+02 -0.51331665795E+01  0.50528838637E+02  0.29999935522E+02 0.  0.
        -12    1    3    3    0    0  0.35779761367E+02 -0.18617912881E+02  0.51331665795E+01  0.40659161363E+02  0.00000000000E+00 0.  1.
         11    1    4    4    0    0 -0.27655857274E+02  0.17242337415E+02 -0.53114643036E+01  0.33020543521E+02  0.51100000000E-03 0. -1.
        -11    1    4    4    0    0 -0.11795886209E+02  0.45593032440E+01  0.43358051299E-01  0.12646424701E+02  0.51100000000E-03 0.  1.
        -12    1    4    4    0    0  0.36719821161E+01 -0.31837277778E+01  0.13493967274E+00  0.48618704157E+01  0.00000000000E+00 0.  1.
</event>
<event>
 8    1  0.5829710E-012  0.9118800E+02  0.7816164E-02  0.1184000E+00
        -11   -1    0    0    0    0  0.00000000000E+00  0.00000000000E+00  0.45593999997E+02  0.45594000000E+02  0.51100000000E-03 0. -1.
         11   -1    0    0    0    0 -0.00000000000E+00 -0.00000000000E+00 -0.45593999997E+02  0.45594000000E+02  0.51100000000E-03 0.  1.
         23    2    1    2    0    0 -0.35527136788E-14  0.00000000000E+00  0.00000000000E+00  0.91188000000E+02  0.91188000000E+02 0.  0.
    9900012    2    3    3    0    0 -0.16524760774E+02 -0.17658905045E+02 -0.32684267835E+02  0.50528855765E+02  0.29999987583E+02 0.  0.
         12    1    3    3    0    0  0.16524760774E+02  0.17658905045E+02  0.32684267835E+02  0.40659144235E+02  0.00000000000E+00 0. -1.
         11    1    4    4    0    0 -0.11290094303E+02 -0.59752601687E+00 -0.19423122138E+02  0.22474005886E+02  0.51100000000E-03 0.  1.
        -11    1    4    4    0    0 -0.51465976407E+01  0.16903266457E+01 -0.56204635255E+01  0.78060413749E+01  0.51100000000E-03 0. -1.
         12    1    4    4    0    0 -0.88068830571E-01 -0.18751705674E+02 -0.76406821712E+01  0.20248808504E+02  0.00000000000E+00 0. -1.
</event>
<event>
 8    1  0.5829710E-012  0.9118800E+02  0.7816164E-02  0.1184000E+00
        -11   -1    0    0    0    0  0.00000000000E+00  0.00000000000E+00  0.45593999997E+02  0.45594000000E+02  0.51100000000E-03 0. -1.
         11   -1    0    0    0    0 -0.00000000000E+00 -0.00000000000E+00 -0.45593999997E+02  0.45594000000E+02  0.51100000000E-03 0.  1.
         23    2    1    2    0    0  0.00000000000E+00  0.00000000000E+00 -0.71054273576E-14  0.91188000000E+02  0.91188000000E+02 0.  0.
    9900012    2    3    3    0    0 -0.93218905841E+01  0.10962627799E+01 -0.39560917998E+02  0.50528859958E+02  0.30000000328E+02 0.  0.
         12    1    3    3    0    0  0.93218905841E+01 -0.10962627799E+01  0.39560917998E+02  0.40659140042E+02  0.00000000000E+00 0. -1.
         11    1    4    4    0    0  0.73282889382E+01  0.50422157457E+01 -0.18872978327E+02  0.20864253392E+02  0.51100000000E-03 0. -1.
        -11    1    4    4    0    0 -0.18484596050E+01  0.10768742325E+01 -0.11150560369E+02  0.11353918171E+02  0.51100000000E-03 0.  1.
         12    1    4    4    0    0 -0.14801719917E+02 -0.50228271983E+01 -0.95373793014E+01  0.18310688395E+02  0.00000000000E+00 0. -1.
</event>
<event>
 8    1  0.5829710E-012  0.9118800E+02  0.7816164E-02  0.1184000E+00
        -11   -1    0    0    0    0  0.00000000000E+00  0.00000000000E+00  0.45593999997E+02  0.45594000000E+02  0.51100000000E-03 0. -1.
         11   -1    0    0    0    0 -0.00000000000E+00 -0.00000000000E+00 -0.45593999997E+02  0.45594000000E+02  0.51100000000E-03 0.  1.
         23    2    1    2    0    0  0.17763568394E-14  0.00000000000E+00 -0.17763568394E-14  0.91188000000E+02  0.91188000000E+02 0.  0.
    9900012    2    3    3    0    0  0.97810200193E+01  0.36208300399E+02 -0.15698924693E+02  0.50528860721E+02  0.30000002647E+02 0.  0.
         12    1    3    3    0    0 -0.97810200193E+01 -0.36208300399E+02  0.15698924693E+02  0.40659139279E+02  0.00000000000E+00 0. -1.
         11    1    4    4    0    0  0.11397782979E+02  0.10872068748E+02 -0.42477384326E+01  0.16314245853E+02  0.51100000000E-03 0. -1.
        -11    1    4    4    0    0  0.71663839605E+01  0.15000062182E+02 -0.12214953943E+02  0.20629203199E+02  0.51100000000E-03 0.  1.
         12    1    4    4    0    0 -0.87831469206E+01  0.10336169470E+02  0.76376768340E+00  0.13585411669E+02  0.00000000000E+00 0. -1.
</event>
<event>
 8    1  0.5829710E-012  0.9118800E+02  0.7816164E-02  0.1184000E+00
        -11   -1    0    0    0    0  0.00000000000E+00  0.00000000000E+00  0.45593999997E+02  0.45594000000E+02  0.51100000000E-03 0. -1.
         11   -1    0    0    0    0 -0.00000000000E+00 -0.00000000000E+00 -0.45593999997E+02  0.45594000000E+02  0.51100000000E-03 0.  1.
         23    2    1    2    0    0 -0.11102230246E-15  0.00000000000E+00  0.00000000000E+00  0.91188000000E+02  0.91188000000E+02 0.  0.
    9900012    2    3    3    0    0  0.20379152983E+00 -0.82046361267E+01 -0.39822263341E+02  0.50528803715E+02  0.29999829370E+02 0.  0.
         12    1    3    3    0    0 -0.20379152983E+00  0.82046361267E+01  0.39822263341E+02  0.40659196285E+02  0.00000000000E+00 0. -1.
         11    1    4    4    0    0 -0.38285716370E+01  0.39738464580E+01  0.17579545780E+01  0.57913574412E+01  0.51100000000E-03 0. -1.
        -11    1    4    4    0    0  0.52948114471E+01 -0.31156100657E+01 -0.90017601854E+01  0.10898336618E+02  0.51100000000E-03 0.  1.
        -12    1    4    4    0    0 -0.12624482803E+01 -0.90628725191E+01 -0.32578457734E+02  0.33839109655E+02  0.00000000000E+00 0.  1.
</event>
<event>
 8    1  0.5829710E-012  0.9118800E+02  0.7816164E-02  0.1184000E+00
        -11   -1    0    0    0    0  0.00000000000E+00  0.00000000000E+00  0.45593999997E+02  0.45594000000E+02  0.51100000000E-03 0. -1.
         11   -1    0    0    0    0 -0.00000000000E+00 -0.00000000000E+00 -0.45593999997E+02  0.45594000000E+02  0.51100000000E-03 0.  1.
         23    2    1    2    0    0  0.19428902931E-15 -0.44408920985E-15  0.00000000000E+00  0.91188000000E+02  0.91188000000E+02 0.  0.
    9900012    2    3    3    0    0  0.68073577517E-01  0.31718676313E+01  0.40535172660E+02  0.50528860795E+02  0.30000002872E+02 0.  0.
        -12    1    3    3    0    0 -0.68073577517E-01 -0.31718676313E+01 -0.40535172660E+02  0.40659139205E+02  0.00000000000E+00 0.  1.
         11    1    4    4    0    0 -0.73497060608E+01  0.49354297049E+01  0.25506183982E+02  0.26998927148E+02  0.51100000000E-03 0. -1.
        -11    1    4    4    0    0 -0.51911191222E+01  0.12560087692E+00  0.58358237882E+01  0.78115512460E+01  0.51100000000E-03 0.  1.
        -12    1    4    4    0    0  0.12608898761E+02 -0.18891629506E+01  0.91931648904E+01  0.15718382401E+02  0.00000000000E+00 0.  1.
</event>
<event>
 8    1  0.5829710E-012  0.9118800E+02  0.7816164E-02  0.1184000E+00
        -11   -1    0    0    0    0  0.00000000000E+00  0.00000000000E+00  0.45593999997E+02  0.45594000000E+02  0.51100000000E-03 0. -1.
         11   -1    0    0    0    0 -0.00000000000E+00 -0.00000000000E+00 -0.45593999997E+02  0.45594000000E+02  0.51100000000E-03 0.  1.
         23    2    1    2    0    0  0.35527136788E-14  0.00000000000E+00  0.00000000000E+00  0.91188000000E+02  0.91188000000E+02 0.  0.
    9900012    2    3    3    0    0 -0.26140072936E+02 -0.62240484063E+01  0.30514332503E+02  0.50528847528E+02  0.29999962545E+02 0.  0.
        -12    1    3    3    0    0  0.26140072936E+02  0.62240484063E+01 -0.30514332503E+02  0.40659152472E+02  0.00000000000E+00 0.  1.
         11    1    4    4    0    0 -0.72496963654E+01 -0.89320341721E+01  0.17657961569E+02  0.21074699022E+02  0.51100000000E-03 0. -1.
        -11    1    4    4    0    0 -0.45899808620E+01  0.17949934394E+01  0.14229654054E+02  0.15058983382E+02  0.51100000000E-03 0.  1.
        -12    1    4    4    0    0 -0.14300395709E+02  0.91299232639E+00 -0.13732831193E+01  0.14395165124E+02  0.00000000000E+00 0.  1.
</event>
<event>
 8    1  0.5829710E-012  0.9118800E+02  0.7816164E-02  0.1184000E+00
        -11   -1    0    0    0    0  0.00000000000E+00  0.00000000000E+00  0.45593999997E+02  0.45594000000E+02  0.51100000000E-03 0. -1.
         11   -1    0    0    0    0 -0.00000000000E+00 -0.00000000000E+00 -0.45593999997E+02  0.45594000000E+02  0.51100000000E-03 0.  1.
         23    2    1    2    0    0 -0.71054273576E-14 -0.22204460493E-15  0.00000000000E+00  0.91188000000E+02  0.91188000000E+02 0.  0.
    9900012    2    3    3    0    0  0.39925716136E+02  0.11472660123E+01 -0.76016898375E+01  0.50528871669E+02  0.30000035925E+02 0.  0.
        -12    1    3    3    0    0 -0.39925716136E+02 -0.11472660123E+01  0.76016898375E+01  0.40659128331E+02  0.00000000000E+00 0.  1.
         11    1    4    4    0    0  0.10042025018E+02 -0.64223360177E+01  0.31675052111E+01  0.12333764872E+02  0.51100000000E-03 0. -1.
        -11    1    4    4    0    0  0.22545727440E+02 -0.18123463225E+01 -0.12983883636E+02  0.26080177521E+02  0.51100000000E-03 0.  1.
        -12    1    4    4    0    0  0.73379636775E+01  0.93819483526E+01  0.22146885871E+01  0.12114929276E+02  0.00000000000E+00 0.  1.
</event>
<event>
 8    1  0.5829710E-012  0.9118800E+02  0.7816164E-02  0.1184000E+00
        -11   -1    0    0    0    0  0.00000000000E+00  0.00000000000E+00  0.45593999997E+02  0.45594000000E+02  0.51100000000E-03 0. -1.
         11   -1    0    0    0    0 -0.00000000000E+00 -0.00000000000E+00 -0.45593999997E+02  0.45594000000E+02  0.51100000000E-03 0.  1.
         23    2    1    2    0    0  0.00000000000E+00  0.00000000000E+00 -0.35527136788E-14  0.91188000000E+02  0.91188000000E+02 0.  0.
    9900012    2    3    3    0    0 -0.29779750096E+02  0.17779794721E+02  0.21218155821E+02  0.50528871227E+02  0.30000034583E+02 0.  0.
        -12    1    3    3    0    0  0.29779750096E+02 -0.17779794721E+02 -0.21218155821E+02  0.40659128773E+02  0.00000000000E+00 0.  1.
         11    1    4    4    0    0 -0.15793224847E+02  0.96157986995E+01  0.13419290218E+02  0.22846594624E+02  0.51100000000E-03 0. -1.
        -11    1    4    4    0    0 -0.81103006679E+01  0.11143539044E+02  0.13259451896E+02  0.19125075272E+02  0.51100000000E-03 0.  1.
         12    1    4    4    0    0 -0.58762245813E+01 -0.29795430223E+01 -0.54605862931E+01  0.85572013309E+01  0.00000000000E+00 0. -1.
</event>
<event>
 8    1  0.5829710E-012  0.9118800E+02  0.7816164E-02  0.1184000E+00
        -11   -1    0    0    0    0  0.00000000000E+00  0.00000000000E+00  0.45593999997E+02  0.45594000000E+02  0.51100000000E-03 0. -1.
         11   -1    0    0    0    0 -0.00000000000E+00 -0.00000000000E+00 -0.45593999997E+02  0.45594000000E+02  0.51100000000E-03 0.  1.
         23    2    1    2    0    0  0.00000000000E+00  0.00000000000E+00  0.00000000000E+00  0.91188000000E+02  0.91188000000E+02 0.  0.
    9900012    2    3    3    0    0  0.16044593139E+02 -0.58877360280E+01  0.36892671421E+02  0.50528885288E+02  0.30000077322E+02 0.  0.
        -12    1    3    3    0    0 -0.16044593139E+02  0.58877360280E+01 -0.36892671421E+02  0.40659114712E+02  0.00000000000E+00 0.  1.
         11    1    4    4    0    0 -0.34722834201E+01 -0.24531331282E+01  0.48760593482E+01  0.64692015985E+01  0.51100000000E-03 0. -1.
        -11    1    4    4    0    0 -0.92249675414E+00  0.40123030672E+01 -0.12582098932E+01  0.43049586016E+01  0.51100000000E-03 0.  1.
         12    1    4    4    0    0  0.20439373313E+02 -0.74469059670E+01  0.33274821966E+02  0.39754725088E+02  0.00000000000E+00 0. -1.
</event>
<event>
 8    1  0.5829710E-012  0.9118800E+02  0.7816164E-02  0.1184000E+00
        -11   -1    0    0    0    0  0.00000000000E+00  0.00000000000E+00  0.45593999997E+02  0.45594000000E+02  0.51100000000E-03 0. -1.
         11   -1    0    0    0    0 -0.00000000000E+00 -0.00000000000E+00 -0.45593999997E+02  0.45594000000E+02  0.51100000000E-03 0.  1.
         23    2    1    2    0    0  0.00000000000E+00 -0.17763568394E-14 -0.17763568394E-14  0.91188000000E+02  0.91188000000E+02 0.  0.
    9900012    2    3    3    0    0  0.35919067205E+02 -0.13776044555E+02 -0.13160831486E+02  0.50528852470E+02  0.29999977569E+02 0.  0.
         12    1    3    3    0    0 -0.35919067205E+02  0.13776044555E+02  0.13160831486E+02  0.40659147530E+02  0.00000000000E+00 0. -1.
         11    1    4    4    0    0 -0.14747507807E+00  0.24047289921E+01  0.59792979365E+00  0.24823357394E+01  0.51100000000E-03 0. -1.
        -11    1    4    4    0    0  0.55747427282E+01  0.53422982556E+01  0.12447066838E+01  0.78209463703E+01  0.51100000000E-03 0.  1.
        -12    1    4    4    0    0  0.30491799555E+02 -0.21523071803E+02 -0.15003467963E+02  0.40225570361E+02  0.00000000000E+00 0.  1.
</event>
<event>
 8    1  0.5829710E-012  0.9118800E+02  0.7816164E-02  0.1184000E+00
        -11   -1    0    0    0    0  0.00000000000E+00  0.00000000000E+00  0.45593999997E+02  0.45594000000E+02  0.51100000000E-03 0. -1.
         11   -1    0    0    0    0 -0.00000000000E+00 -0.00000000000E+00 -0.45593999997E+02  0.45594000000E+02  0.51100000000E-03 0.  1.
         23    2    1    2    0    0 -0.35527136788E-14  0.17763568394E-14 -0.71054273576E-14  0.91188000000E+02  0.91188000000E+02 0.  0.
    9900012    2    3    3    0    0  0.19998770538E+02 -0.12383025280E+02  0.33164373707E+02  0.50528858082E+02  0.29999994627E+02 0.  0.
        -12    1    3    3    0    0 -0.19998770538E+02  0.12383025280E+02 -0.33164373707E+02  0.40659141918E+02  0.00000000000E+00 0.  1.
         11    1    4    4    0    0  0.95193735584E+01 -0.38774090498E+01  0.15255026689E+02  0.18394798543E+02  0.51100000000E-03 0.  1.
        -11    1    4    4    0    0  0.28253845942E+01  0.26669055572E+00  0.20090076036E+02  0.20289531225E+02  0.51100000000E-03 0. -1.
        -12    1    4    4    0    0  0.76540123850E+01 -0.87723067862E+01 -0.21807290180E+01  0.11844528314E+02  0.00000000000E+00 0.  1.
</event>
<event>
 8    1  0.5829710E-012  0.9118800E+02  0.7816164E-02  0.1184000E+00
        -11   -1    0    0    0    0  0.00000000000E+00  0.00000000000E+00  0.45593999997E+02  0.45594000000E+02  0.51100000000E-03 0.  1.
         11   -1    0    0    0    0 -0.00000000000E+00 -0.00000000000E+00 -0.45593999997E+02  0.45594000000E+02  0.51100000000E-03 0. -1.
         23    2    1    2    0    0  0.00000000000E+00 -0.17763568394E-14  0.00000000000E+00  0.91188000000E+02  0.91188000000E+02 0.  0.
    9900012    2    3    3    0    0  0.38879281056E+02 -0.11750184471E+02 -0.18707833999E+01  0.50528866203E+02  0.30000019311E+02 0.  0.
        -12    1    3    3    0    0 -0.38879281056E+02  0.11750184471E+02  0.18707833999E+01  0.40659133797E+02  0.00000000000E+00 0.  1.
         11    1    4    4    0    0  0.81376090293E+01  0.18935168702E+01 -0.51731156358E+01  0.98268617826E+01  0.51100000000E-03 0. -1.
        -11    1    4    4    0    0  0.10859984409E+02  0.56266640259E+01  0.43835398686E+01  0.12992845395E+02  0.51100000000E-03 0.  1.
         12    1    4    4    0    0  0.19881687618E+02 -0.19270365368E+02 -0.10812076327E+01  0.27709159025E+02  0.00000000000E+00 0. -1.
</event>
<event>
 8    1  0.5829710E-012  0.9118800E+02  0.7816164E-02  0.1184000E+00
        -11   -1    0    0    0    0  0.00000000000E+00  0.00000000000E+00  0.45593999997E+02  0.45594000000E+02  0.51100000000E-03 0. -1.
         11   -1    0    0    0    0 -0.00000000000E+00 -0.00000000000E+00 -0.45593999997E+02  0.45594000000E+02  0.51100000000E-03 0.  1.
         23    2    1    2    0    0 -0.35527136788E-14  0.00000000000E+00  0.35527136788E-14  0.91188000000E+02  0.91188000000E+02 0.  0.
    9900012    2    3    3    0    0 -0.28776908012E+02  0.12403206431E+02  0.25907828255E+02  0.50528861674E+02  0.30000005546E+02 0.  0.
        -12    1    3    3    0    0  0.28776908012E+02 -0.12403206431E+02 -0.25907828255E+02  0.40659138326E+02  0.00000000000E+00 0.  1.
         11    1    4    4    0    0 -0.99525087792E+01 -0.61285303064E+00  0.21523541829E+01  0.10201012137E+02  0.51100000000E-03 0. -1.
        -11    1    4    4    0    0 -0.52324607525E+01  0.14921383305E+02  0.40655499454E+01  0.16326512851E+02  0.51100000000E-03 0.  1.
         12    1    4    4    0    0 -0.13591938480E+02 -0.19053238434E+01  0.19689924127E+02  0.24001336686E+02  0.00000000000E+00 0. -1.
</event>
<event>
 8    1  0.5829710E-012  0.9118800E+02  0.7816164E-02  0.1184000E+00
        -11   -1    0    0    0    0  0.00000000000E+00  0.00000000000E+00  0.45593999997E+02  0.45594000000E+02  0.51100000000E-03 0. -1.
         11   -1    0    0    0    0 -0.00000000000E+00 -0.00000000000E+00 -0.45593999997E+02  0.45594000000E+02  0.51100000000E-03 0.  1.
         23    2    1    2    0    0  0.00000000000E+00  0.17763568394E-14  0.35527136788E-14  0.91188000000E+02  0.91188000000E+02 0.  0.
    9900012    2    3    3    0    0 -0.21165959467E+02  0.15811017050E+02 -0.30905985105E+02  0.50528855695E+02  0.29999987371E+02 0.  0.
         12    1    3    3    0    0  0.21165959467E+02 -0.15811017050E+02  0.30905985105E+02  0.40659144305E+02  0.00000000000E+00 0. -1.
         11    1    4    4    0    0  0.77023169253E+00  0.40538331661E+00  0.31978577204E+01  0.33141947370E+01  0.51100000000E-03 0. -1.
        -11    1    4    4    0    0 -0.68244799977E+01  0.77370235344E+01 -0.14402122025E+01  0.10416778382E+02  0.51100000000E-03 0.  1.
        -12    1    4    4    0    0 -0.15111711162E+02  0.76686101989E+01 -0.32663630623E+02  0.36797882576E+02  0.00000000000E+00 0.  1.
</event>
<event>
 8    1  0.5829710E-012  0.9118800E+02  0.7816164E-02  0.1184000E+00
        -11   -1    0    0    0    0  0.00000000000E+00  0.00000000000E+00  0.45593999997E+02  0.45594000000E+02  0.51100000000E-03 0. -1.
         11   -1    0    0    0    0 -0.00000000000E+00 -0.00000000000E+00 -0.45593999997E+02  0.45594000000E+02  0.51100000000E-03 0.  1.
         23    2    1    2    0    0 -0.35527136788E-14  0.00000000000E+00 -0.35527136788E-14  0.91188000000E+02  0.91188000000E+02 0.  0.
    9900012    2    3    3    0    0 -0.22956247719E+02  0.15538155780E+02  0.29744617764E+02  0.50528857359E+02  0.29999992428E+02 0.  0.
        -12    1    3    3    0    0  0.22956247719E+02 -0.15538155780E+02 -0.29744617764E+02  0.40659142641E+02  0.00000000000E+00 0.  1.
         11    1    4    4    0    0 -0.88216942713E+01  0.12361739223E+02  0.23966948781E+02  0.28373394590E+02  0.51100000000E-03 0. -1.
        -11    1    4    4    0    0 -0.43636140432E+01 -0.62154281422E+01  0.49786337337E+00  0.76105546913E+01  0.51100000000E-03 0.  1.
        -12    1    4    4    0    0 -0.97709394040E+01  0.93918446995E+01  0.52798056101E+01  0.14544908077E+02  0.00000000000E+00 0.  1.
</event>
<event>
 8    1  0.5829710E-012  0.9118800E+02  0.7816164E-02  0.1184000E+00
        -11   -1    0    0    0    0  0.00000000000E+00  0.00000000000E+00  0.45593999997E+02  0.45594000000E+02  0.51100000000E-03 0. -1.
         11   -1    0    0    0    0 -0.00000000000E+00 -0.00000000000E+00 -0.45593999997E+02  0.45594000000E+02  0.51100000000E-03 0.  1.
         23    2    1    2    0    0  0.00000000000E+00 -0.17763568394E-14  0.35527136788E-14  0.91188000000E+02  0.91188000000E+02 0.  0.
    9900012    2    3    3    0    0 -0.30210583980E+02 -0.12915861525E+02  0.23951349214E+02  0.50528855979E+02  0.29999988234E+02 0.  0.
        -12    1    3    3    0    0  0.30210583980E+02  0.12915861525E+02 -0.23951349214E+02  0.40659144021E+02  0.00000000000E+00 0.  1.
         11    1    4    4    0    0 -0.13142779539E+01 -0.55339705054E+01 -0.37341148459E+01  0.68040995023E+01  0.51100000000E-03 0. -1.
        -11    1    4    4    0    0 -0.19802971683E+01 -0.69758226841E+00 -0.21396745669E+01  0.29977333787E+01  0.51100000000E-03 0.  1.
         12    1    4    4    0    0 -0.26916008858E+02 -0.66843087511E+01  0.29825138627E+02  0.40727023098E+02  0.00000000000E+00 0. -1.
</event>
<event>
 8    1  0.5829710E-012  0.9118800E+02  0.7816164E-02  0.1184000E+00
        -11   -1    0    0    0    0  0.00000000000E+00  0.00000000000E+00  0.45593999997E+02  0.45594000000E+02  0.51100000000E-03 0.  1.
         11   -1    0    0    0    0 -0.00000000000E+00 -0.00000000000E+00 -0.45593999997E+02  0.45594000000E+02  0.51100000000E-03 0. -1.
         23    2    1    2    0    0  0.00000000000E+00  0.00000000000E+00  0.17763568394E-14  0.91188000000E+02  0.91188000000E+02 0.  0.
    9900012    2    3    3    0    0  0.37045793773E+02  0.15907337653E+02 -0.52657419168E+01  0.50528901813E+02  0.30000127550E+02 0.  0.
         12    1    3    3    0    0 -0.37045793773E+02 -0.15907337653E+02  0.52657419168E+01  0.40659098187E+02  0.00000000000E+00 0. -1.
         11    1    4    4    0    0  0.25000850563E+02  0.43296616671E+01 -0.14623741996E+02  0.29285531057E+02  0.51100000000E-03 0. -1.
        -11    1    4    4    0    0  0.86488207863E+01  0.19691975278E+01  0.40123592041E+01  0.97354438287E+01  0.51100000000E-03 0.  1.
        -12    1    4    4    0    0  0.33961224230E+01  0.96084784584E+01  0.53456408755E+01  0.11507926927E+02  0.00000000000E+00 0.  1.
</event>
<event>
 8    1  0.5829710E-012  0.9118800E+02  0.7816164E-02  0.1184000E+00
        -11   -1    0    0    0    0  0.00000000000E+00  0.00000000000E+00  0.45593999997E+02  0.45594000000E+02  0.51100000000E-03 0. -1.
         11   -1    0    0    0    0 -0.00000000000E+00 -0.00000000000E+00 -0.45593999997E+02  0.45594000000E+02  0.51100000000E-03 0.  1.
         23    2    1    2    0    0  0.00000000000E+00  0.22204460493E-15  0.00000000000E+00  0.91188000000E+02  0.91188000000E+02 0.  0.
    9900012    2    3    3    0    0 -0.10330450721E+02  0.12811008378E+01  0.39304000824E+02  0.50528881562E+02  0.30000065994E+02 0.  0.
        -12    1    3    3    0    0  0.10330450721E+02 -0.12811008378E+01 -0.39304000824E+02  0.40659118438E+02  0.00000000000E+00 0.  1.
         11    1    4    4    0    0 -0.63810870662E+01  0.93818807133E+01  0.10316697866E+02  0.15335325656E+02  0.51100000000E-03 0. -1.
        -11    1    4    4    0    0  0.25563331910E+01 -0.75594868961E+01  0.32082923257E+01  0.86008035336E+01  0.51100000000E-03 0.  1.
        -12    1    4    4    0    0 -0.65056968458E+01 -0.54129297940E+00  0.25779010632E+02  0.26592752372E+02  0.00000000000E+00 0.  1.
</event>
<event>
 8    1  0.5829710E-012  0.9118800E+02  0.7816164E-02  0.1184000E+00
        -11   -1    0    0    0    0  0.00000000000E+00  0.00000000000E+00  0.45593999997E+02  0.45594000000E+02  0.51100000000E-03 0. -1.
         11   -1    0    0    0    0 -0.00000000000E+00 -0.00000000000E+00 -0.45593999997E+02  0.45594000000E+02  0.51100000000E-03 0.  1.
         23    2    1    2    0    0  0.00000000000E+00  0.00000000000E+00  0.00000000000E+00  0.91188000000E+02  0.91188000000E+02 0.  0.
    9900012    2    3    3    0    0  0.28423679384E+02  0.20187587412E+02  0.20921791275E+02  0.50528860986E+02  0.30000003452E+02 0.  0.
        -12    1    3    3    0    0 -0.28423679384E+02 -0.20187587412E+02 -0.20921791275E+02  0.40659139014E+02  0.00000000000E+00 0.  1.
         11    1    4    4    0    0  0.20226211706E+02  0.17118595227E+02  0.13914175322E+02  0.29929086482E+02  0.51100000000E-03 0. -1.
        -11    1    4    4    0    0  0.76102026922E+01  0.57978301499E+01 -0.31447106889E+01  0.10070711248E+02  0.51100000000E-03 0.  1.
        -12    1    4    4    0    0  0.58726498664E+00 -0.27288379652E+01  0.10152326641E+02  0.10529063255E+02  0.00000000000E+00 0.  1.
</event>
<event>
 8    1  0.5829710E-012  0.9118800E+02  0.7816164E-02  0.1184000E+00
        -11   -1    0    0    0    0  0.00000000000E+00  0.00000000000E+00  0.45593999997E+02  0.45594000000E+02  0.51100000000E-03 0. -1.
         11   -1    0    0    0    0 -0.00000000000E+00 -0.00000000000E+00 -0.45593999997E+02  0.45594000000E+02  0.51100000000E-03 0.  1.
         23    2    1    2    0    0  0.00000000000E+00  0.00000000000E+00 -0.71054273576E-14  0.91188000000E+02  0.91188000000E+02 0.  0.
    9900012    2    3    3    0    0 -0.49082894657E+01 -0.29252415102E+01  0.40255645570E+02  0.50528863959E+02  0.30000012490E+02 0.  0.
        -12    1    3    3    0    0  0.49082894657E+01  0.29252415102E+01 -0.40255645570E+02  0.40659136041E+02  0.00000000000E+00 0.  1.
         11    1    4    4    0    0 -0.62147598057E+01 -0.12075255619E+02  0.16190010961E+02  0.21131765021E+02  0.51100000000E-03 0. -1.
        -11    1    4    4    0    0 -0.15171290518E+01 -0.35559724360E+01  0.56421872953E+01  0.68396562971E+01  0.51100000000E-03 0.  1.
        -12    1    4    4    0    0  0.28235993918E+01  0.12705986545E+02  0.18423447313E+02  0.22557442641E+02  0.00000000000E+00 0.  1.
</event>
<event>
 8    1  0.5829710E-012  0.9118800E+02  0.7816164E-02  0.1184000E+00
        -11   -1    0    0    0    0  0.00000000000E+00  0.00000000000E+00  0.45593999997E+02  0.45594000000E+02  0.51100000000E-03 0. -1.
         11   -1    0    0    0    0 -0.00000000000E+00 -0.00000000000E+00 -0.45593999997E+02  0.45594000000E+02  0.51100000000E-03 0.  1.
         23    2    1    2    0    0  0.35527136788E-14 -0.44408920985E-15  0.00000000000E+00  0.91188000000E+02  0.91188000000E+02 0.  0.
    9900012    2    3    3    0    0  0.31561235660E+02  0.37593011293E+01 -0.25355905800E+02  0.50528857113E+02  0.29999991681E+02 0.  0.
         12    1    3    3    0    0 -0.31561235660E+02 -0.37593011293E+01  0.25355905800E+02  0.40659142887E+02  0.00000000000E+00 0. -1.
         11    1    4    4    0    0  0.14556590502E+02 -0.53673315933E+01 -0.53273575268E+01  0.16403759141E+02  0.51100000000E-03 0. -1.
        -11    1    4    4    0    0  0.11563798461E+02  0.12519921275E+01  0.32222549488E+00  0.11635838976E+02  0.51100000000E-03 0.  1.
        -12    1    4    4    0    0  0.54408466972E+01  0.78746405951E+01 -0.20350773768E+02  0.22489258997E+02  0.00000000000E+00 0.  1.
</event>
<event>
 8    1  0.5829710E-012  0.9118800E+02  0.7816164E-02  0.1184000E+00
        -11   -1    0    0    0    0  0.00000000000E+00  0.00000000000E+00  0.45593999997E+02  0.45594000000E+02  0.51100000000E-03 0. -1.
         11   -1    0    0    0    0 -0.00000000000E+00 -0.00000000000E+00 -0.45593999997E+02  0.45594000000E+02  0.51100000000E-03 0.  1.
         23    2    1    2    0    0  0.00000000000E+00  0.00000000000E+00 -0.17763568394E-14  0.91188000000E+02  0.91188000000E+02 0.  0.
    9900012    2    3    3    0    0 -0.77855778764E+01  0.39789191473E+02  0.30612759058E+01  0.50528851077E+02  0.29999973334E+02 0.  0.
        -12    1    3    3    0    0  0.77855778764E+01 -0.39789191473E+02 -0.30612759058E+01  0.40659148923E+02  0.00000000000E+00 0.  1.
         11    1    4    4    0    0 -0.27122876163E+01 -0.10129093575E+00 -0.15156383109E+00  0.27184068539E+01  0.51100000000E-03 0. -1.
        -11    1    4    4    0    0 -0.57030204528E+00  0.90177166849E+01 -0.10394459181E+02  0.13772771710E+02  0.51100000000E-03 0.  1.
         12    1    4    4    0    0 -0.45029882148E+01  0.30872765724E+02  0.13607298918E+02  0.34037672514E+02  0.00000000000E+00 0. -1.
</event>
<event>
 8    1  0.5829710E-012  0.9118800E+02  0.7816164E-02  0.1184000E+00
        -11   -1    0    0    0    0  0.00000000000E+00  0.00000000000E+00  0.45593999997E+02  0.45594000000E+02  0.51100000000E-03 0. -1.
         11   -1    0    0    0    0 -0.00000000000E+00 -0.00000000000E+00 -0.45593999997E+02  0.45594000000E+02  0.51100000000E-03 0.  1.
         23    2    1    2    0    0  0.35527136788E-14 -0.88817841970E-15  0.00000000000E+00  0.91188000000E+02  0.91188000000E+02 0.  0.
    9900012    2    3    3    0    0  0.30148729807E+02 -0.77454497692E+01  0.26157682062E+02  0.50528902224E+02  0.30000128798E+02 0.  0.
        -12    1    3    3    0    0 -0.30148729807E+02  0.77454497692E+01 -0.26157682062E+02  0.40659097776E+02  0.00000000000E+00 0.  1.
         11    1    4    4    0    0  0.74989151066E+01 -0.39615143073E+01 -0.65395533328E+00  0.85061731244E+01  0.51100000000E-03 0. -1.
        -11    1    4    4    0    0  0.12823660858E+02 -0.81306565213E+01  0.24282185695E+01  0.15376933991E+02  0.51100000000E-03 0.  1.
         12    1    4    4    0    0  0.98261538421E+01  0.43467210593E+01  0.24383418826E+02  0.26645795108E+02  0.00000000000E+00 0. -1.
</event>
<event>
 8    1  0.5829710E-012  0.9118800E+02  0.7816164E-02  0.1184000E+00
        -11   -1    0    0    0    0  0.00000000000E+00  0.00000000000E+00  0.45593999997E+02  0.45594000000E+02  0.51100000000E-03 0. -1.
         11   -1    0    0    0    0 -0.00000000000E+00 -0.00000000000E+00 -0.45593999997E+02  0.45594000000E+02  0.51100000000E-03 0.  1.
         23    2    1    2    0    0  0.17763568394E-14  0.00000000000E+00  0.00000000000E+00  0.91188000000E+02  0.91188000000E+02 0.  0.
    9900012    2    3    3    0    0  0.10566075377E+02  0.10383867870E+02 -0.37864226218E+02  0.50528852347E+02  0.29999977193E+02 0.  0.
         12    1    3    3    0    0 -0.10566075377E+02 -0.10383867870E+02  0.37864226218E+02  0.40659147653E+02  0.00000000000E+00 0. -1.
         11    1    4    4    0    0  0.10735945656E+02  0.89678304443E+01 -0.10326977362E+02  0.17387609775E+02  0.51100000000E-03 0.  1.
        -11    1    4    4    0    0 -0.59939604642E+01 -0.32573416985E+01 -0.29273983377E+01  0.74234424815E+01  0.51100000000E-03 0. -1.
         12    1    4    4    0    0  0.58240901847E+01  0.46733791242E+01 -0.24609850519E+02  0.25717800090E+02  0.00000000000E+00 0. -1.
</event>
<event>
 8    1  0.5829710E-012  0.9118800E+02  0.7816164E-02  0.1184000E+00
        -11   -1    0    0    0    0  0.00000000000E+00  0.00000000000E+00  0.45593999997E+02  0.45594000000E+02  0.51100000000E-03 0. -1.
         11   -1    0    0    0    0 -0.00000000000E+00 -0.00000000000E+00 -0.45593999997E+02  0.45594000000E+02  0.51100000000E-03 0.  1.
         23    2    1    2    0    0  0.00000000000E+00  0.00000000000E+00  0.71054273576E-14  0.91188000000E+02  0.91188000000E+02 0.  0.
    9900012    2    3    3    0    0 -0.50734790885E+01 -0.37898654541E+01 -0.40162951259E+02  0.50528856821E+02  0.29999990793E+02 0.  0.
         12    1    3    3    0    0  0.50734790885E+01  0.37898654541E+01  0.40162951259E+02  0.40659143179E+02  0.00000000000E+00 0. -1.
         11    1    4    4    0    0 -0.78870958385E-01  0.30315345658E+00  0.85322839678E+00  0.90891231948E+00  0.51100000000E-03 0. -1.
        -11    1    4    4    0    0 -0.13433608676E+02  0.56567332608E+01 -0.17273601846E+02  0.22601721046E+02  0.51100000000E-03 0.  1.
         12    1    4    4    0    0  0.84390005462E+01 -0.97497521715E+01 -0.23742577810E+02  0.27018223455E+02  0.00000000000E+00 0. -1.
</event>
<event>
 8    1  0.5829710E-012  0.9118800E+02  0.7816164E-02  0.1184000E+00
        -11   -1    0    0    0    0  0.00000000000E+00  0.00000000000E+00  0.45593999997E+02  0.45594000000E+02  0.51100000000E-03 0. -1.
         11   -1    0    0    0    0 -0.00000000000E+00 -0.00000000000E+00 -0.45593999997E+02  0.45594000000E+02  0.51100000000E-03 0.  1.
         23    2    1    2    0    0  0.00000000000E+00 -0.35527136788E-14 -0.35527136788E-14  0.91188000000E+02  0.91188000000E+02 0.  0.
    9900012    2    3    3    0    0  0.97709033625E+01 -0.29252215235E+02 -0.26495334333E+02  0.50528863388E+02  0.30000010753E+02 0.  0.
         12    1    3    3    0    0 -0.97709033625E+01  0.29252215235E+02  0.26495334333E+02  0.40659136612E+02  0.00000000000E+00 0. -1.
         11    1    4    4    0    0 -0.34324769502E+01 -0.25389895467E+01 -0.14138012351E+01  0.44974659671E+01  0.51100000000E-03 0. -1.
        -11    1    4    4    0    0 -0.31655859646E+01 -0.20358508453E+02 -0.16956131920E+02  0.26683332080E+02  0.51100000000E-03 0.  1.
         12    1    4    4    0    0  0.16368966277E+02 -0.63547172348E+01 -0.81254011776E+01  0.19348065340E+02  0.00000000000E+00 0. -1.
</event>
<event>
 8    1  0.5829710E-012  0.9118800E+02  0.7816164E-02  0.1184000E+00
        -11   -1    0    0    0    0  0.00000000000E+00  0.00000000000E+00  0.45593999997E+02  0.45594000000E+02  0.51100000000E-03 0. -1.
         11   -1    0    0    0    0 -0.00000000000E+00 -0.00000000000E+00 -0.45593999997E+02  0.45594000000E+02  0.51100000000E-03 0.  1.
         23    2    1    2    0    0  0.17763568394E-14 -0.35527136788E-14  0.00000000000E+00  0.91188000000E+02  0.91188000000E+02 0.  0.
    9900012    2    3    3    0    0 -0.90407473573E+01  0.18975746031E+02  0.34804489494E+02  0.50528849258E+02  0.29999967803E+02 0.  0.
        -12    1    3    3    0    0  0.90407473573E+01 -0.18975746031E+02 -0.34804489494E+02  0.40659150742E+02  0.00000000000E+00 0.  1.
         11    1    4    4    0    0 -0.11241227922E+01  0.15139331076E+02  0.11891147799E+02  0.19283733915E+02  0.51100000000E-03 0. -1.
        -11    1    4    4    0    0  0.27573847915E+00 -0.65430159932E+00 -0.33214505465E+01  0.33964947057E+01  0.51100000000E-03 0.  1.
         12    1    4    4    0    0 -0.81923630443E+01  0.44907165539E+01  0.26234792242E+02  0.27848620637E+02  0.00000000000E+00 0. -1.
</event>
<event>
 8    1  0.7695273E-012  0.9118800E+02  0.7816164E-02  0.1184000E+00
        -11   -1    0    0    0    0  0.00000000000E+00  0.00000000000E+00  0.45593999997E+02  0.45594000000E+02  0.51100000000E-03 0. -1.
         11   -1    0    0    0    0 -0.00000000000E+00 -0.00000000000E+00 -0.45593999997E+02  0.45594000000E+02  0.51100000000E-03 0.  1.
         23    2    1    2    0    0  0.00000000000E+00  0.00000000000E+00  0.71054273576E-14  0.91188000000E+02  0.91188000000E+02 0.  0.
    9900012    2    3    3    0    0  0.43882408889E+01  0.21408666495E+02 -0.34286717227E+02  0.50528848049E+02  0.29999964129E+02 0.  0.
         12    1    3    3    0    0 -0.43882408889E+01 -0.21408666495E+02  0.34286717227E+02  0.40659151951E+02  0.00000000000E+00 0. -1.
         11    1    4    4    0    0 -0.82242946626E+01  0.22617905236E+01 -0.63062815818E+01  0.10607728632E+02  0.51100000000E-03 0. -1.
        -11    1    4    4    0    0 -0.24559127637E+01  0.76703483524E+01 -0.14786356675E+02  0.16837520463E+02  0.51100000000E-03 0.  1.
         12    1    4    4    0    0  0.15068448315E+02  0.11476527619E+02 -0.13194078970E+02  0.23083598954E+02  0.00000000000E+00 0. -1.
</event>
<event>
 8    1  0.5829710E-012  0.9118800E+02  0.7816164E-02  0.1184000E+00
        -11   -1    0    0    0    0  0.00000000000E+00  0.00000000000E+00  0.45593999997E+02  0.45594000000E+02  0.51100000000E-03 0.  1.
         11   -1    0    0    0    0 -0.00000000000E+00 -0.00000000000E+00 -0.45593999997E+02  0.45594000000E+02  0.51100000000E-03 0. -1.
         23    2    1    2    0    0  0.17763568394E-14  0.00000000000E+00  0.00000000000E+00  0.91188000000E+02  0.91188000000E+02 0.  0.
    9900012    2    3    3    0    0  0.13340604138E+02 -0.37636763743E+02  0.76594777927E+01  0.50528864447E+02  0.30000013974E+02 0.  0.
        -12    1    3    3    0    0 -0.13340604138E+02  0.37636763743E+02 -0.76594777927E+01  0.40659135553E+02  0.00000000000E+00 0.  1.
         11    1    4    4    0    0  0.50286004850E+01 -0.26155593804E+02  0.39808550442E+01  0.26930449629E+02  0.51100000000E-03 0. -1.
        -11    1    4    4    0    0  0.55175089612E+01 -0.13482778001E+02  0.91017995014E+01  0.17177629702E+02  0.51100000000E-03 0.  1.
        -12    1    4    4    0    0  0.27944946919E+01  0.20016080617E+01 -0.54231767529E+01  0.64207851163E+01  0.00000000000E+00 0.  1.
</event>
<event>
 8    1  0.5829710E-012  0.9118800E+02  0.7816164E-02  0.1184000E+00
        -11   -1    0    0    0    0  0.00000000000E+00  0.00000000000E+00  0.45593999997E+02  0.45594000000E+02  0.51100000000E-03 0. -1.
         11   -1    0    0    0    0 -0.00000000000E+00 -0.00000000000E+00 -0.45593999997E+02  0.45594000000E+02  0.51100000000E-03 0.  1.
         23    2    1    2    0    0  0.00000000000E+00  0.00000000000E+00  0.35527136788E-14  0.91188000000E+02  0.91188000000E+02 0.  0.
    9900012    2    3    3    0    0  0.24610958227E+02 -0.13787381711E+02 -0.29280961486E+02  0.50528857549E+02  0.29999993006E+02 0.  0.
         12    1    3    3    0    0 -0.24610958227E+02  0.13787381711E+02  0.29280961486E+02  0.40659142451E+02  0.00000000000E+00 0. -1.
         11    1    4    4    0    0  0.24180738542E+02 -0.82026036832E+01 -0.65277929777E+01  0.26355320242E+02  0.51100000000E-03 0. -1.
        -11    1    4    4    0    0  0.11169842228E+01 -0.13573443564E+01 -0.10409525440E+01  0.20429439336E+01  0.51100000000E-03 0.  1.
        -12    1    4    4    0    0 -0.68676453755E+00 -0.42274336710E+01 -0.21712215964E+02  0.22130593373E+02  0.00000000000E+00 0.  1.
</event>
<event>
 8    1  0.5829710E-012  0.9118800E+02  0.7816164E-02  0.1184000E+00
        -11   -1    0    0    0    0  0.00000000000E+00  0.00000000000E+00  0.45593999997E+02  0.45594000000E+02  0.51100000000E-03 0.  1.
         11   -1    0    0    0    0 -0.00000000000E+00 -0.00000000000E+00 -0.45593999997E+02  0.45594000000E+02  0.51100000000E-03 0. -1.
         23    2    1    2    0    0  0.35527136788E-14  0.00000000000E+00 -0.19428902931E-15  0.91188000000E+02  0.91188000000E+02 0.  0.
    9900012    2    3    3    0    0 -0.17416267021E+02 -0.36739706694E+02 -0.18600957284E+00  0.50528843535E+02  0.29999950409E+02 0.  0.
         12    1    3    3    0    0  0.17416267021E+02  0.36739706694E+02  0.18600957284E+00  0.40659156465E+02  0.00000000000E+00 0. -1.
         11    1    4    4    0    0 -0.79092674716E+01 -0.25734266212E+00  0.19759228996E+01  0.81564090598E+01  0.51100000000E-03 0. -1.
        -11    1    4    4    0    0 -0.11230897166E+02 -0.14080961580E+02  0.51702116718E+01  0.18738666419E+02  0.51100000000E-03 0.  1.
        -12    1    4    4    0    0  0.17238976168E+01 -0.22401402451E+02 -0.73321441442E+01  0.23633768056E+02  0.00000000000E+00 0.  1.
</event>
<event>
 8    1  0.5829710E-012  0.9118800E+02  0.7816164E-02  0.1184000E+00
        -11   -1    0    0    0    0  0.00000000000E+00  0.00000000000E+00  0.45593999997E+02  0.45594000000E+02  0.51100000000E-03 0. -1.
         11   -1    0    0    0    0 -0.00000000000E+00 -0.00000000000E+00 -0.45593999997E+02  0.45594000000E+02  0.51100000000E-03 0.  1.
         23    2    1    2    0    0 -0.17763568394E-14  0.00000000000E+00  0.00000000000E+00  0.91188000000E+02  0.91188000000E+02 0.  0.
    9900012    2    3    3    0    0  0.72373582415E+01 -0.11085578218E+02 -0.38443411817E+02  0.50528864361E+02  0.30000013713E+02 0.  0.
         12    1    3    3    0    0 -0.72373582415E+01  0.11085578218E+02  0.38443411817E+02  0.40659135639E+02  0.00000000000E+00 0. -1.
         11    1    4    4    0    0  0.12290844436E+02 -0.86294100187E+01 -0.88381299507E+01  0.17425387098E+02  0.51100000000E-03 0. -1.
        -11    1    4    4    0    0  0.14811136130E+01 -0.49794180399E+01 -0.39978067799E+01  0.65552086817E+01  0.51100000000E-03 0.  1.
        -12    1    4    4    0    0 -0.65345998072E+01  0.25232498404E+01 -0.25607475087E+02  0.26548268582E+02  0.00000000000E+00 0.  1.
</event>
<event>
 8    1  0.5829710E-012  0.9118800E+02  0.7816164E-02  0.1184000E+00
        -11   -1    0    0    0    0  0.00000000000E+00  0.00000000000E+00  0.45593999997E+02  0.45594000000E+02  0.51100000000E-03 0. -1.
         11   -1    0    0    0    0 -0.00000000000E+00 -0.00000000000E+00 -0.45593999997E+02  0.45594000000E+02  0.51100000000E-03 0.  1.
         23    2    1    2    0    0  0.00000000000E+00 -0.66613381478E-15  0.00000000000E+00  0.91188000000E+02  0.91188000000E+02 0.  0.
    9900012    2    3    3    0    0 -0.13880656023E+01  0.11198399401E+01 -0.40620005616E+02  0.50528860512E+02  0.30000002014E+02 0.  0.
         12    1    3    3    0    0  0.13880656023E+01 -0.11198399401E+01  0.40620005616E+02  0.40659139488E+02  0.00000000000E+00 0. -1.
         11    1    4    4    0    0 -0.82142623045E+01  0.67289603222E+00 -0.92052637141E+01  0.12355718295E+02  0.51100000000E-03 0. -1.
        -11    1    4    4    0    0 -0.44923236232E+01 -0.49162461331E+01 -0.33810408181E+01  0.74687271239E+01  0.51100000000E-03 0.  1.
        -12    1    4    4    0    0  0.11318520325E+02  0.53631900411E+01 -0.28033701084E+02  0.30704415094E+02  0.00000000000E+00 0.  1.
</event>
<event>
 8    1  0.5829710E-012  0.9118800E+02  0.7816164E-02  0.1184000E+00
        -11   -1    0    0    0    0  0.00000000000E+00  0.00000000000E+00  0.45593999997E+02  0.45594000000E+02  0.51100000000E-03 0. -1.
         11   -1    0    0    0    0 -0.00000000000E+00 -0.00000000000E+00 -0.45593999997E+02  0.45594000000E+02  0.51100000000E-03 0.  1.
         23    2    1    2    0    0  0.00000000000E+00 -0.71054273576E-14  0.35527136788E-14  0.91188000000E+02  0.91188000000E+02 0.  0.
    9900012    2    3    3    0    0 -0.13468979618E+02  0.26808064030E+02 -0.27442308434E+02  0.50528855872E+02  0.29999987910E+02 0.  0.
         12    1    3    3    0    0  0.13468979618E+02 -0.26808064030E+02  0.27442308434E+02  0.40659144128E+02  0.00000000000E+00 0. -1.
         11    1    4    4    0    0 -0.29112713692E+01  0.28265792557E+01  0.26909567167E+01  0.48689115402E+01  0.51100000000E-03 0. -1.
        -11    1    4    4    0    0 -0.47591950519E+01  0.25082874947E+02 -0.15465769312E+02  0.29849465218E+02  0.51100000000E-03 0.  1.
        -12    1    4    4    0    0 -0.57985131972E+01 -0.11013901729E+01 -0.14667495839E+02  0.15810479114E+02  0.00000000000E+00 0.  1.
</event>
<event>
 8    1  0.5829710E-012  0.9118800E+02  0.7816164E-02  0.1184000E+00
        -11   -1    0    0    0    0  0.00000000000E+00  0.00000000000E+00  0.45593999997E+02  0.45594000000E+02  0.51100000000E-03 0. -1.
         11   -1    0    0    0    0 -0.00000000000E+00 -0.00000000000E+00 -0.45593999997E+02  0.45594000000E+02  0.51100000000E-03 0.  1.
         23    2    1    2    0    0  0.00000000000E+00  0.35527136788E-14  0.00000000000E+00  0.91188000000E+02  0.91188000000E+02 0.  0.
    9900012    2    3    3    0    0 -0.21535201906E+01  0.27145685354E+02  0.30193378413E+02  0.50528856102E+02  0.29999988608E+02 0.  0.
        -12    1    3    3    0    0  0.21535201906E+01 -0.27145685354E+02 -0.30193378413E+02  0.40659143898E+02  0.00000000000E+00 0.  1.
         11    1    4    4    0    0  0.10535668579E+01  0.19647683577E+02  0.24673129542E+02  0.31557959293E+02  0.51100000000E-03 0. -1.
        -11    1    4    4    0    0 -0.90080718917E+01  0.58225533160E+01  0.69305674789E+01  0.12770287865E+02  0.51100000000E-03 0.  1.
         12    1    4    4    0    0  0.58009848432E+01  0.16754484604E+01 -0.14103186082E+01  0.62006089436E+01  0.00000000000E+00 0. -1.
</event>
<event>
 8    1  0.5829710E-012  0.9118800E+02  0.7816164E-02  0.1184000E+00
        -11   -1    0    0    0    0  0.00000000000E+00  0.00000000000E+00  0.45593999997E+02  0.45594000000E+02  0.51100000000E-03 0. -1.
         11   -1    0    0    0    0 -0.00000000000E+00 -0.00000000000E+00 -0.45593999997E+02  0.45594000000E+02  0.51100000000E-03 0.  1.
         23    2    1    2    0    0  0.00000000000E+00  0.00000000000E+00  0.00000000000E+00  0.91188000000E+02  0.91188000000E+02 0.  0.
    9900012    2    3    3    0    0  0.25356113596E+01  0.22773531678E+02 -0.33587247645E+02  0.50528852512E+02  0.29999977697E+02 0.  0.
         12    1    3    3    0    0 -0.25356113596E+01 -0.22773531678E+02  0.33587247645E+02  0.40659147488E+02  0.00000000000E+00 0. -1.
         11    1    4    4    0    0  0.53633740866E+01  0.16047195546E+01 -0.17834613954E+02  0.18692628536E+02  0.51100000000E-03 0.  1.
        -11    1    4    4    0    0  0.59061550867E+01  0.14240006972E+01 -0.35108242793E+01  0.70168606424E+01  0.51100000000E-03 0. -1.
         12    1    4    4    0    0 -0.87339178137E+01  0.19744811426E+02 -0.12241809412E+02  0.24819363334E+02  0.00000000000E+00 0. -1.
</event>
<event>
 8    1  0.5829710E-012  0.9118800E+02  0.7816164E-02  0.1184000E+00
        -11   -1    0    0    0    0  0.00000000000E+00  0.00000000000E+00  0.45593999997E+02  0.45594000000E+02  0.51100000000E-03 0. -1.
         11   -1    0    0    0    0 -0.00000000000E+00 -0.00000000000E+00 -0.45593999997E+02  0.45594000000E+02  0.51100000000E-03 0.  1.
         23    2    1    2    0    0  0.00000000000E+00  0.00000000000E+00  0.00000000000E+00  0.91188000000E+02  0.91188000000E+02 0.  0.
    9900012    2    3    3    0    0  0.26159329545E+02  0.22640967657E+02  0.21359785208E+02  0.50528876020E+02  0.30000049149E+02 0.  0.
        -12    1    3    3    0    0 -0.26159329545E+02 -0.22640967657E+02 -0.21359785208E+02  0.40659123980E+02  0.00000000000E+00 0.  1.
         11    1    4    4    0    0 -0.86625562892E-01  0.22478967855E+01  0.14490124814E+02  0.14663705580E+02  0.51100000000E-03 0. -1.
        -11    1    4    4    0    0  0.39687581654E+01  0.95589316763E+01  0.93521521971E+00  0.10392249224E+02  0.51100000000E-03 0.  1.
        -12    1    4    4    0    0  0.22277196943E+02  0.10834139196E+02  0.59344451742E+01  0.25472921216E+02  0.00000000000E+00 0.  1.
</event>
<event>
 8    1  0.5829710E-012  0.9118800E+02  0.7816164E-02  0.1184000E+00
        -11   -1    0    0    0    0  0.00000000000E+00  0.00000000000E+00  0.45593999997E+02  0.45594000000E+02  0.51100000000E-03 0. -1.
         11   -1    0    0    0    0 -0.00000000000E+00 -0.00000000000E+00 -0.45593999997E+02  0.45594000000E+02  0.51100000000E-03 0.  1.
         23    2    1    2    0    0  0.17763568394E-14 -0.13322676296E-14  0.00000000000E+00  0.91188000000E+02  0.91188000000E+02 0.  0.
    9900012    2    3    3    0    0 -0.48753203733E+01  0.10754402684E+01 -0.40351487980E+02  0.50528832488E+02  0.29999916831E+02 0.  0.
         12    1    3    3    0    0  0.48753203733E+01 -0.10754402684E+01  0.40351487980E+02  0.40659167512E+02  0.00000000000E+00 0. -1.
         11    1    4    4    0    0 -0.35067117678E+01  0.35264629802E+01 -0.28166201919E+01  0.57154455766E+01  0.51100000000E-03 0. -1.
        -11    1    4    4    0    0 -0.54388428810E+01  0.80837023808E+01 -0.63075446322E+01  0.11606566056E+02  0.51100000000E-03 0.  1.
        -12    1    4    4    0    0  0.40702342754E+01 -0.10534725093E+02 -0.31227323156E+02  0.33206820856E+02  0.00000000000E+00 0.  1.
</event>
<event>
 8    1  0.5829710E-012  0.9118800E+02  0.7816164E-02  0.1184000E+00
        -11   -1    0    0    0    0  0.00000000000E+00  0.00000000000E+00  0.45593999997E+02  0.45594000000E+02  0.51100000000E-03 0. -1.
         11   -1    0    0    0    0 -0.00000000000E+00 -0.00000000000E+00 -0.45593999997E+02  0.45594000000E+02  0.51100000000E-03 0.  1.
         23    2    1    2    0    0  0.00000000000E+00  0.00000000000E+00  0.00000000000E+00  0.91188000000E+02  0.91188000000E+02 0.  0.
    9900012    2    3    3    0    0  0.11303049189E+02 -0.16852070793E+02 -0.35233764881E+02  0.50528814092E+02  0.29999860915E+02 0.  0.
         12    1    3    3    0    0 -0.11303049189E+02  0.16852070793E+02  0.35233764881E+02  0.40659185908E+02  0.00000000000E+00 0. -1.
         11    1    4    4    0    0  0.26858689834E+01  0.53292757252E+01 -0.25025999317E+01  0.64713274241E+01  0.51100000000E-03 0. -1.
        -11    1    4    4    0    0 -0.52577142768E+00  0.18893106984E+01 -0.84197807869E+01  0.86451512000E+01  0.51100000000E-03 0.  1.
        -12    1    4    4    0    0  0.91429516329E+01 -0.24070657217E+02 -0.24311384162E+02  0.35412335468E+02  0.00000000000E+00 0.  1.
</event>
<event>
 8    1  0.5829710E-012  0.9118800E+02  0.7816164E-02  0.1184000E+00
        -11   -1    0    0    0    0  0.00000000000E+00  0.00000000000E+00  0.45593999997E+02  0.45594000000E+02  0.51100000000E-03 0. -1.
         11   -1    0    0    0    0 -0.00000000000E+00 -0.00000000000E+00 -0.45593999997E+02  0.45594000000E+02  0.51100000000E-03 0.  1.
         23    2    1    2    0    0  0.61062266354E-15  0.71054273576E-14  0.00000000000E+00  0.91188000000E+02  0.91188000000E+02 0.  0.
    9900012    2    3    3    0    0 -0.37240269356E+00 -0.36102008363E+02 -0.18699503497E+02  0.50528866677E+02  0.30000020750E+02 0.  0.
         12    1    3    3    0    0  0.37240269356E+00  0.36102008363E+02  0.18699503497E+02  0.40659133323E+02  0.00000000000E+00 0. -1.
         11    1    4    4    0    0  0.23505681331E+01 -0.15503352756E+02 -0.15128968559E+01  0.15753348038E+02  0.51100000000E-03 0. -1.
        -11    1    4    4    0    0 -0.56126006512E+01 -0.23283491047E+02 -0.88147881057E+01  0.25521025273E+02  0.51100000000E-03 0.  1.
        -12    1    4    4    0    0  0.28896298246E+01  0.26848354405E+01 -0.83718185354E+01  0.92544933656E+01  0.00000000000E+00 0.  1.
</event>
<event>
 8    1  0.5829710E-012  0.9118800E+02  0.7816164E-02  0.1184000E+00
        -11   -1    0    0    0    0  0.00000000000E+00  0.00000000000E+00  0.45593999997E+02  0.45594000000E+02  0.51100000000E-03 0. -1.
         11   -1    0    0    0    0 -0.00000000000E+00 -0.00000000000E+00 -0.45593999997E+02  0.45594000000E+02  0.51100000000E-03 0.  1.
         23    2    1    2    0    0  0.44408920985E-15  0.17763568394E-14  0.71054273576E-14  0.91188000000E+02  0.91188000000E+02 0.  0.
    9900012    2    3    3    0    0  0.20551867708E+01  0.11925649822E+02  0.38816499454E+02  0.50528861468E+02  0.30000004917E+02 0.  0.
        -12    1    3    3    0    0 -0.20551867708E+01 -0.11925649822E+02 -0.38816499454E+02  0.40659138532E+02  0.00000000000E+00 0.  1.
         11    1    4    4    0    0 -0.53001057017E+01  0.73540135289E+01  0.82772558266E+01  0.12275406295E+02  0.51100000000E-03 0.  1.
        -11    1    4    4    0    0 -0.45713737567E+00 -0.80930782868E+01  0.11993368179E+02  0.14475764964E+02  0.51100000000E-03 0. -1.
         12    1    4    4    0    0  0.78124298482E+01  0.12664714580E+02  0.18545875448E+02  0.23777690209E+02  0.00000000000E+00 0. -1.
</event>
<event>
 8    1  0.6229518E-012  0.9118800E+02  0.7816164E-02  0.1184000E+00
        -11   -1    0    0    0    0  0.00000000000E+00  0.00000000000E+00  0.45593999997E+02  0.45594000000E+02  0.51100000000E-03 0. -1.
         11   -1    0    0    0    0 -0.00000000000E+00 -0.00000000000E+00 -0.45593999997E+02  0.45594000000E+02  0.51100000000E-03 0.  1.
         23    2    1    2    0    0  0.35527136788E-14  0.00000000000E+00 -0.35527136788E-14  0.91188000000E+02  0.91188000000E+02 0.  0.
    9900012    2    3    3    0    0  0.18422149130E+02 -0.21180146964E+02 -0.29414140419E+02  0.50528857602E+02  0.29999993168E+02 0.  0.
         12    1    3    3    0    0 -0.18422149130E+02  0.21180146964E+02  0.29414140419E+02  0.40659142398E+02  0.00000000000E+00 0. -1.
         11    1    4    4    0    0 -0.24086273797E+01 -0.10256564263E+02 -0.32838491081E+01  0.11035500059E+02  0.51100000000E-03 0. -1.
        -11    1    4    4    0    0  0.21638181598E+02 -0.13023777944E+02 -0.17885527705E+02  0.30947080579E+02  0.51100000000E-03 0.  1.
         12    1    4    4    0    0 -0.80740508826E+00  0.21001952439E+01 -0.82447636054E+01  0.85462769642E+01  0.00000000000E+00 0. -1.
</event>
<event>
 8    1  0.5829710E-012  0.9118800E+02  0.7816164E-02  0.1184000E+00
        -11   -1    0    0    0    0  0.00000000000E+00  0.00000000000E+00  0.45593999997E+02  0.45594000000E+02  0.51100000000E-03 0.  1.
         11   -1    0    0    0    0 -0.00000000000E+00 -0.00000000000E+00 -0.45593999997E+02  0.45594000000E+02  0.51100000000E-03 0. -1.
         23    2    1    2    0    0  0.71054273576E-14  0.17763568394E-14  0.00000000000E+00  0.91188000000E+02  0.91188000000E+02 0.  0.
    9900012    2    3    3    0    0 -0.40150494716E+02 -0.59683476654E+01 -0.23414167002E+01  0.50528860413E+02  0.30000001711E+02 0.  0.
         12    1    3    3    0    0  0.40150494716E+02  0.59683476654E+01  0.23414167002E+01  0.40659139587E+02  0.00000000000E+00 0. -1.
         11    1    4    4    0    0 -0.27414759650E+01  0.83954282818E+01 -0.54857910494E+00  0.88487200089E+01  0.51100000000E-03 0. -1.
        -11    1    4    4    0    0 -0.37923716980E+01 -0.37921256917E+00 -0.35771163567E+01  0.52270112836E+01  0.51100000000E-03 0.  1.
        -12    1    4    4    0    0 -0.33616647053E+02 -0.13984563378E+02  0.17842787614E+01  0.36453129120E+02  0.00000000000E+00 0.  1.
</event>
<event>
 8    1  0.5829710E-012  0.9118800E+02  0.7816164E-02  0.1184000E+00
        -11   -1    0    0    0    0  0.00000000000E+00  0.00000000000E+00  0.45593999997E+02  0.45594000000E+02  0.51100000000E-03 0. -1.
         11   -1    0    0    0    0 -0.00000000000E+00 -0.00000000000E+00 -0.45593999997E+02  0.45594000000E+02  0.51100000000E-03 0.  1.
         23    2    1    2    0    0  0.35527136788E-14  0.00000000000E+00  0.00000000000E+00  0.91188000000E+02  0.91188000000E+02 0.  0.
    9900012    2    3    3    0    0 -0.21061638577E+02  0.13605232907E+02 -0.32007179993E+02  0.50528996654E+02  0.30000415825E+02 0.  0.
         12    1    3    3    0    0  0.21061638577E+02 -0.13605232907E+02  0.32007179993E+02  0.40659003346E+02  0.00000000000E+00 0. -1.
         11    1    4    4    0    0 -0.88535504213E+01  0.13401964558E+02 -0.21806341088E+02  0.27083473208E+02  0.51100000000E-03 0. -1.
        -11    1    4    4    0    0 -0.11508516284E+01  0.76550328289E+01 -0.30990571797E+01  0.83383537192E+01  0.51100000000E-03 0.  1.
         12    1    4    4    0    0 -0.11057236527E+02 -0.74517644795E+01 -0.71017817254E+01  0.15107169727E+02  0.00000000000E+00 0. -1.
</event>
<event>
 8    1  0.5829710E-012  0.9118800E+02  0.7816164E-02  0.1184000E+00
        -11   -1    0    0    0    0  0.00000000000E+00  0.00000000000E+00  0.45593999997E+02  0.45594000000E+02  0.51100000000E-03 0. -1.
         11   -1    0    0    0    0 -0.00000000000E+00 -0.00000000000E+00 -0.45593999997E+02  0.45594000000E+02  0.51100000000E-03 0.  1.
         23    2    1    2    0    0  0.00000000000E+00  0.00000000000E+00  0.00000000000E+00  0.91188000000E+02  0.91188000000E+02 0.  0.
    9900012    2    3    3    0    0 -0.12477431369E+02  0.79178697179E+01  0.37878573912E+02  0.50528864298E+02  0.30000013521E+02 0.  0.
        -12    1    3    3    0    0  0.12477431369E+02 -0.79178697179E+01 -0.37878573912E+02  0.40659135702E+02  0.00000000000E+00 0.  1.
         11    1    4    4    0    0 -0.12026868717E+01 -0.83286032542E+00 -0.40184016103E+00  0.15170984837E+01  0.51100000000E-03 0. -1.
        -11    1    4    4    0    0  0.87143734050E+01  0.46626088902E+01  0.93095372449E+01  0.13577470658E+02  0.51100000000E-03 0.  1.
         12    1    4    4    0    0 -0.19989117902E+02  0.40881211531E+01  0.28970876828E+02  0.35434295156E+02  0.00000000000E+00 0. -1.
</event>
<event>
 8    1  0.5829710E-012  0.9118800E+02  0.7816164E-02  0.1184000E+00
        -11   -1    0    0    0    0  0.00000000000E+00  0.00000000000E+00  0.45593999997E+02  0.45594000000E+02  0.51100000000E-03 0. -1.
         11   -1    0    0    0    0 -0.00000000000E+00 -0.00000000000E+00 -0.45593999997E+02  0.45594000000E+02  0.51100000000E-03 0.  1.
         23    2    1    2    0    0  0.00000000000E+00 -0.22204460493E-14  0.71054273576E-14  0.91188000000E+02  0.91188000000E+02 0.  0.
    9900012    2    3    3    0    0 -0.16496474696E+02  0.29083677051E+01  0.37048242506E+02  0.50528873683E+02  0.30000042046E+02 0.  0.
        -12    1    3    3    0    0  0.16496474696E+02 -0.29083677051E+01 -0.37048242506E+02  0.40659126317E+02  0.00000000000E+00 0.  1.
         11    1    4    4    0    0 -0.33782112396E+01  0.82444899018E+01  0.13421167243E+02  0.16109365454E+02  0.51100000000E-03 0. -1.
        -11    1    4    4    0    0  0.12707824648E+01  0.22766710372E+01  0.16404456700E+02  0.16610367816E+02  0.51100000000E-03 0.  1.
        -12    1    4    4    0    0 -0.14389045921E+02 -0.76127932339E+01  0.72226185629E+01  0.17809140413E+02  0.00000000000E+00 0.  1.
</event>
<event>
 8    1  0.5829710E-012  0.9118800E+02  0.7816164E-02  0.1184000E+00
        -11   -1    0    0    0    0  0.00000000000E+00  0.00000000000E+00  0.45593999997E+02  0.45594000000E+02  0.51100000000E-03 0. -1.
         11   -1    0    0    0    0 -0.00000000000E+00 -0.00000000000E+00 -0.45593999997E+02  0.45594000000E+02  0.51100000000E-03 0.  1.
         23    2    1    2    0    0 -0.35527136788E-14  0.00000000000E+00  0.00000000000E+00  0.91188000000E+02  0.91188000000E+02 0.  0.
    9900012    2    3    3    0    0  0.13880142325E+02 -0.33161312748E+02 -0.18995644579E+02  0.50528861703E+02  0.30000005632E+02 0.  0.
         12    1    3    3    0    0 -0.13880142325E+02  0.33161312748E+02  0.18995644579E+02  0.40659138297E+02  0.00000000000E+00 0. -1.
         11    1    4    4    0    0  0.49461669466E+01 -0.21489603254E+01  0.21950788588E+01  0.58224538986E+01  0.51100000000E-03 0. -1.
        -11    1    4    4    0    0  0.10109325005E+02 -0.54656914281E+01  0.28060653857E-02  0.11492268835E+02  0.51100000000E-03 0.  1.
         12    1    4    4    0    0 -0.11753496264E+01 -0.25546660994E+02 -0.21193529503E+02  0.33214138970E+02  0.00000000000E+00 0. -1.
</event>
<event>
 8    1  0.5829710E-012  0.9118800E+02  0.7816164E-02  0.1184000E+00
        -11   -1    0    0    0    0  0.00000000000E+00  0.00000000000E+00  0.45593999997E+02  0.45594000000E+02  0.51100000000E-03 0. -1.
         11   -1    0    0    0    0 -0.00000000000E+00 -0.00000000000E+00 -0.45593999997E+02  0.45594000000E+02  0.51100000000E-03 0.  1.
         23    2    1    2    0    0  0.00000000000E+00  0.00000000000E+00 -0.17763568394E-14  0.91188000000E+02  0.91188000000E+02 0.  0.
    9900012    2    3    3    0    0 -0.35787515189E+02  0.15083680899E+02 -0.12037528735E+02  0.50528858704E+02  0.29999996516E+02 0.  0.
         12    1    3    3    0    0  0.35787515189E+02 -0.15083680899E+02  0.12037528735E+02  0.40659141296E+02  0.00000000000E+00 0. -1.
         11    1    4    4    0    0 -0.21274055075E+02 -0.23061276660E+01 -0.31885251654E+01  0.21634933259E+02  0.51100000000E-03 0.  1.
        -11    1    4    4    0    0 -0.40953167710E+01 -0.23730660453E+01 -0.35950715139E+01  0.59437026643E+01  0.51100000000E-03 0. -1.
         12    1    4    4    0    0 -0.10418143343E+02  0.19762874611E+02 -0.52539320562E+01  0.22950222780E+02  0.00000000000E+00 0. -1.
</event>
<event>
 8    1  0.5829710E-012  0.9118800E+02  0.7816164E-02  0.1184000E+00
        -11   -1    0    0    0    0  0.00000000000E+00  0.00000000000E+00  0.45593999997E+02  0.45594000000E+02  0.51100000000E-03 0. -1.
         11   -1    0    0    0    0 -0.00000000000E+00 -0.00000000000E+00 -0.45593999997E+02  0.45594000000E+02  0.51100000000E-03 0.  1.
         23    2    1    2    0    0  0.00000000000E+00  0.00000000000E+00  0.00000000000E+00  0.91188000000E+02  0.91188000000E+02 0.  0.
    9900012    2    3    3    0    0  0.12075630875E+02  0.21258026092E+02 -0.32487547986E+02  0.50528864391E+02  0.30000013803E+02 0.  0.
         12    1    3    3    0    0 -0.12075630875E+02 -0.21258026092E+02  0.32487547986E+02  0.40659135609E+02  0.00000000000E+00 0. -1.
         11    1    4    4    0    0  0.69227832842E+01 -0.31512474688E+01 -0.12402969830E+01  0.77067260154E+01  0.51100000000E-03 0. -1.
        -11    1    4    4    0    0 -0.13288498194E+01 -0.11407610706E+01 -0.62645861415E+01  0.65047841969E+01  0.51100000000E-03 0.  1.
        -12    1    4    4    0    0  0.64816974103E+01  0.25550034631E+02 -0.24982664861E+02  0.36317354179E+02  0.00000000000E+00 0.  1.
</event>
<event>
 8    1  0.5829710E-012  0.9118800E+02  0.7816164E-02  0.1184000E+00
        -11   -1    0    0    0    0  0.00000000000E+00  0.00000000000E+00  0.45593999997E+02  0.45594000000E+02  0.51100000000E-03 0.  1.
         11   -1    0    0    0    0 -0.00000000000E+00 -0.00000000000E+00 -0.45593999997E+02  0.45594000000E+02  0.51100000000E-03 0. -1.
         23    2    1    2    0    0  0.00000000000E+00  0.00000000000E+00  0.00000000000E+00  0.91188000000E+02  0.91188000000E+02 0.  0.
    9900012    2    3    3    0    0  0.23342464224E+02 -0.25525204222E+02 -0.21371920752E+02  0.50528859782E+02  0.29999999793E+02 0.  0.
         12    1    3    3    0    0 -0.23342464224E+02  0.25525204222E+02  0.21371920752E+02  0.40659140218E+02  0.00000000000E+00 0. -1.
         11    1    4    4    0    0  0.36616602213E+01 -0.23513547038E+01 -0.47062153667E+01  0.64097650392E+01  0.51100000000E-03 0. -1.
        -11    1    4    4    0    0  0.11223147497E+02  0.41945996207E+01 -0.28485358225E+01  0.12315350677E+02  0.51100000000E-03 0.  1.
         12    1    4    4    0    0  0.84576565058E+01 -0.27368449139E+02 -0.13817169563E+02  0.31803744065E+02  0.00000000000E+00 0. -1.
</event>
<event>
 8    1  0.5829710E-012  0.9118800E+02  0.7816164E-02  0.1184000E+00
        -11   -1    0    0    0    0  0.00000000000E+00  0.00000000000E+00  0.45593999997E+02  0.45594000000E+02  0.51100000000E-03 0. -1.
         11   -1    0    0    0    0 -0.00000000000E+00 -0.00000000000E+00 -0.45593999997E+02  0.45594000000E+02  0.51100000000E-03 0.  1.
         23    2    1    2    0    0  0.53290705182E-14  0.17763568394E-14  0.71054273576E-14  0.91188000000E+02  0.91188000000E+02 0.  0.
    9900012    2    3    3    0    0  0.79882780475E+01  0.15556533816E+02  0.36706237866E+02  0.50528853074E+02  0.29999979403E+02 0.  0.
        -12    1    3    3    0    0 -0.79882780475E+01 -0.15556533816E+02 -0.36706237866E+02  0.40659146926E+02  0.00000000000E+00 0.  1.
         11    1    4    4    0    0  0.11106922456E+02  0.44164733133E+00  0.10764349451E+02  0.15473525718E+02  0.51100000000E-03 0. -1.
        -11    1    4    4    0    0  0.64263689579E+01  0.38010908583E+01  0.36865586780E+01  0.83268976722E+01  0.51100000000E-03 0.  1.
        -12    1    4    4    0    0 -0.95450133659E+01  0.11313795626E+02  0.22255329737E+02  0.26728429683E+02  0.00000000000E+00 0.  1.
</event>
<event>
 8    1  0.5829710E-012  0.9118800E+02  0.7816164E-02  0.1184000E+00
        -11   -1    0    0    0    0  0.00000000000E+00  0.00000000000E+00  0.45593999997E+02  0.45594000000E+02  0.51100000000E-03 0.  1.
         11   -1    0    0    0    0 -0.00000000000E+00 -0.00000000000E+00 -0.45593999997E+02  0.45594000000E+02  0.51100000000E-03 0. -1.
         23    2    1    2    0    0  0.71054273576E-14  0.00000000000E+00 -0.44408920985E-15  0.91188000000E+02  0.91188000000E+02 0.  0.
    9900012    2    3    3    0    0  0.36174511423E+02 -0.18354535103E+02 -0.27715282954E+01  0.50528860749E+02  0.30000002733E+02 0.  0.
         12    1    3    3    0    0 -0.36174511423E+02  0.18354535103E+02  0.27715282954E+01  0.40659139251E+02  0.00000000000E+00 0. -1.
         11    1    4    4    0    0  0.24668956343E+02 -0.13455838502E+02  0.82505719380E+01  0.29286326748E+02  0.51100000000E-03 0.  1.
        -11    1    4    4    0    0  0.62288224503E+01 -0.49656250239E+01  0.10810728207E+01  0.80389290145E+01  0.51100000000E-03 0. -1.
         12    1    4    4    0    0  0.52767326297E+01  0.66928422515E-01 -0.12103173054E+02  0.13203604986E+02  0.00000000000E+00 0. -1.
</event>
<event>
 8    1  0.5829710E-012  0.9118800E+02  0.7816164E-02  0.1184000E+00
        -11   -1    0    0    0    0  0.00000000000E+00  0.00000000000E+00  0.45593999997E+02  0.45594000000E+02  0.51100000000E-03 0. -1.
         11   -1    0    0    0    0 -0.00000000000E+00 -0.00000000000E+00 -0.45593999997E+02  0.45594000000E+02  0.51100000000E-03 0.  1.
         23    2    1    2    0    0  0.00000000000E+00  0.00000000000E+00  0.00000000000E+00  0.91188000000E+02  0.91188000000E+02 0.  0.
    9900012    2    3    3    0    0 -0.30130310005E+02  0.18791608145E+02 -0.19804270016E+02  0.50528816185E+02  0.29999867274E+02 0.  0.
         12    1    3    3    0    0  0.30130310005E+02 -0.18791608145E+02  0.19804270016E+02  0.40659183815E+02  0.00000000000E+00 0. -1.
         11    1    4    4    0    0  0.17248026987E+01  0.42142639710E+01  0.92185400372E+00  0.46459423406E+01  0.51100000000E-03 0. -1.
        -11    1    4    4    0    0  0.20936788706E+00  0.80813563439E+01 -0.56344639415E+01  0.98538997072E+01  0.51100000000E-03 0.  1.
        -12    1    4    4    0    0 -0.32064480591E+02  0.64959878302E+01 -0.15091660078E+02  0.36028974137E+02  0.00000000000E+00 0.  1.
</event>
<event>
 8    1  0.5829710E-012  0.9118800E+02  0.7816164E-02  0.1184000E+00
        -11   -1    0    0    0    0  0.00000000000E+00  0.00000000000E+00  0.45593999997E+02  0.45594000000E+02  0.51100000000E-03 0. -1.
         11   -1    0    0    0    0 -0.00000000000E+00 -0.00000000000E+00 -0.45593999997E+02  0.45594000000E+02  0.51100000000E-03 0.  1.
         23    2    1    2    0    0  0.00000000000E+00  0.00000000000E+00  0.00000000000E+00  0.91188000000E+02  0.91188000000E+02 0.  0.
    9900012    2    3    3    0    0  0.22072191070E+02  0.61750325596E+01 -0.33583564471E+02  0.50528825779E+02  0.29999896438E+02 0.  0.
         12    1    3    3    0    0 -0.22072191070E+02 -0.61750325596E+01  0.33583564471E+02  0.40659174221E+02  0.00000000000E+00 0. -1.
         11    1    4    4    0    0  0.18205630106E+01  0.17368539339E+01 -0.13898022575E+02  0.14123956352E+02  0.51100000000E-03 0. -1.
        -11    1    4    4    0    0  0.10367322476E+02 -0.67459503750E+01 -0.88602285830E+00  0.12400574928E+02  0.51100000000E-03 0.  1.
         12    1    4    4    0    0  0.98843055835E+01  0.11184129001E+02 -0.18799519038E+02  0.24004294499E+02  0.00000000000E+00 0. -1.
</event>
<event>
 8    1  0.5829710E-012  0.9118800E+02  0.7816164E-02  0.1184000E+00
        -11   -1    0    0    0    0  0.00000000000E+00  0.00000000000E+00  0.45593999997E+02  0.45594000000E+02  0.51100000000E-03 0. -1.
         11   -1    0    0    0    0 -0.00000000000E+00 -0.00000000000E+00 -0.45593999997E+02  0.45594000000E+02  0.51100000000E-03 0.  1.
         23    2    1    2    0    0  0.00000000000E+00  0.00000000000E+00  0.35527136788E-14  0.91188000000E+02  0.91188000000E+02 0.  0.
    9900012    2    3    3    0    0  0.25106330756E+02 -0.28567413667E+02 -0.14378475124E+02  0.50528861857E+02  0.30000006100E+02 0.  0.
         12    1    3    3    0    0 -0.25106330756E+02  0.28567413667E+02  0.14378475124E+02  0.40659138143E+02  0.00000000000E+00 0. -1.
         11    1    4    4    0    0 -0.10766245842E+01 -0.98399243921E+00 -0.65669598803E+01  0.67269847589E+01  0.51100000000E-03 0. -1.
        -11    1    4    4    0    0  0.89721163123E+01 -0.91899355032E+01 -0.12788958139E+02  0.18124878930E+02  0.51100000000E-03 0.  1.
        -12    1    4    4    0    0  0.17210839028E+02 -0.18393485724E+02  0.49774428955E+01  0.25676998168E+02  0.00000000000E+00 0.  1.
</event>
<event>
 8    1  0.5829710E-012  0.9118800E+02  0.7816164E-02  0.1184000E+00
        -11   -1    0    0    0    0  0.00000000000E+00  0.00000000000E+00  0.45593999997E+02  0.45594000000E+02  0.51100000000E-03 0. -1.
         11   -1    0    0    0    0 -0.00000000000E+00 -0.00000000000E+00 -0.45593999997E+02  0.45594000000E+02  0.51100000000E-03 0.  1.
         23    2    1    2    0    0  0.35527136788E-14  0.00000000000E+00  0.71054273576E-14  0.91188000000E+02  0.91188000000E+02 0.  0.
    9900012    2    3    3    0    0  0.24362466787E+02 -0.43993096359E+01  0.32253397904E+02  0.50528863394E+02  0.30000010771E+02 0.  0.
        -12    1    3    3    0    0 -0.24362466787E+02  0.43993096359E+01 -0.32253397904E+02  0.40659136606E+02  0.00000000000E+00 0.  1.
         11    1    4    4    0    0  0.87755905065E+00 -0.33843624600E+01  0.12774348523E+02  0.13244168513E+02  0.51100000000E-03 0. -1.
        -11    1    4    4    0    0  0.35847148368E+01 -0.70325522574E+01 -0.11733919391E+01  0.79802143216E+01  0.51100000000E-03 0.  1.
        -12    1    4    4    0    0  0.19900192900E+02  0.60176050815E+01  0.20652441320E+02  0.29304480559E+02  0.00000000000E+00 0.  1.
</event>
<event>
 8    1  0.5829710E-012  0.9118800E+02  0.7816164E-02  0.1184000E+00
        -11   -1    0    0    0    0  0.00000000000E+00  0.00000000000E+00  0.45593999997E+02  0.45594000000E+02  0.51100000000E-03 0. -1.
         11   -1    0    0    0    0 -0.00000000000E+00 -0.00000000000E+00 -0.45593999997E+02  0.45594000000E+02  0.51100000000E-03 0.  1.
         23    2    1    2    0    0 -0.88817841970E-15  0.71054273576E-14 -0.35527136788E-14  0.91188000000E+02  0.91188000000E+02 0.  0.
    9900012    2    3    3    0    0  0.68833267586E+01 -0.33993666493E+02  0.21218321142E+02  0.50528847266E+02  0.29999961751E+02 0.  0.
        -12    1    3    3    0    0 -0.68833267586E+01  0.33993666493E+02 -0.21218321142E+02  0.40659152734E+02  0.00000000000E+00 0.  1.
         11    1    4    4    0    0  0.45962611664E+01 -0.14876504154E+02  0.10402201560E+02  0.18725431640E+02  0.51100000000E-03 0. -1.
        -11    1    4    4    0    0  0.98364912899E+01 -0.16424992393E+02  0.13415220274E+02  0.23377447920E+02  0.51100000000E-03 0.  1.
        -12    1    4    4    0    0 -0.75494256978E+01 -0.26921699458E+01 -0.25991006910E+01  0.84259677062E+01  0.00000000000E+00 0.  1.
</event>
<event>
 8    1  0.5829710E-012  0.9118800E+02  0.7816164E-02  0.1184000E+00
        -11   -1    0    0    0    0  0.00000000000E+00  0.00000000000E+00  0.45593999997E+02  0.45594000000E+02  0.51100000000E-03 0.  1.
         11   -1    0    0    0    0 -0.00000000000E+00 -0.00000000000E+00 -0.45593999997E+02  0.45594000000E+02  0.51100000000E-03 0. -1.
         23    2    1    2    0    0  0.00000000000E+00 -0.17763568394E-14  0.00000000000E+00  0.91188000000E+02  0.91188000000E+02 0.  0.
    9900012    2    3    3    0    0 -0.32849845515E+02 -0.88812588939E+01  0.22252559587E+02  0.50528861814E+02  0.30000005969E+02 0.  0.
        -12    1    3    3    0    0  0.32849845515E+02  0.88812588939E+01 -0.22252559587E+02  0.40659138186E+02  0.00000000000E+00 0.  1.
         11    1    4    4    0    0 -0.11485866393E+02 -0.10537185470E+02  0.59558255983E+01  0.16686199784E+02  0.51100000000E-03 0. -1.
        -11    1    4    4    0    0 -0.15642839691E+01 -0.72017418938E+01  0.72593206593E+01  0.10344554477E+02  0.51100000000E-03 0.  1.
         12    1    4    4    0    0 -0.19799695153E+02  0.88576684695E+01  0.90374133291E+01  0.23498107552E+02  0.00000000000E+00 0. -1.
</event>
<event>
 8    1  0.5829710E-012  0.9118800E+02  0.7816164E-02  0.1184000E+00
        -11   -1    0    0    0    0  0.00000000000E+00  0.00000000000E+00  0.45593999997E+02  0.45594000000E+02  0.51100000000E-03 0. -1.
         11   -1    0    0    0    0 -0.00000000000E+00 -0.00000000000E+00 -0.45593999997E+02  0.45594000000E+02  0.51100000000E-03 0.  1.
         23    2    1    2    0    0  0.00000000000E+00 -0.88817841970E-15  0.00000000000E+00  0.91188000000E+02  0.91188000000E+02 0.  0.
    9900012    2    3    3    0    0 -0.19828623136E+02 -0.56149469420E+01 -0.35049442123E+02  0.50528864277E+02  0.30000013456E+02 0.  0.
         12    1    3    3    0    0  0.19828623136E+02  0.56149469420E+01  0.35049442123E+02  0.40659135723E+02  0.00000000000E+00 0. -1.
         11    1    4    4    0    0 -0.78186728651E+01 -0.36509829968E+01 -0.15013541235E+02  0.17316689721E+02  0.51100000000E-03 0. -1.
        -11    1    4    4    0    0 -0.94188934220E+01 -0.80706181389E+01 -0.22855408434E+02  0.26004232836E+02  0.51100000000E-03 0.  1.
         12    1    4    4    0    0 -0.25910568491E+01  0.61066541937E+01  0.28195075464E+01  0.72079417201E+01  0.00000000000E+00 0. -1.
</event>
<event>
 8    1  0.5829710E-012  0.9118800E+02  0.7816164E-02  0.1184000E+00
        -11   -1    0    0    0    0  0.00000000000E+00  0.00000000000E+00  0.45593999997E+02  0.45594000000E+02  0.51100000000E-03 0. -1.
         11   -1    0    0    0    0 -0.00000000000E+00 -0.00000000000E+00 -0.45593999997E+02  0.45594000000E+02  0.51100000000E-03 0.  1.
         23    2    1    2    0    0  0.00000000000E+00  0.00000000000E+00 -0.35527136788E-14  0.91188000000E+02  0.91188000000E+02 0.  0.
    9900012    2    3    3    0    0 -0.36496928304E+02 -0.55061945371E+01 -0.17053526688E+02  0.50528846954E+02  0.29999960801E+02 0.  0.
         12    1    3    3    0    0  0.36496928304E+02  0.55061945371E+01  0.17053526688E+02  0.40659153046E+02  0.00000000000E+00 0. -1.
         11    1    4    4    0    0 -0.42923954665E+01 -0.31509530155E+01 -0.14340159436E+01  0.55144868967E+01  0.51100000000E-03 0. -1.
        -11    1    4    4    0    0 -0.23670782190E+02 -0.70551919245E+00  0.35693478840E+01  0.23948777242E+02  0.51100000000E-03 0.  1.
         12    1    4    4    0    0 -0.85337506479E+01 -0.16497223292E+01 -0.19188858629E+02  0.21065582815E+02  0.00000000000E+00 0. -1.
</event>
<event>
 8    1  0.5829710E-012  0.9118800E+02  0.7816164E-02  0.1184000E+00
        -11   -1    0    0    0    0  0.00000000000E+00  0.00000000000E+00  0.45593999997E+02  0.45594000000E+02  0.51100000000E-03 0. -1.
         11   -1    0    0    0    0 -0.00000000000E+00 -0.00000000000E+00 -0.45593999997E+02  0.45594000000E+02  0.51100000000E-03 0.  1.
         23    2    1    2    0    0  0.00000000000E+00  0.00000000000E+00 -0.35527136788E-14  0.91188000000E+02  0.91188000000E+02 0.  0.
    9900012    2    3    3    0    0 -0.25565787275E+02  0.43197017841E+01  0.31319205231E+02  0.50528906075E+02  0.30000140507E+02 0.  0.
        -12    1    3    3    0    0  0.25565787275E+02 -0.43197017841E+01 -0.31319205231E+02  0.40659093925E+02  0.00000000000E+00 0.  1.
         11    1    4    4    0    0 -0.31757651999E+01 -0.41371148969E+01  0.18753461460E+01  0.55423936800E+01  0.51100000000E-03 0. -1.
        -11    1    4    4    0    0 -0.65595103504E+01  0.15548426704E+01 -0.36438687940E+01  0.76630602122E+01  0.51100000000E-03 0.  1.
         12    1    4    4    0    0 -0.15830511724E+02  0.69019740107E+01  0.33087727879E+02  0.37323452183E+02  0.00000000000E+00 0. -1.
</event>
<event>
 8    1  0.5829710E-012  0.9118800E+02  0.7816164E-02  0.1184000E+00
        -11   -1    0    0    0    0  0.00000000000E+00  0.00000000000E+00  0.45593999997E+02  0.45594000000E+02  0.51100000000E-03 0. -1.
         11   -1    0    0    0    0 -0.00000000000E+00 -0.00000000000E+00 -0.45593999997E+02  0.45594000000E+02  0.51100000000E-03 0.  1.
         23    2    1    2    0    0  0.00000000000E+00  0.00000000000E+00  0.00000000000E+00  0.91188000000E+02  0.91188000000E+02 0.  0.
    9900012    2    3    3    0    0 -0.10433903621E+02 -0.22053202784E+02  0.32526217958E+02  0.50528868769E+02  0.30000027111E+02 0.  0.
        -12    1    3    3    0    0  0.10433903621E+02  0.22053202784E+02 -0.32526217958E+02  0.40659131231E+02  0.00000000000E+00 0.  1.
         11    1    4    4    0    0 -0.11952623402E+02 -0.15412633390E+02  0.24150872385E+02  0.31043181400E+02  0.51100000000E-03 0. -1.
        -11    1    4    4    0    0 -0.58133832033E+01 -0.82444330102E+01  0.47284224402E+01  0.11141098642E+02  0.51100000000E-03 0.  1.
         12    1    4    4    0    0  0.73321029851E+01  0.16038636159E+01  0.36469231329E+01  0.83445887268E+01  0.00000000000E+00 0. -1.
</event>
<event>
 8    1  0.5829710E-012  0.9118800E+02  0.7816164E-02  0.1184000E+00
        -11   -1    0    0    0    0  0.00000000000E+00  0.00000000000E+00  0.45593999997E+02  0.45594000000E+02  0.51100000000E-03 0. -1.
         11   -1    0    0    0    0 -0.00000000000E+00 -0.00000000000E+00 -0.45593999997E+02  0.45594000000E+02  0.51100000000E-03 0.  1.
         23    2    1    2    0    0 -0.44408920985E-15 -0.88817841970E-15  0.00000000000E+00  0.91188000000E+02  0.91188000000E+02 0.  0.
    9900012    2    3    3    0    0  0.23447523514E+01  0.57725474953E+01 -0.40178919805E+02  0.50528858779E+02  0.29999996744E+02 0.  0.
         12    1    3    3    0    0 -0.23447523514E+01 -0.57725474953E+01  0.40178919805E+02  0.40659141221E+02  0.00000000000E+00 0. -1.
         11    1    4    4    0    0 -0.10438733203E+01  0.43758613164E+01  0.24663883276E+01  0.51303903763E+01  0.51100000000E-03 0. -1.
        -11    1    4    4    0    0 -0.83784283500E+00  0.36850669064E+01 -0.16520733552E+01  0.41244448539E+01  0.51100000000E-03 0.  1.
        -12    1    4    4    0    0  0.42264685067E+01 -0.22883807274E+01 -0.40993234777E+02  0.41274023549E+02  0.00000000000E+00 0.  1.
</event>
<event>
 8    1  0.5829710E-012  0.9118800E+02  0.7816164E-02  0.1184000E+00
        -11   -1    0    0    0    0  0.00000000000E+00  0.00000000000E+00  0.45593999997E+02  0.45594000000E+02  0.51100000000E-03 0. -1.
         11   -1    0    0    0    0 -0.00000000000E+00 -0.00000000000E+00 -0.45593999997E+02  0.45594000000E+02  0.51100000000E-03 0.  1.
         23    2    1    2    0    0 -0.13322676296E-14  0.00000000000E+00  0.00000000000E+00  0.91188000000E+02  0.91188000000E+02 0.  0.
    9900012    2    3    3    0    0  0.36807616785E+01  0.36671587661E+02 -0.17170109841E+02  0.50528855640E+02  0.29999987205E+02 0.  0.
         12    1    3    3    0    0 -0.36807616785E+01 -0.36671587661E+02  0.17170109841E+02  0.40659144360E+02  0.00000000000E+00 0. -1.
         11    1    4    4    0    0 -0.37583903419E+01  0.44604661133E+01 -0.40134827243E+01  0.70802047817E+01  0.51100000000E-03 0. -1.
        -11    1    4    4    0    0 -0.62034768766E+01  0.15845968173E+02 -0.14132803213E+02  0.22120442121E+02  0.51100000000E-03 0.  1.
         12    1    4    4    0    0  0.13642628897E+02  0.16365153375E+02  0.97617609676E+00  0.21328208738E+02  0.00000000000E+00 0. -1.
</event>
<event>
 8    1  0.5829710E-012  0.9118800E+02  0.7816164E-02  0.1184000E+00
        -11   -1    0    0    0    0  0.00000000000E+00  0.00000000000E+00  0.45593999997E+02  0.45594000000E+02  0.51100000000E-03 0. -1.
         11   -1    0    0    0    0 -0.00000000000E+00 -0.00000000000E+00 -0.45593999997E+02  0.45594000000E+02  0.51100000000E-03 0.  1.
         23    2    1    2    0    0  0.17763568394E-14  0.00000000000E+00 -0.71054273576E-14  0.91188000000E+02  0.91188000000E+02 0.  0.
    9900012    2    3    3    0    0 -0.89169854115E+01  0.10038528375E+02  0.38378130054E+02  0.50528861455E+02  0.30000004878E+02 0.  0.
        -12    1    3    3    0    0  0.89169854115E+01 -0.10038528375E+02 -0.38378130054E+02  0.40659138545E+02  0.00000000000E+00 0.  1.
         11    1    4    4    0    0 -0.26518476549E+01 -0.25157394487E+00  0.13044699372E+02  0.13313893773E+02  0.51100000000E-03 0. -1.
        -11    1    4    4    0    0  0.16747101405E+01 -0.48909637424E+01 -0.14963327746E+01  0.53819320339E+01  0.51100000000E-03 0.  1.
         12    1    4    4    0    0 -0.79398478971E+01  0.15181066062E+02  0.26829763457E+02  0.31833035648E+02  0.00000000000E+00 0. -1.
</event>
<event>
 8    1  0.5829710E-012  0.9118800E+02  0.7816164E-02  0.1184000E+00
        -11   -1    0    0    0    0  0.00000000000E+00  0.00000000000E+00  0.45593999997E+02  0.45594000000E+02  0.51100000000E-03 0. -1.
         11   -1    0    0    0    0 -0.00000000000E+00 -0.00000000000E+00 -0.45593999997E+02  0.45594000000E+02  0.51100000000E-03 0.  1.
         23    2    1    2    0    0  0.00000000000E+00  0.00000000000E+00  0.00000000000E+00  0.91188000000E+02  0.91188000000E+02 0.  0.
    9900012    2    3    3    0    0  0.16468532193E+02  0.20734087447E+01  0.37116749344E+02  0.50528872387E+02  0.30000038107E+02 0.  0.
        -12    1    3    3    0    0 -0.16468532193E+02 -0.20734087447E+01 -0.37116749344E+02  0.40659127613E+02  0.00000000000E+00 0.  1.
         11    1    4    4    0    0  0.14487878731E+02 -0.71889292223E+01  0.12725159908E+02  0.20579334985E+02  0.51100000000E-03 0. -1.
        -11    1    4    4    0    0  0.71773230184E+01  0.10690297877E+01  0.13760640392E+02  0.15556735347E+02  0.51100000000E-03 0.  1.
        -12    1    4    4    0    0 -0.51966695570E+01  0.81933081794E+01  0.10630949044E+02  0.14392802055E+02  0.00000000000E+00 0.  1.
</event>
<event>
 8    1  0.5829710E-012  0.9118800E+02  0.7816164E-02  0.1184000E+00
        -11   -1    0    0    0    0  0.00000000000E+00  0.00000000000E+00  0.45593999997E+02  0.45594000000E+02  0.51100000000E-03 0.  1.
         11   -1    0    0    0    0 -0.00000000000E+00 -0.00000000000E+00 -0.45593999997E+02  0.45594000000E+02  0.51100000000E-03 0. -1.
         23    2    1    2    0    0  0.00000000000E+00  0.00000000000E+00  0.00000000000E+00  0.91188000000E+02  0.91188000000E+02 0.  0.
    9900012    2    3    3    0    0 -0.33441064995E+02 -0.22298762483E+02  0.61339981858E+01  0.50528861174E+02  0.30000004025E+02 0.  0.
        -12    1    3    3    0    0  0.33441064995E+02  0.22298762483E+02 -0.61339981858E+01  0.40659138826E+02  0.00000000000E+00 0.  1.
         11    1    4    4    0    0  0.11264083626E+01  0.33868636782E+01  0.14068434778E+01  0.38365153729E+01  0.51100000000E-03 0. -1.
        -11    1    4    4    0    0  0.66408661633E+00 -0.34059651280E+01 -0.26413754707E+01  0.43610175562E+01  0.51100000000E-03 0.  1.
         12    1    4    4    0    0 -0.35231559974E+02 -0.22279661034E+02  0.73685301787E+01  0.42331328245E+02  0.00000000000E+00 0. -1.
</event>
<event>
 8    1  0.5829710E-012  0.9118800E+02  0.7816164E-02  0.1184000E+00
        -11   -1    0    0    0    0  0.00000000000E+00  0.00000000000E+00  0.45593999997E+02  0.45594000000E+02  0.51100000000E-03 0. -1.
         11   -1    0    0    0    0 -0.00000000000E+00 -0.00000000000E+00 -0.45593999997E+02  0.45594000000E+02  0.51100000000E-03 0.  1.
         23    2    1    2    0    0  0.00000000000E+00 -0.88817841970E-15  0.00000000000E+00  0.91188000000E+02  0.91188000000E+02 0.  0.
    9900012    2    3    3    0    0  0.37929231567E+01 -0.77520712816E+01 -0.39732685935E+02  0.50528841047E+02  0.29999942845E+02 0.  0.
         12    1    3    3    0    0 -0.37929231567E+01  0.77520712816E+01  0.39732685935E+02  0.40659158953E+02  0.00000000000E+00 0. -1.
         11    1    4    4    0    0  0.11158316852E+02 -0.17638882010E+01 -0.21487383476E+02  0.24276057865E+02  0.51100000000E-03 0. -1.
        -11    1    4    4    0    0  0.23888165578E+01 -0.57602950098E+01 -0.14531462188E+02  0.15812995818E+02  0.51100000000E-03 0.  1.
        -12    1    4    4    0    0 -0.97542102534E+01 -0.22788807072E+00 -0.37138402698E+01  0.10439787363E+02  0.00000000000E+00 0.  1.
</event>
<event>
 8    1  0.6719350E-012  0.9118800E+02  0.7816164E-02  0.1184000E+00
        -11   -1    0    0    0    0  0.00000000000E+00  0.00000000000E+00  0.45593999997E+02  0.45594000000E+02  0.51100000000E-03 0. -1.
         11   -1    0    0    0    0 -0.00000000000E+00 -0.00000000000E+00 -0.45593999997E+02  0.45594000000E+02  0.51100000000E-03 0.  1.
         23    2    1    2    0    0  0.00000000000E+00  0.00000000000E+00  0.00000000000E+00  0.91188000000E+02  0.91188000000E+02 0.  0.
    9900012    2    3    3    0    0  0.33154604533E+02 -0.26137251831E+01 -0.23390317093E+02  0.50528852261E+02  0.29999976934E+02 0.  0.
         12    1    3    3    0    0 -0.33154604533E+02  0.26137251831E+01  0.23390317093E+02  0.40659147739E+02  0.00000000000E+00 0. -1.
         11    1    4    4    0    0  0.70595697267E+01 -0.48340510008E+01  0.23333065500E+01  0.88684775199E+01  0.51100000000E-03 0. -1.
        -11    1    4    4    0    0  0.75336285534E+01  0.37735560367E+01  0.16153310723E+01  0.85793111074E+01  0.51100000000E-03 0.  1.
        -12    1    4    4    0    0  0.18561406253E+02 -0.15532302189E+01 -0.27338954716E+02  0.33081063634E+02  0.00000000000E+00 0.  1.
</event>
<event>
 8    1  0.5829710E-012  0.9118800E+02  0.7816164E-02  0.1184000E+00
        -11   -1    0    0    0    0  0.00000000000E+00  0.00000000000E+00  0.45593999997E+02  0.45594000000E+02  0.51100000000E-03 0. -1.
         11   -1    0    0    0    0 -0.00000000000E+00 -0.00000000000E+00 -0.45593999997E+02  0.45594000000E+02  0.51100000000E-03 0.  1.
         23    2    1    2    0    0  0.00000000000E+00 -0.17763568394E-14  0.00000000000E+00  0.91188000000E+02  0.91188000000E+02 0.  0.
    9900012    2    3    3    0    0 -0.61522380590E+01 -0.76478314993E+01 -0.39456635880E+02  0.50528862346E+02  0.30000007588E+02 0.  0.
         12    1    3    3    0    0  0.61522380590E+01  0.76478314993E+01  0.39456635880E+02  0.40659137654E+02  0.00000000000E+00 0. -1.
         11    1    4    4    0    0 -0.30717885619E-01  0.70598409458E+00  0.14429802680E+01  0.16067200892E+01  0.51100000000E-03 0. -1.
        -11    1    4    4    0    0 -0.20286485716E+01  0.56142369847E+01 -0.51161125980E+00  0.59913953542E+01  0.51100000000E-03 0.  1.
        -12    1    4    4    0    0 -0.40928716018E+01 -0.13968052579E+02 -0.40388004888E+02  0.42930746903E+02  0.00000000000E+00 0.  1.
</event>
<event>
 8    1  0.5829710E-012  0.9118800E+02  0.7816164E-02  0.1184000E+00
        -11   -1    0    0    0    0  0.00000000000E+00  0.00000000000E+00  0.45593999997E+02  0.45594000000E+02  0.51100000000E-03 0. -1.
         11   -1    0    0    0    0 -0.00000000000E+00 -0.00000000000E+00 -0.45593999997E+02  0.45594000000E+02  0.51100000000E-03 0.  1.
         23    2    1    2    0    0 -0.19428902931E-15  0.00000000000E+00  0.00000000000E+00  0.91188000000E+02  0.91188000000E+02 0.  0.
    9900012    2    3    3    0    0  0.21561477108E+00 -0.58547255736E+01 -0.40234830556E+02  0.50528857226E+02  0.29999992023E+02 0.  0.
         12    1    3    3    0    0 -0.21561477108E+00  0.58547255736E+01  0.40234830556E+02  0.40659142774E+02  0.00000000000E+00 0. -1.
         11    1    4    4    0    0 -0.23129608157E+01  0.52651205588E+01 -0.10035112199E+02  0.11566103897E+02  0.51100000000E-03 0. -1.
        -11    1    4    4    0    0 -0.67007430537E+01 -0.36534045616E+01 -0.24750576670E+02  0.25900547642E+02  0.51100000000E-03 0.  1.
        -12    1    4    4    0    0  0.92293186404E+01 -0.74664415709E+01 -0.54491416865E+01  0.13062205687E+02  0.00000000000E+00 0.  1.
</event>
<event>
 8    1  0.5829710E-012  0.9118800E+02  0.7816164E-02  0.1184000E+00
        -11   -1    0    0    0    0  0.00000000000E+00  0.00000000000E+00  0.45593999997E+02  0.45594000000E+02  0.51100000000E-03 0. -1.
         11   -1    0    0    0    0 -0.00000000000E+00 -0.00000000000E+00 -0.45593999997E+02  0.45594000000E+02  0.51100000000E-03 0.  1.
         23    2    1    2    0    0  0.00000000000E+00  0.00000000000E+00  0.00000000000E+00  0.91188000000E+02  0.91188000000E+02 0.  0.
    9900012    2    3    3    0    0 -0.25806019755E+02  0.16955148636E+02  0.26452547954E+02  0.50528868011E+02  0.30000024806E+02 0.  0.
        -12    1    3    3    0    0  0.25806019755E+02 -0.16955148636E+02 -0.26452547954E+02  0.40659131989E+02  0.00000000000E+00 0.  1.
         11    1    4    4    0    0 -0.14521980379E+02  0.57231048617E+01  0.39921815162E+01  0.16111466628E+02  0.51100000000E-03 0. -1.
        -11    1    4    4    0    0 -0.12254008591E+02  0.16476269821E+02  0.15944408209E+02  0.25997160368E+02  0.51100000000E-03 0.  1.
        -12    1    4    4    0    0  0.96996921551E+00 -0.52442260473E+01  0.65159582291E+01  0.84202410154E+01  0.00000000000E+00 0.  1.
</event>
<event>
 8    1  0.6202432E-012  0.9118800E+02  0.7816164E-02  0.1184000E+00
        -11   -1    0    0    0    0  0.00000000000E+00  0.00000000000E+00  0.45593999997E+02  0.45594000000E+02  0.51100000000E-03 0. -1.
         11   -1    0    0    0    0 -0.00000000000E+00 -0.00000000000E+00 -0.45593999997E+02  0.45594000000E+02  0.51100000000E-03 0.  1.
         23    2    1    2    0    0  0.22204460493E-15  0.71054273576E-14  0.71054273576E-14  0.91188000000E+02  0.91188000000E+02 0.  0.
    9900012    2    3    3    0    0 -0.19396405888E+01 -0.35569638849E+02 -0.19601158161E+02  0.50528845869E+02  0.29999957502E+02 0.  0.
         12    1    3    3    0    0  0.19396405888E+01  0.35569638849E+02  0.19601158161E+02  0.40659154131E+02  0.00000000000E+00 0. -1.
         11    1    4    4    0    0 -0.17432031125E+01 -0.24195057151E+02 -0.48925857286E+01  0.24746251090E+02  0.51100000000E-03 0. -1.
        -11    1    4    4    0    0 -0.33277815081E+01 -0.15396304753E+02 -0.90485467225E+01  0.18165806557E+02  0.51100000000E-03 0.  1.
         12    1    4    4    0    0  0.31313440318E+01  0.40217230553E+01 -0.56600257097E+01  0.76167882216E+01  0.00000000000E+00 0. -1.
</event>
<event>
 8    1  0.5829710E-012  0.9118800E+02  0.7816164E-02  0.1184000E+00
        -11   -1    0    0    0    0  0.00000000000E+00  0.00000000000E+00  0.45593999997E+02  0.45594000000E+02  0.51100000000E-03 0. -1.
         11   -1    0    0    0    0 -0.00000000000E+00 -0.00000000000E+00 -0.45593999997E+02  0.45594000000E+02  0.51100000000E-03 0.  1.
         23    2    1    2    0    0  0.00000000000E+00  0.00000000000E+00  0.00000000000E+00  0.91188000000E+02  0.91188000000E+02 0.  0.
    9900012    2    3    3    0    0 -0.15587325159E+02 -0.17430413231E+02  0.33262322493E+02  0.50528854551E+02  0.29999983894E+02 0.  0.
        -12    1    3    3    0    0  0.15587325159E+02  0.17430413231E+02 -0.33262322493E+02  0.40659145449E+02  0.00000000000E+00 0.  1.
         11    1    4    4    0    0 -0.66596993831E+00  0.80723472520E+00 -0.31738275138E+00  0.10935611242E+01  0.51100000000E-03 0. -1.
        -11    1    4    4    0    0 -0.96782979841E+00  0.60806646499E+01  0.65729997050E+00  0.61921902923E+01  0.51100000000E-03 0.  1.
         12    1    4    4    0    0 -0.13953525423E+02 -0.24318312606E+02  0.32922405273E+02  0.43243103135E+02  0.00000000000E+00 0. -1.
</event>
<event>
 8    1  0.5829710E-012  0.9118800E+02  0.7816164E-02  0.1184000E+00
        -11   -1    0    0    0    0  0.00000000000E+00  0.00000000000E+00  0.45593999997E+02  0.45594000000E+02  0.51100000000E-03 0. -1.
         11   -1    0    0    0    0 -0.00000000000E+00 -0.00000000000E+00 -0.45593999997E+02  0.45594000000E+02  0.51100000000E-03 0.  1.
         23    2    1    2    0    0  0.00000000000E+00  0.71054273576E-14  0.00000000000E+00  0.91188000000E+02  0.91188000000E+02 0.  0.
    9900012    2    3    3    0    0 -0.10435377482E+02  0.33030566662E+02  0.21289702721E+02  0.50528845076E+02  0.29999955093E+02 0.  0.
        -12    1    3    3    0    0  0.10435377482E+02 -0.33030566662E+02 -0.21289702721E+02  0.40659154924E+02  0.00000000000E+00 0.  1.
         11    1    4    4    0    0  0.10405471039E+01  0.81986380386E+01 -0.28011113637E+01  0.87262035901E+01  0.51100000000E-03 0. -1.
        -11    1    4    4    0    0 -0.44451974300E+01  0.97148428107E+01 -0.19715449456E+01  0.10863928422E+02  0.51100000000E-03 0.  1.
         12    1    4    4    0    0 -0.70307271559E+01  0.15117085813E+02  0.26062359030E+02  0.30938713064E+02  0.00000000000E+00 0. -1.
</event>
<event>
 8    1  0.5829710E-012  0.9118800E+02  0.7816164E-02  0.1184000E+00
        -11   -1    0    0    0    0  0.00000000000E+00  0.00000000000E+00  0.45593999997E+02  0.45594000000E+02  0.51100000000E-03 0. -1.
         11   -1    0    0    0    0 -0.00000000000E+00 -0.00000000000E+00 -0.45593999997E+02  0.45594000000E+02  0.51100000000E-03 0.  1.
         23    2    1    2    0    0  0.00000000000E+00  0.00000000000E+00 -0.88817841970E-15  0.91188000000E+02  0.91188000000E+02 0.  0.
    9900012    2    3    3    0    0  0.19997467563E+02 -0.34884408597E+02  0.60286520065E+01  0.50528864285E+02  0.30000013481E+02 0.  0.
        -12    1    3    3    0    0 -0.19997467563E+02  0.34884408597E+02 -0.60286520065E+01  0.40659135715E+02  0.00000000000E+00 0.  1.
         11    1    4    4    0    0  0.73636270972E+01 -0.68414410688E+01  0.20688871998E+01  0.10261998559E+02  0.51100000000E-03 0. -1.
        -11    1    4    4    0    0  0.45972173053E+01 -0.12594204235E+02  0.14629746315E+02  0.19843836947E+02  0.51100000000E-03 0.  1.
        -12    1    4    4    0    0  0.80366231604E+01 -0.15448763293E+02 -0.10669981509E+02  0.20423028779E+02  0.00000000000E+00 0.  1.
</event>
<event>
 8    1  0.5829710E-012  0.9118800E+02  0.7816164E-02  0.1184000E+00
        -11   -1    0    0    0    0  0.00000000000E+00  0.00000000000E+00  0.45593999997E+02  0.45594000000E+02  0.51100000000E-03 0. -1.
         11   -1    0    0    0    0 -0.00000000000E+00 -0.00000000000E+00 -0.45593999997E+02  0.45594000000E+02  0.51100000000E-03 0.  1.
         23    2    1    2    0    0 -0.35527136788E-14 -0.17763568394E-14  0.00000000000E+00  0.91188000000E+02  0.91188000000E+02 0.  0.
    9900012    2    3    3    0    0 -0.20674477596E+02 -0.10444098282E+02  0.33416348839E+02  0.50528861021E+02  0.30000003560E+02 0.  0.
        -12    1    3    3    0    0  0.20674477596E+02  0.10444098282E+02 -0.33416348839E+02  0.40659138979E+02  0.00000000000E+00 0.  1.
         11    1    4    4    0    0  0.42562243730E+01 -0.35538020652E+01  0.67106991716E+01  0.87050811981E+01  0.51100000000E-03 0. -1.
        -11    1    4    4    0    0 -0.16732856139E+01 -0.84858889527E+01  0.51098799802E+01  0.10045947926E+02  0.51100000000E-03 0.  1.
         12    1    4    4    0    0 -0.23257416355E+02  0.15955927355E+01  0.21595769687E+02  0.31777831897E+02  0.00000000000E+00 0. -1.
</event>
<event>
 8    1  0.5829710E-012  0.9118800E+02  0.7816164E-02  0.1184000E+00
        -11   -1    0    0    0    0  0.00000000000E+00  0.00000000000E+00  0.45593999997E+02  0.45594000000E+02  0.51100000000E-03 0. -1.
         11   -1    0    0    0    0 -0.00000000000E+00 -0.00000000000E+00 -0.45593999997E+02  0.45594000000E+02  0.51100000000E-03 0.  1.
         23    2    1    2    0    0  0.35527136788E-14  0.00000000000E+00  0.00000000000E+00  0.91188000000E+02  0.91188000000E+02 0.  0.
    9900012    2    3    3    0    0  0.30409879813E+02 -0.14760744153E+02 -0.22594805419E+02  0.50528860928E+02  0.30000003276E+02 0.  0.
         12    1    3    3    0    0 -0.30409879813E+02  0.14760744153E+02  0.22594805419E+02  0.40659139072E+02  0.00000000000E+00 0. -1.
         11    1    4    4    0    0  0.34302606564E+01  0.53147270873E+01 -0.11880183534E+02  0.13459263473E+02  0.51100000000E-03 0. -1.
        -11    1    4    4    0    0  0.80567027503E+01 -0.28966983852E+01 -0.73648895684E+01  0.11293490132E+02  0.51100000000E-03 0.  1.
         12    1    4    4    0    0  0.18922916406E+02 -0.17178772855E+02 -0.33497323169E+01  0.25776107323E+02  0.00000000000E+00 0. -1.
</event>
<event>
 8    1  0.5829710E-012  0.9118800E+02  0.7816164E-02  0.1184000E+00
        -11   -1    0    0    0    0  0.00000000000E+00  0.00000000000E+00  0.45593999997E+02  0.45594000000E+02  0.51100000000E-03 0.  1.
         11   -1    0    0    0    0 -0.00000000000E+00 -0.00000000000E+00 -0.45593999997E+02  0.45594000000E+02  0.51100000000E-03 0. -1.
         23    2    1    2    0    0  0.00000000000E+00  0.00000000000E+00  0.00000000000E+00  0.91188000000E+02  0.91188000000E+02 0.  0.
    9900012    2    3    3    0    0 -0.19686680929E+02 -0.33854851140E+02  0.10929343927E+02  0.50528844691E+02  0.29999953924E+02 0.  0.
         12    1    3    3    0    0  0.19686680929E+02  0.33854851140E+02 -0.10929343927E+02  0.40659155309E+02  0.00000000000E+00 0. -1.
         11    1    4    4    0    0 -0.75550245172E+01 -0.93895572511E+01  0.66170005568E+01  0.13748704574E+02  0.51100000000E-03 0. -1.
        -11    1    4    4    0    0 -0.71858796348E+01 -0.28660066990E+02  0.11612632054E+01  0.29569998960E+02  0.51100000000E-03 0.  1.
         12    1    4    4    0    0 -0.49457767773E+01  0.41947731015E+01  0.31510801652E+01  0.72101411575E+01  0.00000000000E+00 0. -1.
</event>
<event>
 8    1  0.5829710E-012  0.9118800E+02  0.7816164E-02  0.1184000E+00
        -11   -1    0    0    0    0  0.00000000000E+00  0.00000000000E+00  0.45593999997E+02  0.45594000000E+02  0.51100000000E-03 0. -1.
         11   -1    0    0    0    0 -0.00000000000E+00 -0.00000000000E+00 -0.45593999997E+02  0.45594000000E+02  0.51100000000E-03 0.  1.
         23    2    1    2    0    0  0.35527136788E-14  0.35527136788E-14 -0.35527136788E-14  0.91188000000E+02  0.91188000000E+02 0.  0.
    9900012    2    3    3    0    0  0.25964431324E+02  0.22547830937E+02 -0.21693529236E+02  0.50528860994E+02  0.30000003479E+02 0.  0.
         12    1    3    3    0    0 -0.25964431324E+02 -0.22547830937E+02  0.21693529236E+02  0.40659139006E+02  0.00000000000E+00 0. -1.
         11    1    4    4    0    0 -0.19676015247E+01  0.11865480427E+01  0.52495625130E+00  0.23568901850E+01  0.51100000000E-03 0. -1.
        -11    1    4    4    0    0  0.36076994100E+01  0.14614766714E+02 -0.16411967316E+02  0.22270149810E+02  0.51100000000E-03 0.  1.
         12    1    4    4    0    0  0.24324333438E+02  0.67465161806E+01 -0.58065181720E+01  0.25901820999E+02  0.00000000000E+00 0. -1.
</event>
<event>
 8    1  0.5829710E-012  0.9118800E+02  0.7816164E-02  0.1184000E+00
        -11   -1    0    0    0    0  0.00000000000E+00  0.00000000000E+00  0.45593999997E+02  0.45594000000E+02  0.51100000000E-03 0. -1.
         11   -1    0    0    0    0 -0.00000000000E+00 -0.00000000000E+00 -0.45593999997E+02  0.45594000000E+02  0.51100000000E-03 0.  1.
         23    2    1    2    0    0 -0.17763568394E-14 -0.35527136788E-14  0.00000000000E+00  0.91188000000E+02  0.91188000000E+02 0.  0.
    9900012    2    3    3    0    0 -0.11005025239E+02 -0.25192507955E+02  0.29956528449E+02  0.50528848087E+02  0.29999964245E+02 0.  0.
        -12    1    3    3    0    0  0.11005025239E+02  0.25192507955E+02 -0.29956528449E+02  0.40659151913E+02  0.00000000000E+00 0.  1.
         11    1    4    4    0    0 -0.68351021386E+01 -0.30258990658E+00  0.31457036863E+01  0.75303143255E+01  0.51100000000E-03 0. -1.
        -11    1    4    4    0    0 -0.15690756865E+01 -0.12383523769E+02 -0.86960794655E+00  0.12512788566E+02  0.51100000000E-03 0.  1.
         12    1    4    4    0    0 -0.26008474142E+01 -0.12506394279E+02  0.27680432709E+02  0.30485745195E+02  0.00000000000E+00 0. -1.
</event>
<event>
 8    1  0.5829710E-012  0.9118800E+02  0.7816164E-02  0.1184000E+00
        -11   -1    0    0    0    0  0.00000000000E+00  0.00000000000E+00  0.45593999997E+02  0.45594000000E+02  0.51100000000E-03 0. -1.
         11   -1    0    0    0    0 -0.00000000000E+00 -0.00000000000E+00 -0.45593999997E+02  0.45594000000E+02  0.51100000000E-03 0.  1.
         23    2    1    2    0    0  0.00000000000E+00  0.00000000000E+00  0.00000000000E+00  0.91188000000E+02  0.91188000000E+02 0.  0.
    9900012    2    3    3    0    0 -0.34946669273E+02 -0.39580875349E+01  0.20401714053E+02  0.50528854823E+02  0.29999984721E+02 0.  0.
        -12    1    3    3    0    0  0.34946669273E+02  0.39580875349E+01 -0.20401714053E+02  0.40659145177E+02  0.00000000000E+00 0.  1.
         11    1    4    4    0    0 -0.16488517494E+02  0.87926599933E+01  0.10717549854E+02  0.21541772305E+02  0.51100000000E-03 0. -1.
        -11    1    4    4    0    0 -0.24624701947E+01  0.31908588161E+01 -0.76700109033E+00  0.41028807414E+01  0.51100000000E-03 0.  1.
         12    1    4    4    0    0 -0.15995681584E+02 -0.15941606344E+02  0.10451165289E+02  0.24884201777E+02  0.00000000000E+00 0. -1.
</event>
<event>
 8    1  0.5829710E-012  0.9118800E+02  0.7816164E-02  0.1184000E+00
        -11   -1    0    0    0    0  0.00000000000E+00  0.00000000000E+00  0.45593999997E+02  0.45594000000E+02  0.51100000000E-03 0. -1.
         11   -1    0    0    0    0 -0.00000000000E+00 -0.00000000000E+00 -0.45593999997E+02  0.45594000000E+02  0.51100000000E-03 0.  1.
         23    2    1    2    0    0 -0.35527136788E-14  0.17763568394E-14  0.35527136788E-14  0.91188000000E+02  0.91188000000E+02 0.  0.
    9900012    2    3    3    0    0  0.24054117471E+02  0.94002054782E+01 -0.31403842619E+02  0.50528858819E+02  0.29999996867E+02 0.  0.
         12    1    3    3    0    0 -0.24054117471E+02 -0.94002054782E+01  0.31403842619E+02  0.40659141181E+02  0.00000000000E+00 0. -1.
         11    1    4    4    0    0  0.21202800430E+01  0.11193735686E+02 -0.98744456016E+01  0.15076471148E+02  0.51100000000E-03 0. -1.
        -11    1    4    4    0    0 -0.73163382904E+00  0.21436699568E+00 -0.98431623768E+01  0.98726433698E+01  0.51100000000E-03 0.  1.
        -12    1    4    4    0    0  0.22665471257E+02 -0.20078972036E+01 -0.11686234640E+02  0.25579744302E+02  0.00000000000E+00 0.  1.
</event>
<event>
 8    1  0.5829710E-012  0.9118800E+02  0.7816164E-02  0.1184000E+00
        -11   -1    0    0    0    0  0.00000000000E+00  0.00000000000E+00  0.45593999997E+02  0.45594000000E+02  0.51100000000E-03 0.  1.
         11   -1    0    0    0    0 -0.00000000000E+00 -0.00000000000E+00 -0.45593999997E+02  0.45594000000E+02  0.51100000000E-03 0. -1.
         23    2    1    2    0    0  0.35527136788E-14  0.00000000000E+00 -0.17763568394E-14  0.91188000000E+02  0.91188000000E+02 0.  0.
    9900012    2    3    3    0    0 -0.30901837750E+02 -0.21545337145E+02  0.15298499481E+02  0.50528816346E+02  0.29999867765E+02 0.  0.
        -12    1    3    3    0    0  0.30901837750E+02  0.21545337145E+02 -0.15298499481E+02  0.40659183654E+02  0.00000000000E+00 0.  1.
         11    1    4    4    0    0 -0.53979234257E+01 -0.14315084363E+01  0.46602837825E+01  0.72735850107E+01  0.51100000000E-03 0. -1.
        -11    1    4    4    0    0 -0.13186854931E+02 -0.11154972774E+02  0.19165441264E+02  0.25800013559E+02  0.51100000000E-03 0.  1.
         12    1    4    4    0    0 -0.12317059394E+02 -0.89588559350E+01 -0.85272255651E+01  0.17455217776E+02  0.00000000000E+00 0. -1.
</event>
<event>
 8    1  0.5829710E-012  0.9118800E+02  0.7816164E-02  0.1184000E+00
        -11   -1    0    0    0    0  0.00000000000E+00  0.00000000000E+00  0.45593999997E+02  0.45594000000E+02  0.51100000000E-03 0. -1.
         11   -1    0    0    0    0 -0.00000000000E+00 -0.00000000000E+00 -0.45593999997E+02  0.45594000000E+02  0.51100000000E-03 0.  1.
         23    2    1    2    0    0  0.17763568394E-14  0.00000000000E+00  0.00000000000E+00  0.91188000000E+02  0.91188000000E+02 0.  0.
    9900012    2    3    3    0    0 -0.97669403363E+01  0.20060972844E+02 -0.33990139392E+02  0.50528864116E+02  0.30000012967E+02 0.  0.
         12    1    3    3    0    0  0.97669403363E+01 -0.20060972844E+02  0.33990139392E+02  0.40659135884E+02  0.00000000000E+00 0. -1.
         11    1    4    4    0    0  0.60557900720E+01  0.19143400324E+01 -0.15686771119E+02  0.16923713528E+02  0.51100000000E-03 0. -1.
        -11    1    4    4    0    0 -0.11692166288E+02  0.19803614392E+02 -0.17887819514E+02  0.29135270424E+02  0.51100000000E-03 0.  1.
         12    1    4    4    0    0 -0.41305641206E+01 -0.16569815806E+01 -0.41554875869E+00  0.44698801643E+01  0.00000000000E+00 0. -1.
</event>
<event>
 8    1  0.6027813E-012  0.9118800E+02  0.7816164E-02  0.1184000E+00
        -11   -1    0    0    0    0  0.00000000000E+00  0.00000000000E+00  0.45593999997E+02  0.45594000000E+02  0.51100000000E-03 0. -1.
         11   -1    0    0    0    0 -0.00000000000E+00 -0.00000000000E+00 -0.45593999997E+02  0.45594000000E+02  0.51100000000E-03 0.  1.
         23    2    1    2    0    0 -0.35527136788E-14 -0.88817841970E-15 -0.14210854715E-13  0.91188000000E+02  0.91188000000E+02 0.  0.
    9900012    2    3    3    0    0 -0.25929193795E+02 -0.69299083712E+01 -0.30542035127E+02  0.50528897322E+02  0.30000113900E+02 0.  0.
         12    1    3    3    0    0  0.25929193795E+02  0.69299083712E+01  0.30542035127E+02  0.40659102678E+02  0.00000000000E+00 0. -1.
         11    1    4    4    0    0 -0.50418170691E+01  0.96637586328E+00 -0.11455185755E+02  0.12552891404E+02  0.51100000000E-03 0. -1.
        -11    1    4    4    0    0 -0.11037449339E+02 -0.53608623350E+01 -0.23791681905E+02  0.26769539798E+02  0.51100000000E-03 0.  1.
         12    1    4    4    0    0 -0.98499273869E+01 -0.25354218995E+01  0.47048325328E+01  0.11206466120E+02  0.00000000000E+00 0. -1.
</event>
<event>
 8    1  0.5829710E-012  0.9118800E+02  0.7816164E-02  0.1184000E+00
        -11   -1    0    0    0    0  0.00000000000E+00  0.00000000000E+00  0.45593999997E+02  0.45594000000E+02  0.51100000000E-03 0. -1.
         11   -1    0    0    0    0 -0.00000000000E+00 -0.00000000000E+00 -0.45593999997E+02  0.45594000000E+02  0.51100000000E-03 0.  1.
         23    2    1    2    0    0  0.00000000000E+00  0.88817841970E-15 -0.35527136788E-14  0.91188000000E+02  0.91188000000E+02 0.  0.
    9900012    2    3    3    0    0 -0.34534408368E+02 -0.78796051702E+01  0.19961177077E+02  0.50528903486E+02  0.30000132637E+02 0.  0.
        -12    1    3    3    0    0  0.34534408368E+02  0.78796051702E+01 -0.19961177077E+02  0.40659096514E+02  0.00000000000E+00 0.  1.
         11    1    4    4    0    0 -0.99615645826E+00  0.22516495656E+01  0.52276422674E+01  0.57784511240E+01  0.51100000000E-03 0. -1.
        -11    1    4    4    0    0 -0.10054428488E+02 -0.82114151076E+01  0.16647568900E+02  0.21110670781E+02  0.51100000000E-03 0.  1.
        -12    1    4    4    0    0 -0.23483823422E+02 -0.19198396282E+01 -0.19140340905E+01  0.23639781581E+02  0.00000000000E+00 0.  1.
</event>
<event>
 8    1  0.5829710E-012  0.9118800E+02  0.7816164E-02  0.1184000E+00
        -11   -1    0    0    0    0  0.00000000000E+00  0.00000000000E+00  0.45593999997E+02  0.45594000000E+02  0.51100000000E-03 0. -1.
         11   -1    0    0    0    0 -0.00000000000E+00 -0.00000000000E+00 -0.45593999997E+02  0.45594000000E+02  0.51100000000E-03 0.  1.
         23    2    1    2    0    0  0.17763568394E-14  0.00000000000E+00  0.71054273576E-14  0.91188000000E+02  0.91188000000E+02 0.  0.
    9900012    2    3    3    0    0  0.11462200244E+02  0.57493900713E+01  0.38584038221E+02  0.50528861715E+02  0.30000005668E+02 0.  0.
        -12    1    3    3    0    0 -0.11462200244E+02 -0.57493900713E+01 -0.38584038221E+02  0.40659138285E+02  0.00000000000E+00 0.  1.
         11    1    4    4    0    0  0.42809894340E+01 -0.12499643124E+01  0.11743512417E+01  0.46117656506E+01  0.51100000000E-03 0. -1.
        -11    1    4    4    0    0  0.16400502310E+02  0.47645714661E+01  0.22547302291E+02  0.28285304633E+02  0.51100000000E-03 0.  1.
         12    1    4    4    0    0 -0.92192915004E+01  0.22347829177E+01  0.14862384688E+02  0.17631791432E+02  0.00000000000E+00 0. -1.
</event>
<event>
 8    1  0.5829710E-012  0.9118800E+02  0.7816164E-02  0.1184000E+00
        -11   -1    0    0    0    0  0.00000000000E+00  0.00000000000E+00  0.45593999997E+02  0.45594000000E+02  0.51100000000E-03 0. -1.
         11   -1    0    0    0    0 -0.00000000000E+00 -0.00000000000E+00 -0.45593999997E+02  0.45594000000E+02  0.51100000000E-03 0.  1.
         23    2    1    2    0    0 -0.17763568394E-14  0.35527136788E-14 -0.35527136788E-14  0.91188000000E+02  0.91188000000E+02 0.  0.
    9900012    2    3    3    0    0  0.10433594279E+02 -0.24854141742E+02  0.30439729493E+02  0.50528863476E+02  0.30000011022E+02 0.  0.
        -12    1    3    3    0    0 -0.10433594279E+02  0.24854141742E+02 -0.30439729493E+02  0.40659136524E+02  0.00000000000E+00 0.  1.
         11    1    4    4    0    0  0.32838353316E+01  0.41553728711E+01  0.81424945041E+01  0.97134399259E+01  0.51100000000E-03 0. -1.
        -11    1    4    4    0    0 -0.36660602284E+01 -0.18478096915E+02  0.14820100357E+02  0.23969051672E+02  0.51100000000E-03 0.  1.
         12    1    4    4    0    0  0.10815819175E+02 -0.10531417698E+02  0.74771346317E+01  0.16846371878E+02  0.00000000000E+00 0. -1.
</event>
<event>
 8    1  0.5829710E-012  0.9118800E+02  0.7816164E-02  0.1184000E+00
        -11   -1    0    0    0    0  0.00000000000E+00  0.00000000000E+00  0.45593999997E+02  0.45594000000E+02  0.51100000000E-03 0. -1.
         11   -1    0    0    0    0 -0.00000000000E+00 -0.00000000000E+00 -0.45593999997E+02  0.45594000000E+02  0.51100000000E-03 0.  1.
         23    2    1    2    0    0  0.00000000000E+00 -0.35527136788E-14  0.00000000000E+00  0.91188000000E+02  0.91188000000E+02 0.  0.
    9900012    2    3    3    0    0 -0.16587361500E+02  0.23170150485E+02 -0.29002923639E+02  0.50528855707E+02  0.29999987406E+02 0.  0.
         12    1    3    3    0    0  0.16587361500E+02 -0.23170150485E+02  0.29002923639E+02  0.40659144293E+02  0.00000000000E+00 0. -1.
         11    1    4    4    0    0 -0.55043749608E+01 -0.21599952545E+01  0.18287898004E+01  0.61893614860E+01  0.51100000000E-03 0. -1.
        -11    1    4    4    0    0  0.19018948840E+01  0.14276390619E+01 -0.94372521603E+01  0.97322703435E+01  0.51100000000E-03 0.  1.
         12    1    4    4    0    0 -0.12984881424E+02  0.23902506678E+02 -0.21394461279E+02  0.34607223877E+02  0.00000000000E+00 0. -1.
</event>
<event>
 8    1  0.5829710E-012  0.9118800E+02  0.7816164E-02  0.1184000E+00
        -11   -1    0    0    0    0  0.00000000000E+00  0.00000000000E+00  0.45593999997E+02  0.45594000000E+02  0.51100000000E-03 0. -1.
         11   -1    0    0    0    0 -0.00000000000E+00 -0.00000000000E+00 -0.45593999997E+02  0.45594000000E+02  0.51100000000E-03 0.  1.
         23    2    1    2    0    0  0.00000000000E+00  0.17763568394E-14 -0.71054273576E-14  0.91188000000E+02  0.91188000000E+02 0.  0.
    9900012    2    3    3    0    0 -0.74664446762E+01  0.91474221893E+01 -0.38906845457E+02  0.50528858934E+02  0.29999997215E+02 0.  0.
         12    1    3    3    0    0  0.74664446762E+01 -0.91474221893E+01  0.38906845457E+02  0.40659141066E+02  0.00000000000E+00 0. -1.
         11    1    4    4    0    0 -0.89403196231E+01 -0.26116456350E+01 -0.69339413559E+01  0.11611612759E+02  0.51100000000E-03 0. -1.
        -11    1    4    4    0    0 -0.11095011809E+00 -0.16562658547E+01  0.18565270500E+01  0.24904255577E+01  0.51100000000E-03 0.  1.
        -12    1    4    4    0    0  0.15848250650E+01  0.13415333679E+02 -0.33829431151E+02  0.36426820617E+02  0.00000000000E+00 0.  1.
</event>
<event>
 8    1  0.5829710E-012  0.9118800E+02  0.7816164E-02  0.1184000E+00
        -11   -1    0    0    0    0  0.00000000000E+00  0.00000000000E+00  0.45593999997E+02  0.45594000000E+02  0.51100000000E-03 0. -1.
         11   -1    0    0    0    0 -0.00000000000E+00 -0.00000000000E+00 -0.45593999997E+02  0.45594000000E+02  0.51100000000E-03 0.  1.
         23    2    1    2    0    0 -0.66613381478E-15  0.00000000000E+00 -0.35527136788E-14  0.91188000000E+02  0.91188000000E+02 0.  0.
    9900012    2    3    3    0    0  0.13784770125E+01  0.25571577421E+02  0.31581008346E+02  0.50528857623E+02  0.29999993232E+02 0.  0.
        -12    1    3    3    0    0 -0.13784770125E+01 -0.25571577421E+02 -0.31581008346E+02  0.40659142377E+02  0.00000000000E+00 0.  1.
         11    1    4    4    0    0 -0.52588575668E+01  0.22580887164E+02  0.17965688350E+02  0.29331178056E+02  0.51100000000E-03 0. -1.
        -11    1    4    4    0    0 -0.37321271406E+01  0.43931229239E+01  0.53277213692E+01  0.78493896111E+01  0.51100000000E-03 0.  1.
        -12    1    4    4    0    0  0.10369461720E+02 -0.14024326672E+01  0.82875986268E+01  0.13348289956E+02  0.00000000000E+00 0.  1.
</event>
<event>
 8    1  0.5829710E-012  0.9118800E+02  0.7816164E-02  0.1184000E+00
        -11   -1    0    0    0    0  0.00000000000E+00  0.00000000000E+00  0.45593999997E+02  0.45594000000E+02  0.51100000000E-03 0.  1.
         11   -1    0    0    0    0 -0.00000000000E+00 -0.00000000000E+00 -0.45593999997E+02  0.45594000000E+02  0.51100000000E-03 0. -1.
         23    2    1    2    0    0  0.00000000000E+00 -0.17763568394E-14 -0.17763568394E-14  0.91188000000E+02  0.91188000000E+02 0.  0.
    9900012    2    3    3    0    0  0.39408650811E+02  0.60597921722E+01  0.79625879468E+01  0.50528860232E+02  0.30000001160E+02 0.  0.
         12    1    3    3    0    0 -0.39408650811E+02 -0.60597921722E+01 -0.79625879468E+01  0.40659139768E+02  0.00000000000E+00 0. -1.
         11    1    4    4    0    0  0.30789950933E+01 -0.13679337274E+01 -0.23241861602E+01  0.40930789188E+01  0.51100000000E-03 0. -1.
        -11    1    4    4    0    0  0.64960257479E+01 -0.60328467199E+01 -0.51454637036E+01  0.10250335948E+02  0.51100000000E-03 0.  1.
        -12    1    4    4    0    0  0.29833629970E+02  0.13460572619E+02  0.15432237811E+02  0.36185445365E+02  0.00000000000E+00 0.  1.
</event>
<event>
 8    1  0.5829710E-012  0.9118800E+02  0.7816164E-02  0.1184000E+00
        -11   -1    0    0    0    0  0.00000000000E+00  0.00000000000E+00  0.45593999997E+02  0.45594000000E+02  0.51100000000E-03 0.  1.
         11   -1    0    0    0    0 -0.00000000000E+00 -0.00000000000E+00 -0.45593999997E+02  0.45594000000E+02  0.51100000000E-03 0. -1.
         23    2    1    2    0    0  0.00000000000E+00  0.00000000000E+00  0.00000000000E+00  0.91188000000E+02  0.91188000000E+02 0.  0.
    9900012    2    3    3    0    0 -0.33669601484E+02  0.16038906762E+02 -0.16194962305E+02  0.50528863287E+02  0.30000010447E+02 0.  0.
         12    1    3    3    0    0  0.33669601484E+02 -0.16038906762E+02  0.16194962305E+02  0.40659136713E+02  0.00000000000E+00 0. -1.
         11    1    4    4    0    0 -0.13660296597E+02 -0.26219803883E+01 -0.48869336621E+01  0.14743154519E+02  0.51100000000E-03 0. -1.
        -11    1    4    4    0    0 -0.12301257106E+02  0.89730660394E+01  0.43399132378E+01  0.15832614684E+02  0.51100000000E-03 0.  1.
        -12    1    4    4    0    0 -0.77080477800E+01  0.96878211107E+01 -0.15647941881E+02  0.19953094085E+02  0.00000000000E+00 0.  1.
</event>
<event>
 8    1  0.7034430E-012  0.9118800E+02  0.7816164E-02  0.1184000E+00
        -11   -1    0    0    0    0  0.00000000000E+00  0.00000000000E+00  0.45593999997E+02  0.45594000000E+02  0.51100000000E-03 0. -1.
         11   -1    0    0    0    0 -0.00000000000E+00 -0.00000000000E+00 -0.45593999997E+02  0.45594000000E+02  0.51100000000E-03 0.  1.
         23    2    1    2    0    0  0.00000000000E+00  0.00000000000E+00  0.00000000000E+00  0.91188000000E+02  0.91188000000E+02 0.  0.
    9900012    2    3    3    0    0  0.26100775531E+02 -0.59467004375E+01 -0.30603147941E+02  0.50528851050E+02  0.29999973253E+02 0.  0.
         12    1    3    3    0    0 -0.26100775531E+02  0.59467004375E+01  0.30603147941E+02  0.40659148950E+02  0.00000000000E+00 0. -1.
         11    1    4    4    0    0  0.16603214594E+02 -0.28447340684E+01 -0.17868087642E+01  0.16939655622E+02  0.51100000000E-03 0. -1.
        -11    1    4    4    0    0  0.12710517761E+02 -0.27248337585E+01 -0.17376839001E+02  0.21701071741E+02  0.51100000000E-03 0.  1.
        -12    1    4    4    0    0 -0.32129568233E+01 -0.37713261058E+00 -0.11439500175E+02  0.11888123688E+02  0.00000000000E+00 0.  1.
</event>
<event>
 8    1  0.5829710E-012  0.9118800E+02  0.7816164E-02  0.1184000E+00
        -11   -1    0    0    0    0  0.00000000000E+00  0.00000000000E+00  0.45593999997E+02  0.45594000000E+02  0.51100000000E-03 0. -1.
         11   -1    0    0    0    0 -0.00000000000E+00 -0.00000000000E+00 -0.45593999997E+02  0.45594000000E+02  0.51100000000E-03 0.  1.
         23    2    1    2    0    0 -0.10658141036E-13  0.00000000000E+00  0.71054273576E-14  0.91188000000E+02  0.91188000000E+02 0.  0.
    9900012    2    3    3    0    0  0.20584448191E+02  0.57479242795E+01 -0.34589074208E+02  0.50528902673E+02  0.30000130164E+02 0.  0.
         12    1    3    3    0    0 -0.20584448191E+02 -0.57479242795E+01  0.34589074208E+02  0.40659097327E+02  0.00000000000E+00 0. -1.
         11    1    4    4    0    0  0.94780101640E+01  0.39971225977E+01 -0.12865093752E+02  0.16471803279E+02  0.51100000000E-03 0. -1.
        -11    1    4    4    0    0  0.17129220627E+02 -0.41164953730E+01 -0.16629181314E+02  0.24225717840E+02  0.51100000000E-03 0.  1.
         12    1    4    4    0    0 -0.60227825994E+01  0.58672970547E+01 -0.50947991421E+01  0.98313815543E+01  0.00000000000E+00 0. -1.
</event>
<event>
 8    1  0.5829710E-012  0.9118800E+02  0.7816164E-02  0.1184000E+00
        -11   -1    0    0    0    0  0.00000000000E+00  0.00000000000E+00  0.45593999997E+02  0.45594000000E+02  0.51100000000E-03 0. -1.
         11   -1    0    0    0    0 -0.00000000000E+00 -0.00000000000E+00 -0.45593999997E+02  0.45594000000E+02  0.51100000000E-03 0.  1.
         23    2    1    2    0    0  0.00000000000E+00 -0.17763568394E-14  0.00000000000E+00  0.91188000000E+02  0.91188000000E+02 0.  0.
    9900012    2    3    3    0    0 -0.27287420950E+02 -0.11155638602E+02 -0.28002030877E+02  0.50528863905E+02  0.30000012326E+02 0.  0.
         12    1    3    3    0    0  0.27287420950E+02  0.11155638602E+02  0.28002030877E+02  0.40659136095E+02  0.00000000000E+00 0. -1.
         11    1    4    4    0    0 -0.13132652276E+02  0.36272517357E+01 -0.13549445386E+01  0.13691580841E+02  0.51100000000E-03 0. -1.
        -11    1    4    4    0    0  0.58167962792E+00  0.25135489495E+01 -0.39696768401E+01  0.47344074589E+01  0.51100000000E-03 0.  1.
        -12    1    4    4    0    0 -0.14736448302E+02 -0.17296439287E+02 -0.22677409498E+02  0.32102875605E+02  0.00000000000E+00 0.  1.
</event>
<event>
 8    1  0.5829710E-012  0.9118800E+02  0.7816164E-02  0.1184000E+00
        -11   -1    0    0    0    0  0.00000000000E+00  0.00000000000E+00  0.45593999997E+02  0.45594000000E+02  0.51100000000E-03 0. -1.
         11   -1    0    0    0    0 -0.00000000000E+00 -0.00000000000E+00 -0.45593999997E+02  0.45594000000E+02  0.51100000000E-03 0.  1.
         23    2    1    2    0    0 -0.17763568394E-14 -0.17763568394E-14  0.71054273576E-14  0.91188000000E+02  0.91188000000E+02 0.  0.
    9900012    2    3    3    0    0  0.10389835700E+02  0.15793945351E+02 -0.35996783361E+02  0.50528858248E+02  0.29999995132E+02 0.  0.
         12    1    3    3    0    0 -0.10389835700E+02 -0.15793945351E+02  0.35996783361E+02  0.40659141752E+02  0.00000000000E+00 0. -1.
         11    1    4    4    0    0  0.89079003429E+01  0.33867203659E+01 -0.34389140424E+01  0.10131470447E+02  0.51100000000E-03 0. -1.
        -11    1    4    4    0    0  0.22290575022E+01  0.50246447346E+01  0.13720685759E+01  0.56655383235E+01  0.51100000000E-03 0.  1.
        -12    1    4    4    0    0 -0.74712214540E+00  0.73825802509E+01 -0.33929937895E+02  0.34731849478E+02  0.00000000000E+00 0.  1.
</event>
<event>
 8    1  0.6454256E-012  0.9118800E+02  0.7816164E-02  0.1184000E+00
        -11   -1    0    0    0    0  0.00000000000E+00  0.00000000000E+00  0.45593999997E+02  0.45594000000E+02  0.51100000000E-03 0.  1.
         11   -1    0    0    0    0 -0.00000000000E+00 -0.00000000000E+00 -0.45593999997E+02  0.45594000000E+02  0.51100000000E-03 0. -1.
         23    2    1    2    0    0  0.00000000000E+00  0.00000000000E+00  0.00000000000E+00  0.91188000000E+02  0.91188000000E+02 0.  0.
    9900012    2    3    3    0    0  0.33035105542E+02  0.22623005043E+02 -0.70744025189E+01  0.50528859252E+02  0.29999998183E+02 0.  0.
         12    1    3    3    0    0 -0.33035105542E+02 -0.22623005043E+02  0.70744025189E+01  0.40659140748E+02  0.00000000000E+00 0. -1.
         11    1    4    4    0    0  0.68607320760E+01 -0.46372956125E+01 -0.31285576959E+01  0.88522329801E+01  0.51100000000E-03 0. -1.
        -11    1    4    4    0    0  0.24897349911E+02  0.14988873690E+02 -0.15062968518E+01  0.29100056659E+02  0.51100000000E-03 0.  1.
         12    1    4    4    0    0  0.12770235546E+01  0.12271426965E+02 -0.24395479712E+01  0.12576569613E+02  0.00000000000E+00 0. -1.
</event>
<event>
 8    1  0.5829710E-012  0.9118800E+02  0.7816164E-02  0.1184000E+00
        -11   -1    0    0    0    0  0.00000000000E+00  0.00000000000E+00  0.45593999997E+02  0.45594000000E+02  0.51100000000E-03 0. -1.
         11   -1    0    0    0    0 -0.00000000000E+00 -0.00000000000E+00 -0.45593999997E+02  0.45594000000E+02  0.51100000000E-03 0.  1.
         23    2    1    2    0    0  0.00000000000E+00 -0.88817841970E-15  0.00000000000E+00  0.91188000000E+02  0.91188000000E+02 0.  0.
    9900012    2    3    3    0    0  0.37347619839E+02 -0.57607429605E+01 -0.15004502276E+02  0.50528856432E+02  0.29999989612E+02 0.  0.
         12    1    3    3    0    0 -0.37347619839E+02  0.57607429605E+01  0.15004502276E+02  0.40659143568E+02  0.00000000000E+00 0. -1.
         11    1    4    4    0    0  0.15848471087E+02 -0.11268997592E+02 -0.11286574010E+02  0.22484463428E+02  0.51100000000E-03 0. -1.
        -11    1    4    4    0    0  0.14250263734E+02  0.17906882932E+01 -0.10214828907E+02  0.17624395335E+02  0.51100000000E-03 0.  1.
         12    1    4    4    0    0  0.72488850184E+01  0.37175663383E+01  0.64969006411E+01  0.10419997669E+02  0.00000000000E+00 0. -1.
</event>
<event>
 8    1  0.5829710E-012  0.9118800E+02  0.7816164E-02  0.1184000E+00
        -11   -1    0    0    0    0  0.00000000000E+00  0.00000000000E+00  0.45593999997E+02  0.45594000000E+02  0.51100000000E-03 0. -1.
         11   -1    0    0    0    0 -0.00000000000E+00 -0.00000000000E+00 -0.45593999997E+02  0.45594000000E+02  0.51100000000E-03 0.  1.
         23    2    1    2    0    0  0.35527136788E-14  0.00000000000E+00 -0.44408920985E-15  0.91188000000E+02  0.91188000000E+02 0.  0.
    9900012    2    3    3    0    0  0.27948523153E+02  0.29457339099E+02 -0.20762364702E+01  0.50528861653E+02  0.30000005480E+02 0.  0.
         12    1    3    3    0    0 -0.27948523153E+02 -0.29457339099E+02  0.20762364702E+01  0.40659138347E+02  0.00000000000E+00 0. -1.
         11    1    4    4    0    0  0.40741584209E+01  0.17617183551E+01  0.26471193733E+01  0.51681388950E+01  0.51100000000E-03 0. -1.
        -11    1    4    4    0    0  0.19735193781E+02  0.28766437416E+02  0.45195585335E+01  0.35176870310E+02  0.51100000000E-03 0.  1.
         12    1    4    4    0    0  0.41391709509E+01 -0.10708166715E+01 -0.92429143769E+01  0.10183852448E+02  0.00000000000E+00 0. -1.
</event>
<event>
 8    1  0.5829710E-012  0.9118800E+02  0.7816164E-02  0.1184000E+00
        -11   -1    0    0    0    0  0.00000000000E+00  0.00000000000E+00  0.45593999997E+02  0.45594000000E+02  0.51100000000E-03 0. -1.
         11   -1    0    0    0    0 -0.00000000000E+00 -0.00000000000E+00 -0.45593999997E+02  0.45594000000E+02  0.51100000000E-03 0.  1.
         23    2    1    2    0    0  0.71054273576E-14  0.17763568394E-14  0.88817841970E-15  0.91188000000E+02  0.91188000000E+02 0.  0.
    9900012    2    3    3    0    0  0.38035546153E+02  0.12016341846E+02  0.78784822136E+01  0.50528859275E+02  0.29999998251E+02 0.  0.
        -12    1    3    3    0    0 -0.38035546153E+02 -0.12016341846E+02 -0.78784822136E+01  0.40659140725E+02  0.00000000000E+00 0.  1.
         11    1    4    4    0    0  0.12311871152E+02  0.27585246527E+01  0.11195850080E+02  0.16868274624E+02  0.51100000000E-03 0. -1.
        -11    1    4    4    0    0  0.14368080675E+02  0.30283268491E+01  0.77684488966E+01  0.16612083081E+02  0.51100000000E-03 0.  1.
        -12    1    4    4    0    0  0.11355594326E+02  0.62294903441E+01 -0.11085816763E+02  0.17048501569E+02  0.00000000000E+00 0.  1.
</event>
<event>
 8    1  0.5829710E-012  0.9118800E+02  0.7816164E-02  0.1184000E+00
        -11   -1    0    0    0    0  0.00000000000E+00  0.00000000000E+00  0.45593999997E+02  0.45594000000E+02  0.51100000000E-03 0.  1.
         11   -1    0    0    0    0 -0.00000000000E+00 -0.00000000000E+00 -0.45593999997E+02  0.45594000000E+02  0.51100000000E-03 0. -1.
         23    2    1    2    0    0  0.00000000000E+00 -0.35527136788E-14  0.00000000000E+00  0.91188000000E+02  0.91188000000E+02 0.  0.
    9900012    2    3    3    0    0  0.33490080136E+02  0.18598754491E+02  0.13625940788E+02  0.50528863284E+02  0.30000010439E+02 0.  0.
        -12    1    3    3    0    0 -0.33490080136E+02 -0.18598754491E+02 -0.13625940788E+02  0.40659136716E+02  0.00000000000E+00 0.  1.
         11    1    4    4    0    0  0.28172824402E+02  0.20143687732E+02  0.59257934260E+01  0.35136750251E+02  0.51100000000E-03 0. -1.
        -11    1    4    4    0    0  0.63487300624E+00 -0.22991264224E+01 -0.29145101042E+01  0.37660875519E+01  0.51100000000E-03 0.  1.
        -12    1    4    4    0    0  0.46823827276E+01  0.75419318160E+00  0.10614657466E+02  0.11626025481E+02  0.00000000000E+00 0.  1.
</event>
<event>
 8    1  0.5829710E-012  0.9118800E+02  0.7816164E-02  0.1184000E+00
        -11   -1    0    0    0    0  0.00000000000E+00  0.00000000000E+00  0.45593999997E+02  0.45594000000E+02  0.51100000000E-03 0. -1.
         11   -1    0    0    0    0 -0.00000000000E+00 -0.00000000000E+00 -0.45593999997E+02  0.45594000000E+02  0.51100000000E-03 0.  1.
         23    2    1    2    0    0  0.00000000000E+00  0.00000000000E+00  0.00000000000E+00  0.91188000000E+02  0.91188000000E+02 0.  0.
    9900012    2    3    3    0    0 -0.20564105637E+02 -0.19273865594E+02 -0.29305316397E+02  0.50528857059E+02  0.29999991516E+02 0.  0.
         12    1    3    3    0    0  0.20564105637E+02  0.19273865594E+02  0.29305316397E+02  0.40659142941E+02  0.00000000000E+00 0. -1.
         11    1    4    4    0    0 -0.76325874174E+01 -0.86774106008E+01  0.48290297853E+00  0.11566634816E+02  0.51100000000E-03 0. -1.
        -11    1    4    4    0    0 -0.11834652741E+02 -0.15830907129E+02 -0.23533591429E+02  0.30732825314E+02  0.51100000000E-03 0.  1.
        -12    1    4    4    0    0 -0.10968654789E+01  0.52344521362E+01 -0.62546279473E+01  0.82293969283E+01  0.00000000000E+00 0.  1.
</event>
<event>
 8    1  0.5829710E-012  0.9118800E+02  0.7816164E-02  0.1184000E+00
        -11   -1    0    0    0    0  0.00000000000E+00  0.00000000000E+00  0.45593999997E+02  0.45594000000E+02  0.51100000000E-03 0. -1.
         11   -1    0    0    0    0 -0.00000000000E+00 -0.00000000000E+00 -0.45593999997E+02  0.45594000000E+02  0.51100000000E-03 0.  1.
         23    2    1    2    0    0  0.00000000000E+00  0.00000000000E+00  0.00000000000E+00  0.91188000000E+02  0.91188000000E+02 0.  0.
    9900012    2    3    3    0    0 -0.21138732692E+02 -0.10613160873E+02  0.33070844816E+02  0.50528856128E+02  0.29999988687E+02 0.  0.
        -12    1    3    3    0    0  0.21138732692E+02  0.10613160873E+02 -0.33070844816E+02  0.40659143872E+02  0.00000000000E+00 0.  1.
         11    1    4    4    0    0  0.35373914305E+01 -0.38390534201E+01  0.65368171758E+01  0.83654915185E+01  0.51100000000E-03 0. -1.
        -11    1    4    4    0    0  0.33170462088E+01 -0.22567343733E+01  0.57293438008E+01  0.69943567418E+01  0.51100000000E-03 0.  1.
         12    1    4    4    0    0 -0.27993170331E+02 -0.45173730794E+01  0.20804683840E+02  0.35169007868E+02  0.00000000000E+00 0. -1.
</event>
<event>
 8    1  0.5829710E-012  0.9118800E+02  0.7816164E-02  0.1184000E+00
        -11   -1    0    0    0    0  0.00000000000E+00  0.00000000000E+00  0.45593999997E+02  0.45594000000E+02  0.51100000000E-03 0. -1.
         11   -1    0    0    0    0 -0.00000000000E+00 -0.00000000000E+00 -0.45593999997E+02  0.45594000000E+02  0.51100000000E-03 0.  1.
         23    2    1    2    0    0 -0.35527136788E-14  0.17763568394E-14  0.71054273576E-14  0.91188000000E+02  0.91188000000E+02 0.  0.
    9900012    2    3    3    0    0 -0.21001307855E+02  0.11514267709E+02  0.32856244977E+02  0.50528854332E+02  0.29999983226E+02 0.  0.
        -12    1    3    3    0    0  0.21001307855E+02 -0.11514267709E+02 -0.32856244977E+02  0.40659145668E+02  0.00000000000E+00 0.  1.
         11    1    4    4    0    0  0.28316752419E+01 -0.12659855060E+00  0.91945790051E+00  0.29799018374E+01  0.51100000000E-03 0. -1.
        -11    1    4    4    0    0 -0.61501063892E+01 -0.44031597141E+01 -0.13528568215E+00  0.75650463676E+01  0.51100000000E-03 0.  1.
         12    1    4    4    0    0 -0.17682876708E+02  0.16044025973E+02  0.32072072759E+02  0.39983906127E+02  0.00000000000E+00 0. -1.
</event>
<event>
 8    1  0.5829710E-012  0.9118800E+02  0.7816164E-02  0.1184000E+00
        -11   -1    0    0    0    0  0.00000000000E+00  0.00000000000E+00  0.45593999997E+02  0.45594000000E+02  0.51100000000E-03 0. -1.
         11   -1    0    0    0    0 -0.00000000000E+00 -0.00000000000E+00 -0.45593999997E+02  0.45594000000E+02  0.51100000000E-03 0.  1.
         23    2    1    2    0    0  0.00000000000E+00 -0.88817841970E-15  0.00000000000E+00  0.91188000000E+02  0.91188000000E+02 0.  0.
    9900012    2    3    3    0    0  0.10739706472E+02 -0.29817705918E+01 -0.39101615756E+02  0.50528823844E+02  0.29999890556E+02 0.  0.
         12    1    3    3    0    0 -0.10739706472E+02  0.29817705918E+01  0.39101615756E+02  0.40659176156E+02  0.00000000000E+00 0. -1.
         11    1    4    4    0    0 -0.71402081653E+01  0.61133418021E+01 -0.96860014078E+01  0.13497190232E+02  0.51100000000E-03 0. -1.
        -11    1    4    4    0    0  0.56879059779E+01  0.57508412300E+00 -0.32168969045E+01  0.65598340007E+01  0.51100000000E-03 0.  1.
        -12    1    4    4    0    0  0.12192008660E+02 -0.96701965169E+01 -0.26198717444E+02  0.30471799611E+02  0.00000000000E+00 0.  1.
</event>
<event>
 8    1  0.5829710E-012  0.9118800E+02  0.7816164E-02  0.1184000E+00
        -11   -1    0    0    0    0  0.00000000000E+00  0.00000000000E+00  0.45593999997E+02  0.45594000000E+02  0.51100000000E-03 0. -1.
         11   -1    0    0    0    0 -0.00000000000E+00 -0.00000000000E+00 -0.45593999997E+02  0.45594000000E+02  0.51100000000E-03 0.  1.
         23    2    1    2    0    0 -0.11102230246E-15  0.00000000000E+00  0.00000000000E+00  0.91188000000E+02  0.91188000000E+02 0.  0.
    9900012    2    3    3    0    0 -0.62309918016E+00 -0.35441935420E+02  0.19916028892E+02  0.50528840568E+02  0.29999941390E+02 0.  0.
        -12    1    3    3    0    0  0.62309918016E+00  0.35441935420E+02 -0.19916028892E+02  0.40659159432E+02  0.00000000000E+00 0.  1.
         11    1    4    4    0    0  0.31041513355E+01 -0.99469732323E+01  0.23089001993E+01  0.10672818390E+02  0.51100000000E-03 0. -1.
        -11    1    4    4    0    0  0.16917775638E+01 -0.36514822041E+01 -0.60099283485E+01  0.72328882632E+01  0.51100000000E-03 0.  1.
         12    1    4    4    0    0 -0.54190280795E+01 -0.21843479983E+02  0.23617057042E+02  0.32623133915E+02  0.00000000000E+00 0. -1.
</event>
<event>
 8    1  0.5829710E-012  0.9118800E+02  0.7816164E-02  0.1184000E+00
        -11   -1    0    0    0    0  0.00000000000E+00  0.00000000000E+00  0.45593999997E+02  0.45594000000E+02  0.51100000000E-03 0. -1.
         11   -1    0    0    0    0 -0.00000000000E+00 -0.00000000000E+00 -0.45593999997E+02  0.45594000000E+02  0.51100000000E-03 0.  1.
         23    2    1    2    0    0  0.22204460493E-15 -0.35527136788E-14 -0.71054273576E-14  0.91188000000E+02  0.91188000000E+02 0.  0.
    9900012    2    3    3    0    0  0.11674751396E+01 -0.31854944225E+02 -0.25240123163E+02  0.50528876951E+02  0.30000051980E+02 0.  0.
         12    1    3    3    0    0 -0.11674751396E+01  0.31854944225E+02  0.25240123163E+02  0.40659123049E+02  0.00000000000E+00 0. -1.
         11    1    4    4    0    0  0.78986356266E+01 -0.73669145237E+01 -0.62892771709E+01  0.12498595199E+02  0.51100000000E-03 0. -1.
        -11    1    4    4    0    0  0.35270897520E+01  0.22316304321E+01 -0.38088398889E+01  0.56504688358E+01  0.51100000000E-03 0.  1.
         12    1    4    4    0    0 -0.10258250239E+02 -0.26719660134E+02 -0.15142006104E+02  0.32379812916E+02  0.00000000000E+00 0. -1.
</event>
<event>
 8    1  0.5829710E-012  0.9118800E+02  0.7816164E-02  0.1184000E+00
        -11   -1    0    0    0    0  0.00000000000E+00  0.00000000000E+00  0.45593999997E+02  0.45594000000E+02  0.51100000000E-03 0. -1.
         11   -1    0    0    0    0 -0.00000000000E+00 -0.00000000000E+00 -0.45593999997E+02  0.45594000000E+02  0.51100000000E-03 0.  1.
         23    2    1    2    0    0  0.00000000000E+00  0.00000000000E+00  0.35527136788E-14  0.91188000000E+02  0.91188000000E+02 0.  0.
    9900012    2    3    3    0    0 -0.14592077606E+02 -0.23426267087E+02  0.29857130494E+02  0.50528844083E+02  0.29999952076E+02 0.  0.
        -12    1    3    3    0    0  0.14592077606E+02  0.23426267087E+02 -0.29857130494E+02  0.40659155917E+02  0.00000000000E+00 0.  1.
         11    1    4    4    0    0 -0.59759270634E+01 -0.53778382266E+01  0.31003465949E+01  0.86165536921E+01  0.51100000000E-03 0. -1.
        -11    1    4    4    0    0 -0.37161266105E+01  0.26928419891E+01 -0.28726471500E+01  0.54141570787E+01  0.51100000000E-03 0.  1.
         12    1    4    4    0    0 -0.49000239323E+01 -0.20741270850E+02  0.29629431049E+02  0.36498133313E+02  0.00000000000E+00 0. -1.
</event>
<event>
 8    1  0.5829710E-012  0.9118800E+02  0.7816164E-02  0.1184000E+00
        -11   -1    0    0    0    0  0.00000000000E+00  0.00000000000E+00  0.45593999997E+02  0.45594000000E+02  0.51100000000E-03 0.  1.
         11   -1    0    0    0    0 -0.00000000000E+00 -0.00000000000E+00 -0.45593999997E+02  0.45594000000E+02  0.51100000000E-03 0. -1.
         23    2    1    2    0    0  0.35527136788E-14 -0.35527136788E-14 -0.35527136788E-14  0.91188000000E+02  0.91188000000E+02 0.  0.
    9900012    2    3    3    0    0  0.24968043343E+02 -0.17959466124E+02  0.26593611942E+02  0.50528858249E+02  0.29999995134E+02 0.  0.
        -12    1    3    3    0    0 -0.24968043343E+02  0.17959466124E+02 -0.26593611942E+02  0.40659141751E+02  0.00000000000E+00 0.  1.
         11    1    4    4    0    0  0.11815942732E+01 -0.69412583435E+01  0.54220684768E+01  0.88868475426E+01  0.51100000000E-03 0.  1.
        -11    1    4    4    0    0  0.71063174524E+01 -0.15797470503E+02  0.15885462594E+02  0.23503356018E+02  0.51100000000E-03 0. -1.
         12    1    4    4    0    0  0.16680131617E+02  0.47792627224E+01  0.52860808708E+01  0.18138654688E+02  0.00000000000E+00 0. -1.
</event>
<event>
 8    1  0.7710341E-012  0.9118800E+02  0.7816164E-02  0.1184000E+00
        -11   -1    0    0    0    0  0.00000000000E+00  0.00000000000E+00  0.45593999997E+02  0.45594000000E+02  0.51100000000E-03 0. -1.
         11   -1    0    0    0    0 -0.00000000000E+00 -0.00000000000E+00 -0.45593999997E+02  0.45594000000E+02  0.51100000000E-03 0.  1.
         23    2    1    2    0    0  0.35527136788E-14  0.00000000000E+00  0.00000000000E+00  0.91188000000E+02  0.91188000000E+02 0.  0.
    9900012    2    3    3    0    0  0.25638212203E+02 -0.31684128497E+01 -0.31397607419E+02  0.50528849534E+02  0.29999968644E+02 0.  0.
         12    1    3    3    0    0 -0.25638212203E+02  0.31684128497E+01  0.31397607419E+02  0.40659150466E+02  0.00000000000E+00 0. -1.
         11    1    4    4    0    0  0.29768746116E+01 -0.60261346679E+01 -0.72559390101E+01  0.98906386381E+01  0.51100000000E-03 0. -1.
        -11    1    4    4    0    0  0.27592243404E+02  0.29184451830E+01 -0.20897317239E+02  0.34735386659E+02  0.51100000000E-03 0.  1.
         12    1    4    4    0    0 -0.49309058121E+01 -0.60723364736E-01 -0.32443511699E+01  0.59028242366E+01  0.00000000000E+00 0. -1.
</event>
<event>
 8    1  0.5829710E-012  0.9118800E+02  0.7816164E-02  0.1184000E+00
        -11   -1    0    0    0    0  0.00000000000E+00  0.00000000000E+00  0.45593999997E+02  0.45594000000E+02  0.51100000000E-03 0. -1.
         11   -1    0    0    0    0 -0.00000000000E+00 -0.00000000000E+00 -0.45593999997E+02  0.45594000000E+02  0.51100000000E-03 0.  1.
         23    2    1    2    0    0  0.00000000000E+00  0.00000000000E+00  0.88817841970E-15  0.91188000000E+02  0.91188000000E+02 0.  0.
    9900012    2    3    3    0    0 -0.36396559670E+02  0.16626875196E+02 -0.72113936397E+01  0.50528846875E+02  0.29999960562E+02 0.  0.
        -12    1    3    3    0    0  0.36396559670E+02 -0.16626875196E+02  0.72113936397E+01  0.40659153125E+02  0.00000000000E+00 0.  1.
         11    1    4    4    0    0 -0.36911726275E+01  0.33697562292E+01 -0.85161250565E+00  0.50700351607E+01  0.51100000000E-03 0. -1.
        -11    1    4    4    0    0 -0.18886314425E+02 -0.17471105459E+01 -0.14107888298E+02  0.23638480922E+02  0.51100000000E-03 0.  1.
        -12    1    4    4    0    0 -0.13819072618E+02  0.15004229513E+02  0.77481071636E+01  0.21820330793E+02  0.00000000000E+00 0.  1.
</event>
<event>
 8    1  0.5829710E-012  0.9118800E+02  0.7816164E-02  0.1184000E+00
        -11   -1    0    0    0    0  0.00000000000E+00  0.00000000000E+00  0.45593999997E+02  0.45594000000E+02  0.51100000000E-03 0. -1.
         11   -1    0    0    0    0 -0.00000000000E+00 -0.00000000000E+00 -0.45593999997E+02  0.45594000000E+02  0.51100000000E-03 0.  1.
         23    2    1    2    0    0 -0.17763568394E-14  0.35527136788E-14  0.00000000000E+00  0.91188000000E+02  0.91188000000E+02 0.  0.
    9900012    2    3    3    0    0 -0.74104428563E+01 -0.18562879921E+02  0.35407198977E+02  0.50528869246E+02  0.30000028561E+02 0.  0.
        -12    1    3    3    0    0  0.74104428563E+01  0.18562879921E+02 -0.35407198977E+02  0.40659130754E+02  0.00000000000E+00 0.  1.
         11    1    4    4    0    0 -0.27611277438E+01 -0.46921821366E+01  0.36465435821E+01  0.65526849442E+01  0.51100000000E-03 0.  1.
        -11    1    4    4    0    0 -0.33840471478E+01 -0.18319723532E+02  0.88892963285E+01  0.20641793402E+02  0.51100000000E-03 0. -1.
         12    1    4    4    0    0 -0.12652679648E+01  0.44490257477E+01  0.22871359066E+02  0.23334390899E+02  0.00000000000E+00 0. -1.
</event>
<event>
 8    1  0.5829710E-012  0.9118800E+02  0.7816164E-02  0.1184000E+00
        -11   -1    0    0    0    0  0.00000000000E+00  0.00000000000E+00  0.45593999997E+02  0.45594000000E+02  0.51100000000E-03 0. -1.
         11   -1    0    0    0    0 -0.00000000000E+00 -0.00000000000E+00 -0.45593999997E+02  0.45594000000E+02  0.51100000000E-03 0.  1.
         23    2    1    2    0    0  0.00000000000E+00 -0.88817841970E-15  0.71054273576E-14  0.91188000000E+02  0.91188000000E+02 0.  0.
    9900012    2    3    3    0    0 -0.11035450140E+02 -0.78659374590E+01  0.38334209525E+02  0.50528858939E+02  0.29999997230E+02 0.  0.
        -12    1    3    3    0    0  0.11035450140E+02  0.78659374590E+01 -0.38334209525E+02  0.40659141061E+02  0.00000000000E+00 0.  1.
         11    1    4    4    0    0  0.85432405283E+00 -0.27514601330E+01  0.11858009488E+02  0.12202982903E+02  0.51100000000E-03 0. -1.
        -11    1    4    4    0    0 -0.29637070822E+01 -0.39855754831E+01  0.28643850205E+02  0.29071266337E+02  0.51100000000E-03 0.  1.
        -12    1    4    4    0    0 -0.89260671101E+01 -0.11289018429E+01 -0.21676501679E+01  0.92546096987E+01  0.00000000000E+00 0.  1.
</event>
<event>
 8    1  0.6012250E-012  0.9118800E+02  0.7816164E-02  0.1184000E+00
        -11   -1    0    0    0    0  0.00000000000E+00  0.00000000000E+00  0.45593999997E+02  0.45594000000E+02  0.51100000000E-03 0. -1.
         11   -1    0    0    0    0 -0.00000000000E+00 -0.00000000000E+00 -0.45593999997E+02  0.45594000000E+02  0.51100000000E-03 0.  1.
         23    2    1    2    0    0  0.35527136788E-14  0.00000000000E+00 -0.35527136788E-14  0.91188000000E+02  0.91188000000E+02 0.  0.
    9900012    2    3    3    0    0  0.17503806721E+02  0.25889953260E+02 -0.26009425265E+02  0.50528891154E+02  0.30000095151E+02 0.  0.
         12    1    3    3    0    0 -0.17503806721E+02 -0.25889953260E+02  0.26009425265E+02  0.40659108846E+02  0.00000000000E+00 0. -1.
         11    1    4    4    0    0 -0.80021325685E+00 -0.78121937835E-01 -0.90634200455E+01  0.90990124451E+01  0.51100000000E-03 0. -1.
        -11    1    4    4    0    0  0.33381247506E+01 -0.30424953029E+01  0.27029418288E+00  0.45247004017E+01  0.51100000000E-03 0.  1.
        -12    1    4    4    0    0  0.14965895227E+02  0.29010570501E+02 -0.17216299402E+02  0.36905178307E+02  0.00000000000E+00 0.  1.
</event>
<event>
 8    1  0.5829710E-012  0.9118800E+02  0.7816164E-02  0.1184000E+00
        -11   -1    0    0    0    0  0.00000000000E+00  0.00000000000E+00  0.45593999997E+02  0.45594000000E+02  0.51100000000E-03 0. -1.
         11   -1    0    0    0    0 -0.00000000000E+00 -0.00000000000E+00 -0.45593999997E+02  0.45594000000E+02  0.51100000000E-03 0.  1.
         23    2    1    2    0    0 -0.44408920985E-15  0.00000000000E+00 -0.17763568394E-14  0.91188000000E+02  0.91188000000E+02 0.  0.
    9900012    2    3    3    0    0  0.39527097084E+01  0.37377757424E+02  0.15506316818E+02  0.50528849426E+02  0.29999968317E+02 0.  0.
        -12    1    3    3    0    0 -0.39527097084E+01 -0.37377757424E+02 -0.15506316818E+02  0.40659150574E+02  0.00000000000E+00 0.  1.
         11    1    4    4    0    0  0.22451328971E+01  0.55243029411E+00 -0.44930483870E+01  0.50530471029E+01  0.51100000000E-03 0. -1.
        -11    1    4    4    0    0  0.63050554115E+01  0.72627568546E+01  0.23816086044E+00  0.96207110822E+01  0.51100000000E-03 0.  1.
         12    1    4    4    0    0 -0.45974786002E+01  0.29562570276E+02  0.19761204344E+02  0.35855091241E+02  0.00000000000E+00 0. -1.
</event>
<event>
 8    1  0.5829710E-012  0.9118800E+02  0.7816164E-02  0.1184000E+00
        -11   -1    0    0    0    0  0.00000000000E+00  0.00000000000E+00  0.45593999997E+02  0.45594000000E+02  0.51100000000E-03 0. -1.
         11   -1    0    0    0    0 -0.00000000000E+00 -0.00000000000E+00 -0.45593999997E+02  0.45594000000E+02  0.51100000000E-03 0.  1.
         23    2    1    2    0    0  0.00000000000E+00 -0.17763568394E-14  0.00000000000E+00  0.91188000000E+02  0.91188000000E+02 0.  0.
    9900012    2    3    3    0    0 -0.34418138207E+02  0.13453655138E+02  0.16957491694E+02  0.50528860821E+02  0.30000002952E+02 0.  0.
        -12    1    3    3    0    0  0.34418138207E+02 -0.13453655138E+02 -0.16957491694E+02  0.40659139179E+02  0.00000000000E+00 0.  1.
         11    1    4    4    0    0 -0.17374047547E+01  0.33761552311E+01  0.82146411345E+01  0.90497142859E+01  0.51100000000E-03 0. -1.
        -11    1    4    4    0    0 -0.46803872613E+00  0.74049197604E+01 -0.15037501691E+01  0.75705456698E+01  0.51100000000E-03 0.  1.
        -12    1    4    4    0    0 -0.32212694726E+02  0.26725801464E+01  0.10246600729E+02  0.33908600865E+02  0.00000000000E+00 0.  1.
</event>
<event>
 8    1  0.5829710E-012  0.9118800E+02  0.7816164E-02  0.1184000E+00
        -11   -1    0    0    0    0  0.00000000000E+00  0.00000000000E+00  0.45593999997E+02  0.45594000000E+02  0.51100000000E-03 0. -1.
         11   -1    0    0    0    0 -0.00000000000E+00 -0.00000000000E+00 -0.45593999997E+02  0.45594000000E+02  0.51100000000E-03 0.  1.
         23    2    1    2    0    0  0.71054273576E-14  0.17763568394E-14 -0.35527136788E-14  0.91188000000E+02  0.91188000000E+02 0.  0.
    9900012    2    3    3    0    0  0.35271445184E+02  0.19366925729E+01 -0.20133042696E+02  0.50528867794E+02  0.30000024147E+02 0.  0.
         12    1    3    3    0    0 -0.35271445184E+02 -0.19366925729E+01  0.20133042696E+02  0.40659132206E+02  0.00000000000E+00 0. -1.
         11    1    4    4    0    0  0.16257051196E+02  0.44948288211E+01 -0.51344326253E+01  0.17631154199E+02  0.51100000000E-03 0. -1.
        -11    1    4    4    0    0  0.68667941669E+01  0.94720059460E+01 -0.32122727936E+01  0.12132207364E+02  0.51100000000E-03 0.  1.
         12    1    4    4    0    0  0.12147599821E+02 -0.12030142194E+02 -0.11786337277E+02  0.20765506231E+02  0.00000000000E+00 0. -1.
</event>
<event>
 8    1  0.5829710E-012  0.9118800E+02  0.7816164E-02  0.1184000E+00
        -11   -1    0    0    0    0  0.00000000000E+00  0.00000000000E+00  0.45593999997E+02  0.45594000000E+02  0.51100000000E-03 0. -1.
         11   -1    0    0    0    0 -0.00000000000E+00 -0.00000000000E+00 -0.45593999997E+02  0.45594000000E+02  0.51100000000E-03 0.  1.
         23    2    1    2    0    0  0.17763568394E-14 -0.35527136788E-14  0.00000000000E+00  0.91188000000E+02  0.91188000000E+02 0.  0.
    9900012    2    3    3    0    0 -0.11373723577E+02  0.25143626514E+02  0.29859691496E+02  0.50528871646E+02  0.30000035855E+02 0.  0.
        -12    1    3    3    0    0  0.11373723577E+02 -0.25143626514E+02 -0.29859691496E+02  0.40659128354E+02  0.00000000000E+00 0.  1.
         11    1    4    4    0    0  0.53145540404E+01  0.77153852483E+00  0.33937474762E+01  0.63527378772E+01  0.51100000000E-03 0. -1.
        -11    1    4    4    0    0  0.29527903400E+01 -0.60347959070E+00  0.32505036661E+00  0.30313060568E+01  0.51100000000E-03 0.  1.
         12    1    4    4    0    0 -0.19641067958E+02  0.24975567580E+02  0.26140893653E+02  0.41144827712E+02  0.00000000000E+00 0. -1.
</event>
<event>
 8    1  0.5829710E-012  0.9118800E+02  0.7816164E-02  0.1184000E+00
        -11   -1    0    0    0    0  0.00000000000E+00  0.00000000000E+00  0.45593999997E+02  0.45594000000E+02  0.51100000000E-03 0. -1.
         11   -1    0    0    0    0 -0.00000000000E+00 -0.00000000000E+00 -0.45593999997E+02  0.45594000000E+02  0.51100000000E-03 0.  1.
         23    2    1    2    0    0  0.00000000000E+00  0.00000000000E+00  0.00000000000E+00  0.91188000000E+02  0.91188000000E+02 0.  0.
    9900012    2    3    3    0    0  0.80576464826E+01  0.22581553462E+02 -0.32837690144E+02  0.50528854441E+02  0.29999983557E+02 0.  0.
         12    1    3    3    0    0 -0.80576464826E+01 -0.22581553462E+02  0.32837690144E+02  0.40659145559E+02  0.00000000000E+00 0. -1.
         11    1    4    4    0    0  0.27418412466E+01  0.87951591019E+01 -0.68773736615E+01  0.11496555388E+02  0.51100000000E-03 0.  1.
        -11    1    4    4    0    0 -0.54606367895E+01  0.13858704649E+02 -0.54468344385E+01  0.15860335884E+02  0.51100000000E-03 0. -1.
        -12    1    4    4    0    0  0.10776442026E+02 -0.72310288192E-01 -0.20513482044E+02  0.23171963169E+02  0.00000000000E+00 0.  1.
</event>
<event>
 8    1  0.5829710E-012  0.9118800E+02  0.7816164E-02  0.1184000E+00
        -11   -1    0    0    0    0  0.00000000000E+00  0.00000000000E+00  0.45593999997E+02  0.45594000000E+02  0.51100000000E-03 0. -1.
         11   -1    0    0    0    0 -0.00000000000E+00 -0.00000000000E+00 -0.45593999997E+02  0.45594000000E+02  0.51100000000E-03 0.  1.
         23    2    1    2    0    0  0.00000000000E+00  0.00000000000E+00 -0.35527136788E-14  0.91188000000E+02  0.91188000000E+02 0.  0.
    9900012    2    3    3    0    0  0.15711472517E+02  0.23497165158E+02  0.29226678762E+02  0.50528857233E+02  0.29999992044E+02 0.  0.
        -12    1    3    3    0    0 -0.15711472517E+02 -0.23497165158E+02 -0.29226678762E+02  0.40659142767E+02  0.00000000000E+00 0.  1.
         11    1    4    4    0    0  0.10882114353E+02  0.99542472782E+01  0.13659354413E+02  0.20101875905E+02  0.51100000000E-03 0. -1.
        -11    1    4    4    0    0  0.11470970424E+02  0.13049450186E+02  0.52562920724E+01  0.18152132636E+02  0.51100000000E-03 0.  1.
        -12    1    4    4    0    0 -0.66416122600E+01  0.49346769360E+00  0.10311032277E+02  0.12274848691E+02  0.00000000000E+00 0.  1.
</event>
<event>
 8    1  0.5829710E-012  0.9118800E+02  0.7816164E-02  0.1184000E+00
        -11   -1    0    0    0    0  0.00000000000E+00  0.00000000000E+00  0.45593999997E+02  0.45594000000E+02  0.51100000000E-03 0.  1.
         11   -1    0    0    0    0 -0.00000000000E+00 -0.00000000000E+00 -0.45593999997E+02  0.45594000000E+02  0.51100000000E-03 0. -1.
         23    2    1    2    0    0  0.35527136788E-14  0.00000000000E+00 -0.17763568394E-14  0.91188000000E+02  0.91188000000E+02 0.  0.
    9900012    2    3    3    0    0  0.27012821203E+02  0.27934157637E+02 -0.11964969040E+02  0.50528804775E+02  0.29999832594E+02 0.  0.
         12    1    3    3    0    0 -0.27012821203E+02 -0.27934157637E+02  0.11964969040E+02  0.40659195225E+02  0.00000000000E+00 0. -1.
         11    1    4    4    0    0  0.13266644558E+01  0.56083548329E+01 -0.10067785844E+02  0.11600603199E+02  0.51100000000E-03 0. -1.
        -11    1    4    4    0    0  0.23426983111E+01  0.13454787642E+02 -0.27931282039E+01  0.13939910735E+02  0.51100000000E-03 0.  1.
         12    1    4    4    0    0  0.23343458436E+02  0.88710151618E+01  0.89594500773E+00  0.24988290842E+02  0.00000000000E+00 0. -1.
</event>
<event>
 8    1  0.5829710E-012  0.9118800E+02  0.7816164E-02  0.1184000E+00
        -11   -1    0    0    0    0  0.00000000000E+00  0.00000000000E+00  0.45593999997E+02  0.45594000000E+02  0.51100000000E-03 0. -1.
         11   -1    0    0    0    0 -0.00000000000E+00 -0.00000000000E+00 -0.45593999997E+02  0.45594000000E+02  0.51100000000E-03 0.  1.
         23    2    1    2    0    0  0.35527136788E-14  0.00000000000E+00 -0.35527136788E-14  0.91188000000E+02  0.91188000000E+02 0.  0.
    9900012    2    3    3    0    0 -0.28738657954E+02  0.22924678147E+02  0.17369933289E+02  0.50528856974E+02  0.29999991258E+02 0.  0.
        -12    1    3    3    0    0  0.28738657954E+02 -0.22924678147E+02 -0.17369933289E+02  0.40659143026E+02  0.00000000000E+00 0.  1.
         11    1    4    4    0    0 -0.12451733080E+02  0.91230100526E+00 -0.38969142841E+01  0.13079139537E+02  0.51100000000E-03 0.  1.
        -11    1    4    4    0    0  0.18208581080E+01  0.46605535583E+01  0.77541016871E+00  0.50633531292E+01  0.51100000000E-03 0. -1.
         12    1    4    4    0    0 -0.18107782982E+02  0.17351823583E+02  0.20491437405E+02  0.32386364308E+02  0.00000000000E+00 0. -1.
</event>
<event>
 8    1  0.5829710E-012  0.9118800E+02  0.7816164E-02  0.1184000E+00
        -11   -1    0    0    0    0  0.00000000000E+00  0.00000000000E+00  0.45593999997E+02  0.45594000000E+02  0.51100000000E-03 0.  1.
         11   -1    0    0    0    0 -0.00000000000E+00 -0.00000000000E+00 -0.45593999997E+02  0.45594000000E+02  0.51100000000E-03 0. -1.
         23    2    1    2    0    0  0.35527136788E-14  0.00000000000E+00 -0.53290705182E-14  0.91188000000E+02  0.91188000000E+02 0.  0.
    9900012    2    3    3    0    0  0.30729643467E+02  0.21649970379E+02 -0.15496242789E+02  0.50528859015E+02  0.29999997463E+02 0.  0.
         12    1    3    3    0    0 -0.30729643467E+02 -0.21649970379E+02  0.15496242789E+02  0.40659140985E+02  0.00000000000E+00 0. -1.
         11    1    4    4    0    0  0.45212233216E+01  0.42377962825E+01 -0.68236332868E+01  0.92175023271E+01  0.51100000000E-03 0. -1.
        -11    1    4    4    0    0  0.22105405667E+02  0.19832264588E+02 -0.15095898940E+02  0.33314468981E+02  0.51100000000E-03 0.  1.
         12    1    4    4    0    0  0.41030144781E+01 -0.24200904911E+01  0.64232894386E+01  0.79968877074E+01  0.00000000000E+00 0. -1.
</event>
<event>
 8    1  0.5829710E-012  0.9118800E+02  0.7816164E-02  0.1184000E+00
        -11   -1    0    0    0    0  0.00000000000E+00  0.00000000000E+00  0.45593999997E+02  0.45594000000E+02  0.51100000000E-03 0. -1.
         11   -1    0    0    0    0 -0.00000000000E+00 -0.00000000000E+00 -0.45593999997E+02  0.45594000000E+02  0.51100000000E-03 0.  1.
         23    2    1    2    0    0 -0.41633363423E-15  0.00000000000E+00  0.00000000000E+00  0.91188000000E+02  0.91188000000E+02 0.  0.
    9900012    2    3    3    0    0  0.99767621900E-01  0.13655946693E+02  0.38297148650E+02  0.50528850619E+02  0.29999971942E+02 0.  0.
        -12    1    3    3    0    0 -0.99767621900E-01 -0.13655946693E+02 -0.38297148650E+02  0.40659149381E+02  0.00000000000E+00 0.  1.
         11    1    4    4    0    0 -0.64788951638E+01  0.76501708102E+01  0.13660866868E+02  0.16944629822E+02  0.51100000000E-03 0. -1.
        -11    1    4    4    0    0 -0.41873374557E+01  0.75375786530E+01  0.25921186192E+01  0.90037751036E+01  0.51100000000E-03 0.  1.
        -12    1    4    4    0    0  0.10766000241E+02 -0.15318027699E+01  0.22044163163E+02  0.24580445693E+02  0.00000000000E+00 0.  1.
</event>
<event>
 8    1  0.7564047E-012  0.9118800E+02  0.7816164E-02  0.1184000E+00
        -11   -1    0    0    0    0  0.00000000000E+00  0.00000000000E+00  0.45593999997E+02  0.45594000000E+02  0.51100000000E-03 0. -1.
         11   -1    0    0    0    0 -0.00000000000E+00 -0.00000000000E+00 -0.45593999997E+02  0.45594000000E+02  0.51100000000E-03 0.  1.
         23    2    1    2    0    0  0.00000000000E+00  0.71054273576E-14  0.35527136788E-14  0.91188000000E+02  0.91188000000E+02 0.  0.
    9900012    2    3    3    0    0 -0.38358118276E+01 -0.29095897115E+02 -0.28140386431E+02  0.50528855520E+02  0.29999986840E+02 0.  0.
         12    1    3    3    0    0  0.38358118276E+01  0.29095897115E+02  0.28140386431E+02  0.40659144480E+02  0.00000000000E+00 0. -1.
         11    1    4    4    0    0 -0.33121077322E+01 -0.16684962599E+02 -0.71933421143E+01  0.18468952477E+02  0.51100000000E-03 0. -1.
        -11    1    4    4    0    0 -0.25579603231E+01 -0.18065070886E+02 -0.16257806513E+02  0.24437803093E+02  0.51100000000E-03 0.  1.
         12    1    4    4    0    0  0.20342562277E+01  0.56541363692E+01 -0.46892378040E+01  0.76220999511E+01  0.00000000000E+00 0. -1.
</event>
<event>
 8    1  0.5829710E-012  0.9118800E+02  0.7816164E-02  0.1184000E+00
        -11   -1    0    0    0    0  0.00000000000E+00  0.00000000000E+00  0.45593999997E+02  0.45594000000E+02  0.51100000000E-03 0. -1.
         11   -1    0    0    0    0 -0.00000000000E+00 -0.00000000000E+00 -0.45593999997E+02  0.45594000000E+02  0.51100000000E-03 0.  1.
         23    2    1    2    0    0 -0.17763568394E-14  0.00000000000E+00 -0.71054273576E-14  0.91188000000E+02  0.91188000000E+02 0.  0.
    9900012    2    3    3    0    0  0.14088989081E+02 -0.17432707787E+02  0.33922949557E+02  0.50528863010E+02  0.30000009605E+02 0.  0.
        -12    1    3    3    0    0 -0.14088989081E+02  0.17432707787E+02 -0.33922949557E+02  0.40659136990E+02  0.00000000000E+00 0.  1.
         11    1    4    4    0    0  0.22084651944E+01 -0.27433050205E+01  0.46291390093E+01  0.58165255247E+01  0.51100000000E-03 0. -1.
        -11    1    4    4    0    0 -0.48797200059E+01 -0.50724635205E+01 -0.25315791126E+01  0.74800031128E+01  0.51100000000E-03 0.  1.
        -12    1    4    4    0    0  0.16760243892E+02 -0.96169392464E+01  0.31825389660E+02  0.37232334373E+02  0.00000000000E+00 0.  1.
</event>
<event>
 8    1  0.5829710E-012  0.9118800E+02  0.7816164E-02  0.1184000E+00
        -11   -1    0    0    0    0  0.00000000000E+00  0.00000000000E+00  0.45593999997E+02  0.45594000000E+02  0.51100000000E-03 0. -1.
         11   -1    0    0    0    0 -0.00000000000E+00 -0.00000000000E+00 -0.45593999997E+02  0.45594000000E+02  0.51100000000E-03 0.  1.
         23    2    1    2    0    0  0.17763568394E-14  0.00000000000E+00  0.00000000000E+00  0.91188000000E+02  0.91188000000E+02 0.  0.
    9900012    2    3    3    0    0 -0.11435602485E+02 -0.26079591662E+02  0.29021494818E+02  0.50528864902E+02  0.30000015356E+02 0.  0.
        -12    1    3    3    0    0  0.11435602485E+02  0.26079591662E+02 -0.29021494818E+02  0.40659135098E+02  0.00000000000E+00 0.  1.
         11    1    4    4    0    0 -0.59245550395E+00 -0.56296457278E+01  0.18341435285E+02  0.19195107791E+02  0.51100000000E-03 0. -1.
        -11    1    4    4    0    0  0.41090714576E+01 -0.97172434941E-01  0.23824241849E+01  0.47507742510E+01  0.51100000000E-03 0.  1.
        -12    1    4    4    0    0 -0.14952218439E+02 -0.20352773499E+02  0.82976353486E+01  0.26582982860E+02  0.00000000000E+00 0.  1.
</event>
<event>
 8    1  0.5829710E-012  0.9118800E+02  0.7816164E-02  0.1184000E+00
        -11   -1    0    0    0    0  0.00000000000E+00  0.00000000000E+00  0.45593999997E+02  0.45594000000E+02  0.51100000000E-03 0. -1.
         11   -1    0    0    0    0 -0.00000000000E+00 -0.00000000000E+00 -0.45593999997E+02  0.45594000000E+02  0.51100000000E-03 0.  1.
         23    2    1    2    0    0  0.00000000000E+00  0.35527136788E-14 -0.71054273576E-14  0.91188000000E+02  0.91188000000E+02 0.  0.
    9900012    2    3    3    0    0  0.87489549854E+01 -0.20988686936E+02  0.33706033836E+02  0.50528856999E+02  0.29999991334E+02 0.  0.
        -12    1    3    3    0    0 -0.87489549854E+01  0.20988686936E+02 -0.33706033836E+02  0.40659143001E+02  0.00000000000E+00 0.  1.
         11    1    4    4    0    0  0.67552542126E+01 -0.41324247592E+01  0.26067342521E+02  0.27243655045E+02  0.51100000000E-03 0. -1.
        -11    1    4    4    0    0 -0.55171424637E+00  0.15440282626E+01 -0.18120416412E+01  0.24437485664E+01  0.51100000000E-03 0.  1.
        -12    1    4    4    0    0  0.25454150191E+01 -0.18400290440E+02  0.94507329559E+01  0.20841453387E+02  0.00000000000E+00 0.  1.
</event>
<event>
 8    1  0.5829710E-012  0.9118800E+02  0.7816164E-02  0.1184000E+00
        -11   -1    0    0    0    0  0.00000000000E+00  0.00000000000E+00  0.45593999997E+02  0.45594000000E+02  0.51100000000E-03 0. -1.
         11   -1    0    0    0    0 -0.00000000000E+00 -0.00000000000E+00 -0.45593999997E+02  0.45594000000E+02  0.51100000000E-03 0.  1.
         23    2    1    2    0    0  0.00000000000E+00  0.00000000000E+00 -0.35527136788E-14  0.91188000000E+02  0.91188000000E+02 0.  0.
    9900012    2    3    3    0    0  0.25229664139E+02 -0.21928022924E+02 -0.23147223612E+02  0.50528830027E+02  0.29999909350E+02 0.  0.
         12    1    3    3    0    0 -0.25229664139E+02  0.21928022924E+02  0.23147223612E+02  0.40659169973E+02  0.00000000000E+00 0. -1.
         11    1    4    4    0    0 -0.21530690710E+01 -0.57121811088E+01 -0.93725044322E+01  0.11185193742E+02  0.51100000000E-03 0. -1.
        -11    1    4    4    0    0  0.16306321173E+02 -0.79803325081E+01 -0.17322044758E+02  0.25092529804E+02  0.51100000000E-03 0.  1.
        -12    1    4    4    0    0  0.11076412037E+02 -0.82355093073E+01  0.35473255779E+01  0.14251106481E+02  0.00000000000E+00 0.  1.
</event>
<event>
 8    1  0.5829710E-012  0.9118800E+02  0.7816164E-02  0.1184000E+00
        -11   -1    0    0    0    0  0.00000000000E+00  0.00000000000E+00  0.45593999997E+02  0.45594000000E+02  0.51100000000E-03 0. -1.
         11   -1    0    0    0    0 -0.00000000000E+00 -0.00000000000E+00 -0.45593999997E+02  0.45594000000E+02  0.51100000000E-03 0.  1.
         23    2    1    2    0    0 -0.71054273576E-14  0.00000000000E+00  0.00000000000E+00  0.91188000000E+02  0.91188000000E+02 0.  0.
    9900012    2    3    3    0    0 -0.34767255856E+02  0.20399471211E+02 -0.53165265754E+01  0.50528856376E+02  0.29999989440E+02 0.  0.
         12    1    3    3    0    0  0.34767255856E+02 -0.20399471211E+02  0.53165265754E+01  0.40659143624E+02  0.00000000000E+00 0. -1.
         11    1    4    4    0    0 -0.25238265741E+02  0.25430447126E+01 -0.11516242350E+02  0.27857870919E+02  0.51100000000E-03 0.  1.
        -11    1    4    4    0    0 -0.88868853998E+01  0.83602001514E+01  0.24719533135E+01  0.12449105676E+02  0.51100000000E-03 0. -1.
        -12    1    4    4    0    0 -0.64210471523E+00  0.94962263466E+01  0.37277624610E+01  0.10221879781E+02  0.00000000000E+00 0.  1.
</event>
<event>
 8    1  0.5829710E-012  0.9118800E+02  0.7816164E-02  0.1184000E+00
        -11   -1    0    0    0    0  0.00000000000E+00  0.00000000000E+00  0.45593999997E+02  0.45594000000E+02  0.51100000000E-03 0. -1.
         11   -1    0    0    0    0 -0.00000000000E+00 -0.00000000000E+00 -0.45593999997E+02  0.45594000000E+02  0.51100000000E-03 0.  1.
         23    2    1    2    0    0 -0.35527136788E-14  0.00000000000E+00  0.00000000000E+00  0.91188000000E+02  0.91188000000E+02 0.  0.
    9900012    2    3    3    0    0  0.24741631451E+02  0.20142271059E+02 -0.25205287482E+02  0.50528856781E+02  0.29999990671E+02 0.  0.
         12    1    3    3    0    0 -0.24741631451E+02 -0.20142271059E+02  0.25205287482E+02  0.40659143219E+02  0.00000000000E+00 0. -1.
         11    1    4    4    0    0  0.69280804709E+01  0.53811005599E+01 -0.34959508041E+00  0.87793370609E+01  0.51100000000E-03 0. -1.
        -11    1    4    4    0    0  0.19970775186E+02  0.19184522497E+02 -0.17045442231E+02  0.32518069839E+02  0.51100000000E-03 0.  1.
        -12    1    4    4    0    0 -0.21572242064E+01 -0.44233519971E+01 -0.78102501709E+01  0.92314498806E+01  0.00000000000E+00 0.  1.
</event>
<event>
 8    1  0.5829710E-012  0.9118800E+02  0.7816164E-02  0.1184000E+00
        -11   -1    0    0    0    0  0.00000000000E+00  0.00000000000E+00  0.45593999997E+02  0.45594000000E+02  0.51100000000E-03 0. -1.
         11   -1    0    0    0    0 -0.00000000000E+00 -0.00000000000E+00 -0.45593999997E+02  0.45594000000E+02  0.51100000000E-03 0.  1.
         23    2    1    2    0    0 -0.88817841970E-15 -0.35527136788E-14  0.00000000000E+00  0.91188000000E+02  0.91188000000E+02 0.  0.
    9900012    2    3    3    0    0 -0.21625428747E+01 -0.16183021403E+02  0.37237062712E+02  0.50528860648E+02  0.30000002426E+02 0.  0.
        -12    1    3    3    0    0  0.21625428747E+01  0.16183021403E+02 -0.37237062712E+02  0.40659139352E+02  0.00000000000E+00 0.  1.
         11    1    4    4    0    0  0.11679195165E+01 -0.76887582506E+00 -0.50483413615E+00  0.14866283320E+01  0.51100000000E-03 0. -1.
        -11    1    4    4    0    0 -0.10514285108E+02 -0.11255942488E+02  0.65028808955E+01  0.16719267114E+02  0.51100000000E-03 0.  1.
         12    1    4    4    0    0  0.71838227172E+01 -0.41582030908E+01  0.31239015953E+02  0.32322965202E+02  0.00000000000E+00 0. -1.
</event>
<event>
 8    1  0.5829710E-012  0.9118800E+02  0.7816164E-02  0.1184000E+00
        -11   -1    0    0    0    0  0.00000000000E+00  0.00000000000E+00  0.45593999997E+02  0.45594000000E+02  0.51100000000E-03 0. -1.
         11   -1    0    0    0    0 -0.00000000000E+00 -0.00000000000E+00 -0.45593999997E+02  0.45594000000E+02  0.51100000000E-03 0.  1.
         23    2    1    2    0    0  0.00000000000E+00 -0.18873791419E-14  0.00000000000E+00  0.91188000000E+02  0.91188000000E+02 0.  0.
    9900012    2    3    3    0    0 -0.20911551820E+02 -0.64490231780E+00 -0.34863409965E+02  0.50528852777E+02  0.29999978502E+02 0.  0.
         12    1    3    3    0    0  0.20911551820E+02  0.64490231780E+00  0.34863409965E+02  0.40659147223E+02  0.00000000000E+00 0. -1.
         11    1    4    4    0    0 -0.93664545310E+01  0.53486754340E+01 -0.16356668169E+02  0.19592840356E+02  0.51100000000E-03 0. -1.
        -11    1    4    4    0    0 -0.66289107945E+01  0.73283936837E+01 -0.11301769344E+02  0.15012588147E+02  0.51100000000E-03 0.  1.
         12    1    4    4    0    0 -0.49161864945E+01 -0.13321971436E+02 -0.72049724512E+01  0.15923424274E+02  0.00000000000E+00 0. -1.
</event>
<event>
 8    1  0.5829710E-012  0.9118800E+02  0.7816164E-02  0.1184000E+00
        -11   -1    0    0    0    0  0.00000000000E+00  0.00000000000E+00  0.45593999997E+02  0.45594000000E+02  0.51100000000E-03 0. -1.
         11   -1    0    0    0    0 -0.00000000000E+00 -0.00000000000E+00 -0.45593999997E+02  0.45594000000E+02  0.51100000000E-03 0.  1.
         23    2    1    2    0    0 -0.35527136788E-14  0.17763568394E-14  0.00000000000E+00  0.91188000000E+02  0.91188000000E+02 0.  0.
    9900012    2    3    3    0    0  0.18257772440E+02 -0.15162636384E+02 -0.33013822653E+02  0.50528877005E+02  0.30000052144E+02 0.  0.
         12    1    3    3    0    0 -0.18257772440E+02  0.15162636384E+02  0.33013822653E+02  0.40659122995E+02  0.00000000000E+00 0. -1.
         11    1    4    4    0    0 -0.24394897680E+01 -0.10375634706E+01  0.71184834670E+00  0.27448818943E+01  0.51100000000E-03 0. -1.
        -11    1    4    4    0    0  0.24594101047E+02 -0.72004055182E+01 -0.22988954718E+02  0.34426845415E+02  0.51100000000E-03 0.  1.
         12    1    4    4    0    0 -0.38968388394E+01 -0.69246673947E+01 -0.10736716282E+02  0.13357149695E+02  0.00000000000E+00 0. -1.
</event>
<event>
 8    1  0.8467416E-012  0.9118800E+02  0.7816164E-02  0.1184000E+00
        -11   -1    0    0    0    0  0.00000000000E+00  0.00000000000E+00  0.45593999997E+02  0.45594000000E+02  0.51100000000E-03 0. -1.
         11   -1    0    0    0    0 -0.00000000000E+00 -0.00000000000E+00 -0.45593999997E+02  0.45594000000E+02  0.51100000000E-03 0.  1.
         23    2    1    2    0    0  0.00000000000E+00 -0.88817841970E-15  0.00000000000E+00  0.91188000000E+02  0.91188000000E+02 0.  0.
    9900012    2    3    3    0    0  0.28761111856E+02  0.70535290914E+01 -0.27860578292E+02  0.50528860183E+02  0.30000001013E+02 0.  0.
         12    1    3    3    0    0 -0.28761111856E+02 -0.70535290914E+01  0.27860578292E+02  0.40659139817E+02  0.00000000000E+00 0. -1.
         11    1    4    4    0    0  0.40587637189E+01 -0.28945487437E+01  0.10802403738E+01  0.51008719727E+01  0.51100000000E-03 0. -1.
        -11    1    4    4    0    0 -0.46226719963E+00 -0.48620896380E+01 -0.84373956158E+01  0.97490128552E+01  0.51100000000E-03 0.  1.
        -12    1    4    4    0    0  0.25164615337E+02  0.14810167473E+02 -0.20503423050E+02  0.35678975356E+02  0.00000000000E+00 0.  1.
</event>
<event>
 8    1  0.5829710E-012  0.9118800E+02  0.7816164E-02  0.1184000E+00
        -11   -1    0    0    0    0  0.00000000000E+00  0.00000000000E+00  0.45593999997E+02  0.45594000000E+02  0.51100000000E-03 0. -1.
         11   -1    0    0    0    0 -0.00000000000E+00 -0.00000000000E+00 -0.45593999997E+02  0.45594000000E+02  0.51100000000E-03 0.  1.
         23    2    1    2    0    0  0.00000000000E+00  0.00000000000E+00  0.00000000000E+00  0.91188000000E+02  0.91188000000E+02 0.  0.
    9900012    2    3    3    0    0 -0.21022630941E+02 -0.22152710492E+02  0.26841598048E+02  0.50528868435E+02  0.30000026096E+02 0.  0.
        -12    1    3    3    0    0  0.21022630941E+02  0.22152710492E+02 -0.26841598048E+02  0.40659131565E+02  0.00000000000E+00 0.  1.
         11    1    4    4    0    0 -0.37602021680E+01 -0.71400939974E+01  0.40289202609E+01  0.90195488449E+01  0.51100000000E-03 0. -1.
        -11    1    4    4    0    0 -0.57661234922E+01 -0.45470228127E+01 -0.55233768988E+01  0.91886500213E+01  0.51100000000E-03 0.  1.
        -12    1    4    4    0    0 -0.11496305281E+02 -0.10465593682E+02  0.28336054686E+02  0.32320669569E+02  0.00000000000E+00 0.  1.
</event>
<event>
 8    1  0.5829710E-012  0.9118800E+02  0.7816164E-02  0.1184000E+00
        -11   -1    0    0    0    0  0.00000000000E+00  0.00000000000E+00  0.45593999997E+02  0.45594000000E+02  0.51100000000E-03 0. -1.
         11   -1    0    0    0    0 -0.00000000000E+00 -0.00000000000E+00 -0.45593999997E+02  0.45594000000E+02  0.51100000000E-03 0.  1.
         23    2    1    2    0    0  0.00000000000E+00 -0.17763568394E-14  0.00000000000E+00  0.91188000000E+02  0.91188000000E+02 0.  0.
    9900012    2    3    3    0    0 -0.18216048120E+02 -0.12254526358E+02  0.34222321369E+02  0.50528866890E+02  0.30000021399E+02 0.  0.
        -12    1    3    3    0    0  0.18216048120E+02  0.12254526358E+02 -0.34222321369E+02  0.40659133110E+02  0.00000000000E+00 0.  1.
         11    1    4    4    0    0 -0.79005387776E+01 -0.68034782588E+01  0.72422832391E+01  0.12694742856E+02  0.51100000000E-03 0. -1.
        -11    1    4    4    0    0 -0.16486439587E+02 -0.95699681048E+01  0.20353576035E+02  0.27886466924E+02  0.51100000000E-03 0.  1.
        -12    1    4    4    0    0  0.61709302453E+01  0.41189200053E+01  0.66264620948E+01  0.99476571109E+01  0.00000000000E+00 0.  1.
</event>
<event>
 8    1  0.5829710E-012  0.9118800E+02  0.7816164E-02  0.1184000E+00
        -11   -1    0    0    0    0  0.00000000000E+00  0.00000000000E+00  0.45593999997E+02  0.45594000000E+02  0.51100000000E-03 0. -1.
         11   -1    0    0    0    0 -0.00000000000E+00 -0.00000000000E+00 -0.45593999997E+02  0.45594000000E+02  0.51100000000E-03 0.  1.
         23    2    1    2    0    0  0.00000000000E+00 -0.17763568394E-14  0.35527136788E-14  0.91188000000E+02  0.91188000000E+02 0.  0.
    9900012    2    3    3    0    0  0.21748822176E+02  0.14461998722E+02 -0.31160949937E+02  0.50528862355E+02  0.30000007614E+02 0.  0.
         12    1    3    3    0    0 -0.21748822176E+02 -0.14461998722E+02  0.31160949937E+02  0.40659137645E+02  0.00000000000E+00 0. -1.
         11    1    4    4    0    0  0.79694328412E+01 -0.11823042588E+01 -0.78599518058E+01  0.11255600642E+02  0.51100000000E-03 0. -1.
        -11    1    4    4    0    0  0.11389225475E+02  0.33153517525E+01 -0.23919836180E+02  0.26699523915E+02  0.51100000000E-03 0.  1.
        -12    1    4    4    0    0  0.23901638597E+01  0.12328951228E+02  0.61883804904E+00  0.12573737797E+02  0.00000000000E+00 0.  1.
</event>
<event>
 8    1  0.5829710E-012  0.9118800E+02  0.7816164E-02  0.1184000E+00
        -11   -1    0    0    0    0  0.00000000000E+00  0.00000000000E+00  0.45593999997E+02  0.45594000000E+02  0.51100000000E-03 0. -1.
         11   -1    0    0    0    0 -0.00000000000E+00 -0.00000000000E+00 -0.45593999997E+02  0.45594000000E+02  0.51100000000E-03 0.  1.
         23    2    1    2    0    0  0.00000000000E+00  0.35527136788E-14  0.00000000000E+00  0.91188000000E+02  0.91188000000E+02 0.  0.
    9900012    2    3    3    0    0  0.20800113508E+02  0.18631038916E+02 -0.29553437380E+02  0.50528855961E+02  0.29999988178E+02 0.  0.
         12    1    3    3    0    0 -0.20800113508E+02 -0.18631038916E+02  0.29553437380E+02  0.40659144039E+02  0.00000000000E+00 0. -1.
         11    1    4    4    0    0 -0.44708929345E+01  0.49827713321E+01 -0.20648618285E+00  0.66977257771E+01  0.51100000000E-03 0. -1.
        -11    1    4    4    0    0  0.94529829015E+01 -0.26347435564E+01 -0.78509911440E+01  0.12567371306E+02  0.51100000000E-03 0.  1.
        -12    1    4    4    0    0  0.15818023541E+02  0.16283011140E+02 -0.21495960053E+02  0.31263758877E+02  0.00000000000E+00 0.  1.
</event>
<event>
 8    1  0.5829710E-012  0.9118800E+02  0.7816164E-02  0.1184000E+00
        -11   -1    0    0    0    0  0.00000000000E+00  0.00000000000E+00  0.45593999997E+02  0.45594000000E+02  0.51100000000E-03 0. -1.
         11   -1    0    0    0    0 -0.00000000000E+00 -0.00000000000E+00 -0.45593999997E+02  0.45594000000E+02  0.51100000000E-03 0.  1.
         23    2    1    2    0    0 -0.88817841970E-15  0.44408920985E-15  0.00000000000E+00  0.91188000000E+02  0.91188000000E+02 0.  0.
    9900012    2    3    3    0    0  0.75998339667E+01  0.32755008355E+01  0.39808023229E+02  0.50528867011E+02  0.30000021767E+02 0.  0.
        -12    1    3    3    0    0 -0.75998339667E+01 -0.32755008355E+01 -0.39808023229E+02  0.40659132989E+02  0.00000000000E+00 0.  1.
         11    1    4    4    0    0 -0.48052825822E+01  0.93540820078E+01  0.26375801601E+02  0.28394937952E+02  0.51100000000E-03 0. -1.
        -11    1    4    4    0    0  0.21845176073E+01  0.29529111939E+01  0.45921957448E+01  0.58804815887E+01  0.51100000000E-03 0.  1.
        -12    1    4    4    0    0  0.10220598942E+02 -0.90314923662E+01  0.88400258826E+01  0.16253447471E+02  0.00000000000E+00 0.  1.
</event>
<event>
 8    1  0.5829710E-012  0.9118800E+02  0.7816164E-02  0.1184000E+00
        -11   -1    0    0    0    0  0.00000000000E+00  0.00000000000E+00  0.45593999997E+02  0.45594000000E+02  0.51100000000E-03 0. -1.
         11   -1    0    0    0    0 -0.00000000000E+00 -0.00000000000E+00 -0.45593999997E+02  0.45594000000E+02  0.51100000000E-03 0.  1.
         23    2    1    2    0    0 -0.35527136788E-14  0.00000000000E+00 -0.35527136788E-14  0.91188000000E+02  0.91188000000E+02 0.  0.
    9900012    2    3    3    0    0 -0.26955724616E+02 -0.18949721531E+02 -0.23821481868E+02  0.50528855468E+02  0.29999986682E+02 0.  0.
         12    1    3    3    0    0  0.26955724616E+02  0.18949721531E+02  0.23821481868E+02  0.40659144532E+02  0.00000000000E+00 0. -1.
         11    1    4    4    0    0 -0.54674452869E+01 -0.27527966536E+01  0.10017665972E+01  0.62027722800E+01  0.51100000000E-03 0.  1.
        -11    1    4    4    0    0  0.23177878836E+01 -0.11316552322E+02 -0.12703963077E+02  0.17170532177E+02  0.51100000000E-03 0. -1.
         12    1    4    4    0    0 -0.23806067213E+02 -0.48803725561E+01 -0.12119285388E+02  0.27155551011E+02  0.00000000000E+00 0. -1.
</event>
<event>
 8    1  0.5829710E-012  0.9118800E+02  0.7816164E-02  0.1184000E+00
        -11   -1    0    0    0    0  0.00000000000E+00  0.00000000000E+00  0.45593999997E+02  0.45594000000E+02  0.51100000000E-03 0. -1.
         11   -1    0    0    0    0 -0.00000000000E+00 -0.00000000000E+00 -0.45593999997E+02  0.45594000000E+02  0.51100000000E-03 0.  1.
         23    2    1    2    0    0  0.00000000000E+00  0.88817841970E-15  0.00000000000E+00  0.91188000000E+02  0.91188000000E+02 0.  0.
    9900012    2    3    3    0    0  0.38895299416E+02 -0.34529086794E+01  0.11331343125E+02  0.50528853034E+02  0.29999979283E+02 0.  0.
        -12    1    3    3    0    0 -0.38895299416E+02  0.34529086794E+01 -0.11331343125E+02  0.40659146966E+02  0.00000000000E+00 0.  1.
         11    1    4    4    0    0  0.88551332666E+01 -0.49632499658E+01  0.84649631659E+00  0.10186451378E+02  0.51100000000E-03 0. -1.
        -11    1    4    4    0    0  0.19538696694E+02 -0.11016978690E+02  0.41510462402E+01  0.22811525006E+02  0.51100000000E-03 0.  1.
        -12    1    4    4    0    0  0.10501469455E+02  0.12527319976E+02  0.63338005679E+01  0.17530876650E+02  0.00000000000E+00 0.  1.
</event>
<event>
 8    1  0.5829710E-012  0.9118800E+02  0.7816164E-02  0.1184000E+00
        -11   -1    0    0    0    0  0.00000000000E+00  0.00000000000E+00  0.45593999997E+02  0.45594000000E+02  0.51100000000E-03 0. -1.
         11   -1    0    0    0    0 -0.00000000000E+00 -0.00000000000E+00 -0.45593999997E+02  0.45594000000E+02  0.51100000000E-03 0.  1.
         23    2    1    2    0    0  0.00000000000E+00  0.00000000000E+00  0.00000000000E+00  0.91188000000E+02  0.91188000000E+02 0.  0.
    9900012    2    3    3    0    0  0.14478246454E+02  0.23226359778E+02  0.30067947783E+02  0.50528869503E+02  0.30000029342E+02 0.  0.
        -12    1    3    3    0    0 -0.14478246454E+02 -0.23226359778E+02 -0.30067947783E+02  0.40659130497E+02  0.00000000000E+00 0.  1.
         11    1    4    4    0    0  0.75215833404E+01  0.71677923629E+01  0.54059757072E+01  0.11712217421E+02  0.51100000000E-03 0. -1.
        -11    1    4    4    0    0  0.82580110086E+01 -0.17605407652E+01  0.17756863609E+02  0.19662157946E+02  0.51100000000E-03 0.  1.
         12    1    4    4    0    0 -0.13013478955E+01  0.17819108180E+02  0.69051084662E+01  0.19154494136E+02  0.00000000000E+00 0. -1.
</event>
<event>
 8    1  0.5829710E-012  0.9118800E+02  0.7816164E-02  0.1184000E+00
        -11   -1    0    0    0    0  0.00000000000E+00  0.00000000000E+00  0.45593999997E+02  0.45594000000E+02  0.51100000000E-03 0. -1.
         11   -1    0    0    0    0 -0.00000000000E+00 -0.00000000000E+00 -0.45593999997E+02  0.45594000000E+02  0.51100000000E-03 0.  1.
         23    2    1    2    0    0  0.00000000000E+00  0.00000000000E+00  0.17763568394E-14  0.91188000000E+02  0.91188000000E+02 0.  0.
    9900012    2    3    3    0    0 -0.34404476068E+02  0.17648142981E+02 -0.12571559907E+02  0.50528818470E+02  0.29999874220E+02 0.  0.
         12    1    3    3    0    0  0.34404476068E+02 -0.17648142981E+02  0.12571559907E+02  0.40659181530E+02  0.00000000000E+00 0. -1.
         11    1    4    4    0    0 -0.98760717815E+01  0.13385073820E+01  0.55549042764E+01  0.11409879825E+02  0.51100000000E-03 0. -1.
        -11    1    4    4    0    0 -0.15319768386E+02  0.47280374893E+00 -0.36132285384E+01  0.15747198720E+02  0.51100000000E-03 0.  1.
        -12    1    4    4    0    0 -0.92086359002E+01  0.15836831850E+02 -0.14513235645E+02  0.23371739925E+02  0.00000000000E+00 0.  1.
</event>
<event>
 8    1  0.6730364E-012  0.9118800E+02  0.7816164E-02  0.1184000E+00
        -11   -1    0    0    0    0  0.00000000000E+00  0.00000000000E+00  0.45593999997E+02  0.45594000000E+02  0.51100000000E-03 0. -1.
         11   -1    0    0    0    0 -0.00000000000E+00 -0.00000000000E+00 -0.45593999997E+02  0.45594000000E+02  0.51100000000E-03 0.  1.
         23    2    1    2    0    0  0.44408920985E-15  0.35527136788E-14  0.35527136788E-14  0.91188000000E+02  0.91188000000E+02 0.  0.
    9900012    2    3    3    0    0 -0.14633270805E+01 -0.28673392616E+02 -0.28789909753E+02  0.50528884493E+02  0.30000074905E+02 0.  0.
         12    1    3    3    0    0  0.14633270805E+01  0.28673392616E+02  0.28789909753E+02  0.40659115507E+02  0.00000000000E+00 0. -1.
         11    1    4    4    0    0  0.19182464743E+01 -0.26701228280E+01  0.24409397759E+01  0.40948031337E+01  0.51100000000E-03 0. -1.
        -11    1    4    4    0    0 -0.36065819980E+01 -0.14068120439E+02 -0.17499969355E+01  0.14628121409E+02  0.51100000000E-03 0.  1.
        -12    1    4    4    0    0  0.22500844315E+00 -0.11935149348E+02 -0.29480852593E+02  0.31805959951E+02  0.00000000000E+00 0.  1.
</event>
<event>
 8    1  0.5829710E-012  0.9118800E+02  0.7816164E-02  0.1184000E+00
        -11   -1    0    0    0    0  0.00000000000E+00  0.00000000000E+00  0.45593999997E+02  0.45594000000E+02  0.51100000000E-03 0. -1.
         11   -1    0    0    0    0 -0.00000000000E+00 -0.00000000000E+00 -0.45593999997E+02  0.45594000000E+02  0.51100000000E-03 0.  1.
         23    2    1    2    0    0 -0.71054273576E-14 -0.26645352591E-14  0.00000000000E+00  0.91188000000E+02  0.91188000000E+02 0.  0.
    9900012    2    3    3    0    0 -0.33632138107E+02  0.25010102098E+00  0.22846924858E+02  0.50528865237E+02  0.30000016375E+02 0.  0.
        -12    1    3    3    0    0  0.33632138107E+02 -0.25010102098E+00 -0.22846924858E+02  0.40659134763E+02  0.00000000000E+00 0.  1.
         11    1    4    4    0    0 -0.13762398407E+02 -0.81802846854E+01  0.13288159801E+02  0.20806149538E+02  0.51100000000E-03 0. -1.
        -11    1    4    4    0    0 -0.10785811885E+02 -0.41293526069E+01  0.81970963920E+01  0.14162544987E+02  0.51100000000E-03 0.  1.
        -12    1    4    4    0    0 -0.90839278152E+01  0.12559738313E+02  0.13616686649E+01  0.15560170712E+02  0.00000000000E+00 0.  1.
</event>
<event>
 8    1  0.5829710E-012  0.9118800E+02  0.7816164E-02  0.1184000E+00
        -11   -1    0    0    0    0  0.00000000000E+00  0.00000000000E+00  0.45593999997E+02  0.45594000000E+02  0.51100000000E-03 0. -1.
         11   -1    0    0    0    0 -0.00000000000E+00 -0.00000000000E+00 -0.45593999997E+02  0.45594000000E+02  0.51100000000E-03 0.  1.
         23    2    1    2    0    0 -0.17763568394E-14 -0.44408920985E-15  0.00000000000E+00  0.91188000000E+02  0.91188000000E+02 0.  0.
    9900012    2    3    3    0    0 -0.77196036725E+01 -0.34434128084E+01 -0.39770800915E+02  0.50528856157E+02  0.29999988775E+02 0.  0.
         12    1    3    3    0    0  0.77196036725E+01  0.34434128084E+01  0.39770800915E+02  0.40659143843E+02  0.00000000000E+00 0. -1.
         11    1    4    4    0    0 -0.31105809102E+01 -0.25792532219E+01 -0.32723790732E+01  0.51996851676E+01  0.51100000000E-03 0. -1.
        -11    1    4    4    0    0 -0.11332726611E+02 -0.31795667686E+01 -0.45829605066E+01  0.12631067435E+02  0.51100000000E-03 0.  1.
         12    1    4    4    0    0  0.67237038486E+01  0.23154071822E+01 -0.31915461335E+02  0.32698103555E+02  0.00000000000E+00 0. -1.
</event>
<event>
 8    1  0.5829710E-012  0.9118800E+02  0.7816164E-02  0.1184000E+00
        -11   -1    0    0    0    0  0.00000000000E+00  0.00000000000E+00  0.45593999997E+02  0.45594000000E+02  0.51100000000E-03 0.  1.
         11   -1    0    0    0    0 -0.00000000000E+00 -0.00000000000E+00 -0.45593999997E+02  0.45594000000E+02  0.51100000000E-03 0. -1.
         23    2    1    2    0    0  0.00000000000E+00  0.00000000000E+00  0.00000000000E+00  0.91188000000E+02  0.91188000000E+02 0.  0.
    9900012    2    3    3    0    0  0.19004637785E+02  0.32739292725E+02 -0.14836799697E+02  0.50528829193E+02  0.29999906814E+02 0.  0.
         12    1    3    3    0    0 -0.19004637785E+02 -0.32739292725E+02  0.14836799697E+02  0.40659170807E+02  0.00000000000E+00 0. -1.
         11    1    4    4    0    0  0.83180189657E+01  0.99905302897E+01  0.17862701274E+01  0.13122152880E+02  0.51100000000E-03 0. -1.
        -11    1    4    4    0    0 -0.68189890318E+00  0.25777998688E+01  0.50379215463E+01  0.57000607054E+01  0.51100000000E-03 0.  1.
         12    1    4    4    0    0  0.11368517722E+02  0.20170962567E+02 -0.21660991371E+02  0.31706615607E+02  0.00000000000E+00 0. -1.
</event>
<event>
 8    1  0.5829710E-012  0.9118800E+02  0.7816164E-02  0.1184000E+00
        -11   -1    0    0    0    0  0.00000000000E+00  0.00000000000E+00  0.45593999997E+02  0.45594000000E+02  0.51100000000E-03 0. -1.
         11   -1    0    0    0    0 -0.00000000000E+00 -0.00000000000E+00 -0.45593999997E+02  0.45594000000E+02  0.51100000000E-03 0.  1.
         23    2    1    2    0    0  0.00000000000E+00  0.00000000000E+00  0.00000000000E+00  0.91188000000E+02  0.91188000000E+02 0.  0.
    9900012    2    3    3    0    0 -0.24298917933E+02  0.25681960611E+02 -0.20078963554E+02  0.50528864607E+02  0.30000014460E+02 0.  0.
         12    1    3    3    0    0  0.24298917933E+02 -0.25681960611E+02  0.20078963554E+02  0.40659135393E+02  0.00000000000E+00 0. -1.
         11    1    4    4    0    0  0.21731898356E+01  0.73209096390E+01 -0.10286807819E+01  0.77056249854E+01  0.51100000000E-03 0. -1.
        -11    1    4    4    0    0 -0.15705122305E+00  0.10394337845E+02 -0.23623556453E+01  0.10660565125E+02  0.51100000000E-03 0.  1.
         12    1    4    4    0    0 -0.26315056545E+02  0.79667131268E+01 -0.16687927127E+02  0.32162674497E+02  0.00000000000E+00 0. -1.
</event>
<event>
 8    1  0.5829710E-012  0.9118800E+02  0.7816164E-02  0.1184000E+00
        -11   -1    0    0    0    0  0.00000000000E+00  0.00000000000E+00  0.45593999997E+02  0.45594000000E+02  0.51100000000E-03 0. -1.
         11   -1    0    0    0    0 -0.00000000000E+00 -0.00000000000E+00 -0.45593999997E+02  0.45594000000E+02  0.51100000000E-03 0.  1.
         23    2    1    2    0    0  0.35527136788E-14  0.00000000000E+00  0.00000000000E+00  0.91188000000E+02  0.91188000000E+02 0.  0.
    9900012    2    3    3    0    0 -0.16868714822E+02  0.36653937176E+01  0.36812722873E+02  0.50528865526E+02  0.30000017251E+02 0.  0.
        -12    1    3    3    0    0  0.16868714822E+02 -0.36653937176E+01 -0.36812722873E+02  0.40659134474E+02  0.00000000000E+00 0.  1.
         11    1    4    4    0    0 -0.69999911566E+01  0.14757265122E+01  0.29811403100E+02  0.30657746166E+02  0.51100000000E-03 0. -1.
        -11    1    4    4    0    0 -0.52171792512E+01 -0.32072215968E+00  0.11690087036E+02  0.12805465912E+02  0.51100000000E-03 0.  1.
        -12    1    4    4    0    0 -0.46515444142E+01  0.25103893650E+01 -0.46887672626E+01  0.70656534478E+01  0.00000000000E+00 0.  1.
</event>
<event>
 8    1  0.5829710E-012  0.9118800E+02  0.7816164E-02  0.1184000E+00
        -11   -1    0    0    0    0  0.00000000000E+00  0.00000000000E+00  0.45593999997E+02  0.45594000000E+02  0.51100000000E-03 0. -1.
         11   -1    0    0    0    0 -0.00000000000E+00 -0.00000000000E+00 -0.45593999997E+02  0.45594000000E+02  0.51100000000E-03 0.  1.
         23    2    1    2    0    0  0.00000000000E+00  0.00000000000E+00  0.00000000000E+00  0.91188000000E+02  0.91188000000E+02 0.  0.
    9900012    2    3    3    0    0  0.12257037243E+02 -0.35117620768E+02  0.16422061041E+02  0.50528851715E+02  0.29999975274E+02 0.  0.
        -12    1    3    3    0    0 -0.12257037243E+02  0.35117620768E+02 -0.16422061041E+02  0.40659148285E+02  0.00000000000E+00 0.  1.
         11    1    4    4    0    0  0.90159068324E+01 -0.11388319788E+02 -0.49213246279E+00  0.14533499173E+02  0.51100000000E-03 0. -1.
        -11    1    4    4    0    0  0.11668257630E+02 -0.16772559804E+02  0.81899467462E+01  0.22012319879E+02  0.51100000000E-03 0.  1.
        -12    1    4    4    0    0 -0.84271272194E+01 -0.69567411768E+01  0.87242467574E+01  0.13983032663E+02  0.00000000000E+00 0.  1.
</event>
<event>
 8    1  0.5829710E-012  0.9118800E+02  0.7816164E-02  0.1184000E+00
        -11   -1    0    0    0    0  0.00000000000E+00  0.00000000000E+00  0.45593999997E+02  0.45594000000E+02  0.51100000000E-03 0. -1.
         11   -1    0    0    0    0 -0.00000000000E+00 -0.00000000000E+00 -0.45593999997E+02  0.45594000000E+02  0.51100000000E-03 0.  1.
         23    2    1    2    0    0 -0.35527136788E-14  0.00000000000E+00 -0.35527136788E-14  0.91188000000E+02  0.91188000000E+02 0.  0.
    9900012    2    3    3    0    0 -0.23783253136E+02  0.97207482510E+01 -0.31512376302E+02  0.50528856668E+02  0.29999990328E+02 0.  0.
         12    1    3    3    0    0  0.23783253136E+02 -0.97207482510E+01  0.31512376302E+02  0.40659143332E+02  0.00000000000E+00 0. -1.
         11    1    4    4    0    0 -0.43901508850E+01 -0.16999780305E+01 -0.75426600231E+01  0.88912918400E+01  0.51100000000E-03 0. -1.
        -11    1    4    4    0    0 -0.64902694361E+01  0.11650686330E+02 -0.25365095342E+02  0.28657462401E+02  0.51100000000E-03 0.  1.
         12    1    4    4    0    0 -0.12902832815E+02 -0.22996004823E+00  0.13953790636E+01  0.12980102427E+02  0.00000000000E+00 0. -1.
</event>
<event>
 8    1  0.5829710E-012  0.9118800E+02  0.7816164E-02  0.1184000E+00
        -11   -1    0    0    0    0  0.00000000000E+00  0.00000000000E+00  0.45593999997E+02  0.45594000000E+02  0.51100000000E-03 0. -1.
         11   -1    0    0    0    0 -0.00000000000E+00 -0.00000000000E+00 -0.45593999997E+02  0.45594000000E+02  0.51100000000E-03 0.  1.
         23    2    1    2    0    0  0.00000000000E+00  0.17763568394E-14  0.00000000000E+00  0.91188000000E+02  0.91188000000E+02 0.  0.
    9900012    2    3    3    0    0  0.14931560831E+01 -0.85730056458E+01 -0.39716972972E+02  0.50528881921E+02  0.30000067087E+02 0.  0.
         12    1    3    3    0    0 -0.14931560831E+01  0.85730056458E+01  0.39716972972E+02  0.40659118079E+02  0.00000000000E+00 0. -1.
         11    1    4    4    0    0 -0.45717836492E+01  0.92145838867E+00 -0.15613353576E+02  0.16295002346E+02  0.51100000000E-03 0. -1.
        -11    1    4    4    0    0 -0.76706994161E+01 -0.35226463293E+00 -0.93574799102E+01  0.12104798653E+02  0.51100000000E-03 0.  1.
         12    1    4    4    0    0  0.13735639148E+02 -0.91421994016E+01 -0.14746139486E+02  0.22129080922E+02  0.00000000000E+00 0. -1.
</event>
<event>
 8    1  0.5829710E-012  0.9118800E+02  0.7816164E-02  0.1184000E+00
        -11   -1    0    0    0    0  0.00000000000E+00  0.00000000000E+00  0.45593999997E+02  0.45594000000E+02  0.51100000000E-03 0. -1.
         11   -1    0    0    0    0 -0.00000000000E+00 -0.00000000000E+00 -0.45593999997E+02  0.45594000000E+02  0.51100000000E-03 0.  1.
         23    2    1    2    0    0  0.00000000000E+00 -0.17763568394E-14  0.00000000000E+00  0.91188000000E+02  0.91188000000E+02 0.  0.
    9900012    2    3    3    0    0  0.20546539625E+02  0.75740112599E+01  0.34258422765E+02  0.50528862436E+02  0.30000007860E+02 0.  0.
        -12    1    3    3    0    0 -0.20546539625E+02 -0.75740112599E+01 -0.34258422765E+02  0.40659137564E+02  0.00000000000E+00 0.  1.
         11    1    4    4    0    0  0.12627232673E+01  0.69235692101E+01  0.17819276460E+02  0.19158728937E+02  0.51100000000E-03 0. -1.
        -11    1    4    4    0    0  0.99668474173E+01  0.58389683264E+00  0.19210076532E+02  0.21649619479E+02  0.51100000000E-03 0.  1.
        -12    1    4    4    0    0  0.93169689399E+01  0.66545217110E-01 -0.27709302271E+01  0.97205140202E+01  0.00000000000E+00 0.  1.
</event>
<event>
 8    1  0.5829710E-012  0.9118800E+02  0.7816164E-02  0.1184000E+00
        -11   -1    0    0    0    0  0.00000000000E+00  0.00000000000E+00  0.45593999997E+02  0.45594000000E+02  0.51100000000E-03 0. -1.
         11   -1    0    0    0    0 -0.00000000000E+00 -0.00000000000E+00 -0.45593999997E+02  0.45594000000E+02  0.51100000000E-03 0.  1.
         23    2    1    2    0    0  0.35527136788E-14  0.00000000000E+00 -0.35527136788E-14  0.91188000000E+02  0.91188000000E+02 0.  0.
    9900012    2    3    3    0    0 -0.27299110637E+02  0.22929606478E+01  0.30044407383E+02  0.50528861726E+02  0.30000005704E+02 0.  0.
        -12    1    3    3    0    0  0.27299110637E+02 -0.22929606478E+01 -0.30044407383E+02  0.40659138274E+02  0.00000000000E+00 0.  1.
         11    1    4    4    0    0 -0.69016245514E+00 -0.35256438997E+01  0.62412129702E+01  0.72013352041E+01  0.51100000000E-03 0. -1.
        -11    1    4    4    0    0 -0.14082916580E+02 -0.89986921913E+01  0.95096780307E+01  0.19228597896E+02  0.51100000000E-03 0.  1.
         12    1    4    4    0    0 -0.12526031603E+02  0.14817296739E+02  0.14293516382E+02  0.24098928626E+02  0.00000000000E+00 0. -1.
</event>
<event>
 8    1  0.5829710E-012  0.9118800E+02  0.7816164E-02  0.1184000E+00
        -11   -1    0    0    0    0  0.00000000000E+00  0.00000000000E+00  0.45593999997E+02  0.45594000000E+02  0.51100000000E-03 0. -1.
         11   -1    0    0    0    0 -0.00000000000E+00 -0.00000000000E+00 -0.45593999997E+02  0.45594000000E+02  0.51100000000E-03 0.  1.
         23    2    1    2    0    0 -0.88817841970E-15  0.00000000000E+00  0.00000000000E+00  0.91188000000E+02  0.91188000000E+02 0.  0.
    9900012    2    3    3    0    0  0.52455179718E+01  0.32004837318E+02 -0.24522241482E+02  0.50528863292E+02  0.30000010462E+02 0.  0.
         12    1    3    3    0    0 -0.52455179718E+01 -0.32004837318E+02  0.24522241482E+02  0.40659136708E+02  0.00000000000E+00 0. -1.
         11    1    4    4    0    0 -0.53813390110E+01  0.11454461617E+02 -0.43027060025E+01  0.13367003393E+02  0.51100000000E-03 0. -1.
        -11    1    4    4    0    0 -0.13559976500E+01  0.10621547621E+02  0.11030871656E+01  0.10764423117E+02  0.51100000000E-03 0.  1.
        -12    1    4    4    0    0  0.11982854633E+02  0.99288280796E+01 -0.21322622645E+02  0.26397436782E+02  0.00000000000E+00 0.  1.
</event>
<event>
 8    1  0.5829710E-012  0.9118800E+02  0.7816164E-02  0.1184000E+00
        -11   -1    0    0    0    0  0.00000000000E+00  0.00000000000E+00  0.45593999997E+02  0.45594000000E+02  0.51100000000E-03 0.  1.
         11   -1    0    0    0    0 -0.00000000000E+00 -0.00000000000E+00 -0.45593999997E+02  0.45594000000E+02  0.51100000000E-03 0. -1.
         23    2    1    2    0    0  0.00000000000E+00  0.35527136788E-14  0.17763568394E-14  0.91188000000E+02  0.91188000000E+02 0.  0.
    9900012    2    3    3    0    0 -0.29622013450E+02 -0.26149734588E+02  0.95860888742E+01  0.50528863269E+02  0.30000010391E+02 0.  0.
         12    1    3    3    0    0  0.29622013450E+02  0.26149734588E+02 -0.95860888742E+01  0.40659136731E+02  0.00000000000E+00 0. -1.
         11    1    4    4    0    0 -0.14851532023E+01 -0.10707170538E+02 -0.75940209240E-01  0.10809946722E+02  0.51100000000E-03 0. -1.
        -11    1    4    4    0    0 -0.90392694264E+01 -0.11384343235E+02 -0.49241789175E+01  0.15347938002E+02  0.51100000000E-03 0.  1.
        -12    1    4    4    0    0 -0.19097590821E+02 -0.40582208157E+01  0.14586208001E+02  0.24370978544E+02  0.00000000000E+00 0.  1.
</event>
<event>
 8    1  0.5829710E-012  0.9118800E+02  0.7816164E-02  0.1184000E+00
        -11   -1    0    0    0    0  0.00000000000E+00  0.00000000000E+00  0.45593999997E+02  0.45594000000E+02  0.51100000000E-03 0. -1.
         11   -1    0    0    0    0 -0.00000000000E+00 -0.00000000000E+00 -0.45593999997E+02  0.45594000000E+02  0.51100000000E-03 0.  1.
         23    2    1    2    0    0  0.00000000000E+00  0.00000000000E+00 -0.17763568394E-14  0.91188000000E+02  0.91188000000E+02 0.  0.
    9900012    2    3    3    0    0  0.37794194641E+02  0.45911632246E+01  0.14271849814E+02  0.50528860493E+02  0.30000001955E+02 0.  0.
        -12    1    3    3    0    0 -0.37794194641E+02 -0.45911632246E+01 -0.14271849814E+02  0.40659139507E+02  0.00000000000E+00 0.  1.
         11    1    4    4    0    0  0.18472706369E+02  0.12950423392E+01  0.18925292467E+02  0.26478004277E+02  0.51100000000E-03 0. -1.
        -11    1    4    4    0    0  0.73848807095E+01  0.70218597272E+01  0.11690817020E+01  0.10257179408E+02  0.51100000000E-03 0.  1.
         12    1    4    4    0    0  0.11936607562E+02 -0.37257388418E+01 -0.58225243549E+01  0.13793676808E+02  0.00000000000E+00 0. -1.
</event>
<event>
 8    1  0.5829710E-012  0.9118800E+02  0.7816164E-02  0.1184000E+00
        -11   -1    0    0    0    0  0.00000000000E+00  0.00000000000E+00  0.45593999997E+02  0.45594000000E+02  0.51100000000E-03 0.  1.
         11   -1    0    0    0    0 -0.00000000000E+00 -0.00000000000E+00 -0.45593999997E+02  0.45594000000E+02  0.51100000000E-03 0. -1.
         23    2    1    2    0    0  0.00000000000E+00  0.00000000000E+00 -0.71054273576E-14  0.91188000000E+02  0.91188000000E+02 0.  0.
    9900012    2    3    3    0    0 -0.22948747843E+02 -0.50282715091E+01  0.33184741474E+02  0.50528983674E+02  0.30000376372E+02 0.  0.
        -12    1    3    3    0    0  0.22948747843E+02  0.50282715091E+01 -0.33184741474E+02  0.40659016326E+02  0.00000000000E+00 0.  1.
         11    1    4    4    0    0  0.26242996046E+00 -0.10658921204E+02  0.14120030010E+02  0.17693408899E+02  0.51100000000E-03 0. -1.
        -11    1    4    4    0    0 -0.37381304360E+01  0.58681894572E+01  0.29456316028E+01  0.75555286025E+01  0.51100000000E-03 0.  1.
        -12    1    4    4    0    0 -0.19473047368E+02 -0.23753976269E+00  0.16119079861E+02  0.25280046172E+02  0.00000000000E+00 0.  1.
</event>
<event>
 8    1  0.5829710E-012  0.9118800E+02  0.7816164E-02  0.1184000E+00
        -11   -1    0    0    0    0  0.00000000000E+00  0.00000000000E+00  0.45593999997E+02  0.45594000000E+02  0.51100000000E-03 0. -1.
         11   -1    0    0    0    0 -0.00000000000E+00 -0.00000000000E+00 -0.45593999997E+02  0.45594000000E+02  0.51100000000E-03 0.  1.
         23    2    1    2    0    0  0.00000000000E+00  0.00000000000E+00 -0.88817841970E-15  0.91188000000E+02  0.91188000000E+02 0.  0.
    9900012    2    3    3    0    0  0.33852012200E+02 -0.21941964722E+02 -0.50751611139E+01  0.50528858271E+02  0.29999995200E+02 0.  0.
         12    1    3    3    0    0 -0.33852012200E+02  0.21941964722E+02  0.50751611139E+01  0.40659141729E+02  0.00000000000E+00 0. -1.
         11    1    4    4    0    0  0.18491055804E+02 -0.17262536005E+02 -0.39210464938E+01  0.25598611289E+02  0.51100000000E-03 0. -1.
        -11    1    4    4    0    0  0.11040612963E+02 -0.11949248970E+02 -0.21687792309E+01  0.16412900084E+02  0.51100000000E-03 0.  1.
         12    1    4    4    0    0  0.43203434329E+01  0.72698202536E+01  0.10146646107E+01  0.85173468974E+01  0.00000000000E+00 0. -1.
</event>
<event>
 8    1  0.5829710E-012  0.9118800E+02  0.7816164E-02  0.1184000E+00
        -11   -1    0    0    0    0  0.00000000000E+00  0.00000000000E+00  0.45593999997E+02  0.45594000000E+02  0.51100000000E-03 0. -1.
         11   -1    0    0    0    0 -0.00000000000E+00 -0.00000000000E+00 -0.45593999997E+02  0.45594000000E+02  0.51100000000E-03 0.  1.
         23    2    1    2    0    0  0.00000000000E+00  0.22204460493E-15  0.00000000000E+00  0.91188000000E+02  0.91188000000E+02 0.  0.
    9900012    2    3    3    0    0 -0.42005773332E+01  0.13213182248E+01 -0.40420014620E+02  0.50528827435E+02  0.29999901471E+02 0.  0.
         12    1    3    3    0    0  0.42005773332E+01 -0.13213182248E+01  0.40420014620E+02  0.40659172565E+02  0.00000000000E+00 0. -1.
         11    1    4    4    0    0 -0.69535612713E+01 -0.55111911695E+01 -0.21470353826E+01  0.91288007786E+01  0.51100000000E-03 0. -1.
        -11    1    4    4    0    0  0.12873911417E+01  0.97388064385E+01 -0.15196825789E+02  0.18095448077E+02  0.51100000000E-03 0.  1.
        -12    1    4    4    0    0  0.14655927965E+01 -0.29062970442E+01 -0.23076153449E+02  0.23304578579E+02  0.00000000000E+00 0.  1.
</event>
<event>
 8    1  0.5829710E-012  0.9118800E+02  0.7816164E-02  0.1184000E+00
        -11   -1    0    0    0    0  0.00000000000E+00  0.00000000000E+00  0.45593999997E+02  0.45594000000E+02  0.51100000000E-03 0. -1.
         11   -1    0    0    0    0 -0.00000000000E+00 -0.00000000000E+00 -0.45593999997E+02  0.45594000000E+02  0.51100000000E-03 0.  1.
         23    2    1    2    0    0  0.00000000000E+00  0.17763568394E-14  0.00000000000E+00  0.91188000000E+02  0.91188000000E+02 0.  0.
    9900012    2    3    3    0    0 -0.23373346716E+02 -0.80787676074E+01  0.32273596072E+02  0.50528870322E+02  0.30000031831E+02 0.  0.
        -12    1    3    3    0    0  0.23373346716E+02  0.80787676074E+01 -0.32273596072E+02  0.40659129678E+02  0.00000000000E+00 0.  1.
         11    1    4    4    0    0 -0.18061607789E+02 -0.68238109171E+01  0.83107675284E+01  0.21020345585E+02  0.51100000000E-03 0. -1.
        -11    1    4    4    0    0 -0.16279730426E+01 -0.59166907243E+01  0.15607783319E+01  0.63319471426E+01  0.51100000000E-03 0.  1.
         12    1    4    4    0    0 -0.36837658844E+01  0.46617340340E+01  0.22402050212E+02  0.23176577594E+02  0.00000000000E+00 0. -1.
</event>
<event>
 8    1  0.5829710E-012  0.9118800E+02  0.7816164E-02  0.1184000E+00
        -11   -1    0    0    0    0  0.00000000000E+00  0.00000000000E+00  0.45593999997E+02  0.45594000000E+02  0.51100000000E-03 0. -1.
         11   -1    0    0    0    0 -0.00000000000E+00 -0.00000000000E+00 -0.45593999997E+02  0.45594000000E+02  0.51100000000E-03 0.  1.
         23    2    1    2    0    0  0.00000000000E+00  0.00000000000E+00  0.00000000000E+00  0.91188000000E+02  0.91188000000E+02 0.  0.
    9900012    2    3    3    0    0  0.10084588042E+02  0.26770143295E+02 -0.28893311940E+02  0.50528893236E+02  0.30000101479E+02 0.  0.
         12    1    3    3    0    0 -0.10084588042E+02 -0.26770143295E+02  0.28893311940E+02  0.40659106764E+02  0.00000000000E+00 0. -1.
         11    1    4    4    0    0  0.20976264015E+01  0.15274733000E+01 -0.99621092714E+00  0.27795049335E+01  0.51100000000E-03 0. -1.
        -11    1    4    4    0    0  0.18107377954E+02  0.14405279139E+02 -0.12206500309E+02  0.26160807585E+02  0.51100000000E-03 0.  1.
        -12    1    4    4    0    0 -0.10120416314E+02  0.10837390855E+02 -0.15690600704E+02  0.21588580717E+02  0.00000000000E+00 0.  1.
</event>
<event>
 8    1  0.6327630E-012  0.9118800E+02  0.7816164E-02  0.1184000E+00
        -11   -1    0    0    0    0  0.00000000000E+00  0.00000000000E+00  0.45593999997E+02  0.45594000000E+02  0.51100000000E-03 0. -1.
         11   -1    0    0    0    0 -0.00000000000E+00 -0.00000000000E+00 -0.45593999997E+02  0.45594000000E+02  0.51100000000E-03 0.  1.
         23    2    1    2    0    0  0.00000000000E+00 -0.71054273576E-14  0.71054273576E-14  0.91188000000E+02  0.91188000000E+02 0.  0.
    9900012    2    3    3    0    0 -0.89455876683E+01  0.29269844885E+02 -0.26765992957E+02  0.50528859117E+02  0.29999997773E+02 0.  0.
         12    1    3    3    0    0  0.89455876683E+01 -0.29269844885E+02  0.26765992957E+02  0.40659140883E+02  0.00000000000E+00 0. -1.
         11    1    4    4    0    0 -0.74383238138E+01  0.52499378599E+01  0.26202524937E+00  0.91081922567E+01  0.51100000000E-03 0. -1.
        -11    1    4    4    0    0 -0.59561135639E+01  0.11761697145E+02 -0.24945221170E+02  0.28214834183E+02  0.51100000000E-03 0.  1.
         12    1    4    4    0    0  0.44488497094E+01  0.12258209880E+02 -0.20827970372E+01  0.13205832677E+02  0.00000000000E+00 0. -1.
</event>
<event>
 8    1  0.5829710E-012  0.9118800E+02  0.7816164E-02  0.1184000E+00
        -11   -1    0    0    0    0  0.00000000000E+00  0.00000000000E+00  0.45593999997E+02  0.45594000000E+02  0.51100000000E-03 0. -1.
         11   -1    0    0    0    0 -0.00000000000E+00 -0.00000000000E+00 -0.45593999997E+02  0.45594000000E+02  0.51100000000E-03 0.  1.
         23    2    1    2    0    0 -0.17763568394E-14  0.35527136788E-14  0.00000000000E+00  0.91188000000E+02  0.91188000000E+02 0.  0.
    9900012    2    3    3    0    0 -0.11083789656E+02  0.19704817572E+02 -0.33794025237E+02  0.50528851332E+02  0.29999974109E+02 0.  0.
         12    1    3    3    0    0  0.11083789656E+02 -0.19704817572E+02  0.33794025237E+02  0.40659148668E+02  0.00000000000E+00 0. -1.
         11    1    4    4    0    0 -0.31042163954E+01 -0.12435438746E+01  0.24563473908E+01  0.41492413238E+01  0.51100000000E-03 0. -1.
        -11    1    4    4    0    0 -0.35843474605E+01  0.24212645829E+01  0.10933320499E+01  0.44615517625E+01  0.51100000000E-03 0.  1.
        -12    1    4    4    0    0 -0.43952258000E+01  0.18527096864E+02 -0.37343704678E+02  0.41918058246E+02  0.00000000000E+00 0.  1.
</event>
<event>
 8    1  0.5829710E-012  0.9118800E+02  0.7816164E-02  0.1184000E+00
        -11   -1    0    0    0    0  0.00000000000E+00  0.00000000000E+00  0.45593999997E+02  0.45594000000E+02  0.51100000000E-03 0. -1.
         11   -1    0    0    0    0 -0.00000000000E+00 -0.00000000000E+00 -0.45593999997E+02  0.45594000000E+02  0.51100000000E-03 0.  1.
         23    2    1    2    0    0 -0.71054273576E-14  0.00000000000E+00 -0.35527136788E-14  0.91188000000E+02  0.91188000000E+02 0.  0.
    9900012    2    3    3    0    0 -0.30059544256E+02 -0.11683936180E+02 -0.24760361282E+02  0.50528855194E+02  0.29999985847E+02 0.  0.
         12    1    3    3    0    0  0.30059544256E+02  0.11683936180E+02  0.24760361282E+02  0.40659144806E+02  0.00000000000E+00 0. -1.
         11    1    4    4    0    0 -0.10257504922E+02 -0.10018452157E+02 -0.42903927149E+01  0.14966404403E+02  0.51100000000E-03 0. -1.
        -11    1    4    4    0    0  0.26017944557E+00 -0.64252698329E+01 -0.11288267646E+02  0.12991411489E+02  0.51100000000E-03 0.  1.
         12    1    4    4    0    0 -0.20062218780E+02  0.47597858107E+01 -0.91817009212E+01  0.22571039302E+02  0.00000000000E+00 0. -1.
</event>
<event>
 8    1  0.5829710E-012  0.9118800E+02  0.7816164E-02  0.1184000E+00
        -11   -1    0    0    0    0  0.00000000000E+00  0.00000000000E+00  0.45593999997E+02  0.45594000000E+02  0.51100000000E-03 0. -1.
         11   -1    0    0    0    0 -0.00000000000E+00 -0.00000000000E+00 -0.45593999997E+02  0.45594000000E+02  0.51100000000E-03 0.  1.
         23    2    1    2    0    0  0.00000000000E+00  0.00000000000E+00  0.00000000000E+00  0.91188000000E+02  0.91188000000E+02 0.  0.
    9900012    2    3    3    0    0 -0.33558532624E+02 -0.11897104952E+02  0.19632892046E+02  0.50528847670E+02  0.29999962977E+02 0.  0.
        -12    1    3    3    0    0  0.33558532624E+02  0.11897104952E+02 -0.19632892046E+02  0.40659152330E+02  0.00000000000E+00 0.  1.
         11    1    4    4    0    0 -0.33501108729E+01 -0.17658892136E+01  0.55693590416E+01  0.67349363746E+01  0.51100000000E-03 0. -1.
        -11    1    4    4    0    0 -0.17779339540E+02 -0.22881605075E-01  0.19953003116E+02  0.26725040162E+02  0.51100000000E-03 0.  1.
        -12    1    4    4    0    0 -0.12429082211E+02 -0.10108334134E+02 -0.58894701117E+01  0.17068871133E+02  0.00000000000E+00 0.  1.
</event>
<event>
 8    1  0.5829710E-012  0.9118800E+02  0.7816164E-02  0.1184000E+00
        -11   -1    0    0    0    0  0.00000000000E+00  0.00000000000E+00  0.45593999997E+02  0.45594000000E+02  0.51100000000E-03 0.  1.
         11   -1    0    0    0    0 -0.00000000000E+00 -0.00000000000E+00 -0.45593999997E+02  0.45594000000E+02  0.51100000000E-03 0. -1.
         23    2    1    2    0    0  0.00000000000E+00  0.00000000000E+00  0.00000000000E+00  0.91188000000E+02  0.91188000000E+02 0.  0.
    9900012    2    3    3    0    0 -0.45657392350E+01 -0.26515514279E+02 -0.30483542815E+02  0.50528869970E+02  0.30000030762E+02 0.  0.
         12    1    3    3    0    0  0.45657392350E+01  0.26515514279E+02  0.30483542815E+02  0.40659130030E+02  0.00000000000E+00 0. -1.
         11    1    4    4    0    0  0.77356278284E+01 -0.12848507128E+01 -0.83416343224E+01  0.11448739786E+02  0.51100000000E-03 0. -1.
        -11    1    4    4    0    0  0.35871378423E+01 -0.63571569489E+01 -0.71135095813E+01  0.10192302056E+02  0.51100000000E-03 0.  1.
        -12    1    4    4    0    0 -0.15888504906E+02 -0.18873506617E+02 -0.15028398911E+02  0.28887828129E+02  0.00000000000E+00 0.  1.
</event>
<event>
 8    1  0.5829710E-012  0.9118800E+02  0.7816164E-02  0.1184000E+00
        -11   -1    0    0    0    0  0.00000000000E+00  0.00000000000E+00  0.45593999997E+02  0.45594000000E+02  0.51100000000E-03 0. -1.
         11   -1    0    0    0    0 -0.00000000000E+00 -0.00000000000E+00 -0.45593999997E+02  0.45594000000E+02  0.51100000000E-03 0.  1.
         23    2    1    2    0    0  0.88817841970E-15  0.00000000000E+00 -0.71054273576E-14  0.91188000000E+02  0.91188000000E+02 0.  0.
    9900012    2    3    3    0    0 -0.21890270073E+01 -0.20738551579E+02  0.34903923645E+02  0.50528889746E+02  0.30000090871E+02 0.  0.
        -12    1    3    3    0    0  0.21890270073E+01  0.20738551579E+02 -0.34903923645E+02  0.40659110254E+02  0.00000000000E+00 0.  1.
         11    1    4    4    0    0  0.49558091532E+00  0.12365994526E+01  0.83614390837E+00  0.15728685725E+01  0.51100000000E-03 0. -1.
        -11    1    4    4    0    0  0.68315386435E+01  0.18214923648E+01  0.10329038585E+01  0.71452533415E+01  0.51100000000E-03 0.  1.
        -12    1    4    4    0    0 -0.95161465661E+01 -0.23796643396E+02  0.33034875878E+02  0.41810767832E+02  0.00000000000E+00 0.  1.
</event>
<event>
 8    1  0.5829710E-012  0.9118800E+02  0.7816164E-02  0.1184000E+00
        -11   -1    0    0    0    0  0.00000000000E+00  0.00000000000E+00  0.45593999997E+02  0.45594000000E+02  0.51100000000E-03 0. -1.
         11   -1    0    0    0    0 -0.00000000000E+00 -0.00000000000E+00 -0.45593999997E+02  0.45594000000E+02  0.51100000000E-03 0.  1.
         23    2    1    2    0    0  0.71054273576E-14 -0.17763568394E-14  0.00000000000E+00  0.91188000000E+02  0.91188000000E+02 0.  0.
    9900012    2    3    3    0    0  0.36920661948E+02 -0.14770060000E+02 -0.84781590049E+01  0.50528817381E+02  0.29999870912E+02 0.  0.
         12    1    3    3    0    0 -0.36920661948E+02  0.14770060000E+02  0.84781590049E+01  0.40659182619E+02  0.00000000000E+00 0. -1.
         11    1    4    4    0    0  0.46103388309E+01 -0.98761149283E+01 -0.88390331625E+01  0.14032867765E+02  0.51100000000E-03 0. -1.
        -11    1    4    4    0    0  0.19536190390E+02 -0.60982237749E+00 -0.74555993087E+01  0.20919382869E+02  0.51100000000E-03 0.  1.
        -12    1    4    4    0    0  0.12774132727E+02 -0.42841226938E+01  0.78164734662E+01  0.15576566747E+02  0.00000000000E+00 0.  1.
</event>
<event>
 8    1  0.5829710E-012  0.9118800E+02  0.7816164E-02  0.1184000E+00
        -11   -1    0    0    0    0  0.00000000000E+00  0.00000000000E+00  0.45593999997E+02  0.45594000000E+02  0.51100000000E-03 0. -1.
         11   -1    0    0    0    0 -0.00000000000E+00 -0.00000000000E+00 -0.45593999997E+02  0.45594000000E+02  0.51100000000E-03 0.  1.
         23    2    1    2    0    0  0.00000000000E+00  0.35527136788E-14 -0.35527136788E-14  0.91188000000E+02  0.91188000000E+02 0.  0.
    9900012    2    3    3    0    0 -0.71634844623E+01 -0.26453742331E+02  0.30034140738E+02  0.50528860771E+02  0.30000002800E+02 0.  0.
        -12    1    3    3    0    0  0.71634844623E+01  0.26453742331E+02 -0.30034140738E+02  0.40659139229E+02  0.00000000000E+00 0.  1.
         11    1    4    4    0    0  0.14148702572E+00  0.56452238345E+00 -0.32461470278E+01  0.32979046207E+01  0.51100000000E-03 0. -1.
        -11    1    4    4    0    0  0.22920587590E+01 -0.46834880255E+01 -0.89626608980E+00  0.52907359228E+01  0.51100000000E-03 0.  1.
         12    1    4    4    0    0 -0.95970302470E+01 -0.22334776689E+02  0.34176553856E+02  0.41940220228E+02  0.00000000000E+00 0. -1.
</event>
<event>
 8    1  0.5829710E-012  0.9118800E+02  0.7816164E-02  0.1184000E+00
        -11   -1    0    0    0    0  0.00000000000E+00  0.00000000000E+00  0.45593999997E+02  0.45594000000E+02  0.51100000000E-03 0. -1.
         11   -1    0    0    0    0 -0.00000000000E+00 -0.00000000000E+00 -0.45593999997E+02  0.45594000000E+02  0.51100000000E-03 0.  1.
         23    2    1    2    0    0  0.00000000000E+00 -0.71054273576E-14  0.17763568394E-14  0.91188000000E+02  0.91188000000E+02 0.  0.
    9900012    2    3    3    0    0  0.61645298936E+01 -0.38056556672E+02  0.12917560147E+02  0.50528852263E+02  0.29999976939E+02 0.  0.
        -12    1    3    3    0    0 -0.61645298936E+01  0.38056556672E+02 -0.12917560147E+02  0.40659147737E+02  0.00000000000E+00 0.  1.
         11    1    4    4    0    0  0.62072480292E+01 -0.12619796015E+02  0.88423468428E+01  0.16612533747E+02  0.51100000000E-03 0. -1.
        -11    1    4    4    0    0  0.26757160665E+01 -0.41567542833E+01  0.10429777618E+02  0.11542024262E+02  0.51100000000E-03 0.  1.
        -12    1    4    4    0    0 -0.27184342021E+01 -0.21280006374E+02 -0.63545643131E+01  0.22374294254E+02  0.00000000000E+00 0.  1.
</event>
<event>
 8    1  0.5829710E-012  0.9118800E+02  0.7816164E-02  0.1184000E+00
        -11   -1    0    0    0    0  0.00000000000E+00  0.00000000000E+00  0.45593999997E+02  0.45594000000E+02  0.51100000000E-03 0.  1.
         11   -1    0    0    0    0 -0.00000000000E+00 -0.00000000000E+00 -0.45593999997E+02  0.45594000000E+02  0.51100000000E-03 0. -1.
         23    2    1    2    0    0  0.00000000000E+00  0.71054273576E-14 -0.17763568394E-14  0.91188000000E+02  0.91188000000E+02 0.  0.
    9900012    2    3    3    0    0 -0.85601906206E+01  0.37605047410E+02  0.12874344887E+02  0.50528865596E+02  0.30000017466E+02 0.  0.
        -12    1    3    3    0    0  0.85601906206E+01 -0.37605047410E+02 -0.12874344887E+02  0.40659134404E+02  0.00000000000E+00 0.  1.
         11    1    4    4    0    0 -0.52337613654E+01  0.18154787037E+02  0.54976117622E+01  0.19677710378E+02  0.51100000000E-03 0. -1.
        -11    1    4    4    0    0 -0.42488159907E+01  0.17713186829E+02  0.14612784501E+02  0.23352577932E+02  0.51100000000E-03 0.  1.
        -12    1    4    4    0    0  0.92238673546E+00  0.17370735449E+01 -0.72360513760E+01  0.74985772855E+01  0.00000000000E+00 0.  1.
</event>
<event>
 8    1  0.5829710E-012  0.9118800E+02  0.7816164E-02  0.1184000E+00
        -11   -1    0    0    0    0  0.00000000000E+00  0.00000000000E+00  0.45593999997E+02  0.45594000000E+02  0.51100000000E-03 0. -1.
         11   -1    0    0    0    0 -0.00000000000E+00 -0.00000000000E+00 -0.45593999997E+02  0.45594000000E+02  0.51100000000E-03 0.  1.
         23    2    1    2    0    0  0.00000000000E+00 -0.17763568394E-14 -0.71054273576E-14  0.91188000000E+02  0.91188000000E+02 0.  0.
    9900012    2    3    3    0    0  0.28144073712E+01 -0.14168733319E+02  0.38006470080E+02  0.50528860060E+02  0.30000000638E+02 0.  0.
        -12    1    3    3    0    0 -0.28144073712E+01  0.14168733319E+02 -0.38006470080E+02  0.40659139940E+02  0.00000000000E+00 0.  1.
         11    1    4    4    0    0  0.86885142607E+01 -0.15645133599E+01  0.27824743899E+02  0.29191682984E+02  0.51100000000E-03 0. -1.
        -11    1    4    4    0    0 -0.25962551688E+01 -0.51315263715E+01  0.11700138918E+02  0.13037114510E+02  0.51100000000E-03 0.  1.
        -12    1    4    4    0    0 -0.32778517207E+01 -0.74726935873E+01 -0.15184127368E+01  0.83000625655E+01  0.00000000000E+00 0.  1.
</event>
<event>
 8    1  0.5829710E-012  0.9118800E+02  0.7816164E-02  0.1184000E+00
        -11   -1    0    0    0    0  0.00000000000E+00  0.00000000000E+00  0.45593999997E+02  0.45594000000E+02  0.51100000000E-03 0. -1.
         11   -1    0    0    0    0 -0.00000000000E+00 -0.00000000000E+00 -0.45593999997E+02  0.45594000000E+02  0.51100000000E-03 0.  1.
         23    2    1    2    0    0  0.00000000000E+00  0.44408920985E-15  0.00000000000E+00  0.91188000000E+02  0.91188000000E+02 0.  0.
    9900012    2    3    3    0    0 -0.46769555802E+01  0.29639277610E+01  0.40280348111E+02  0.50528865414E+02  0.30000016913E+02 0.  0.
        -12    1    3    3    0    0  0.46769555802E+01 -0.29639277610E+01 -0.40280348111E+02  0.40659134586E+02  0.00000000000E+00 0.  1.
         11    1    4    4    0    0 -0.38728946765E+01 -0.75048811660E+01  0.28263821654E+01  0.89056718386E+01  0.51100000000E-03 0. -1.
        -11    1    4    4    0    0 -0.58093208130E+01  0.12541584965E+01  0.59083183443E+01  0.83802952073E+01  0.51100000000E-03 0.  1.
         12    1    4    4    0    0  0.50052599093E+01  0.92146504305E+01  0.31545647602E+02  0.33242898368E+02  0.00000000000E+00 0. -1.
</event>
<event>
 8    1  0.5829710E-012  0.9118800E+02  0.7816164E-02  0.1184000E+00
        -11   -1    0    0    0    0  0.00000000000E+00  0.00000000000E+00  0.45593999997E+02  0.45594000000E+02  0.51100000000E-03 0. -1.
         11   -1    0    0    0    0 -0.00000000000E+00 -0.00000000000E+00 -0.45593999997E+02  0.45594000000E+02  0.51100000000E-03 0.  1.
         23    2    1    2    0    0  0.35527136788E-14 -0.88817841970E-15  0.00000000000E+00  0.91188000000E+02  0.91188000000E+02 0.  0.
    9900012    2    3    3    0    0 -0.27490436106E+02 -0.12768210857E+01 -0.29930106753E+02  0.50528860319E+02  0.30000001424E+02 0.  0.
         12    1    3    3    0    0  0.27490436106E+02  0.12768210857E+01  0.29930106753E+02  0.40659139681E+02  0.00000000000E+00 0. -1.
         11    1    4    4    0    0 -0.63902549824E+01  0.13067907955E+02 -0.76323359998E+01  0.16427359196E+02  0.51100000000E-03 0. -1.
        -11    1    4    4    0    0 -0.10232380422E+02 -0.46601351749E+01 -0.95550778364E+01  0.14755269623E+02  0.51100000000E-03 0.  1.
         12    1    4    4    0    0 -0.10867800702E+02 -0.96845938663E+01 -0.12742692917E+02  0.19346231499E+02  0.00000000000E+00 0. -1.
</event>
<event>
 8    1  0.5829710E-012  0.9118800E+02  0.7816164E-02  0.1184000E+00
        -11   -1    0    0    0    0  0.00000000000E+00  0.00000000000E+00  0.45593999997E+02  0.45594000000E+02  0.51100000000E-03 0. -1.
         11   -1    0    0    0    0 -0.00000000000E+00 -0.00000000000E+00 -0.45593999997E+02  0.45594000000E+02  0.51100000000E-03 0.  1.
         23    2    1    2    0    0 -0.44408920985E-15  0.00000000000E+00  0.00000000000E+00  0.91188000000E+02  0.91188000000E+02 0.  0.
    9900012    2    3    3    0    0  0.10633004037E+01 -0.32503335628E+02  0.24404232090E+02  0.50528880745E+02  0.30000063513E+02 0.  0.
        -12    1    3    3    0    0 -0.10633004037E+01  0.32503335628E+02 -0.24404232090E+02  0.40659119255E+02  0.00000000000E+00 0.  1.
         11    1    4    4    0    0  0.10217702139E+02 -0.12072670544E+02  0.14607828964E+02  0.21529966984E+02  0.51100000000E-03 0. -1.
        -11    1    4    4    0    0 -0.28459758885E+01 -0.10786486881E+02  0.12909428685E+02  0.17061688873E+02  0.51100000000E-03 0.  1.
        -12    1    4    4    0    0 -0.63084258469E+01 -0.96441782031E+01 -0.31130255584E+01  0.11937224887E+02  0.00000000000E+00 0.  1.
</event>
<event>
 8    1  0.5829710E-012  0.9118800E+02  0.7816164E-02  0.1184000E+00
        -11   -1    0    0    0    0  0.00000000000E+00  0.00000000000E+00  0.45593999997E+02  0.45594000000E+02  0.51100000000E-03 0. -1.
         11   -1    0    0    0    0 -0.00000000000E+00 -0.00000000000E+00 -0.45593999997E+02  0.45594000000E+02  0.51100000000E-03 0.  1.
         23    2    1    2    0    0  0.35527136788E-14  0.00000000000E+00  0.00000000000E+00  0.91188000000E+02  0.91188000000E+02 0.  0.
    9900012    2    3    3    0    0  0.26271997047E+02  0.24344068424E+02 -0.19243558670E+02  0.50528855315E+02  0.29999986214E+02 0.  0.
         12    1    3    3    0    0 -0.26271997047E+02 -0.24344068424E+02  0.19243558670E+02  0.40659144685E+02  0.00000000000E+00 0. -1.
         11    1    4    4    0    0 -0.15446863702E+01  0.66343526034E+01 -0.96558890850E+01  0.11816805183E+02  0.51100000000E-03 0. -1.
        -11    1    4    4    0    0  0.47675567081E+01  0.19691267612E+01 -0.94894766728E+01  0.10800797422E+02  0.51100000000E-03 0.  1.
         12    1    4    4    0    0  0.23049126709E+02  0.15740589059E+02 -0.98192912633E-01  0.27911252710E+02  0.00000000000E+00 0. -1.
</event>
<event>
 8    1  0.5829710E-012  0.9118800E+02  0.7816164E-02  0.1184000E+00
        -11   -1    0    0    0    0  0.00000000000E+00  0.00000000000E+00  0.45593999997E+02  0.45594000000E+02  0.51100000000E-03 0. -1.
         11   -1    0    0    0    0 -0.00000000000E+00 -0.00000000000E+00 -0.45593999997E+02  0.45594000000E+02  0.51100000000E-03 0.  1.
         23    2    1    2    0    0  0.00000000000E+00  0.00000000000E+00 -0.35527136788E-14  0.91188000000E+02  0.91188000000E+02 0.  0.
    9900012    2    3    3    0    0  0.21638781204E+02  0.17089978712E+02 -0.29880786948E+02  0.50528860154E+02  0.30000000924E+02 0.  0.
         12    1    3    3    0    0 -0.21638781204E+02 -0.17089978712E+02  0.29880786948E+02  0.40659139846E+02  0.00000000000E+00 0. -1.
         11    1    4    4    0    0  0.61230584873E+00  0.62137171768E+01 -0.38698164517E+01  0.73457933020E+01  0.51100000000E-03 0. -1.
        -11    1    4    4    0    0  0.97982497733E+01  0.76367538951E+01  0.22284889310E+01  0.12621088378E+02  0.51100000000E-03 0.  1.
         12    1    4    4    0    0  0.11228225582E+02  0.32395076404E+01 -0.28239459428E+02  0.30561978474E+02  0.00000000000E+00 0. -1.
</event>
<event>
 8    1  0.5829710E-012  0.9118800E+02  0.7816164E-02  0.1184000E+00
        -11   -1    0    0    0    0  0.00000000000E+00  0.00000000000E+00  0.45593999997E+02  0.45594000000E+02  0.51100000000E-03 0. -1.
         11   -1    0    0    0    0 -0.00000000000E+00 -0.00000000000E+00 -0.45593999997E+02  0.45594000000E+02  0.51100000000E-03 0.  1.
         23    2    1    2    0    0  0.00000000000E+00 -0.17763568394E-14  0.71054273576E-14  0.91188000000E+02  0.91188000000E+02 0.  0.
    9900012    2    3    3    0    0 -0.20437366031E+02 -0.60323847844E+01  0.34627893553E+02  0.50528848405E+02  0.29999965213E+02 0.  0.
        -12    1    3    3    0    0  0.20437366031E+02  0.60323847844E+01 -0.34627893553E+02  0.40659151595E+02  0.00000000000E+00 0.  1.
         11    1    4    4    0    0 -0.24965685030E+02 -0.41481342360E+01  0.22705465114E+02  0.34000449894E+02  0.51100000000E-03 0. -1.
        -11    1    4    4    0    0 -0.23913421756E+01  0.60649368045E+00  0.76169288904E+01  0.80064947366E+01  0.51100000000E-03 0.  1.
        -12    1    4    4    0    0  0.69196611749E+01 -0.24907442289E+01  0.43054995485E+01  0.85219037751E+01  0.00000000000E+00 0.  1.
</event>
<event>
 8    1  0.5829710E-012  0.9118800E+02  0.7816164E-02  0.1184000E+00
        -11   -1    0    0    0    0  0.00000000000E+00  0.00000000000E+00  0.45593999997E+02  0.45594000000E+02  0.51100000000E-03 0. -1.
         11   -1    0    0    0    0 -0.00000000000E+00 -0.00000000000E+00 -0.45593999997E+02  0.45594000000E+02  0.51100000000E-03 0.  1.
         23    2    1    2    0    0  0.00000000000E+00 -0.17763568394E-14  0.00000000000E+00  0.91188000000E+02  0.91188000000E+02 0.  0.
    9900012    2    3    3    0    0  0.37084228267E+02 -0.10181210136E+02  0.13201094056E+02  0.50528856991E+02  0.29999991309E+02 0.  0.
        -12    1    3    3    0    0 -0.37084228267E+02  0.10181210136E+02 -0.13201094056E+02  0.40659143009E+02  0.00000000000E+00 0.  1.
         11    1    4    4    0    0  0.15981834624E+02 -0.11486269425E+02 -0.33641495174E+01  0.19966745491E+02  0.51100000000E-03 0. -1.
        -11    1    4    4    0    0  0.20996627615E+01 -0.50129766122E+01  0.19648625150E+01  0.57792043734E+01  0.51100000000E-03 0.  1.
         12    1    4    4    0    0  0.19002730882E+02  0.63180359013E+01  0.14600381058E+02  0.24782907127E+02  0.00000000000E+00 0. -1.
</event>
<event>
 8    1  0.5829710E-012  0.9118800E+02  0.7816164E-02  0.1184000E+00
        -11   -1    0    0    0    0  0.00000000000E+00  0.00000000000E+00  0.45593999997E+02  0.45594000000E+02  0.51100000000E-03 0. -1.
         11   -1    0    0    0    0 -0.00000000000E+00 -0.00000000000E+00 -0.45593999997E+02  0.45594000000E+02  0.51100000000E-03 0.  1.
         23    2    1    2    0    0  0.00000000000E+00  0.00000000000E+00 -0.35527136788E-14  0.91188000000E+02  0.91188000000E+02 0.  0.
    9900012    2    3    3    0    0  0.15496865771E+02  0.28778023298E+02 -0.24183499037E+02  0.50528817773E+02  0.29999872103E+02 0.  0.
         12    1    3    3    0    0 -0.15496865771E+02 -0.28778023298E+02  0.24183499037E+02  0.40659182227E+02  0.00000000000E+00 0. -1.
         11    1    4    4    0    0 -0.70703830637E+01  0.93798463531E+01 -0.48265514232E+01  0.12699111511E+02  0.51100000000E-03 0. -1.
        -11    1    4    4    0    0 -0.84781030690E-01  0.51418658391E+01 -0.66824037866E+00  0.51857996100E+01  0.51100000000E-03 0.  1.
        -12    1    4    4    0    0  0.22652029866E+02  0.14256311106E+02 -0.18688707235E+02  0.32643906652E+02  0.00000000000E+00 0.  1.
</event>
<event>
 8    1  0.5829710E-012  0.9118800E+02  0.7816164E-02  0.1184000E+00
        -11   -1    0    0    0    0  0.00000000000E+00  0.00000000000E+00  0.45593999997E+02  0.45594000000E+02  0.51100000000E-03 0.  1.
         11   -1    0    0    0    0 -0.00000000000E+00 -0.00000000000E+00 -0.45593999997E+02  0.45594000000E+02  0.51100000000E-03 0. -1.
         23    2    1    2    0    0 -0.71054273576E-14  0.88817841970E-15 -0.17763568394E-14  0.91188000000E+02  0.91188000000E+02 0.  0.
    9900012    2    3    3    0    0  0.37032917531E+02 -0.54989301271E+01  0.15858445704E+02  0.50528861869E+02  0.30000006138E+02 0.  0.
         12    1    3    3    0    0 -0.37032917531E+02  0.54989301271E+01 -0.15858445704E+02  0.40659138131E+02  0.00000000000E+00 0. -1.
         11    1    4    4    0    0 -0.24363003317E+01 -0.66571086176E+00 -0.22770817429E+01  0.34005634508E+01  0.51100000000E-03 0. -1.
        -11    1    4    4    0    0  0.16414932907E+02 -0.10756598785E+02  0.95355742858E+01  0.21819294603E+02  0.51100000000E-03 0.  1.
         12    1    4    4    0    0  0.23054284956E+02  0.59233795195E+01  0.85999531615E+01  0.25309003815E+02  0.00000000000E+00 0. -1.
</event>
<event>
 8    1  0.5829710E-012  0.9118800E+02  0.7816164E-02  0.1184000E+00
        -11   -1    0    0    0    0  0.00000000000E+00  0.00000000000E+00  0.45593999997E+02  0.45594000000E+02  0.51100000000E-03 0. -1.
         11   -1    0    0    0    0 -0.00000000000E+00 -0.00000000000E+00 -0.45593999997E+02  0.45594000000E+02  0.51100000000E-03 0.  1.
         23    2    1    2    0    0  0.17763568394E-14  0.00000000000E+00  0.00000000000E+00  0.91188000000E+02  0.91188000000E+02 0.  0.
    9900012    2    3    3    0    0 -0.15195641767E+02  0.93360397247E+01  0.36538970517E+02  0.50528861631E+02  0.30000005414E+02 0.  0.
        -12    1    3    3    0    0  0.15195641767E+02 -0.93360397247E+01 -0.36538970517E+02  0.40659138369E+02  0.00000000000E+00 0.  1.
         11    1    4    4    0    0  0.35482098313E-01 -0.16505868244E+01  0.92415217270E+01  0.93878336125E+01  0.51100000000E-03 0. -1.
        -11    1    4    4    0    0  0.60248194231E+01  0.67102579370E+01  0.66931972154E+01  0.11230534265E+02  0.51100000000E-03 0.  1.
        -12    1    4    4    0    0 -0.21255943289E+02  0.42763686122E+01  0.20604251575E+02  0.29910493753E+02  0.00000000000E+00 0.  1.
</event>
<event>
 8    1  0.5829710E-012  0.9118800E+02  0.7816164E-02  0.1184000E+00
        -11   -1    0    0    0    0  0.00000000000E+00  0.00000000000E+00  0.45593999997E+02  0.45594000000E+02  0.51100000000E-03 0. -1.
         11   -1    0    0    0    0 -0.00000000000E+00 -0.00000000000E+00 -0.45593999997E+02  0.45594000000E+02  0.51100000000E-03 0.  1.
         23    2    1    2    0    0  0.00000000000E+00  0.00000000000E+00  0.00000000000E+00  0.91188000000E+02  0.91188000000E+02 0.  0.
    9900012    2    3    3    0    0 -0.19991480382E+02 -0.74782893542E+01  0.34606048568E+02  0.50528896505E+02  0.30000111417E+02 0.  0.
        -12    1    3    3    0    0  0.19991480382E+02  0.74782893542E+01 -0.34606048568E+02  0.40659103495E+02  0.00000000000E+00 0.  1.
         11    1    4    4    0    0 -0.72803024312E+01 -0.21037801155E+01  0.21334381753E+02  0.22640329930E+02  0.51100000000E-03 0. -1.
        -11    1    4    4    0    0  0.34177001693E+01  0.31047934323E+00  0.98733163909E+01  0.10452724462E+02  0.51100000000E-03 0.  1.
         12    1    4    4    0    0 -0.16128878120E+02 -0.56849885819E+01  0.33983504233E+01  0.17435842113E+02  0.00000000000E+00 0. -1.
</event>
<event>
 8    1  0.5829710E-012  0.9118800E+02  0.7816164E-02  0.1184000E+00
        -11   -1    0    0    0    0  0.00000000000E+00  0.00000000000E+00  0.45593999997E+02  0.45594000000E+02  0.51100000000E-03 0. -1.
         11   -1    0    0    0    0 -0.00000000000E+00 -0.00000000000E+00 -0.45593999997E+02  0.45594000000E+02  0.51100000000E-03 0.  1.
         23    2    1    2    0    0 -0.88817841970E-15  0.00000000000E+00  0.00000000000E+00  0.91188000000E+02  0.91188000000E+02 0.  0.
    9900012    2    3    3    0    0 -0.25639241762E+01 -0.15939172149E+02  0.37316680433E+02  0.50528861365E+02  0.30000004605E+02 0.  0.
        -12    1    3    3    0    0  0.25639241762E+01  0.15939172149E+02 -0.37316680433E+02  0.40659138635E+02  0.00000000000E+00 0.  1.
         11    1    4    4    0    0 -0.68662671704E+01 -0.10976413650E+01  0.15447462866E+02  0.16940323216E+02  0.51100000000E-03 0. -1.
        -11    1    4    4    0    0  0.10292635329E+02 -0.11608610732E+01  0.69159363801E+01  0.12454562085E+02  0.51100000000E-03 0.  1.
         12    1    4    4    0    0 -0.59902923348E+01 -0.13680669711E+02  0.14953281188E+02  0.21133976064E+02  0.00000000000E+00 0. -1.
</event>
<event>
 8    1  0.5829710E-012  0.9118800E+02  0.7816164E-02  0.1184000E+00
        -11   -1    0    0    0    0  0.00000000000E+00  0.00000000000E+00  0.45593999997E+02  0.45594000000E+02  0.51100000000E-03 0. -1.
         11   -1    0    0    0    0 -0.00000000000E+00 -0.00000000000E+00 -0.45593999997E+02  0.45594000000E+02  0.51100000000E-03 0.  1.
         23    2    1    2    0    0  0.00000000000E+00  0.00000000000E+00  0.00000000000E+00  0.91188000000E+02  0.91188000000E+02 0.  0.
    9900012    2    3    3    0    0 -0.18296477139E+02 -0.18225258807E+02  0.31404525637E+02  0.50528863699E+02  0.30000011698E+02 0.  0.
        -12    1    3    3    0    0  0.18296477139E+02  0.18225258807E+02 -0.31404525637E+02  0.40659136301E+02  0.00000000000E+00 0.  1.
         11    1    4    4    0    0  0.12668485001E+01 -0.41102962116E+01  0.13264904736E+01  0.45010018115E+01  0.51100000000E-03 0. -1.
        -11    1    4    4    0    0 -0.57075620143E+01  0.56740190139E+01  0.16396383772E+02  0.18265052887E+02  0.51100000000E-03 0.  1.
         12    1    4    4    0    0 -0.13855763625E+02 -0.19788981609E+02  0.13681651392E+02  0.27762809000E+02  0.00000000000E+00 0. -1.
</event>
<event>
 8    1  0.5829710E-012  0.9118800E+02  0.7816164E-02  0.1184000E+00
        -11   -1    0    0    0    0  0.00000000000E+00  0.00000000000E+00  0.45593999997E+02  0.45594000000E+02  0.51100000000E-03 0. -1.
         11   -1    0    0    0    0 -0.00000000000E+00 -0.00000000000E+00 -0.45593999997E+02  0.45594000000E+02  0.51100000000E-03 0.  1.
         23    2    1    2    0    0 -0.22204460493E-14  0.00000000000E+00  0.00000000000E+00  0.91188000000E+02  0.91188000000E+02 0.  0.
    9900012    2    3    3    0    0 -0.28929351179E+01 -0.63709123625E+01  0.40052585315E+02  0.50528841274E+02  0.29999943536E+02 0.  0.
        -12    1    3    3    0    0  0.28929351179E+01  0.63709123625E+01 -0.40052585315E+02  0.40659158726E+02  0.00000000000E+00 0.  1.
         11    1    4    4    0    0 -0.88860754808E+01 -0.57252243907E+01  0.18721193582E+02  0.21499386530E+02  0.51100000000E-03 0. -1.
        -11    1    4    4    0    0 -0.63664966262E+01 -0.65198886836E+00  0.33880479676E+01  0.72412870450E+01  0.51100000000E-03 0.  1.
         12    1    4    4    0    0  0.12359636989E+02  0.63008965822E-02  0.17943343765E+02  0.21788167699E+02  0.00000000000E+00 0. -1.
</event>
<event>
 8    1  0.5829710E-012  0.9118800E+02  0.7816164E-02  0.1184000E+00
        -11   -1    0    0    0    0  0.00000000000E+00  0.00000000000E+00  0.45593999997E+02  0.45594000000E+02  0.51100000000E-03 0. -1.
         11   -1    0    0    0    0 -0.00000000000E+00 -0.00000000000E+00 -0.45593999997E+02  0.45594000000E+02  0.51100000000E-03 0.  1.
         23    2    1    2    0    0 -0.35527136788E-14  0.00000000000E+00  0.00000000000E+00  0.91188000000E+02  0.91188000000E+02 0.  0.
    9900012    2    3    3    0    0 -0.20530350113E+02 -0.19476174601E+02  0.29194977610E+02  0.50528888223E+02  0.30000086242E+02 0.  0.
        -12    1    3    3    0    0  0.20530350113E+02  0.19476174601E+02 -0.29194977610E+02  0.40659111777E+02  0.00000000000E+00 0.  1.
         11    1    4    4    0    0  0.31639752006E+01  0.18381477391E+01 -0.14834866741E+01  0.39484502218E+01  0.51100000000E-03 0. -1.
        -11    1    4    4    0    0 -0.82220512434E+01 -0.13166529036E+01  0.14005034425E+02  0.16293455466E+02  0.51100000000E-03 0.  1.
         12    1    4    4    0    0 -0.15472274070E+02 -0.19997669437E+02  0.16673429859E+02  0.30286982535E+02  0.00000000000E+00 0. -1.
</event>
<event>
 8    1  0.5829710E-012  0.9118800E+02  0.7816164E-02  0.1184000E+00
        -11   -1    0    0    0    0  0.00000000000E+00  0.00000000000E+00  0.45593999997E+02  0.45594000000E+02  0.51100000000E-03 0. -1.
         11   -1    0    0    0    0 -0.00000000000E+00 -0.00000000000E+00 -0.45593999997E+02  0.45594000000E+02  0.51100000000E-03 0.  1.
         23    2    1    2    0    0 -0.35527136788E-14  0.00000000000E+00  0.71054273576E-14  0.91188000000E+02  0.91188000000E+02 0.  0.
    9900012    2    3    3    0    0  0.20217027955E+02  0.52592948812E+01 -0.34882337380E+02  0.50528857571E+02  0.29999993073E+02 0.  0.
         12    1    3    3    0    0 -0.20217027955E+02 -0.52592948812E+01  0.34882337380E+02  0.40659142429E+02  0.00000000000E+00 0. -1.
         11    1    4    4    0    0  0.12302846832E+01  0.87390697635E-01 -0.13708214910E+02  0.13763589424E+02  0.51100000000E-03 0. -1.
        -11    1    4    4    0    0  0.32978087683E+01 -0.40813790415E+01 -0.17386681609E+02  0.18161219540E+02  0.51100000000E-03 0.  1.
         12    1    4    4    0    0  0.15688934504E+02  0.92532832250E+01 -0.37874408604E+01  0.18604048607E+02  0.00000000000E+00 0. -1.
</event>
<event>
 8    1  0.5829710E-012  0.9118800E+02  0.7816164E-02  0.1184000E+00
        -11   -1    0    0    0    0  0.00000000000E+00  0.00000000000E+00  0.45593999997E+02  0.45594000000E+02  0.51100000000E-03 0. -1.
         11   -1    0    0    0    0 -0.00000000000E+00 -0.00000000000E+00 -0.45593999997E+02  0.45594000000E+02  0.51100000000E-03 0.  1.
         23    2    1    2    0    0  0.35527136788E-14  0.00000000000E+00  0.00000000000E+00  0.91188000000E+02  0.91188000000E+02 0.  0.
    9900012    2    3    3    0    0  0.20849740564E+02 -0.15093744052E+02  0.31474318592E+02  0.50528861766E+02  0.30000005823E+02 0.  0.
        -12    1    3    3    0    0 -0.20849740564E+02  0.15093744052E+02 -0.31474318592E+02  0.40659138234E+02  0.00000000000E+00 0.  1.
         11    1    4    4    0    0  0.94663821120E+01 -0.93039490711E+01  0.25229756218E+02  0.28508182294E+02  0.51100000000E-03 0. -1.
        -11    1    4    4    0    0  0.40986823045E+01  0.40641580468E+01  0.77619060977E+01  0.96728363883E+01  0.51100000000E-03 0.  1.
        -12    1    4    4    0    0  0.72846761472E+01 -0.98539530281E+01 -0.15173437232E+01  0.12347843084E+02  0.00000000000E+00 0.  1.
</event>
<event>
 8    1  0.5829710E-012  0.9118800E+02  0.7816164E-02  0.1184000E+00
        -11   -1    0    0    0    0  0.00000000000E+00  0.00000000000E+00  0.45593999997E+02  0.45594000000E+02  0.51100000000E-03 0. -1.
         11   -1    0    0    0    0 -0.00000000000E+00 -0.00000000000E+00 -0.45593999997E+02  0.45594000000E+02  0.51100000000E-03 0.  1.
         23    2    1    2    0    0  0.00000000000E+00  0.35527136788E-14  0.00000000000E+00  0.91188000000E+02  0.91188000000E+02 0.  0.
    9900012    2    3    3    0    0 -0.94863185979E+01 -0.27191355221E+02 -0.28701996925E+02  0.50528872282E+02  0.30000037788E+02 0.  0.
         12    1    3    3    0    0  0.94863185979E+01  0.27191355221E+02  0.28701996925E+02  0.40659127718E+02  0.00000000000E+00 0. -1.
         11    1    4    4    0    0 -0.91789411821E+01 -0.85626989775E+01 -0.91515298687E+00  0.12586114581E+02  0.51100000000E-03 0. -1.
        -11    1    4    4    0    0  0.32019302520E+00  0.32460303180E+01 -0.71696984556E+01  0.78767894858E+01  0.51100000000E-03 0.  1.
        -12    1    4    4    0    0 -0.62757044100E+00 -0.21874686562E+02 -0.20617145483E+02  0.30065968215E+02  0.00000000000E+00 0.  1.
</event>
<event>
 8    1  0.5829710E-012  0.9118800E+02  0.7816164E-02  0.1184000E+00
        -11   -1    0    0    0    0  0.00000000000E+00  0.00000000000E+00  0.45593999997E+02  0.45594000000E+02  0.51100000000E-03 0. -1.
         11   -1    0    0    0    0 -0.00000000000E+00 -0.00000000000E+00 -0.45593999997E+02  0.45594000000E+02  0.51100000000E-03 0.  1.
         23    2    1    2    0    0  0.00000000000E+00  0.00000000000E+00  0.00000000000E+00  0.91188000000E+02  0.91188000000E+02 0.  0.
    9900012    2    3    3    0    0  0.33592593957E+02 -0.75906198115E+01  0.21612176043E+02  0.50528855504E+02  0.29999986789E+02 0.  0.
        -12    1    3    3    0    0 -0.33592593957E+02  0.75906198115E+01 -0.21612176043E+02  0.40659144496E+02  0.00000000000E+00 0.  1.
         11    1    4    4    0    0  0.13710697907E+01 -0.35040864503E+01 -0.46191099362E+01  0.59577370776E+01  0.51100000000E-03 0. -1.
        -11    1    4    4    0    0  0.40484823241E+01 -0.58104356532E+01  0.19678991490E+01  0.73501019673E+01  0.51100000000E-03 0.  1.
         12    1    4    4    0    0  0.28173041842E+02  0.17239022920E+01  0.24263386830E+02  0.37221016459E+02  0.00000000000E+00 0. -1.
</event>
<event>
 8    1  0.5829710E-012  0.9118800E+02  0.7816164E-02  0.1184000E+00
        -11   -1    0    0    0    0  0.00000000000E+00  0.00000000000E+00  0.45593999997E+02  0.45594000000E+02  0.51100000000E-03 0. -1.
         11   -1    0    0    0    0 -0.00000000000E+00 -0.00000000000E+00 -0.45593999997E+02  0.45594000000E+02  0.51100000000E-03 0.  1.
         23    2    1    2    0    0  0.00000000000E+00  0.00000000000E+00  0.00000000000E+00  0.91188000000E+02  0.91188000000E+02 0.  0.
    9900012    2    3    3    0    0  0.16083775570E+01 -0.15613930100E+02 -0.37507119223E+02  0.50528859773E+02  0.29999999767E+02 0.  0.
         12    1    3    3    0    0 -0.16083775570E+01  0.15613930100E+02  0.37507119223E+02  0.40659140227E+02  0.00000000000E+00 0. -1.
         11    1    4    4    0    0 -0.11324562389E+00  0.59952072850E+01 -0.20111854574E+02  0.20986710786E+02  0.51100000000E-03 0. -1.
        -11    1    4    4    0    0 -0.34881775928E+01 -0.31602421862E+01 -0.34996974571E+01  0.58653555857E+01  0.51100000000E-03 0.  1.
        -12    1    4    4    0    0  0.52098007737E+01 -0.18448895199E+02 -0.13895567193E+02  0.23676793402E+02  0.00000000000E+00 0.  1.
</event>
<event>
 8    1  0.5829710E-012  0.9118800E+02  0.7816164E-02  0.1184000E+00
        -11   -1    0    0    0    0  0.00000000000E+00  0.00000000000E+00  0.45593999997E+02  0.45594000000E+02  0.51100000000E-03 0. -1.
         11   -1    0    0    0    0 -0.00000000000E+00 -0.00000000000E+00 -0.45593999997E+02  0.45594000000E+02  0.51100000000E-03 0.  1.
         23    2    1    2    0    0  0.17763568394E-14  0.17763568394E-14  0.00000000000E+00  0.91188000000E+02  0.91188000000E+02 0.  0.
    9900012    2    3    3    0    0 -0.13425975917E+02 -0.14959189137E+02  0.35343048680E+02  0.50528865000E+02  0.30000015654E+02 0.  0.
        -12    1    3    3    0    0  0.13425975917E+02  0.14959189137E+02 -0.35343048680E+02  0.40659135000E+02  0.00000000000E+00 0.  1.
         11    1    4    4    0    0  0.79818903209E+01 -0.16755987972E+01  0.43712097388E+01  0.92534144652E+01  0.51100000000E-03 0. -1.
        -11    1    4    4    0    0  0.12029852889E+01 -0.85996383032E+00  0.18798329722E+01  0.23917532605E+01  0.51100000000E-03 0.  1.
        -12    1    4    4    0    0 -0.22610851527E+02 -0.12423626510E+02  0.29092005968E+02  0.38883697274E+02  0.00000000000E+00 0.  1.
</event>
<event>
 8    1  0.5829710E-012  0.9118800E+02  0.7816164E-02  0.1184000E+00
        -11   -1    0    0    0    0  0.00000000000E+00  0.00000000000E+00  0.45593999997E+02  0.45594000000E+02  0.51100000000E-03 0. -1.
         11   -1    0    0    0    0 -0.00000000000E+00 -0.00000000000E+00 -0.45593999997E+02  0.45594000000E+02  0.51100000000E-03 0.  1.
         23    2    1    2    0    0  0.00000000000E+00  0.00000000000E+00  0.71054273576E-14  0.91188000000E+02  0.91188000000E+02 0.  0.
    9900012    2    3    3    0    0  0.30678762315E+01 -0.28330565044E+02  0.29002251495E+02  0.50528888204E+02  0.30000086183E+02 0.  0.
        -12    1    3    3    0    0 -0.30678762315E+01  0.28330565044E+02 -0.29002251495E+02  0.40659111796E+02  0.00000000000E+00 0.  1.
         11    1    4    4    0    0 -0.16635525287E-01 -0.12413005737E+02  0.13560937146E+02  0.18384286896E+02  0.51100000000E-03 0. -1.
        -11    1    4    4    0    0 -0.30241471074E+01 -0.11709811275E+02  0.20047644571E+02  0.23413098875E+02  0.51100000000E-03 0.  1.
        -12    1    4    4    0    0  0.61086588642E+01 -0.42077480324E+01 -0.46063302211E+01  0.87315024325E+01  0.00000000000E+00 0.  1.
</event>
<event>
 8    1  0.5829710E-012  0.9118800E+02  0.7816164E-02  0.1184000E+00
        -11   -1    0    0    0    0  0.00000000000E+00  0.00000000000E+00  0.45593999997E+02  0.45594000000E+02  0.51100000000E-03 0.  1.
         11   -1    0    0    0    0 -0.00000000000E+00 -0.00000000000E+00 -0.45593999997E+02  0.45594000000E+02  0.51100000000E-03 0. -1.
         23    2    1    2    0    0 -0.35527136788E-14  0.00000000000E+00  0.00000000000E+00  0.91188000000E+02  0.91188000000E+02 0.  0.
    9900012    2    3    3    0    0  0.25211058841E+02  0.30507062902E+02  0.93213676524E+01  0.50528852570E+02  0.29999977873E+02 0.  0.
        -12    1    3    3    0    0 -0.25211058841E+02 -0.30507062902E+02 -0.93213676524E+01  0.40659147430E+02  0.00000000000E+00 0.  1.
         11    1    4    4    0    0 -0.48076122737E+00 -0.43591252476E+01  0.32564267077E+01  0.54623639064E+01  0.51100000000E-03 0. -1.
        -11    1    4    4    0    0  0.26599307923E+01  0.41467691175E+01 -0.27931028807E+01  0.56632455268E+01  0.51100000000E-03 0.  1.
         12    1    4    4    0    0  0.23031889276E+02  0.30719419032E+02  0.88580438254E+01  0.39403243137E+02  0.00000000000E+00 0. -1.
</event>
<event>
 8    1  0.5829710E-012  0.9118800E+02  0.7816164E-02  0.1184000E+00
        -11   -1    0    0    0    0  0.00000000000E+00  0.00000000000E+00  0.45593999997E+02  0.45594000000E+02  0.51100000000E-03 0. -1.
         11   -1    0    0    0    0 -0.00000000000E+00 -0.00000000000E+00 -0.45593999997E+02  0.45594000000E+02  0.51100000000E-03 0.  1.
         23    2    1    2    0    0  0.26645352591E-14  0.17763568394E-14 -0.71054273576E-14  0.91188000000E+02  0.91188000000E+02 0.  0.
    9900012    2    3    3    0    0 -0.77814672519E+01 -0.82593549077E+01  0.39043532210E+02  0.50528861009E+02  0.30000003523E+02 0.  0.
        -12    1    3    3    0    0  0.77814672519E+01  0.82593549077E+01 -0.39043532210E+02  0.40659138991E+02  0.00000000000E+00 0.  1.
         11    1    4    4    0    0 -0.12657383743E+02 -0.11059392130E+02  0.15746376782E+02  0.23031888753E+02  0.51100000000E-03 0. -1.
        -11    1    4    4    0    0 -0.60410767810E+00 -0.89190629529E+00  0.20148836496E+02  0.20177612726E+02  0.51100000000E-03 0.  1.
        -12    1    4    4    0    0  0.54800241693E+01  0.36919435176E+01  0.31483189317E+01  0.73193595299E+01  0.00000000000E+00 0.  1.
</event>
<event>
 8    1  0.5829710E-012  0.9118800E+02  0.7816164E-02  0.1184000E+00
        -11   -1    0    0    0    0  0.00000000000E+00  0.00000000000E+00  0.45593999997E+02  0.45594000000E+02  0.51100000000E-03 0. -1.
         11   -1    0    0    0    0 -0.00000000000E+00 -0.00000000000E+00 -0.45593999997E+02  0.45594000000E+02  0.51100000000E-03 0.  1.
         23    2    1    2    0    0 -0.17763568394E-14  0.00000000000E+00 -0.71054273576E-14  0.91188000000E+02  0.91188000000E+02 0.  0.
    9900012    2    3    3    0    0  0.12569742348E+02 -0.94984703978E+01  0.37482746788E+02  0.50528736979E+02  0.29999626520E+02 0.  0.
        -12    1    3    3    0    0 -0.12569742348E+02  0.94984703978E+01 -0.37482746788E+02  0.40659263021E+02  0.00000000000E+00 0.  1.
         11    1    4    4    0    0 -0.35822312211E+01 -0.19148845036E+01 -0.29996345979E+00  0.40729769852E+01  0.51100000000E-03 0. -1.
        -11    1    4    4    0    0 -0.61358355649E+00 -0.73575663219E+01  0.32481244222E+01  0.80660138535E+01  0.51100000000E-03 0.  1.
         12    1    4    4    0    0  0.16765557126E+02 -0.22601957228E+00  0.34534585826E+02  0.38389746141E+02  0.00000000000E+00 0. -1.
</event>
<event>
 8    1  0.5829710E-012  0.9118800E+02  0.7816164E-02  0.1184000E+00
        -11   -1    0    0    0    0  0.00000000000E+00  0.00000000000E+00  0.45593999997E+02  0.45594000000E+02  0.51100000000E-03 0. -1.
         11   -1    0    0    0    0 -0.00000000000E+00 -0.00000000000E+00 -0.45593999997E+02  0.45594000000E+02  0.51100000000E-03 0.  1.
         23    2    1    2    0    0  0.00000000000E+00 -0.35527136788E-14  0.00000000000E+00  0.91188000000E+02  0.91188000000E+02 0.  0.
    9900012    2    3    3    0    0  0.40108801241E+01 -0.18404026852E+02 -0.36032910580E+02  0.50528855781E+02  0.29999987632E+02 0.  0.
         12    1    3    3    0    0 -0.40108801241E+01  0.18404026852E+02  0.36032910580E+02  0.40659144219E+02  0.00000000000E+00 0. -1.
         11    1    4    4    0    0 -0.57510285729E+01 -0.10115773480E+02 -0.59244394097E+01  0.13057648537E+02  0.51100000000E-03 0. -1.
        -11    1    4    4    0    0  0.58340120141E+01  0.24134661417E+01 -0.12409625304E+01  0.64343222845E+01  0.51100000000E-03 0.  1.
         12    1    4    4    0    0  0.39278966829E+01 -0.10701719514E+02 -0.28867508640E+02  0.31036884959E+02  0.00000000000E+00 0. -1.
</event>
<event>
 8    1  0.5829710E-012  0.9118800E+02  0.7816164E-02  0.1184000E+00
        -11   -1    0    0    0    0  0.00000000000E+00  0.00000000000E+00  0.45593999997E+02  0.45594000000E+02  0.51100000000E-03 0. -1.
         11   -1    0    0    0    0 -0.00000000000E+00 -0.00000000000E+00 -0.45593999997E+02  0.45594000000E+02  0.51100000000E-03 0.  1.
         23    2    1    2    0    0 -0.88817841970E-15 -0.17763568394E-14 -0.71054273576E-14  0.91188000000E+02  0.91188000000E+02 0.  0.
    9900012    2    3    3    0    0  0.25458023339E+01  0.15978295863E+02  0.37301188033E+02  0.50528859861E+02  0.30000000034E+02 0.  0.
        -12    1    3    3    0    0 -0.25458023339E+01 -0.15978295863E+02 -0.37301188033E+02  0.40659140139E+02  0.00000000000E+00 0.  1.
         11    1    4    4    0    0  0.10913189841E+02  0.42035180712E+01  0.10334508068E+02  0.15606707980E+02  0.51100000000E-03 0.  1.
        -11    1    4    4    0    0 -0.11162379261E+01  0.11299723579E+02  0.24900819704E+02  0.27367509244E+02  0.51100000000E-03 0. -1.
        -12    1    4    4    0    0 -0.72511495815E+01  0.47505421278E+00  0.20658602611E+01  0.75546426373E+01  0.00000000000E+00 0.  1.
</event>
<event>
 8    1  0.5829710E-012  0.9118800E+02  0.7816164E-02  0.1184000E+00
        -11   -1    0    0    0    0  0.00000000000E+00  0.00000000000E+00  0.45593999997E+02  0.45594000000E+02  0.51100000000E-03 0. -1.
         11   -1    0    0    0    0 -0.00000000000E+00 -0.00000000000E+00 -0.45593999997E+02  0.45594000000E+02  0.51100000000E-03 0.  1.
         23    2    1    2    0    0  0.00000000000E+00  0.35527136788E-14  0.00000000000E+00  0.91188000000E+02  0.91188000000E+02 0.  0.
    9900012    2    3    3    0    0  0.20565988615E+02 -0.25338517099E+02  0.24252112771E+02  0.50528864368E+02  0.30000013734E+02 0.  0.
        -12    1    3    3    0    0 -0.20565988615E+02  0.25338517099E+02 -0.24252112771E+02  0.40659135632E+02  0.00000000000E+00 0.  1.
         11    1    4    4    0    0 -0.29481290839E+01 -0.39391169612E+01  0.40331282587E+01  0.63619361315E+01  0.51100000000E-03 0. -1.
        -11    1    4    4    0    0  0.10142448000E+02  0.35605180124E+01  0.36100906526E+01  0.11339281050E+02  0.51100000000E-03 0.  1.
         12    1    4    4    0    0  0.13371669699E+02 -0.24959918150E+02  0.16608893860E+02  0.32827647187E+02  0.00000000000E+00 0. -1.
</event>
<event>
 8    1  0.5829710E-012  0.9118800E+02  0.7816164E-02  0.1184000E+00
        -11   -1    0    0    0    0  0.00000000000E+00  0.00000000000E+00  0.45593999997E+02  0.45594000000E+02  0.51100000000E-03 0. -1.
         11   -1    0    0    0    0 -0.00000000000E+00 -0.00000000000E+00 -0.45593999997E+02  0.45594000000E+02  0.51100000000E-03 0.  1.
         23    2    1    2    0    0  0.00000000000E+00 -0.35527136788E-14  0.00000000000E+00  0.91188000000E+02  0.91188000000E+02 0.  0.
    9900012    2    3    3    0    0 -0.13871466712E+02 -0.21760886364E+02  0.31419925806E+02  0.50528862015E+02  0.30000006580E+02 0.  0.
        -12    1    3    3    0    0  0.13871466712E+02  0.21760886364E+02 -0.31419925806E+02  0.40659137985E+02  0.00000000000E+00 0.  1.
         11    1    4    4    0    0 -0.18255949672E+01 -0.59252189467E+00  0.10570483745E+02  0.10743323790E+02  0.51100000000E-03 0. -1.
        -11    1    4    4    0    0 -0.29259721459E+01  0.14960004541E+01 -0.38385447558E+01  0.50530937514E+01  0.51100000000E-03 0.  1.
         12    1    4    4    0    0 -0.91198995992E+01 -0.22664364923E+02  0.24687986816E+02  0.34732444473E+02  0.00000000000E+00 0. -1.
</event>
<event>
 8    1  0.5829710E-012  0.9118800E+02  0.7816164E-02  0.1184000E+00
        -11   -1    0    0    0    0  0.00000000000E+00  0.00000000000E+00  0.45593999997E+02  0.45594000000E+02  0.51100000000E-03 0. -1.
         11   -1    0    0    0    0 -0.00000000000E+00 -0.00000000000E+00 -0.45593999997E+02  0.45594000000E+02  0.51100000000E-03 0.  1.
         23    2    1    2    0    0  0.00000000000E+00  0.00000000000E+00 -0.35527136788E-14  0.91188000000E+02  0.91188000000E+02 0.  0.
    9900012    2    3    3    0    0 -0.55087315721E+01  0.31929122231E+02 -0.24563206854E+02  0.50528854646E+02  0.29999984182E+02 0.  0.
         12    1    3    3    0    0  0.55087315721E+01 -0.31929122231E+02  0.24563206854E+02  0.40659145354E+02  0.00000000000E+00 0. -1.
         11    1    4    4    0    0  0.68680068443E+00  0.82219189245E+00  0.26894317896E+01  0.28949504832E+01  0.51100000000E-03 0.  1.
        -11    1    4    4    0    0  0.20725238399E+00 -0.19813152299E+01  0.21339232554E+01  0.29192794166E+01  0.51100000000E-03 0. -1.
        -12    1    4    4    0    0 -0.64027846405E+01  0.33088245568E+02 -0.29386561899E+02  0.44714624746E+02  0.00000000000E+00 0.  1.
</event>
<event>
 8    1  0.5829710E-012  0.9118800E+02  0.7816164E-02  0.1184000E+00
        -11   -1    0    0    0    0  0.00000000000E+00  0.00000000000E+00  0.45593999997E+02  0.45594000000E+02  0.51100000000E-03 0. -1.
         11   -1    0    0    0    0 -0.00000000000E+00 -0.00000000000E+00 -0.45593999997E+02  0.45594000000E+02  0.51100000000E-03 0.  1.
         23    2    1    2    0    0  0.17763568394E-14  0.00000000000E+00  0.00000000000E+00  0.91188000000E+02  0.91188000000E+02 0.  0.
    9900012    2    3    3    0    0  0.37459962294E+01 -0.37836599805E+02 -0.14405666705E+02  0.50528880411E+02  0.30000062496E+02 0.  0.
         12    1    3    3    0    0 -0.37459962294E+01  0.37836599805E+02  0.14405666705E+02  0.40659119589E+02  0.00000000000E+00 0. -1.
         11    1    4    4    0    0 -0.40486360482E+01 -0.54240515806E+01 -0.45084305061E+00  0.67834393280E+01  0.51100000000E-03 0. -1.
        -11    1    4    4    0    0 -0.88514295660E+01 -0.13161678032E+02 -0.35668265416E+01  0.16257300693E+02  0.51100000000E-03 0.  1.
         12    1    4    4    0    0  0.16646061844E+02 -0.19250870193E+02 -0.10387997113E+02  0.27488140390E+02  0.00000000000E+00 0. -1.
</event>
<event>
 8    1  0.5829710E-012  0.9118800E+02  0.7816164E-02  0.1184000E+00
        -11   -1    0    0    0    0  0.00000000000E+00  0.00000000000E+00  0.45593999997E+02  0.45594000000E+02  0.51100000000E-03 0. -1.
         11   -1    0    0    0    0 -0.00000000000E+00 -0.00000000000E+00 -0.45593999997E+02  0.45594000000E+02  0.51100000000E-03 0.  1.
         23    2    1    2    0    0  0.88817841970E-15 -0.35527136788E-14  0.00000000000E+00  0.91188000000E+02  0.91188000000E+02 0.  0.
    9900012    2    3    3    0    0 -0.45176876002E+01 -0.24202306550E+02  0.32357439608E+02  0.50528867673E+02  0.30000023778E+02 0.  0.
        -12    1    3    3    0    0  0.45176876002E+01  0.24202306550E+02 -0.32357439608E+02  0.40659132327E+02  0.00000000000E+00 0.  1.
         11    1    4    4    0    0 -0.77283133089E+01 -0.18000230204E+02  0.15953373642E+02  0.25263516082E+02  0.51100000000E-03 0. -1.
        -11    1    4    4    0    0 -0.23134349481E+01 -0.10614664732E+02  0.52660694883E+01  0.12072886016E+02  0.51100000000E-03 0.  1.
         12    1    4    4    0    0  0.55240606569E+01  0.44125883862E+01  0.11137996478E+02  0.13192465575E+02  0.00000000000E+00 0. -1.
</event>
<event>
 8    1  0.5829710E-012  0.9118800E+02  0.7816164E-02  0.1184000E+00
        -11   -1    0    0    0    0  0.00000000000E+00  0.00000000000E+00  0.45593999997E+02  0.45594000000E+02  0.51100000000E-03 0. -1.
         11   -1    0    0    0    0 -0.00000000000E+00 -0.00000000000E+00 -0.45593999997E+02  0.45594000000E+02  0.51100000000E-03 0.  1.
         23    2    1    2    0    0  0.35527136788E-14 -0.17763568394E-14 -0.71054273576E-14  0.91188000000E+02  0.91188000000E+02 0.  0.
    9900012    2    3    3    0    0 -0.17770223568E+02  0.13142335690E+02  0.34127186047E+02  0.50528847764E+02  0.29999963264E+02 0.  0.
        -12    1    3    3    0    0  0.17770223568E+02 -0.13142335690E+02 -0.34127186047E+02  0.40659152236E+02  0.00000000000E+00 0.  1.
         11    1    4    4    0    0 -0.10632539899E+02 -0.14442602815E+01  0.70596665928E+01  0.12844286089E+02  0.51100000000E-03 0.  1.
        -11    1    4    4    0    0  0.42347705618E+01 -0.29624379364E+01  0.38963578844E+01  0.64723199289E+01  0.51100000000E-03 0. -1.
         12    1    4    4    0    0 -0.11372454230E+02  0.17549033908E+02  0.23171161570E+02  0.31212241746E+02  0.00000000000E+00 0. -1.
</event>
<event>
 8    1  0.5829710E-012  0.9118800E+02  0.7816164E-02  0.1184000E+00
        -11   -1    0    0    0    0  0.00000000000E+00  0.00000000000E+00  0.45593999997E+02  0.45594000000E+02  0.51100000000E-03 0. -1.
         11   -1    0    0    0    0 -0.00000000000E+00 -0.00000000000E+00 -0.45593999997E+02  0.45594000000E+02  0.51100000000E-03 0.  1.
         23    2    1    2    0    0  0.00000000000E+00  0.00000000000E+00  0.00000000000E+00  0.91188000000E+02  0.91188000000E+02 0.  0.
    9900012    2    3    3    0    0 -0.13569118166E+02  0.22641070788E+02 -0.30926141061E+02  0.50528865047E+02  0.30000015797E+02 0.  0.
         12    1    3    3    0    0  0.13569118166E+02 -0.22641070788E+02  0.30926141061E+02  0.40659134953E+02  0.00000000000E+00 0. -1.
         11    1    4    4    0    0  0.28193648246E+01  0.16145147036E+01 -0.28846331532E+01  0.43447191431E+01  0.51100000000E-03 0. -1.
        -11    1    4    4    0    0  0.65414730029E+01  0.76231746561E+01 -0.91830670970E+01  0.13610010377E+02  0.51100000000E-03 0.  1.
        -12    1    4    4    0    0 -0.22929955993E+02  0.13403381428E+02 -0.18858440810E+02  0.32574135527E+02  0.00000000000E+00 0.  1.
</event>
<event>
 8    1  0.5829710E-012  0.9118800E+02  0.7816164E-02  0.1184000E+00
        -11   -1    0    0    0    0  0.00000000000E+00  0.00000000000E+00  0.45593999997E+02  0.45594000000E+02  0.51100000000E-03 0. -1.
         11   -1    0    0    0    0 -0.00000000000E+00 -0.00000000000E+00 -0.45593999997E+02  0.45594000000E+02  0.51100000000E-03 0.  1.
         23    2    1    2    0    0  0.13322676296E-14  0.00000000000E+00  0.00000000000E+00  0.91188000000E+02  0.91188000000E+02 0.  0.
    9900012    2    3    3    0    0 -0.26891313962E+01  0.12229777566E+02  0.38682906787E+02  0.50528853864E+02  0.29999981805E+02 0.  0.
        -12    1    3    3    0    0  0.26891313962E+01 -0.12229777566E+02 -0.38682906787E+02  0.40659146136E+02  0.00000000000E+00 0.  1.
         11    1    4    4    0    0 -0.11385647081E+02  0.47653050928E+01  0.15611600916E+02  0.19901336024E+02  0.51100000000E-03 0. -1.
        -11    1    4    4    0    0 -0.18911626315E+01  0.91189244752E+01  0.91111721713E+01  0.13028612293E+02  0.51100000000E-03 0.  1.
        -12    1    4    4    0    0  0.10587678317E+02 -0.16544520017E+01  0.13960133700E+02  0.17598905548E+02  0.00000000000E+00 0.  1.
</event>
<event>
 8    1  0.5829710E-012  0.9118800E+02  0.7816164E-02  0.1184000E+00
        -11   -1    0    0    0    0  0.00000000000E+00  0.00000000000E+00  0.45593999997E+02  0.45594000000E+02  0.51100000000E-03 0.  1.
         11   -1    0    0    0    0 -0.00000000000E+00 -0.00000000000E+00 -0.45593999997E+02  0.45594000000E+02  0.51100000000E-03 0. -1.
         23    2    1    2    0    0  0.17763568394E-14  0.00000000000E+00  0.71054273576E-14  0.91188000000E+02  0.91188000000E+02 0.  0.
    9900012    2    3    3    0    0  0.11533696245E+02 -0.29311603479E+02  0.25709328510E+02  0.50528858100E+02  0.29999994682E+02 0.  0.
        -12    1    3    3    0    0 -0.11533696245E+02  0.29311603479E+02 -0.25709328510E+02  0.40659141900E+02  0.00000000000E+00 0.  1.
         11    1    4    4    0    0 -0.20232598827E+01 -0.15587079691E+01  0.83912935817E+01  0.87713715758E+01  0.51100000000E-03 0. -1.
        -11    1    4    4    0    0  0.14158349945E+02 -0.69381476844E+01  0.13127618564E+02  0.20516606344E+02  0.51100000000E-03 0.  1.
         12    1    4    4    0    0 -0.60139381702E+00 -0.20814747825E+02  0.41904163644E+01  0.21240880181E+02  0.00000000000E+00 0. -1.
</event>
<event>
 8    1  0.5829710E-012  0.9118800E+02  0.7816164E-02  0.1184000E+00
        -11   -1    0    0    0    0  0.00000000000E+00  0.00000000000E+00  0.45593999997E+02  0.45594000000E+02  0.51100000000E-03 0. -1.
         11   -1    0    0    0    0 -0.00000000000E+00 -0.00000000000E+00 -0.45593999997E+02  0.45594000000E+02  0.51100000000E-03 0.  1.
         23    2    1    2    0    0  0.88817841970E-15  0.00000000000E+00  0.00000000000E+00  0.91188000000E+02  0.91188000000E+02 0.  0.
    9900012    2    3    3    0    0  0.50243922738E+01 -0.16140242986E+02  0.36978555472E+02  0.50528861714E+02  0.30000005665E+02 0.  0.
        -12    1    3    3    0    0 -0.50243922738E+01  0.16140242986E+02 -0.36978555472E+02  0.40659138286E+02  0.00000000000E+00 0.  1.
         11    1    4    4    0    0 -0.32483920289E+01  0.33962567272E+01  0.13009233083E+02  0.13832091534E+02  0.51100000000E-03 0. -1.
        -11    1    4    4    0    0  0.44643185919E+01 -0.12730327314E+02  0.25406710650E+02  0.28766166243E+02  0.51100000000E-03 0.  1.
        -12    1    4    4    0    0  0.38084657108E+01 -0.68061723994E+01 -0.14373882602E+01  0.79306039374E+01  0.00000000000E+00 0.  1.
</event>
<event>
 8    1  0.5829710E-012  0.9118800E+02  0.7816164E-02  0.1184000E+00
        -11   -1    0    0    0    0  0.00000000000E+00  0.00000000000E+00  0.45593999997E+02  0.45594000000E+02  0.51100000000E-03 0. -1.
         11   -1    0    0    0    0 -0.00000000000E+00 -0.00000000000E+00 -0.45593999997E+02  0.45594000000E+02  0.51100000000E-03 0.  1.
         23    2    1    2    0    0  0.88817841970E-15  0.00000000000E+00  0.00000000000E+00  0.91188000000E+02  0.91188000000E+02 0.  0.
    9900012    2    3    3    0    0  0.77684755711E+01 -0.10931692808E+02  0.38383784009E+02  0.50528855946E+02  0.29999988133E+02 0.  0.
        -12    1    3    3    0    0 -0.77684755711E+01  0.10931692808E+02 -0.38383784009E+02  0.40659144054E+02  0.00000000000E+00 0.  1.
         11    1    4    4    0    0  0.10629466433E+02 -0.54163087910E+01  0.10681294251E+02  0.16012869971E+02  0.51100000000E-03 0. -1.
        -11    1    4    4    0    0  0.56266946070E+01 -0.92028425863E+01  0.18801456008E+02  0.21675948702E+02  0.51100000000E-03 0.  1.
        -12    1    4    4    0    0 -0.84876854692E+01  0.36874585698E+01  0.89010337507E+01  0.12840037273E+02  0.00000000000E+00 0.  1.
</event>
<event>
 8    1  0.6476130E-012  0.9118800E+02  0.7816164E-02  0.1184000E+00
        -11   -1    0    0    0    0  0.00000000000E+00  0.00000000000E+00  0.45593999997E+02  0.45594000000E+02  0.51100000000E-03 0. -1.
         11   -1    0    0    0    0 -0.00000000000E+00 -0.00000000000E+00 -0.45593999997E+02  0.45594000000E+02  0.51100000000E-03 0.  1.
         23    2    1    2    0    0  0.88817841970E-15 -0.13322676296E-14 -0.71054273576E-14  0.91188000000E+02  0.91188000000E+02 0.  0.
    9900012    2    3    3    0    0  0.60140891292E+01  0.29550704599E+01 -0.40103170294E+02  0.50528856168E+02  0.29999988810E+02 0.  0.
         12    1    3    3    0    0 -0.60140891292E+01 -0.29550704599E+01  0.40103170294E+02  0.40659143832E+02  0.00000000000E+00 0. -1.
         11    1    4    4    0    0  0.12123949954E+01  0.11258283705E+02 -0.10098212521E+02  0.15172104336E+02  0.51100000000E-03 0. -1.
        -11    1    4    4    0    0  0.88104046826E+01 -0.15946199626E+01 -0.23636449147E+02  0.25275438118E+02  0.51100000000E-03 0.  1.
         12    1    4    4    0    0 -0.40087105488E+01 -0.67085932824E+01 -0.63685086261E+01  0.10081313715E+02  0.00000000000E+00 0. -1.
</event>
<event>
 8    1  0.5829710E-012  0.9118800E+02  0.7816164E-02  0.1184000E+00
        -11   -1    0    0    0    0  0.00000000000E+00  0.00000000000E+00  0.45593999997E+02  0.45594000000E+02  0.51100000000E-03 0.  1.
         11   -1    0    0    0    0 -0.00000000000E+00 -0.00000000000E+00 -0.45593999997E+02  0.45594000000E+02  0.51100000000E-03 0. -1.
         23    2    1    2    0    0  0.00000000000E+00  0.00000000000E+00  0.00000000000E+00  0.91188000000E+02  0.91188000000E+02 0.  0.
    9900012    2    3    3    0    0  0.36218948469E+02  0.17374957297E+02 -0.62820219639E+01  0.50528866103E+02  0.30000019008E+02 0.  0.
         12    1    3    3    0    0 -0.36218948469E+02 -0.17374957297E+02  0.62820219639E+01  0.40659133897E+02  0.00000000000E+00 0. -1.
         11    1    4    4    0    0  0.90428904005E+01  0.26088934291E+01 -0.22527616488E+01  0.96775579061E+01  0.51100000000E-03 0. -1.
        -11    1    4    4    0    0  0.23070724521E+02  0.66723059572E+00  0.49962979307E+01  0.23614963898E+02  0.51100000000E-03 0.  1.
         12    1    4    4    0    0  0.41053335471E+01  0.14098833272E+02 -0.90255582458E+01  0.17236344300E+02  0.00000000000E+00 0. -1.
</event>
<event>
 8    1  0.7862578E-012  0.9118800E+02  0.7816164E-02  0.1184000E+00
        -11   -1    0    0    0    0  0.00000000000E+00  0.00000000000E+00  0.45593999997E+02  0.45594000000E+02  0.51100000000E-03 0. -1.
         11   -1    0    0    0    0 -0.00000000000E+00 -0.00000000000E+00 -0.45593999997E+02  0.45594000000E+02  0.51100000000E-03 0.  1.
         23    2    1    2    0    0  0.35527136788E-14 -0.88817841970E-15  0.00000000000E+00  0.91188000000E+02  0.91188000000E+02 0.  0.
    9900012    2    3    3    0    0  0.18428750700E+02  0.49524093704E+01 -0.35902940980E+02  0.50528851190E+02  0.29999973676E+02 0.  0.
         12    1    3    3    0    0 -0.18428750700E+02 -0.49524093704E+01  0.35902940980E+02  0.40659148810E+02  0.00000000000E+00 0. -1.
         11    1    4    4    0    0  0.15707381707E+02  0.18314088052E+01 -0.21220608092E+02  0.26464884401E+02  0.51100000000E-03 0. -1.
        -11    1    4    4    0    0  0.59923718490E+01  0.38581690411E+01 -0.17992283500E+02  0.19352422446E+02  0.51100000000E-03 0.  1.
         12    1    4    4    0    0 -0.32710028560E+01 -0.73716847588E+00  0.33099506113E+01  0.47115443429E+01  0.00000000000E+00 0. -1.
</event>
<event>
 8    1  0.5829710E-012  0.9118800E+02  0.7816164E-02  0.1184000E+00
        -11   -1    0    0    0    0  0.00000000000E+00  0.00000000000E+00  0.45593999997E+02  0.45594000000E+02  0.51100000000E-03 0. -1.
         11   -1    0    0    0    0 -0.00000000000E+00 -0.00000000000E+00 -0.45593999997E+02  0.45594000000E+02  0.51100000000E-03 0.  1.
         23    2    1    2    0    0  0.71054273576E-14  0.00000000000E+00  0.00000000000E+00  0.91188000000E+02  0.91188000000E+02 0.  0.
    9900012    2    3    3    0    0  0.36254143034E+02  0.13689927100E+02  0.12303985209E+02  0.50528867654E+02  0.30000023720E+02 0.  0.
        -12    1    3    3    0    0 -0.36254143034E+02 -0.13689927100E+02 -0.12303985209E+02  0.40659132346E+02  0.00000000000E+00 0.  1.
         11    1    4    4    0    0  0.23089825908E+02  0.73213462639E+01  0.66944976413E+00  0.24232010540E+02  0.51100000000E-03 0. -1.
        -11    1    4    4    0    0  0.11587738172E+02 -0.45678498386E+01  0.72299025386E+01  0.14401819991E+02  0.51100000000E-03 0.  1.
        -12    1    4    4    0    0  0.15765789545E+01  0.10936430674E+02  0.44046329061E+01  0.11895037122E+02  0.00000000000E+00 0.  1.
</event>
<event>
 8    1  0.5829710E-012  0.9118800E+02  0.7816164E-02  0.1184000E+00
        -11   -1    0    0    0    0  0.00000000000E+00  0.00000000000E+00  0.45593999997E+02  0.45594000000E+02  0.51100000000E-03 0.  1.
         11   -1    0    0    0    0 -0.00000000000E+00 -0.00000000000E+00 -0.45593999997E+02  0.45594000000E+02  0.51100000000E-03 0. -1.
         23    2    1    2    0    0  0.00000000000E+00 -0.17763568394E-14 -0.88817841970E-15  0.91188000000E+02  0.91188000000E+02 0.  0.
    9900012    2    3    3    0    0  0.37566283016E+02 -0.14245122373E+02  0.62463116344E+01  0.50528861543E+02  0.30000005145E+02 0.  0.
        -12    1    3    3    0    0 -0.37566283016E+02  0.14245122373E+02 -0.62463116344E+01  0.40659138457E+02  0.00000000000E+00 0.  1.
         11    1    4    4    0    0  0.14652073411E+02 -0.10729787575E+02  0.10560733678E+02  0.21008110165E+02  0.51100000000E-03 0. -1.
        -11    1    4    4    0    0  0.82544861836E+01 -0.40684166692E+00  0.69300532499E+01  0.10785532004E+02  0.51100000000E-03 0.  1.
         12    1    4    4    0    0  0.14659723422E+02 -0.31084931306E+01 -0.11244475294E+02  0.18735219373E+02  0.00000000000E+00 0. -1.
</event>
<event>
 8    1  0.5829710E-012  0.9118800E+02  0.7816164E-02  0.1184000E+00
        -11   -1    0    0    0    0  0.00000000000E+00  0.00000000000E+00  0.45593999997E+02  0.45594000000E+02  0.51100000000E-03 0. -1.
         11   -1    0    0    0    0 -0.00000000000E+00 -0.00000000000E+00 -0.45593999997E+02  0.45594000000E+02  0.51100000000E-03 0.  1.
         23    2    1    2    0    0  0.00000000000E+00  0.17763568394E-14  0.17763568394E-14  0.91188000000E+02  0.91188000000E+02 0.  0.
    9900012    2    3    3    0    0  0.36283184710E+02 -0.15148500914E+02  0.10354656538E+02  0.50528862225E+02  0.30000007218E+02 0.  0.
        -12    1    3    3    0    0 -0.36283184710E+02  0.15148500914E+02 -0.10354656538E+02  0.40659137775E+02  0.00000000000E+00 0.  1.
         11    1    4    4    0    0  0.16102454722E+01 -0.61851360444E+01 -0.10445202106E+01  0.64760961312E+01  0.51100000000E-03 0. -1.
        -11    1    4    4    0    0 -0.14065698736E+01 -0.61716945752E+01  0.23408169561E+01  0.67489019123E+01  0.51100000000E-03 0.  1.
         12    1    4    4    0    0  0.36079509111E+02 -0.27916702942E+01  0.90583597922E+01  0.37303864181E+02  0.00000000000E+00 0. -1.
</event>
<event>
 8    1  0.5829710E-012  0.9118800E+02  0.7816164E-02  0.1184000E+00
        -11   -1    0    0    0    0  0.00000000000E+00  0.00000000000E+00  0.45593999997E+02  0.45594000000E+02  0.51100000000E-03 0. -1.
         11   -1    0    0    0    0 -0.00000000000E+00 -0.00000000000E+00 -0.45593999997E+02  0.45594000000E+02  0.51100000000E-03 0.  1.
         23    2    1    2    0    0  0.00000000000E+00  0.00000000000E+00  0.00000000000E+00  0.91188000000E+02  0.91188000000E+02 0.  0.
    9900012    2    3    3    0    0  0.17565946251E+02  0.35141010296E+02  0.10474394847E+02  0.50528855644E+02  0.29999987217E+02 0.  0.
        -12    1    3    3    0    0 -0.17565946251E+02 -0.35141010296E+02 -0.10474394847E+02  0.40659144356E+02  0.00000000000E+00 0.  1.
         11    1    4    4    0    0 -0.25108644984E+01  0.14423317421E+02  0.70481988731E+01  0.16248496348E+02  0.51100000000E-03 0. -1.
        -11    1    4    4    0    0 -0.33466040892E+01  0.14368849273E+01  0.13024806714E+01  0.38679262383E+01  0.51100000000E-03 0.  1.
         12    1    4    4    0    0  0.23423414838E+02  0.19280807947E+02  0.21237153024E+01  0.30412433058E+02  0.00000000000E+00 0. -1.
</event>
<event>
 8    1  0.5829710E-012  0.9118800E+02  0.7816164E-02  0.1184000E+00
        -11   -1    0    0    0    0  0.00000000000E+00  0.00000000000E+00  0.45593999997E+02  0.45594000000E+02  0.51100000000E-03 0. -1.
         11   -1    0    0    0    0 -0.00000000000E+00 -0.00000000000E+00 -0.45593999997E+02  0.45594000000E+02  0.51100000000E-03 0.  1.
         23    2    1    2    0    0  0.00000000000E+00 -0.35527136788E-14 -0.35527136788E-14  0.91188000000E+02  0.91188000000E+02 0.  0.
    9900012    2    3    3    0    0 -0.22403581785E+02 -0.11940078441E+02 -0.31759668097E+02  0.50528899326E+02  0.30000119991E+02 0.  0.
         12    1    3    3    0    0  0.22403581785E+02  0.11940078441E+02  0.31759668097E+02  0.40659100674E+02  0.00000000000E+00 0. -1.
         11    1    4    4    0    0 -0.17340746931E+02 -0.10814943211E+02 -0.76045457422E+01  0.21805816128E+02  0.51100000000E-03 0. -1.
        -11    1    4    4    0    0 -0.61119560916E+01 -0.57981094082E+01 -0.71288895634E+01  0.11036083845E+02  0.51100000000E-03 0.  1.
         12    1    4    4    0    0  0.10491212378E+01  0.46729741783E+01 -0.17026232791E+02  0.17686999353E+02  0.00000000000E+00 0. -1.
</event>
<event>
 8    1  0.5829710E-012  0.9118800E+02  0.7816164E-02  0.1184000E+00
        -11   -1    0    0    0    0  0.00000000000E+00  0.00000000000E+00  0.45593999997E+02  0.45594000000E+02  0.51100000000E-03 0. -1.
         11   -1    0    0    0    0 -0.00000000000E+00 -0.00000000000E+00 -0.45593999997E+02  0.45594000000E+02  0.51100000000E-03 0.  1.
         23    2    1    2    0    0  0.00000000000E+00  0.88817841970E-15  0.00000000000E+00  0.91188000000E+02  0.91188000000E+02 0.  0.
    9900012    2    3    3    0    0  0.19978811227E+02 -0.98895349107E+00 -0.35398223821E+02  0.50528866011E+02  0.30000018727E+02 0.  0.
         12    1    3    3    0    0 -0.19978811227E+02  0.98895349107E+00  0.35398223821E+02  0.40659133989E+02  0.00000000000E+00 0. -1.
         11    1    4    4    0    0  0.62459568062E+01  0.59880784046E+01 -0.77124908566E+00  0.86869951547E+01  0.51100000000E-03 0. -1.
        -11    1    4    4    0    0 -0.32342974656E+01  0.11521789920E+01 -0.11647350054E+02  0.12142856339E+02  0.51100000000E-03 0.  1.
         12    1    4    4    0    0  0.16967151886E+02 -0.81292108877E+01 -0.22979624682E+02  0.29699014517E+02  0.00000000000E+00 0. -1.
</event>
<event>
 8    1  0.5829710E-012  0.9118800E+02  0.7816164E-02  0.1184000E+00
        -11   -1    0    0    0    0  0.00000000000E+00  0.00000000000E+00  0.45593999997E+02  0.45594000000E+02  0.51100000000E-03 0. -1.
         11   -1    0    0    0    0 -0.00000000000E+00 -0.00000000000E+00 -0.45593999997E+02  0.45594000000E+02  0.51100000000E-03 0.  1.
         23    2    1    2    0    0 -0.17763568394E-14 -0.35527136788E-14  0.71054273576E-14  0.91188000000E+02  0.91188000000E+02 0.  0.
    9900012    2    3    3    0    0 -0.12995901847E+02 -0.18785324768E+02  0.33636052341E+02  0.50528857011E+02  0.29999991371E+02 0.  0.
        -12    1    3    3    0    0  0.12995901847E+02  0.18785324768E+02 -0.33636052341E+02  0.40659142989E+02  0.00000000000E+00 0.  1.
         11    1    4    4    0    0 -0.69685822231E+01 -0.13982217778E+01  0.55883024824E+01  0.90413100398E+01  0.51100000000E-03 0. -1.
        -11    1    4    4    0    0 -0.13784274247E+02 -0.12839314905E+02  0.26263092149E+02  0.32320337765E+02  0.51100000000E-03 0.  1.
        -12    1    4    4    0    0  0.77569546229E+01 -0.45477880853E+01  0.17846577101E+01  0.91672092063E+01  0.00000000000E+00 0.  1.
</event>
<event>
 8    1  0.5829710E-012  0.9118800E+02  0.7816164E-02  0.1184000E+00
        -11   -1    0    0    0    0  0.00000000000E+00  0.00000000000E+00  0.45593999997E+02  0.45594000000E+02  0.51100000000E-03 0. -1.
         11   -1    0    0    0    0 -0.00000000000E+00 -0.00000000000E+00 -0.45593999997E+02  0.45594000000E+02  0.51100000000E-03 0.  1.
         23    2    1    2    0    0  0.88817841970E-15  0.35527136788E-14 -0.71054273576E-14  0.91188000000E+02  0.91188000000E+02 0.  0.
    9900012    2    3    3    0    0 -0.44038562960E+01 -0.16671893897E+02  0.36821438229E+02  0.50528876674E+02  0.30000051138E+02 0.  0.
        -12    1    3    3    0    0  0.44038562960E+01  0.16671893897E+02 -0.36821438229E+02  0.40659123326E+02  0.00000000000E+00 0.  1.
         11    1    4    4    0    0 -0.42757968457E+01 -0.32498004371E+01  0.62690762387E+01  0.82549959839E+01  0.51100000000E-03 0. -1.
        -11    1    4    4    0    0 -0.72845458497E+01 -0.30095773834E+01 -0.13172855772E+01  0.79910828939E+01  0.51100000000E-03 0.  1.
         12    1    4    4    0    0  0.71564863995E+01 -0.10412516076E+02  0.31869647568E+02  0.34282797796E+02  0.00000000000E+00 0. -1.
</event>
<event>
 8    1  0.5829710E-012  0.9118800E+02  0.7816164E-02  0.1184000E+00
        -11   -1    0    0    0    0  0.00000000000E+00  0.00000000000E+00  0.45593999997E+02  0.45594000000E+02  0.51100000000E-03 0. -1.
         11   -1    0    0    0    0 -0.00000000000E+00 -0.00000000000E+00 -0.45593999997E+02  0.45594000000E+02  0.51100000000E-03 0.  1.
         23    2    1    2    0    0  0.00000000000E+00  0.17763568394E-14  0.00000000000E+00  0.91188000000E+02  0.91188000000E+02 0.  0.
    9900012    2    3    3    0    0  0.16023810323E+02  0.14405915632E+02 -0.34480035143E+02  0.50528859257E+02  0.29999998199E+02 0.  0.
         12    1    3    3    0    0 -0.16023810323E+02 -0.14405915632E+02  0.34480035143E+02  0.40659140743E+02  0.00000000000E+00 0. -1.
         11    1    4    4    0    0  0.50860759702E+01  0.28588725293E+01  0.14246063358E+01  0.60058991323E+01  0.51100000000E-03 0. -1.
        -11    1    4    4    0    0  0.46628771580E+01  0.11903825860E+02 -0.62887491983E+01  0.14247521197E+02  0.51100000000E-03 0.  1.
        -12    1    4    4    0    0  0.62748571943E+01 -0.35678275724E+00 -0.29615892281E+02  0.30275438929E+02  0.00000000000E+00 0.  1.
</event>
<event>
 8    1  0.5829710E-012  0.9118800E+02  0.7816164E-02  0.1184000E+00
        -11   -1    0    0    0    0  0.00000000000E+00  0.00000000000E+00  0.45593999997E+02  0.45594000000E+02  0.51100000000E-03 0. -1.
         11   -1    0    0    0    0 -0.00000000000E+00 -0.00000000000E+00 -0.45593999997E+02  0.45594000000E+02  0.51100000000E-03 0.  1.
         23    2    1    2    0    0  0.00000000000E+00  0.17763568394E-14  0.00000000000E+00  0.91188000000E+02  0.91188000000E+02 0.  0.
    9900012    2    3    3    0    0 -0.25535754120E+02  0.15661682024E+02 -0.27491900265E+02  0.50528836181E+02  0.29999928055E+02 0.  0.
         12    1    3    3    0    0  0.25535754120E+02 -0.15661682024E+02  0.27491900265E+02  0.40659163819E+02  0.00000000000E+00 0. -1.
         11    1    4    4    0    0  0.66038105685E+00  0.53771831041E+01 -0.91552672973E+01  0.10638097613E+02  0.51100000000E-03 0. -1.
        -11    1    4    4    0    0 -0.57482702939E+00 -0.11735652889E+01 -0.10733094129E+02  0.10812353649E+02  0.51100000000E-03 0.  1.
        -12    1    4    4    0    0 -0.25621308147E+02  0.11458064209E+02 -0.76035388390E+01  0.29078384919E+02  0.00000000000E+00 0.  1.
</event>
<event>
 8    1  0.5829710E-012  0.9118800E+02  0.7816164E-02  0.1184000E+00
        -11   -1    0    0    0    0  0.00000000000E+00  0.00000000000E+00  0.45593999997E+02  0.45594000000E+02  0.51100000000E-03 0. -1.
         11   -1    0    0    0    0 -0.00000000000E+00 -0.00000000000E+00 -0.45593999997E+02  0.45594000000E+02  0.51100000000E-03 0.  1.
         23    2    1    2    0    0 -0.17763568394E-14  0.00000000000E+00  0.35527136788E-14  0.91188000000E+02  0.91188000000E+02 0.  0.
    9900012    2    3    3    0    0 -0.13288289867E+02 -0.28970113625E+02  0.25245185497E+02  0.50528861767E+02  0.30000005828E+02 0.  0.
        -12    1    3    3    0    0  0.13288289867E+02  0.28970113625E+02 -0.25245185497E+02  0.40659138233E+02  0.00000000000E+00 0.  1.
         11    1    4    4    0    0 -0.13546929107E+01 -0.23170218344E+01  0.73730143800E+01  0.78463446503E+01  0.51100000000E-03 0.  1.
        -11    1    4    4    0    0 -0.85199265700E+01 -0.22508538970E+01  0.15627214528E+02  0.17940605513E+02  0.51100000000E-03 0. -1.
        -12    1    4    4    0    0 -0.34136703859E+01 -0.24402237894E+02  0.22449565895E+01  0.24741911604E+02  0.00000000000E+00 0.  1.
</event>
<event>
 8    1  0.5829710E-012  0.9118800E+02  0.7816164E-02  0.1184000E+00
        -11   -1    0    0    0    0  0.00000000000E+00  0.00000000000E+00  0.45593999997E+02  0.45594000000E+02  0.51100000000E-03 0. -1.
         11   -1    0    0    0    0 -0.00000000000E+00 -0.00000000000E+00 -0.45593999997E+02  0.45594000000E+02  0.51100000000E-03 0.  1.
         23    2    1    2    0    0  0.14210854715E-13  0.17763568394E-14  0.00000000000E+00  0.91188000000E+02  0.91188000000E+02 0.  0.
    9900012    2    3    3    0    0 -0.33655193993E+02 -0.14753904123E+02  0.17401608721E+02  0.50528858892E+02  0.29999997087E+02 0.  0.
        -12    1    3    3    0    0  0.33655193993E+02  0.14753904123E+02 -0.17401608721E+02  0.40659141108E+02  0.00000000000E+00 0.  1.
         11    1    4    4    0    0 -0.39771486425E+01  0.12653892800E+01  0.13368734537E+01  0.43824824297E+01  0.51100000000E-03 0. -1.
        -11    1    4    4    0    0 -0.32762035799E+02 -0.70279785930E+01  0.10415352785E+02  0.35088788048E+02  0.51100000000E-03 0.  1.
        -12    1    4    4    0    0  0.30839904479E+01 -0.89913148101E+01  0.56493824831E+01  0.11057588414E+02  0.00000000000E+00 0.  1.
</event>
<event>
 8    1  0.5829710E-012  0.9118800E+02  0.7816164E-02  0.1184000E+00
        -11   -1    0    0    0    0  0.00000000000E+00  0.00000000000E+00  0.45593999997E+02  0.45594000000E+02  0.51100000000E-03 0. -1.
         11   -1    0    0    0    0 -0.00000000000E+00 -0.00000000000E+00 -0.45593999997E+02  0.45594000000E+02  0.51100000000E-03 0.  1.
         23    2    1    2    0    0 -0.71054273576E-14  0.00000000000E+00  0.00000000000E+00  0.91188000000E+02  0.91188000000E+02 0.  0.
    9900012    2    3    3    0    0  0.33819014227E+02 -0.18062217962E+02  0.13535020687E+02  0.50528853108E+02  0.29999979507E+02 0.  0.
        -12    1    3    3    0    0 -0.33819014227E+02  0.18062217962E+02 -0.13535020687E+02  0.40659146892E+02  0.00000000000E+00 0.  1.
         11    1    4    4    0    0  0.29905657008E+01 -0.31612172888E+01 -0.39290980180E+01  0.58629846882E+01  0.51100000000E-03 0.  1.
        -11    1    4    4    0    0 -0.30422847293E+01  0.44234265750E+00 -0.88761507968E+00  0.31998475263E+01  0.51100000000E-03 0. -1.
         12    1    4    4    0    0  0.33870733255E+02 -0.15343343331E+02  0.18351733785E+02  0.41466020893E+02  0.00000000000E+00 0. -1.
</event>
<event>
 8    1  0.5829710E-012  0.9118800E+02  0.7816164E-02  0.1184000E+00
        -11   -1    0    0    0    0  0.00000000000E+00  0.00000000000E+00  0.45593999997E+02  0.45594000000E+02  0.51100000000E-03 0. -1.
         11   -1    0    0    0    0 -0.00000000000E+00 -0.00000000000E+00 -0.45593999997E+02  0.45594000000E+02  0.51100000000E-03 0.  1.
         23    2    1    2    0    0  0.17763568394E-14  0.00000000000E+00 -0.71054273576E-14  0.91188000000E+02  0.91188000000E+02 0.  0.
    9900012    2    3    3    0    0  0.80044340791E+01 -0.19477218647E+02 -0.34781194043E+02  0.50528874699E+02  0.30000045136E+02 0.  0.
         12    1    3    3    0    0 -0.80044340791E+01  0.19477218647E+02  0.34781194043E+02  0.40659125301E+02  0.00000000000E+00 0. -1.
         11    1    4    4    0    0 -0.34598240830E+00 -0.82468207038E+00 -0.23620950220E+02  0.23637874141E+02  0.51100000000E-03 0.  1.
        -11    1    4    4    0    0 -0.10336519810E+01 -0.31619747490E+01 -0.77876171253E+01  0.84683824597E+01  0.51100000000E-03 0. -1.
         12    1    4    4    0    0  0.93840684684E+01 -0.15490561828E+02 -0.33726266974E+01  0.18422618099E+02  0.00000000000E+00 0. -1.
</event>
<event>
 8    1  0.5829710E-012  0.9118800E+02  0.7816164E-02  0.1184000E+00
        -11   -1    0    0    0    0  0.00000000000E+00  0.00000000000E+00  0.45593999997E+02  0.45594000000E+02  0.51100000000E-03 0.  1.
         11   -1    0    0    0    0 -0.00000000000E+00 -0.00000000000E+00 -0.45593999997E+02  0.45594000000E+02  0.51100000000E-03 0. -1.
         23    2    1    2    0    0 -0.17763568394E-14  0.71054273576E-14  0.00000000000E+00  0.91188000000E+02  0.91188000000E+02 0.  0.
    9900012    2    3    3    0    0  0.15267961093E+02 -0.37106237123E+02 -0.65712698248E+01  0.50528867489E+02  0.30000023221E+02 0.  0.
         12    1    3    3    0    0 -0.15267961093E+02  0.37106237123E+02  0.65712698248E+01  0.40659132511E+02  0.00000000000E+00 0. -1.
         11    1    4    4    0    0 -0.52285058327E+01  0.46504848771E+00 -0.25336351372E+00  0.52552580022E+01  0.51100000000E-03 0. -1.
        -11    1    4    4    0    0  0.20669812467E+01 -0.36068807347E+01  0.34653837831E+01  0.54121054252E+01  0.51100000000E-03 0.  1.
         12    1    4    4    0    0  0.18429485679E+02 -0.33964404876E+02 -0.97832900941E+01  0.39861504062E+02  0.00000000000E+00 0. -1.
</event>
<event>
 8    1  0.5829710E-012  0.9118800E+02  0.7816164E-02  0.1184000E+00
        -11   -1    0    0    0    0  0.00000000000E+00  0.00000000000E+00  0.45593999997E+02  0.45594000000E+02  0.51100000000E-03 0.  1.
         11   -1    0    0    0    0 -0.00000000000E+00 -0.00000000000E+00 -0.45593999997E+02  0.45594000000E+02  0.51100000000E-03 0. -1.
         23    2    1    2    0    0  0.00000000000E+00  0.71054273576E-14  0.00000000000E+00  0.91188000000E+02  0.91188000000E+02 0.  0.
    9900012    2    3    3    0    0 -0.16875899894E+02 -0.36872310912E+02  0.29658609037E+01  0.50528934097E+02  0.30000225680E+02 0.  0.
         12    1    3    3    0    0  0.16875899894E+02  0.36872310912E+02 -0.29658609037E+01  0.40659065903E+02  0.00000000000E+00 0. -1.
         11    1    4    4    0    0 -0.90063300574E+01  0.45400714331E+00 -0.59842446827E+01  0.10822720927E+02  0.51100000000E-03 0. -1.
        -11    1    4    4    0    0 -0.12022312659E+01 -0.91925345599E+00  0.10984905155E+01  0.18700450815E+01  0.51100000000E-03 0.  1.
        -12    1    4    4    0    0 -0.66673385704E+01 -0.36407064599E+02  0.78516150709E+01  0.37836168088E+02  0.00000000000E+00 0.  1.
</event>
<event>
 8    1  0.5829710E-012  0.9118800E+02  0.7816164E-02  0.1184000E+00
        -11   -1    0    0    0    0  0.00000000000E+00  0.00000000000E+00  0.45593999997E+02  0.45594000000E+02  0.51100000000E-03 0. -1.
         11   -1    0    0    0    0 -0.00000000000E+00 -0.00000000000E+00 -0.45593999997E+02  0.45594000000E+02  0.51100000000E-03 0.  1.
         23    2    1    2    0    0  0.00000000000E+00  0.88817841970E-15  0.35527136788E-14  0.91188000000E+02  0.91188000000E+02 0.  0.
    9900012    2    3    3    0    0 -0.29788941260E+02  0.58004245644E+01  0.27058079905E+02  0.50528860380E+02  0.30000001610E+02 0.  0.
        -12    1    3    3    0    0  0.29788941260E+02 -0.58004245644E+01 -0.27058079905E+02  0.40659139620E+02  0.00000000000E+00 0.  1.
         11    1    4    4    0    0  0.11187977883E+01  0.51576298765E+01  0.10304552445E+01  0.53772383903E+01  0.51100000000E-03 0. -1.
        -11    1    4    4    0    0 -0.15459223304E+00  0.34409368871E+00  0.10848586852E+02  0.10855143305E+02  0.51100000000E-03 0.  1.
         12    1    4    4    0    0 -0.30753146816E+02  0.29870099923E+00  0.15179037808E+02  0.34296478684E+02  0.00000000000E+00 0. -1.
</event>
<event>
 8    1  0.5829710E-012  0.9118800E+02  0.7816164E-02  0.1184000E+00
        -11   -1    0    0    0    0  0.00000000000E+00  0.00000000000E+00  0.45593999997E+02  0.45594000000E+02  0.51100000000E-03 0. -1.
         11   -1    0    0    0    0 -0.00000000000E+00 -0.00000000000E+00 -0.45593999997E+02  0.45594000000E+02  0.51100000000E-03 0.  1.
         23    2    1    2    0    0  0.00000000000E+00  0.00000000000E+00  0.00000000000E+00  0.91188000000E+02  0.91188000000E+02 0.  0.
    9900012    2    3    3    0    0  0.10400433965E+02 -0.34074562972E+02  0.19593896622E+02  0.50528860152E+02  0.30000000917E+02 0.  0.
        -12    1    3    3    0    0 -0.10400433965E+02  0.34074562972E+02 -0.19593896622E+02  0.40659139848E+02  0.00000000000E+00 0.  1.
         11    1    4    4    0    0 -0.15308392642E+01 -0.55645431596E+01 -0.18696483335E+01  0.60665636550E+01  0.51100000000E-03 0. -1.
        -11    1    4    4    0    0  0.28810305528E+01  0.40686350869E+01  0.40854261651E+01  0.64455283513E+01  0.51100000000E-03 0.  1.
         12    1    4    4    0    0  0.90502426762E+01 -0.32578654899E+02  0.17378118790E+02  0.38016768145E+02  0.00000000000E+00 0. -1.
</event>
<event>
 8    1  0.5829710E-012  0.9118800E+02  0.7816164E-02  0.1184000E+00
        -11   -1    0    0    0    0  0.00000000000E+00  0.00000000000E+00  0.45593999997E+02  0.45594000000E+02  0.51100000000E-03 0. -1.
         11   -1    0    0    0    0 -0.00000000000E+00 -0.00000000000E+00 -0.45593999997E+02  0.45594000000E+02  0.51100000000E-03 0.  1.
         23    2    1    2    0    0  0.00000000000E+00  0.88817841970E-15  0.00000000000E+00  0.91188000000E+02  0.91188000000E+02 0.  0.
    9900012    2    3    3    0    0  0.37508702396E+02  0.42934169339E+01 -0.15094071892E+02  0.50528841245E+02  0.29999943448E+02 0.  0.
         12    1    3    3    0    0 -0.37508702396E+02 -0.42934169339E+01  0.15094071892E+02  0.40659158755E+02  0.00000000000E+00 0. -1.
         11    1    4    4    0    0  0.10726203311E+01  0.44254860868E+01 -0.60879348536E+01  0.76025254043E+01  0.51100000000E-03 0. -1.
        -11    1    4    4    0    0  0.56445807211E+01  0.68508102754E+01  0.26599604618E+01  0.92666219771E+01  0.51100000000E-03 0.  1.
        -12    1    4    4    0    0  0.30791501344E+02 -0.69828794283E+01 -0.11666097500E+02  0.33659693864E+02  0.00000000000E+00 0.  1.
</event>
<event>
 8    1  0.5829710E-012  0.9118800E+02  0.7816164E-02  0.1184000E+00
        -11   -1    0    0    0    0  0.00000000000E+00  0.00000000000E+00  0.45593999997E+02  0.45594000000E+02  0.51100000000E-03 0. -1.
         11   -1    0    0    0    0 -0.00000000000E+00 -0.00000000000E+00 -0.45593999997E+02  0.45594000000E+02  0.51100000000E-03 0.  1.
         23    2    1    2    0    0  0.00000000000E+00 -0.35527136788E-14 -0.71054273576E-14  0.91188000000E+02  0.91188000000E+02 0.  0.
    9900012    2    3    3    0    0  0.63267347659E+01 -0.26405939544E+02 -0.30263250776E+02  0.50528861254E+02  0.30000004269E+02 0.  0.
         12    1    3    3    0    0 -0.63267347659E+01  0.26405939544E+02  0.30263250776E+02  0.40659138746E+02  0.00000000000E+00 0. -1.
         11    1    4    4    0    0  0.89548083002E-01  0.58918974280E+00 -0.85812891254E+00  0.10447721780E+01  0.51100000000E-03 0. -1.
        -11    1    4    4    0    0  0.66484633019E+01 -0.25124526069E+01 -0.23143180515E+02  0.24209941904E+02  0.51100000000E-03 0.  1.
         12    1    4    4    0    0 -0.41127661893E+00 -0.24482676679E+02 -0.62619413490E+01  0.25274147173E+02  0.00000000000E+00 0. -1.
</event>
<event>
 8    1  0.5829710E-012  0.9118800E+02  0.7816164E-02  0.1184000E+00
        -11   -1    0    0    0    0  0.00000000000E+00  0.00000000000E+00  0.45593999997E+02  0.45594000000E+02  0.51100000000E-03 0. -1.
         11   -1    0    0    0    0 -0.00000000000E+00 -0.00000000000E+00 -0.45593999997E+02  0.45594000000E+02  0.51100000000E-03 0.  1.
         23    2    1    2    0    0  0.00000000000E+00  0.00000000000E+00  0.00000000000E+00  0.91188000000E+02  0.91188000000E+02 0.  0.
    9900012    2    3    3    0    0  0.19535947267E+02  0.32567383575E+02  0.14521642011E+02  0.50528858405E+02  0.29999995608E+02 0.  0.
        -12    1    3    3    0    0 -0.19535947267E+02 -0.32567383575E+02 -0.14521642011E+02  0.40659141595E+02  0.00000000000E+00 0.  1.
         11    1    4    4    0    0  0.11729010036E+01  0.24700572436E+02  0.10252590581E+02  0.26769564608E+02  0.51100000000E-03 0. -1.
        -11    1    4    4    0    0  0.15818816380E+02  0.11033603927E+02  0.31174433488E+01  0.19536985964E+02  0.51100000000E-03 0.  1.
        -12    1    4    4    0    0  0.25442298838E+01 -0.31667927880E+01  0.11516080814E+01  0.42223078330E+01  0.00000000000E+00 0.  1.
</event>
<event>
 8    1  0.5829710E-012  0.9118800E+02  0.7816164E-02  0.1184000E+00
        -11   -1    0    0    0    0  0.00000000000E+00  0.00000000000E+00  0.45593999997E+02  0.45594000000E+02  0.51100000000E-03 0. -1.
         11   -1    0    0    0    0 -0.00000000000E+00 -0.00000000000E+00 -0.45593999997E+02  0.45594000000E+02  0.51100000000E-03 0.  1.
         23    2    1    2    0    0  0.38857805862E-15  0.17763568394E-14  0.00000000000E+00  0.91188000000E+02  0.91188000000E+02 0.  0.
    9900012    2    3    3    0    0 -0.45668771924E+00 -0.13761707059E+02 -0.38256659097E+02  0.50528866831E+02  0.30000021218E+02 0.  0.
         12    1    3    3    0    0  0.45668771924E+00  0.13761707059E+02  0.38256659097E+02  0.40659133169E+02  0.00000000000E+00 0. -1.
         11    1    4    4    0    0  0.46428329171E+00 -0.14858865905E+01  0.63274773116E-01  0.15580185791E+01  0.51100000000E-03 0. -1.
        -11    1    4    4    0    0  0.11817660220E+02 -0.54371301218E+01 -0.28959716984E+02  0.31747199642E+02  0.51100000000E-03 0.  1.
         12    1    4    4    0    0 -0.12738631231E+02 -0.68386903467E+01 -0.93602168858E+01  0.17223648610E+02  0.00000000000E+00 0. -1.
</event>
<event>
 8    1  0.5829710E-012  0.9118800E+02  0.7816164E-02  0.1184000E+00
        -11   -1    0    0    0    0  0.00000000000E+00  0.00000000000E+00  0.45593999997E+02  0.45594000000E+02  0.51100000000E-03 0. -1.
         11   -1    0    0    0    0 -0.00000000000E+00 -0.00000000000E+00 -0.45593999997E+02  0.45594000000E+02  0.51100000000E-03 0.  1.
         23    2    1    2    0    0  0.17763568394E-14  0.00000000000E+00  0.00000000000E+00  0.91188000000E+02  0.91188000000E+02 0.  0.
    9900012    2    3    3    0    0  0.10448722368E+02  0.36006966801E+02  0.15731743602E+02  0.50528865552E+02  0.30000017332E+02 0.  0.
        -12    1    3    3    0    0 -0.10448722368E+02 -0.36006966801E+02 -0.15731743602E+02  0.40659134448E+02  0.00000000000E+00 0.  1.
         11    1    4    4    0    0  0.15610063767E+02  0.20164346866E+02  0.40746713151E+01  0.25823979591E+02  0.51100000000E-03 0. -1.
        -11    1    4    4    0    0 -0.49390345976E+01  0.80999166729E+01 -0.13335388379E+01  0.95802421137E+01  0.51100000000E-03 0.  1.
        -12    1    4    4    0    0 -0.22230680190E+00  0.77427032621E+01  0.12990611125E+02  0.15124643847E+02  0.00000000000E+00 0.  1.
</event>
<event>
 8    1  0.5829710E-012  0.9118800E+02  0.7816164E-02  0.1184000E+00
        -11   -1    0    0    0    0  0.00000000000E+00  0.00000000000E+00  0.45593999997E+02  0.45594000000E+02  0.51100000000E-03 0. -1.
         11   -1    0    0    0    0 -0.00000000000E+00 -0.00000000000E+00 -0.45593999997E+02  0.45594000000E+02  0.51100000000E-03 0.  1.
         23    2    1    2    0    0 -0.22204460493E-15  0.00000000000E+00  0.00000000000E+00  0.91188000000E+02  0.91188000000E+02 0.  0.
    9900012    2    3    3    0    0  0.18510317208E+01 -0.15040463263E+02 -0.37729629456E+02  0.50528846142E+02  0.29999958333E+02 0.  0.
         12    1    3    3    0    0 -0.18510317208E+01  0.15040463263E+02  0.37729629456E+02  0.40659153858E+02  0.00000000000E+00 0. -1.
         11    1    4    4    0    0 -0.44316308558E+01 -0.71285860976E+00 -0.94103231659E+01  0.10426010828E+02  0.51100000000E-03 0. -1.
        -11    1    4    4    0    0 -0.86467047585E+01 -0.84268971671E+01 -0.94747842561E+01  0.15347626396E+02  0.51100000000E-03 0.  1.
         12    1    4    4    0    0  0.14929367335E+02 -0.59007074863E+01 -0.18844522034E+02  0.24755208917E+02  0.00000000000E+00 0. -1.
</event>
<event>
 8    1  0.5829710E-012  0.9118800E+02  0.7816164E-02  0.1184000E+00
        -11   -1    0    0    0    0  0.00000000000E+00  0.00000000000E+00  0.45593999997E+02  0.45594000000E+02  0.51100000000E-03 0. -1.
         11   -1    0    0    0    0 -0.00000000000E+00 -0.00000000000E+00 -0.45593999997E+02  0.45594000000E+02  0.51100000000E-03 0.  1.
         23    2    1    2    0    0  0.17763568394E-14  0.66613381478E-15 -0.71054273576E-14  0.91188000000E+02  0.91188000000E+02 0.  0.
    9900012    2    3    3    0    0 -0.13674391118E+02  0.14576847116E+01  0.38262905692E+02  0.50528883321E+02  0.30000071342E+02 0.  0.
        -12    1    3    3    0    0  0.13674391118E+02 -0.14576847116E+01 -0.38262905692E+02  0.40659116679E+02  0.00000000000E+00 0.  1.
         11    1    4    4    0    0 -0.30187894061E+01  0.20614482146E+00  0.16116202921E+02  0.16397791986E+02  0.51100000000E-03 0. -1.
        -11    1    4    4    0    0 -0.20617711884E+01 -0.25394562145E+01  0.24279739451E+02  0.24499091541E+02  0.51100000000E-03 0.  1.
        -12    1    4    4    0    0 -0.85938305235E+01  0.37909961046E+01 -0.21330366803E+01  0.96319997930E+01  0.00000000000E+00 0.  1.
</event>
<event>
 8    1  0.5829710E-012  0.9118800E+02  0.7816164E-02  0.1184000E+00
        -11   -1    0    0    0    0  0.00000000000E+00  0.00000000000E+00  0.45593999997E+02  0.45594000000E+02  0.51100000000E-03 0. -1.
         11   -1    0    0    0    0 -0.00000000000E+00 -0.00000000000E+00 -0.45593999997E+02  0.45594000000E+02  0.51100000000E-03 0.  1.
         23    2    1    2    0    0  0.00000000000E+00  0.00000000000E+00  0.00000000000E+00  0.91188000000E+02  0.91188000000E+02 0.  0.
    9900012    2    3    3    0    0 -0.36143918694E+02 -0.54392357275E+01  0.17810031605E+02  0.50528863639E+02  0.30000011518E+02 0.  0.
        -12    1    3    3    0    0  0.36143918694E+02  0.54392357275E+01 -0.17810031605E+02  0.40659136361E+02  0.00000000000E+00 0.  1.
         11    1    4    4    0    0 -0.30390944013E+02 -0.49968920138E+01  0.13521197911E+02  0.33636307779E+02  0.51100000000E-03 0. -1.
        -11    1    4    4    0    0  0.24480832720E+01  0.54878071662E+01  0.30695587657E+00  0.60169229155E+01  0.51100000000E-03 0.  1.
         12    1    4    4    0    0 -0.82010579525E+01 -0.59301508799E+01  0.39818778173E+01  0.10875632945E+02  0.00000000000E+00 0. -1.
</event>
<event>
 8    1  0.5829710E-012  0.9118800E+02  0.7816164E-02  0.1184000E+00
        -11   -1    0    0    0    0  0.00000000000E+00  0.00000000000E+00  0.45593999997E+02  0.45594000000E+02  0.51100000000E-03 0. -1.
         11   -1    0    0    0    0 -0.00000000000E+00 -0.00000000000E+00 -0.45593999997E+02  0.45594000000E+02  0.51100000000E-03 0.  1.
         23    2    1    2    0    0  0.44408920985E-15  0.17763568394E-14  0.00000000000E+00  0.91188000000E+02  0.91188000000E+02 0.  0.
    9900012    2    3    3    0    0  0.12198659435E+01  0.97237389202E+01  0.39460441186E+02  0.50528860928E+02  0.30000003277E+02 0.  0.
        -12    1    3    3    0    0 -0.12198659435E+01 -0.97237389202E+01 -0.39460441186E+02  0.40659139072E+02  0.00000000000E+00 0.  1.
         11    1    4    4    0    0 -0.40617926612E+01 -0.65148449352E+00  0.46511258601E+01  0.62093126588E+01  0.51100000000E-03 0. -1.
        -11    1    4    4    0    0 -0.56445011522E+01  0.14274702959E+02  0.23834400283E+02  0.28349712079E+02  0.51100000000E-03 0.  1.
        -12    1    4    4    0    0  0.10926159757E+02 -0.38994795456E+01  0.10974915042E+02  0.15969836190E+02  0.00000000000E+00 0.  1.
</event>
<event>
 8    1  0.5829710E-012  0.9118800E+02  0.7816164E-02  0.1184000E+00
        -11   -1    0    0    0    0  0.00000000000E+00  0.00000000000E+00  0.45593999997E+02  0.45594000000E+02  0.51100000000E-03 0. -1.
         11   -1    0    0    0    0 -0.00000000000E+00 -0.00000000000E+00 -0.45593999997E+02  0.45594000000E+02  0.51100000000E-03 0.  1.
         23    2    1    2    0    0 -0.17763568394E-14  0.00000000000E+00  0.71054273576E-14  0.91188000000E+02  0.91188000000E+02 0.  0.
    9900012    2    3    3    0    0  0.11866919892E+02  0.18931436223E+02 -0.33969708219E+02  0.50528878739E+02  0.30000057416E+02 0.  0.
         12    1    3    3    0    0 -0.11866919892E+02 -0.18931436223E+02  0.33969708219E+02  0.40659121261E+02  0.00000000000E+00 0. -1.
         11    1    4    4    0    0  0.20362412968E+01  0.40976187692E+01 -0.70402373546E+01  0.83965290726E+01  0.51100000000E-03 0. -1.
        -11    1    4    4    0    0  0.43818225959E+01  0.22285594754E+02 -0.15774149127E+02  0.27652701201E+02  0.51100000000E-03 0.  1.
         12    1    4    4    0    0  0.54488559988E+01 -0.74517772994E+01 -0.11155321738E+02  0.14479648466E+02  0.00000000000E+00 0. -1.
</event>
<event>
 8    1  0.5829710E-012  0.9118800E+02  0.7816164E-02  0.1184000E+00
        -11   -1    0    0    0    0  0.00000000000E+00  0.00000000000E+00  0.45593999997E+02  0.45594000000E+02  0.51100000000E-03 0.  1.
         11   -1    0    0    0    0 -0.00000000000E+00 -0.00000000000E+00 -0.45593999997E+02  0.45594000000E+02  0.51100000000E-03 0. -1.
         23    2    1    2    0    0  0.00000000000E+00 -0.35527136788E-14 -0.35527136788E-14  0.91188000000E+02  0.91188000000E+02 0.  0.
    9900012    2    3    3    0    0  0.25361447047E+02  0.22375053256E+02  0.22568232745E+02  0.50528792756E+02  0.29999796059E+02 0.  0.
        -12    1    3    3    0    0 -0.25361447047E+02 -0.22375053256E+02 -0.22568232745E+02  0.40659207244E+02  0.00000000000E+00 0.  1.
         11    1    4    4    0    0 -0.31077594183E+01  0.88047444640E+00  0.15925508561E+01  0.36013361886E+01  0.51100000000E-03 0. -1.
        -11    1    4    4    0    0 -0.10578409774E+01  0.31212094967E+01  0.98928920995E+01  0.10427381772E+02  0.51100000000E-03 0.  1.
         12    1    4    4    0    0  0.29527047442E+02  0.18373369313E+02  0.11082789790E+02  0.36500074796E+02  0.00000000000E+00 0. -1.
</event>
<event>
 8    1  0.5829710E-012  0.9118800E+02  0.7816164E-02  0.1184000E+00
        -11   -1    0    0    0    0  0.00000000000E+00  0.00000000000E+00  0.45593999997E+02  0.45594000000E+02  0.51100000000E-03 0. -1.
         11   -1    0    0    0    0 -0.00000000000E+00 -0.00000000000E+00 -0.45593999997E+02  0.45594000000E+02  0.51100000000E-03 0.  1.
         23    2    1    2    0    0  0.00000000000E+00 -0.35527136788E-14 -0.17763568394E-14  0.91188000000E+02  0.91188000000E+02 0.  0.
    9900012    2    3    3    0    0 -0.23087596862E+02 -0.29403277851E+02  0.15986650092E+02  0.50528894520E+02  0.30000105383E+02 0.  0.
        -12    1    3    3    0    0  0.23087596862E+02  0.29403277851E+02 -0.15986650092E+02  0.40659105480E+02  0.00000000000E+00 0.  1.
         11    1    4    4    0    0 -0.20315129998E+02 -0.15474136302E+02  0.15781626015E+02  0.30020211876E+02  0.51100000000E-03 0. -1.
        -11    1    4    4    0    0 -0.56937037273E+01 -0.79969475216E+01  0.61771234659E+01  0.11598546735E+02  0.51100000000E-03 0.  1.
        -12    1    4    4    0    0  0.29212368633E+01 -0.59321940279E+01 -0.59720993896E+01  0.89101359089E+01  0.00000000000E+00 0.  1.
</event>
<event>
 8    1  0.5829710E-012  0.9118800E+02  0.7816164E-02  0.1184000E+00
        -11   -1    0    0    0    0  0.00000000000E+00  0.00000000000E+00  0.45593999997E+02  0.45594000000E+02  0.51100000000E-03 0. -1.
         11   -1    0    0    0    0 -0.00000000000E+00 -0.00000000000E+00 -0.45593999997E+02  0.45594000000E+02  0.51100000000E-03 0.  1.
         23    2    1    2    0    0  0.17763568394E-14 -0.44408920985E-15  0.00000000000E+00  0.91188000000E+02  0.91188000000E+02 0.  0.
    9900012    2    3    3    0    0  0.89271461744E+01 -0.30047405938E+01  0.39553041383E+02  0.50528862189E+02  0.30000007111E+02 0.  0.
        -12    1    3    3    0    0 -0.89271461744E+01  0.30047405938E+01 -0.39553041383E+02  0.40659137811E+02  0.00000000000E+00 0.  1.
         11    1    4    4    0    0 -0.10832468891E+01 -0.37821745291E+01  0.39009086937E+01  0.55403390590E+01  0.51100000000E-03 0.  1.
        -11    1    4    4    0    0  0.12645395797E+02  0.65804907585E+01  0.35883208459E+02  0.38611054674E+02  0.51100000000E-03 0. -1.
         12    1    4    4    0    0 -0.26350027332E+01 -0.58030568232E+01 -0.23107576980E+00  0.63774684561E+01  0.00000000000E+00 0. -1.
</event>
<event>
 8    1  0.5829710E-012  0.9118800E+02  0.7816164E-02  0.1184000E+00
        -11   -1    0    0    0    0  0.00000000000E+00  0.00000000000E+00  0.45593999997E+02  0.45594000000E+02  0.51100000000E-03 0. -1.
         11   -1    0    0    0    0 -0.00000000000E+00 -0.00000000000E+00 -0.45593999997E+02  0.45594000000E+02  0.51100000000E-03 0.  1.
         23    2    1    2    0    0  0.17763568394E-14  0.35527136788E-14  0.35527136788E-14  0.91188000000E+02  0.91188000000E+02 0.  0.
    9900012    2    3    3    0    0  0.14306446085E+02  0.26664577226E+02 -0.27156797244E+02  0.50528859395E+02  0.29999998617E+02 0.  0.
         12    1    3    3    0    0 -0.14306446085E+02 -0.26664577226E+02  0.27156797244E+02  0.40659140605E+02  0.00000000000E+00 0. -1.
         11    1    4    4    0    0  0.89118141377E+01  0.16396298544E+02 -0.10817576201E+02  0.21570326662E+02  0.51100000000E-03 0. -1.
        -11    1    4    4    0    0  0.59563408763E+00  0.14827269345E+02 -0.16686328778E+02  0.22330164902E+02  0.51100000000E-03 0.  1.
        -12    1    4    4    0    0  0.47989978593E+01 -0.45589906634E+01  0.34710773578E+00  0.66283678310E+01  0.00000000000E+00 0.  1.
</event>
<event>
 8    1  0.5829710E-012  0.9118800E+02  0.7816164E-02  0.1184000E+00
        -11   -1    0    0    0    0  0.00000000000E+00  0.00000000000E+00  0.45593999997E+02  0.45594000000E+02  0.51100000000E-03 0. -1.
         11   -1    0    0    0    0 -0.00000000000E+00 -0.00000000000E+00 -0.45593999997E+02  0.45594000000E+02  0.51100000000E-03 0.  1.
         23    2    1    2    0    0  0.88817841970E-15  0.00000000000E+00  0.00000000000E+00  0.91188000000E+02  0.91188000000E+02 0.  0.
    9900012    2    3    3    0    0  0.49765323026E+01 -0.16346158837E+02 -0.36894488928E+02  0.50528854710E+02  0.29999984377E+02 0.  0.
         12    1    3    3    0    0 -0.49765323026E+01  0.16346158837E+02  0.36894488928E+02  0.40659145290E+02  0.00000000000E+00 0. -1.
         11    1    4    4    0    0 -0.47252784228E+01  0.30704099285E+01 -0.14948390308E+02  0.15975294876E+02  0.51100000000E-03 0. -1.
        -11    1    4    4    0    0 -0.14677058646E+01  0.19137856838E+01 -0.90019262656E+00  0.25743121750E+01  0.51100000000E-03 0.  1.
         12    1    4    4    0    0  0.11169516590E+02 -0.21330354449E+02 -0.21045905993E+02  0.31979247659E+02  0.00000000000E+00 0. -1.
</event>
<event>
 8    1  0.5829710E-012  0.9118800E+02  0.7816164E-02  0.1184000E+00
        -11   -1    0    0    0    0  0.00000000000E+00  0.00000000000E+00  0.45593999997E+02  0.45594000000E+02  0.51100000000E-03 0. -1.
         11   -1    0    0    0    0 -0.00000000000E+00 -0.00000000000E+00 -0.45593999997E+02  0.45594000000E+02  0.51100000000E-03 0.  1.
         23    2    1    2    0    0  0.11102230246E-14  0.35527136788E-14  0.00000000000E+00  0.91188000000E+02  0.91188000000E+02 0.  0.
    9900012    2    3    3    0    0 -0.12033964881E+01  0.29309120140E+02 -0.28154807030E+02  0.50528857788E+02  0.29999993733E+02 0.  0.
         12    1    3    3    0    0  0.12033964881E+01 -0.29309120140E+02  0.28154807030E+02  0.40659142212E+02  0.00000000000E+00 0. -1.
         11    1    4    4    0    0  0.99211532193E+01  0.19986889407E+02 -0.21582592055E+02  0.31043732209E+02  0.51100000000E-03 0.  1.
        -11    1    4    4    0    0  0.15614726323E+01 -0.12892584014E+00 -0.28209465305E+01  0.32268495848E+01  0.51100000000E-03 0. -1.
        -12    1    4    4    0    0 -0.12686022340E+02  0.94511565730E+01 -0.37512684448E+01  0.16258275995E+02  0.00000000000E+00 0.  1.
</event>
<event>
 8    1  0.5829710E-012  0.9118800E+02  0.7816164E-02  0.1184000E+00
        -11   -1    0    0    0    0  0.00000000000E+00  0.00000000000E+00  0.45593999997E+02  0.45594000000E+02  0.51100000000E-03 0. -1.
         11   -1    0    0    0    0 -0.00000000000E+00 -0.00000000000E+00 -0.45593999997E+02  0.45594000000E+02  0.51100000000E-03 0.  1.
         23    2    1    2    0    0 -0.35527136788E-14 -0.71054273576E-14  0.00000000000E+00  0.91188000000E+02  0.91188000000E+02 0.  0.
    9900012    2    3    3    0    0 -0.19386378293E+02 -0.30955416544E+02 -0.17863280838E+02  0.50528852456E+02  0.29999977524E+02 0.  0.
         12    1    3    3    0    0  0.19386378293E+02  0.30955416544E+02  0.17863280838E+02  0.40659147544E+02  0.00000000000E+00 0. -1.
         11    1    4    4    0    0 -0.11531497872E+02 -0.88706161227E+01 -0.31480134000E+01  0.14885337154E+02  0.51100000000E-03 0. -1.
        -11    1    4    4    0    0 -0.97617807925E+01 -0.18252892596E+02 -0.40114706794E+00  0.20703172984E+02  0.51100000000E-03 0.  1.
         12    1    4    4    0    0  0.19069003707E+01 -0.38319078251E+01 -0.14314120370E+02  0.14940342318E+02  0.00000000000E+00 0. -1.
</event>
<event>
 8    1  0.5829710E-012  0.9118800E+02  0.7816164E-02  0.1184000E+00
        -11   -1    0    0    0    0  0.00000000000E+00  0.00000000000E+00  0.45593999997E+02  0.45594000000E+02  0.51100000000E-03 0.  1.
         11   -1    0    0    0    0 -0.00000000000E+00 -0.00000000000E+00 -0.45593999997E+02  0.45594000000E+02  0.51100000000E-03 0. -1.
         23    2    1    2    0    0  0.00000000000E+00  0.00000000000E+00  0.00000000000E+00  0.91188000000E+02  0.91188000000E+02 0.  0.
    9900012    2    3    3    0    0  0.17545538973E+02  0.33944119912E+02  0.13896672594E+02  0.50528846988E+02  0.29999960905E+02 0.  0.
        -12    1    3    3    0    0 -0.17545538973E+02 -0.33944119912E+02 -0.13896672594E+02  0.40659153012E+02  0.00000000000E+00 0.  1.
         11    1    4    4    0    0  0.53268945272E+00 -0.13913005399E+01 -0.58405798607E+00  0.16001872508E+01  0.51100000000E-03 0. -1.
        -11    1    4    4    0    0 -0.23766987044E+01 -0.14869988535E+00  0.75324834265E+01  0.78999440010E+01  0.51100000000E-03 0.  1.
         12    1    4    4    0    0  0.19389548225E+02  0.35484120337E+02  0.69482471534E+01  0.41028715736E+02  0.00000000000E+00 0. -1.
</event>
<event>
 8    1  0.5829710E-012  0.9118800E+02  0.7816164E-02  0.1184000E+00
        -11   -1    0    0    0    0  0.00000000000E+00  0.00000000000E+00  0.45593999997E+02  0.45594000000E+02  0.51100000000E-03 0. -1.
         11   -1    0    0    0    0 -0.00000000000E+00 -0.00000000000E+00 -0.45593999997E+02  0.45594000000E+02  0.51100000000E-03 0.  1.
         23    2    1    2    0    0 -0.71054273576E-14  0.00000000000E+00  0.00000000000E+00  0.91188000000E+02  0.91188000000E+02 0.  0.
    9900012    2    3    3    0    0 -0.37265734507E+02  0.15281080357E+02 -0.55605856617E+01  0.50528849762E+02  0.29999969336E+02 0.  0.
         12    1    3    3    0    0  0.37265734507E+02 -0.15281080357E+02  0.55605856617E+01  0.40659150238E+02  0.00000000000E+00 0. -1.
         11    1    4    4    0    0 -0.32242297166E+02  0.58020193439E+01 -0.66410567176E+01  0.33426528232E+02  0.51100000000E-03 0.  1.
        -11    1    4    4    0    0 -0.95816494633E+01  0.70956122700E+01  0.65063069333E+00  0.11940646569E+02  0.51100000000E-03 0. -1.
         12    1    4    4    0    0  0.45582121230E+01  0.23834487428E+01  0.42984036260E+00  0.51616749612E+01  0.00000000000E+00 0. -1.
</event>
<event>
 8    1  0.5829710E-012  0.9118800E+02  0.7816164E-02  0.1184000E+00
        -11   -1    0    0    0    0  0.00000000000E+00  0.00000000000E+00  0.45593999997E+02  0.45594000000E+02  0.51100000000E-03 0. -1.
         11   -1    0    0    0    0 -0.00000000000E+00 -0.00000000000E+00 -0.45593999997E+02  0.45594000000E+02  0.51100000000E-03 0.  1.
         23    2    1    2    0    0  0.88817841970E-15  0.00000000000E+00  0.00000000000E+00  0.91188000000E+02  0.91188000000E+02 0.  0.
    9900012    2    3    3    0    0 -0.77574198604E+01 -0.32608929908E+01 -0.39778818929E+02  0.50528863003E+02  0.30000009584E+02 0.  0.
         12    1    3    3    0    0  0.77574198604E+01  0.32608929908E+01  0.39778818929E+02  0.40659136997E+02  0.00000000000E+00 0. -1.
         11    1    4    4    0    0 -0.82283761618E+01 -0.75108709786E+01 -0.14019204073E+02  0.17906910404E+02  0.51100000000E-03 0. -1.
        -11    1    4    4    0    0 -0.26545322084E+01  0.21593985546E+01 -0.28024283384E+02  0.28232428213E+02  0.51100000000E-03 0.  1.
         12    1    4    4    0    0  0.31254885099E+01  0.20905794332E+01  0.22646685281E+01  0.43895243859E+01  0.00000000000E+00 0. -1.
</event>
<event>
 8    1  0.5829710E-012  0.9118800E+02  0.7816164E-02  0.1184000E+00
        -11   -1    0    0    0    0  0.00000000000E+00  0.00000000000E+00  0.45593999997E+02  0.45594000000E+02  0.51100000000E-03 0. -1.
         11   -1    0    0    0    0 -0.00000000000E+00 -0.00000000000E+00 -0.45593999997E+02  0.45594000000E+02  0.51100000000E-03 0.  1.
         23    2    1    2    0    0  0.00000000000E+00  0.00000000000E+00  0.00000000000E+00  0.91188000000E+02  0.91188000000E+02 0.  0.
    9900012    2    3    3    0    0  0.75644202909E+01  0.20720849996E+02  0.34155435700E+02  0.50528832931E+02  0.29999918176E+02 0.  0.
        -12    1    3    3    0    0 -0.75644202909E+01 -0.20720849996E+02 -0.34155435700E+02  0.40659167069E+02  0.00000000000E+00 0.  1.
         11    1    4    4    0    0  0.10538686620E+02  0.17324999277E+02  0.81426278776E+01  0.21852274587E+02  0.51100000000E-03 0. -1.
        -11    1    4    4    0    0  0.32735572124E+01 -0.16373938326E+00  0.25977638510E+01  0.41822678889E+01  0.51100000000E-03 0.  1.
         12    1    4    4    0    0 -0.62478235411E+01  0.35595901026E+01  0.23415043972E+02  0.24494290455E+02  0.00000000000E+00 0. -1.
</event>
<event>
 8    1  0.5829710E-012  0.9118800E+02  0.7816164E-02  0.1184000E+00
        -11   -1    0    0    0    0  0.00000000000E+00  0.00000000000E+00  0.45593999997E+02  0.45594000000E+02  0.51100000000E-03 0. -1.
         11   -1    0    0    0    0 -0.00000000000E+00 -0.00000000000E+00 -0.45593999997E+02  0.45594000000E+02  0.51100000000E-03 0.  1.
         23    2    1    2    0    0  0.88817841970E-15 -0.17763568394E-14  0.71054273576E-14  0.91188000000E+02  0.91188000000E+02 0.  0.
    9900012    2    3    3    0    0  0.52419215097E+01 -0.11083837390E+02  0.38766345040E+02  0.50528945656E+02  0.30000260814E+02 0.  0.
        -12    1    3    3    0    0 -0.52419215097E+01  0.11083837390E+02 -0.38766345040E+02  0.40659054344E+02  0.00000000000E+00 0.  1.
         11    1    4    4    0    0 -0.27631027376E+01 -0.76382639292E+01  0.11508977176E+02  0.14086673436E+02  0.51100000000E-03 0. -1.
        -11    1    4    4    0    0  0.95073457524E+01 -0.71246694834E+01  0.35436925172E+01  0.12397914963E+02  0.51100000000E-03 0.  1.
        -12    1    4    4    0    0 -0.15023215052E+01  0.36790960228E+01  0.23713675347E+02  0.24044357258E+02  0.00000000000E+00 0.  1.
</event>
<event>
 8    1  0.5829710E-012  0.9118800E+02  0.7816164E-02  0.1184000E+00
        -11   -1    0    0    0    0  0.00000000000E+00  0.00000000000E+00  0.45593999997E+02  0.45594000000E+02  0.51100000000E-03 0. -1.
         11   -1    0    0    0    0 -0.00000000000E+00 -0.00000000000E+00 -0.45593999997E+02  0.45594000000E+02  0.51100000000E-03 0.  1.
         23    2    1    2    0    0  0.00000000000E+00  0.17763568394E-14 -0.71054273576E-14  0.91188000000E+02  0.91188000000E+02 0.  0.
    9900012    2    3    3    0    0  0.30515413740E+02 -0.12699370503E+02  0.23679131628E+02  0.50528858819E+02  0.29999996866E+02 0.  0.
        -12    1    3    3    0    0 -0.30515413740E+02  0.12699370503E+02 -0.23679131628E+02  0.40659141181E+02  0.00000000000E+00 0.  1.
         11    1    4    4    0    0  0.11091344059E+02 -0.90270782335E+01  0.14983527178E+02  0.20712608272E+02  0.51100000000E-03 0. -1.
        -11    1    4    4    0    0  0.16304149084E+02 -0.11327222166E+02  0.83657165581E+01  0.21543362160E+02  0.51100000000E-03 0.  1.
        -12    1    4    4    0    0  0.31199205977E+01  0.76549298964E+01  0.32988789230E+00  0.82728883877E+01  0.00000000000E+00 0.  1.
</event>
<event>
 8    1  0.5829710E-012  0.9118800E+02  0.7816164E-02  0.1184000E+00
        -11   -1    0    0    0    0  0.00000000000E+00  0.00000000000E+00  0.45593999997E+02  0.45594000000E+02  0.51100000000E-03 0. -1.
         11   -1    0    0    0    0 -0.00000000000E+00 -0.00000000000E+00 -0.45593999997E+02  0.45594000000E+02  0.51100000000E-03 0.  1.
         23    2    1    2    0    0 -0.17763568394E-14  0.11102230246E-15  0.71054273576E-14  0.91188000000E+02  0.91188000000E+02 0.  0.
    9900012    2    3    3    0    0 -0.10549872946E+02 -0.65994313796E+00 -0.39261070337E+02  0.50528843736E+02  0.29999951019E+02 0.  0.
         12    1    3    3    0    0  0.10549872946E+02  0.65994313796E+00  0.39261070337E+02  0.40659156264E+02  0.00000000000E+00 0. -1.
         11    1    4    4    0    0 -0.10283225792E+02  0.63601039833E+01 -0.18530631137E+02  0.22126453533E+02  0.51100000000E-03 0. -1.
        -11    1    4    4    0    0 -0.60081874623E+01  0.34879997437E+01 -0.10822589006E+02  0.12860516780E+02  0.51100000000E-03 0.  1.
         12    1    4    4    0    0  0.57415403074E+01 -0.10508046865E+02 -0.99078501940E+01  0.15541873423E+02  0.00000000000E+00 0. -1.
</event>
<event>
 8    1  0.5829710E-012  0.9118800E+02  0.7816164E-02  0.1184000E+00
        -11   -1    0    0    0    0  0.00000000000E+00  0.00000000000E+00  0.45593999997E+02  0.45594000000E+02  0.51100000000E-03 0. -1.
         11   -1    0    0    0    0 -0.00000000000E+00 -0.00000000000E+00 -0.45593999997E+02  0.45594000000E+02  0.51100000000E-03 0.  1.
         23    2    1    2    0    0  0.00000000000E+00  0.00000000000E+00  0.35527136788E-14  0.91188000000E+02  0.91188000000E+02 0.  0.
    9900012    2    3    3    0    0  0.23797039489E+02  0.12035827865E+02  0.30692098689E+02  0.50528866183E+02  0.30000019249E+02 0.  0.
        -12    1    3    3    0    0 -0.23797039489E+02 -0.12035827865E+02 -0.30692098689E+02  0.40659133817E+02  0.00000000000E+00 0.  1.
         11    1    4    4    0    0  0.11313709107E+02  0.11015358910E+02  0.69364880280E+01  0.17246826146E+02  0.51100000000E-03 0. -1.
        -11    1    4    4    0    0 -0.41456164919E+01 -0.33568755017E+01  0.23603665139E+01  0.58331877711E+01  0.51100000000E-03 0.  1.
         12    1    4    4    0    0  0.16628946874E+02  0.43773444571E+01  0.21395244147E+02  0.27448852266E+02  0.00000000000E+00 0. -1.
</event>
<event>
 8    1  0.5925590E-012  0.9118800E+02  0.7816164E-02  0.1184000E+00
        -11   -1    0    0    0    0  0.00000000000E+00  0.00000000000E+00  0.45593999997E+02  0.45594000000E+02  0.51100000000E-03 0. -1.
         11   -1    0    0    0    0 -0.00000000000E+00 -0.00000000000E+00 -0.45593999997E+02  0.45594000000E+02  0.51100000000E-03 0.  1.
         23    2    1    2    0    0  0.35527136788E-14 -0.35527136788E-14  0.35527136788E-14  0.91188000000E+02  0.91188000000E+02 0.  0.
    9900012    2    3    3    0    0  0.21222969369E+02 -0.24959087374E+02 -0.24078941710E+02  0.50528857052E+02  0.29999991496E+02 0.  0.
         12    1    3    3    0    0 -0.21222969369E+02  0.24959087374E+02  0.24078941710E+02  0.40659142948E+02  0.00000000000E+00 0. -1.
         11    1    4    4    0    0  0.94373200906E+01 -0.92893262835E+01 -0.20178271372E+02  0.24135393701E+02  0.51100000000E-03 0. -1.
        -11    1    4    4    0    0  0.43766262792E+01 -0.89464504921E+01 -0.10449741628E+02  0.14435751950E+02  0.51100000000E-03 0.  1.
         12    1    4    4    0    0  0.74090229990E+01 -0.67233105981E+01  0.65490712898E+01  0.11957711401E+02  0.00000000000E+00 0. -1.
</event>
<event>
 8    1  0.5829710E-012  0.9118800E+02  0.7816164E-02  0.1184000E+00
        -11   -1    0    0    0    0  0.00000000000E+00  0.00000000000E+00  0.45593999997E+02  0.45594000000E+02  0.51100000000E-03 0. -1.
         11   -1    0    0    0    0 -0.00000000000E+00 -0.00000000000E+00 -0.45593999997E+02  0.45594000000E+02  0.51100000000E-03 0.  1.
         23    2    1    2    0    0 -0.13322676296E-14 -0.26645352591E-14 -0.71054273576E-14  0.91188000000E+02  0.91188000000E+02 0.  0.
    9900012    2    3    3    0    0  0.33742413213E+01  0.55254569205E+01  0.40140367454E+02  0.50528864765E+02  0.30000014940E+02 0.  0.
        -12    1    3    3    0    0 -0.33742413213E+01 -0.55254569205E+01 -0.40140367454E+02  0.40659135235E+02  0.00000000000E+00 0.  1.
         11    1    4    4    0    0  0.43717362663E+01  0.55120556584E+01  0.43849514583E+01  0.82899116470E+01  0.51100000000E-03 0. -1.
        -11    1    4    4    0    0  0.16613209920E+01  0.10974978521E+02  0.19801937559E+02  0.22700812151E+02  0.51100000000E-03 0.  1.
        -12    1    4    4    0    0 -0.26588159370E+01 -0.10961577259E+02  0.15953478437E+02  0.19538140967E+02  0.00000000000E+00 0.  1.
</event>
<event>
 8    1  0.5829710E-012  0.9118800E+02  0.7816164E-02  0.1184000E+00
        -11   -1    0    0    0    0  0.00000000000E+00  0.00000000000E+00  0.45593999997E+02  0.45594000000E+02  0.51100000000E-03 0. -1.
         11   -1    0    0    0    0 -0.00000000000E+00 -0.00000000000E+00 -0.45593999997E+02  0.45594000000E+02  0.51100000000E-03 0.  1.
         23    2    1    2    0    0  0.17763568394E-14 -0.33306690739E-15  0.00000000000E+00  0.91188000000E+02  0.91188000000E+02 0.  0.
    9900012    2    3    3    0    0 -0.12907455864E+02  0.65336545317E+00  0.38550442185E+02  0.50528857166E+02  0.29999991842E+02 0.  0.
        -12    1    3    3    0    0  0.12907455864E+02 -0.65336545317E+00 -0.38550442185E+02  0.40659142834E+02  0.00000000000E+00 0.  1.
         11    1    4    4    0    0 -0.12557429135E+02 -0.76522089397E+01  0.15979630783E+02  0.21716213491E+02  0.51100000000E-03 0. -1.
        -11    1    4    4    0    0 -0.65417330961E+01  0.48957119104E+01  0.43237259768E+01  0.92442887013E+01  0.51100000000E-03 0.  1.
         12    1    4    4    0    0  0.61917063668E+01  0.34098624825E+01  0.18247085425E+02  0.19568354974E+02  0.00000000000E+00 0. -1.
</event>
<event>
 8    1  0.5829710E-012  0.9118800E+02  0.7816164E-02  0.1184000E+00
        -11   -1    0    0    0    0  0.00000000000E+00  0.00000000000E+00  0.45593999997E+02  0.45594000000E+02  0.51100000000E-03 0.  1.
         11   -1    0    0    0    0 -0.00000000000E+00 -0.00000000000E+00 -0.45593999997E+02  0.45594000000E+02  0.51100000000E-03 0. -1.
         23    2    1    2    0    0  0.00000000000E+00  0.00000000000E+00 -0.17763568394E-14  0.91188000000E+02  0.91188000000E+02 0.  0.
    9900012    2    3    3    0    0  0.40282804611E+02 -0.30921223779E+01  0.45716676795E+01  0.50528859410E+02  0.29999998662E+02 0.  0.
        -12    1    3    3    0    0 -0.40282804611E+02  0.30921223779E+01 -0.45716676795E+01  0.40659140590E+02  0.00000000000E+00 0.  1.
         11    1    4    4    0    0  0.93840928339E-01  0.39082269532E+01 -0.49961194058E+01  0.63438358598E+01  0.51100000000E-03 0. -1.
        -11    1    4    4    0    0  0.76471933824E+00  0.24055716035E+01 -0.66015884093E-01  0.25250601505E+01  0.51100000000E-03 0.  1.
         12    1    4    4    0    0  0.39424244345E+02 -0.94059209346E+01  0.96338029695E+01  0.41659963399E+02  0.00000000000E+00 0. -1.
</event>
<event>
 8    1  0.5829710E-012  0.9118800E+02  0.7816164E-02  0.1184000E+00
        -11   -1    0    0    0    0  0.00000000000E+00  0.00000000000E+00  0.45593999997E+02  0.45594000000E+02  0.51100000000E-03 0. -1.
         11   -1    0    0    0    0 -0.00000000000E+00 -0.00000000000E+00 -0.45593999997E+02  0.45594000000E+02  0.51100000000E-03 0.  1.
         23    2    1    2    0    0 -0.71054273576E-14 -0.35527136788E-14 -0.17763568394E-14  0.91188000000E+02  0.91188000000E+02 0.  0.
    9900012    2    3    3    0    0  0.31531625463E+02  0.24164477313E+02  0.86602737342E+01  0.50528859462E+02  0.29999998820E+02 0.  0.
        -12    1    3    3    0    0 -0.31531625463E+02 -0.24164477313E+02 -0.86602737342E+01  0.40659140538E+02  0.00000000000E+00 0.  1.
         11    1    4    4    0    0  0.10196307065E+02  0.18841204820E+02  0.55917456414E+01  0.22140986799E+02  0.51100000000E-03 0. -1.
        -11    1    4    4    0    0 -0.19210546720E+01  0.36757950172E+01  0.29207672261E+01  0.50727508821E+01  0.51100000000E-03 0.  1.
         12    1    4    4    0    0  0.23256373070E+02  0.16474774759E+01  0.14776086678E+00  0.23315121781E+02  0.00000000000E+00 0. -1.
</event>
<event>
 8    1  0.5829710E-012  0.9118800E+02  0.7816164E-02  0.1184000E+00
        -11   -1    0    0    0    0  0.00000000000E+00  0.00000000000E+00  0.45593999997E+02  0.45594000000E+02  0.51100000000E-03 0. -1.
         11   -1    0    0    0    0 -0.00000000000E+00 -0.00000000000E+00 -0.45593999997E+02  0.45594000000E+02  0.51100000000E-03 0.  1.
         23    2    1    2    0    0  0.71054273576E-14  0.00000000000E+00  0.00000000000E+00  0.91188000000E+02  0.91188000000E+02 0.  0.
    9900012    2    3    3    0    0  0.32292957988E+02 -0.46495593072E+01  0.24263394779E+02  0.50528857565E+02  0.29999993054E+02 0.  0.
        -12    1    3    3    0    0 -0.32292957988E+02  0.46495593072E+01 -0.24263394779E+02  0.40659142435E+02  0.00000000000E+00 0.  1.
         11    1    4    4    0    0  0.81112647733E+01  0.75517582016E+01  0.12137232249E+02  0.16435755994E+02  0.51100000000E-03 0. -1.
        -11    1    4    4    0    0  0.23953274818E+02 -0.60417873715E+01  0.12920539743E+02  0.27878359289E+02  0.51100000000E-03 0.  1.
         12    1    4    4    0    0  0.22841839695E+00 -0.61595301374E+01 -0.79437721287E+00  0.62147422821E+01  0.00000000000E+00 0. -1.
</event>
<event>
 8    1  0.5829710E-012  0.9118800E+02  0.7816164E-02  0.1184000E+00
        -11   -1    0    0    0    0  0.00000000000E+00  0.00000000000E+00  0.45593999997E+02  0.45594000000E+02  0.51100000000E-03 0. -1.
         11   -1    0    0    0    0 -0.00000000000E+00 -0.00000000000E+00 -0.45593999997E+02  0.45594000000E+02  0.51100000000E-03 0.  1.
         23    2    1    2    0    0  0.44408920985E-15 -0.71054273576E-14  0.00000000000E+00  0.91188000000E+02  0.91188000000E+02 0.  0.
    9900012    2    3    3    0    0  0.39882441455E+01  0.39239799700E+02  0.98740849148E+01  0.50528861731E+02  0.30000005717E+02 0.  0.
        -12    1    3    3    0    0 -0.39882441455E+01 -0.39239799700E+02 -0.98740849148E+01  0.40659138269E+02  0.00000000000E+00 0.  1.
         11    1    4    4    0    0  0.85897793431E+01  0.15847143400E+02  0.41995579766E+01  0.18508175236E+02  0.51100000000E-03 0. -1.
        -11    1    4    4    0    0  0.41768995562E+01  0.22213874423E+02  0.49117866977E+01  0.23130679964E+02  0.51100000000E-03 0.  1.
         12    1    4    4    0    0 -0.87784347539E+01  0.11787818778E+01  0.76274024058E+00  0.88900065308E+01  0.00000000000E+00 0. -1.
</event>
<event>
 8    1  0.5829710E-012  0.9118800E+02  0.7816164E-02  0.1184000E+00
        -11   -1    0    0    0    0  0.00000000000E+00  0.00000000000E+00  0.45593999997E+02  0.45594000000E+02  0.51100000000E-03 0. -1.
         11   -1    0    0    0    0 -0.00000000000E+00 -0.00000000000E+00 -0.45593999997E+02  0.45594000000E+02  0.51100000000E-03 0.  1.
         23    2    1    2    0    0  0.00000000000E+00  0.00000000000E+00  0.71054273576E-14  0.91188000000E+02  0.91188000000E+02 0.  0.
    9900012    2    3    3    0    0 -0.84515135867E+01  0.12553474092E+02  0.37737883795E+02  0.50528859981E+02  0.30000000400E+02 0.  0.
        -12    1    3    3    0    0  0.84515135867E+01 -0.12553474092E+02 -0.37737883795E+02  0.40659140019E+02  0.00000000000E+00 0.  1.
         11    1    4    4    0    0  0.54678040359E+01 -0.11849473589E+01  0.29985463019E+01  0.63476185616E+01  0.51100000000E-03 0. -1.
        -11    1    4    4    0    0 -0.33022687156E+01  0.10742973043E+02  0.30251458058E+02  0.32271770378E+02  0.51100000000E-03 0.  1.
        -12    1    4    4    0    0 -0.10617048907E+02  0.29954484083E+01  0.44878794357E+01  0.11909471041E+02  0.00000000000E+00 0.  1.
</event>
<event>
 8    1  0.5829710E-012  0.9118800E+02  0.7816164E-02  0.1184000E+00
        -11   -1    0    0    0    0  0.00000000000E+00  0.00000000000E+00  0.45593999997E+02  0.45594000000E+02  0.51100000000E-03 0. -1.
         11   -1    0    0    0    0 -0.00000000000E+00 -0.00000000000E+00 -0.45593999997E+02  0.45594000000E+02  0.51100000000E-03 0.  1.
         23    2    1    2    0    0 -0.17763568394E-14  0.35527136788E-14  0.71054273576E-14  0.91188000000E+02  0.91188000000E+02 0.  0.
    9900012    2    3    3    0    0  0.91772015825E+01  0.19757466997E+02 -0.34330555908E+02  0.50528860806E+02  0.30000002906E+02 0.  0.
         12    1    3    3    0    0 -0.91772015825E+01 -0.19757466997E+02  0.34330555908E+02  0.40659139194E+02  0.00000000000E+00 0. -1.
         11    1    4    4    0    0  0.11705534302E+02  0.11771903161E+02 -0.33679702953E+02  0.37548896503E+02  0.51100000000E-03 0. -1.
        -11    1    4    4    0    0  0.14288894473E+01  0.86620679613E+01 -0.14173735437E+01  0.88928113914E+01  0.51100000000E-03 0.  1.
        -12    1    4    4    0    0 -0.39572221670E+01 -0.67650412563E+00  0.76652058854E+00  0.40871529117E+01  0.00000000000E+00 0.  1.
</event>
<event>
 8    1  0.5829710E-012  0.9118800E+02  0.7816164E-02  0.1184000E+00
        -11   -1    0    0    0    0  0.00000000000E+00  0.00000000000E+00  0.45593999997E+02  0.45594000000E+02  0.51100000000E-03 0. -1.
         11   -1    0    0    0    0 -0.00000000000E+00 -0.00000000000E+00 -0.45593999997E+02  0.45594000000E+02  0.51100000000E-03 0.  1.
         23    2    1    2    0    0  0.71054273576E-14 -0.44408920985E-15  0.35527136788E-14  0.91188000000E+02  0.91188000000E+02 0.  0.
    9900012    2    3    3    0    0  0.26369496939E+02 -0.26209312983E+01  0.30837427884E+02  0.50528848408E+02  0.29999965221E+02 0.  0.
        -12    1    3    3    0    0 -0.26369496939E+02  0.26209312983E+01 -0.30837427884E+02  0.40659151592E+02  0.00000000000E+00 0.  1.
         11    1    4    4    0    0  0.17536240378E+02 -0.63396725606E+01  0.11879491993E+02  0.22109579486E+02  0.51100000000E-03 0. -1.
        -11    1    4    4    0    0  0.11014101818E+02 -0.30110865951E+01  0.44060097273E+01  0.12238872633E+02  0.51100000000E-03 0.  1.
        -12    1    4    4    0    0 -0.21808452566E+01  0.67298278575E+01  0.14551926164E+02  0.16180396290E+02  0.00000000000E+00 0.  1.
</event>
<event>
 8    1  0.5829710E-012  0.9118800E+02  0.7816164E-02  0.1184000E+00
        -11   -1    0    0    0    0  0.00000000000E+00  0.00000000000E+00  0.45593999997E+02  0.45594000000E+02  0.51100000000E-03 0. -1.
         11   -1    0    0    0    0 -0.00000000000E+00 -0.00000000000E+00 -0.45593999997E+02  0.45594000000E+02  0.51100000000E-03 0.  1.
         23    2    1    2    0    0  0.00000000000E+00  0.00000000000E+00  0.00000000000E+00  0.91188000000E+02  0.91188000000E+02 0.  0.
    9900012    2    3    3    0    0  0.29007265942E+02 -0.93970294146E+01 -0.26896835493E+02  0.50528863280E+02  0.30000010427E+02 0.  0.
         12    1    3    3    0    0 -0.29007265942E+02  0.93970294146E+01  0.26896835493E+02  0.40659136720E+02  0.00000000000E+00 0. -1.
         11    1    4    4    0    0  0.13419390558E+02  0.72024439335E+01 -0.13274186708E+02  0.20202952126E+02  0.51100000000E-03 0. -1.
        -11    1    4    4    0    0 -0.83303474859E+00 -0.25885059919E+01 -0.73654003911E+01  0.78513332209E+01  0.51100000000E-03 0.  1.
        -12    1    4    4    0    0  0.16420910133E+02 -0.14010967356E+02 -0.62572483933E+01  0.22474577934E+02  0.00000000000E+00 0.  1.
</event>
<event>
 8    1  0.5829710E-012  0.9118800E+02  0.7816164E-02  0.1184000E+00
        -11   -1    0    0    0    0  0.00000000000E+00  0.00000000000E+00  0.45593999997E+02  0.45594000000E+02  0.51100000000E-03 0.  1.
         11   -1    0    0    0    0 -0.00000000000E+00 -0.00000000000E+00 -0.45593999997E+02  0.45594000000E+02  0.51100000000E-03 0. -1.
         23    2    1    2    0    0  0.00000000000E+00  0.00000000000E+00  0.00000000000E+00  0.91188000000E+02  0.91188000000E+02 0.  0.
    9900012    2    3    3    0    0 -0.10194916610E+02  0.38102375688E+02  0.98713934310E+01  0.50528784980E+02  0.29999772424E+02 0.  0.
         12    1    3    3    0    0  0.10194916610E+02 -0.38102375688E+02 -0.98713934310E+01  0.40659215020E+02  0.00000000000E+00 0. -1.
         11    1    4    4    0    0  0.60694163942E+01  0.70960352004E+01  0.78839158918E+01  0.12220788067E+02  0.51100000000E-03 0. -1.
        -11    1    4    4    0    0 -0.11765012021E+02  0.71192006933E+01  0.25911975195E+01  0.13993313804E+02  0.51100000000E-03 0.  1.
        -12    1    4    4    0    0 -0.44993209834E+01  0.23887139795E+02 -0.60371998033E+00  0.24314683109E+02  0.00000000000E+00 0.  1.
</event>
<event>
 8    1  0.5829710E-012  0.9118800E+02  0.7816164E-02  0.1184000E+00
        -11   -1    0    0    0    0  0.00000000000E+00  0.00000000000E+00  0.45593999997E+02  0.45594000000E+02  0.51100000000E-03 0. -1.
         11   -1    0    0    0    0 -0.00000000000E+00 -0.00000000000E+00 -0.45593999997E+02  0.45594000000E+02  0.51100000000E-03 0.  1.
         23    2    1    2    0    0  0.88817841970E-15  0.00000000000E+00  0.00000000000E+00  0.91188000000E+02  0.91188000000E+02 0.  0.
    9900012    2    3    3    0    0 -0.46271290772E+01  0.88611037194E+01  0.39411079101E+02  0.50528897225E+02  0.30000113604E+02 0.  0.
        -12    1    3    3    0    0  0.46271290772E+01 -0.88611037194E+01 -0.39411079101E+02  0.40659102775E+02  0.00000000000E+00 0.  1.
         11    1    4    4    0    0 -0.19272745911E+00  0.24599386089E+01 -0.26207957073E+01  0.35995850085E+01  0.51100000000E-03 0. -1.
        -11    1    4    4    0    0  0.53690833780E+01 -0.36093612375E+01  0.93441441906E+01  0.11365191410E+02  0.51100000000E-03 0.  1.
         12    1    4    4    0    0 -0.98034849961E+01  0.10010526348E+02  0.32687730617E+02  0.35564120806E+02  0.00000000000E+00 0. -1.
</event>
<event>
 8    1  0.5829710E-012  0.9118800E+02  0.7816164E-02  0.1184000E+00
        -11   -1    0    0    0    0  0.00000000000E+00  0.00000000000E+00  0.45593999997E+02  0.45594000000E+02  0.51100000000E-03 0. -1.
         11   -1    0    0    0    0 -0.00000000000E+00 -0.00000000000E+00 -0.45593999997E+02  0.45594000000E+02  0.51100000000E-03 0.  1.
         23    2    1    2    0    0  0.00000000000E+00  0.00000000000E+00  0.35527136788E-14  0.91188000000E+02  0.91188000000E+02 0.  0.
    9900012    2    3    3    0    0 -0.91821849884E+01  0.23574121651E+02  0.31829440834E+02  0.50528867735E+02  0.30000023966E+02 0.  0.
        -12    1    3    3    0    0  0.91821849884E+01 -0.23574121651E+02 -0.31829440834E+02  0.40659132265E+02  0.00000000000E+00 0.  1.
         11    1    4    4    0    0 -0.88122276549E+01  0.20548274581E+01  0.14986665270E+02  0.17506507599E+02  0.51100000000E-03 0. -1.
        -11    1    4    4    0    0  0.83404031080E+01  0.55654241766E+01  0.78985245962E+01  0.12764127911E+02  0.51100000000E-03 0.  1.
         12    1    4    4    0    0 -0.87103604414E+01  0.15953870016E+02  0.89442509676E+01  0.20258232225E+02  0.00000000000E+00 0. -1.
</event>
<event>
 8    1  0.5829710E-012  0.9118800E+02  0.7816164E-02  0.1184000E+00
        -11   -1    0    0    0    0  0.00000000000E+00  0.00000000000E+00  0.45593999997E+02  0.45594000000E+02  0.51100000000E-03 0.  1.
         11   -1    0    0    0    0 -0.00000000000E+00 -0.00000000000E+00 -0.45593999997E+02  0.45594000000E+02  0.51100000000E-03 0. -1.
         23    2    1    2    0    0  0.00000000000E+00  0.00000000000E+00 -0.35527136788E-14  0.91188000000E+02  0.91188000000E+02 0.  0.
    9900012    2    3    3    0    0 -0.20648505899E+02  0.25587710626E+02 -0.23918058526E+02  0.50528865053E+02  0.30000015815E+02 0.  0.
         12    1    3    3    0    0  0.20648505899E+02 -0.25587710626E+02  0.23918058526E+02  0.40659134947E+02  0.00000000000E+00 0. -1.
         11    1    4    4    0    0 -0.10359152656E+02  0.16383793815E+01 -0.62843707195E+01  0.12226595861E+02  0.51100000000E-03 0. -1.
        -11    1    4    4    0    0 -0.56465743138E+01 -0.21535928986E+01  0.67706250085E+00  0.60811329327E+01  0.51100000000E-03 0.  1.
         12    1    4    4    0    0 -0.46427789298E+01  0.26102924144E+02 -0.18310750308E+02  0.32221136260E+02  0.00000000000E+00 0. -1.
</event>
<event>
 8    1  0.5829710E-012  0.9118800E+02  0.7816164E-02  0.1184000E+00
        -11   -1    0    0    0    0  0.00000000000E+00  0.00000000000E+00  0.45593999997E+02  0.45594000000E+02  0.51100000000E-03 0.  1.
         11   -1    0    0    0    0 -0.00000000000E+00 -0.00000000000E+00 -0.45593999997E+02  0.45594000000E+02  0.51100000000E-03 0. -1.
         23    2    1    2    0    0 -0.17763568394E-14  0.71054273576E-14  0.00000000000E+00  0.91188000000E+02  0.91188000000E+02 0.  0.
    9900012    2    3    3    0    0  0.13878277808E+02  0.38071843104E+02 -0.33307072940E+01  0.50528862733E+02  0.30000008762E+02 0.  0.
         12    1    3    3    0    0 -0.13878277808E+02 -0.38071843104E+02  0.33307072940E+01  0.40659137267E+02  0.00000000000E+00 0. -1.
         11    1    4    4    0    0  0.25956146833E+01  0.59613043040E+01 -0.37256054467E+01  0.74936306817E+01  0.51100000000E-03 0. -1.
        -11    1    4    4    0    0  0.18789391948E+02  0.29340626999E+02  0.19017210060E+01  0.34893125190E+02  0.51100000000E-03 0.  1.
        -12    1    4    4    0    0 -0.75067288238E+01  0.27699118013E+01 -0.15068228533E+01  0.81421068608E+01  0.00000000000E+00 0.  1.
</event>
<event>
 8    1  0.5829710E-012  0.9118800E+02  0.7816164E-02  0.1184000E+00
        -11   -1    0    0    0    0  0.00000000000E+00  0.00000000000E+00  0.45593999997E+02  0.45594000000E+02  0.51100000000E-03 0. -1.
         11   -1    0    0    0    0 -0.00000000000E+00 -0.00000000000E+00 -0.45593999997E+02  0.45594000000E+02  0.51100000000E-03 0.  1.
         23    2    1    2    0    0  0.35527136788E-14 -0.17763568394E-14  0.00000000000E+00  0.91188000000E+02  0.91188000000E+02 0.  0.
    9900012    2    3    3    0    0 -0.27580922988E+02  0.15104811286E+02 -0.25774078594E+02  0.50528858786E+02  0.29999996766E+02 0.  0.
         12    1    3    3    0    0  0.27580922988E+02 -0.15104811286E+02  0.25774078594E+02  0.40659141214E+02  0.00000000000E+00 0. -1.
         11    1    4    4    0    0  0.28840191162E+01 -0.23769111138E+01  0.21091899157E+01  0.42913814871E+01  0.51100000000E-03 0. -1.
        -11    1    4    4    0    0 -0.34696023632E+01  0.38224568569E+01 -0.10265217923E+00  0.51633181882E+01  0.51100000000E-03 0.  1.
        -12    1    4    4    0    0 -0.26995339741E+02  0.13659265543E+02 -0.27780616331E+02  0.41074159111E+02  0.00000000000E+00 0.  1.
</event>
<event>
 8    1  0.5829710E-012  0.9118800E+02  0.7816164E-02  0.1184000E+00
        -11   -1    0    0    0    0  0.00000000000E+00  0.00000000000E+00  0.45593999997E+02  0.45594000000E+02  0.51100000000E-03 0. -1.
         11   -1    0    0    0    0 -0.00000000000E+00 -0.00000000000E+00 -0.45593999997E+02  0.45594000000E+02  0.51100000000E-03 0.  1.
         23    2    1    2    0    0  0.35527136788E-14  0.00000000000E+00  0.71054273576E-14  0.91188000000E+02  0.91188000000E+02 0.  0.
    9900012    2    3    3    0    0  0.19861588194E+02 -0.32693295804E+01  0.35326972130E+02  0.50528853903E+02  0.29999981923E+02 0.  0.
        -12    1    3    3    0    0 -0.19861588194E+02  0.32693295804E+01 -0.35326972130E+02  0.40659146097E+02  0.00000000000E+00 0.  1.
         11    1    4    4    0    0  0.81707266155E+01  0.71798827375E+01  0.58393522928E+01  0.12345425266E+02  0.51100000000E-03 0. -1.
        -11    1    4    4    0    0  0.26785425623E+01 -0.90556622976E+01  0.26051207025E+01  0.97962372390E+01  0.51100000000E-03 0.  1.
         12    1    4    4    0    0  0.90123190159E+01 -0.13935500203E+01  0.26882499135E+02  0.28387191397E+02  0.00000000000E+00 0. -1.
</event>
<event>
 8    1  0.5829710E-012  0.9118800E+02  0.7816164E-02  0.1184000E+00
        -11   -1    0    0    0    0  0.00000000000E+00  0.00000000000E+00  0.45593999997E+02  0.45594000000E+02  0.51100000000E-03 0.  1.
         11   -1    0    0    0    0 -0.00000000000E+00 -0.00000000000E+00 -0.45593999997E+02  0.45594000000E+02  0.51100000000E-03 0. -1.
         23    2    1    2    0    0  0.35527136788E-14  0.00000000000E+00  0.00000000000E+00  0.91188000000E+02  0.91188000000E+02 0.  0.
    9900012    2    3    3    0    0 -0.25617844355E+02  0.28019953628E+02 -0.14552452692E+02  0.50528860436E+02  0.30000001782E+02 0.  0.
         12    1    3    3    0    0  0.25617844355E+02 -0.28019953628E+02  0.14552452692E+02  0.40659139564E+02  0.00000000000E+00 0. -1.
         11    1    4    4    0    0  0.12943587679E+01 -0.19624299117E+01 -0.28133375079E+00  0.23676242774E+01  0.51100000000E-03 0. -1.
        -11    1    4    4    0    0 -0.12888492609E+02  0.12655544692E+01 -0.90015751653E+01  0.15771595530E+02  0.51100000000E-03 0.  1.
        -12    1    4    4    0    0 -0.14023710514E+02  0.28716829071E+02 -0.52695437758E+01  0.32389640629E+02  0.00000000000E+00 0.  1.
</event>
<event>
 8    1  0.5829710E-012  0.9118800E+02  0.7816164E-02  0.1184000E+00
        -11   -1    0    0    0    0  0.00000000000E+00  0.00000000000E+00  0.45593999997E+02  0.45594000000E+02  0.51100000000E-03 0. -1.
         11   -1    0    0    0    0 -0.00000000000E+00 -0.00000000000E+00 -0.45593999997E+02  0.45594000000E+02  0.51100000000E-03 0.  1.
         23    2    1    2    0    0  0.00000000000E+00 -0.35527136788E-14  0.35527136788E-14  0.91188000000E+02  0.91188000000E+02 0.  0.
    9900012    2    3    3    0    0  0.21775257111E+02 -0.20462139644E+02 -0.27573621361E+02  0.50528861100E+02  0.30000003801E+02 0.  0.
         12    1    3    3    0    0 -0.21775257111E+02  0.20462139644E+02  0.27573621361E+02  0.40659138900E+02  0.00000000000E+00 0. -1.
         11    1    4    4    0    0  0.73248073549E+01 -0.21821691662E+02 -0.20715812957E+02  0.30967465775E+02  0.51100000000E-03 0. -1.
        -11    1    4    4    0    0  0.48827785796E+01 -0.27014708756E+01 -0.72635542891E+01  0.91596229573E+01  0.51100000000E-03 0.  1.
         12    1    4    4    0    0  0.95676711765E+01  0.40610228929E+01  0.40574588511E+00  0.10401772368E+02  0.00000000000E+00 0. -1.
</event>
<event>
 8    1  0.5829710E-012  0.9118800E+02  0.7816164E-02  0.1184000E+00
        -11   -1    0    0    0    0  0.00000000000E+00  0.00000000000E+00  0.45593999997E+02  0.45594000000E+02  0.51100000000E-03 0. -1.
         11   -1    0    0    0    0 -0.00000000000E+00 -0.00000000000E+00 -0.45593999997E+02  0.45594000000E+02  0.51100000000E-03 0.  1.
         23    2    1    2    0    0  0.71054273576E-14 -0.17763568394E-14  0.71054273576E-14  0.91188000000E+02  0.91188000000E+02 0.  0.
    9900012    2    3    3    0    0  0.30566472710E+02 -0.13689560072E+02  0.23053239726E+02  0.50528866084E+02  0.30000018950E+02 0.  0.
        -12    1    3    3    0    0 -0.30566472710E+02  0.13689560072E+02 -0.23053239726E+02  0.40659133916E+02  0.00000000000E+00 0.  1.
         11    1    4    4    0    0  0.20761227708E+02 -0.10154629127E+02  0.23801265146E+02  0.33175974612E+02  0.51100000000E-03 0. -1.
        -11    1    4    4    0    0  0.23018928732E+01  0.20289030109E+01  0.53712309536E+01  0.61858936658E+01  0.51100000000E-03 0.  1.
        -12    1    4    4    0    0  0.75033521290E+01 -0.55638339559E+01 -0.61192563731E+01  0.11166997807E+02  0.00000000000E+00 0.  1.
</event>
<event>
 8    1  0.5829710E-012  0.9118800E+02  0.7816164E-02  0.1184000E+00
        -11   -1    0    0    0    0  0.00000000000E+00  0.00000000000E+00  0.45593999997E+02  0.45594000000E+02  0.51100000000E-03 0. -1.
         11   -1    0    0    0    0 -0.00000000000E+00 -0.00000000000E+00 -0.45593999997E+02  0.45594000000E+02  0.51100000000E-03 0.  1.
         23    2    1    2    0    0 -0.71054273576E-14  0.00000000000E+00  0.00000000000E+00  0.91188000000E+02  0.91188000000E+02 0.  0.
    9900012    2    3    3    0    0 -0.33226397130E+02  0.16664218538E+02  0.16476760963E+02  0.50528766147E+02  0.29999715179E+02 0.  0.
        -12    1    3    3    0    0  0.33226397130E+02 -0.16664218538E+02 -0.16476760963E+02  0.40659233853E+02  0.00000000000E+00 0.  1.
         11    1    4    4    0    0 -0.49897834423E+01  0.48814228112E+01  0.14259930370E+01  0.71245830661E+01  0.51100000000E-03 0. -1.
        -11    1    4    4    0    0 -0.17543114130E+02  0.20433700307E+02  0.10682046630E+02  0.28972453850E+02  0.51100000000E-03 0.  1.
        -12    1    4    4    0    0 -0.10693499557E+02 -0.86509045800E+01  0.43687212957E+01  0.14431729231E+02  0.00000000000E+00 0.  1.
</event>
<event>
 8    1  0.5829710E-012  0.9118800E+02  0.7816164E-02  0.1184000E+00
        -11   -1    0    0    0    0  0.00000000000E+00  0.00000000000E+00  0.45593999997E+02  0.45594000000E+02  0.51100000000E-03 0. -1.
         11   -1    0    0    0    0 -0.00000000000E+00 -0.00000000000E+00 -0.45593999997E+02  0.45594000000E+02  0.51100000000E-03 0.  1.
         23    2    1    2    0    0 -0.17763568394E-14  0.35527136788E-14  0.00000000000E+00  0.91188000000E+02  0.91188000000E+02 0.  0.
    9900012    2    3    3    0    0 -0.11802270864E+02  0.17004642182E+02  0.34995908299E+02  0.50528867558E+02  0.30000023428E+02 0.  0.
        -12    1    3    3    0    0  0.11802270864E+02 -0.17004642182E+02 -0.34995908299E+02  0.40659132442E+02  0.00000000000E+00 0.  1.
         11    1    4    4    0    0  0.62641821012E+01  0.19272374121E+01  0.36781238402E+01  0.75155050851E+01  0.51100000000E-03 0. -1.
        -11    1    4    4    0    0  0.16013012764E+01 -0.19187040362E-01  0.10550429020E+02  0.10671273902E+02  0.51100000000E-03 0.  1.
         12    1    4    4    0    0 -0.19667754242E+02  0.15096591810E+02  0.20767355439E+02  0.32342088571E+02  0.00000000000E+00 0. -1.
</event>
<event>
 8    1  0.5829710E-012  0.9118800E+02  0.7816164E-02  0.1184000E+00
        -11   -1    0    0    0    0  0.00000000000E+00  0.00000000000E+00  0.45593999997E+02  0.45594000000E+02  0.51100000000E-03 0.  1.
         11   -1    0    0    0    0 -0.00000000000E+00 -0.00000000000E+00 -0.45593999997E+02  0.45594000000E+02  0.51100000000E-03 0. -1.
         23    2    1    2    0    0  0.00000000000E+00  0.17763568394E-14  0.17763568394E-14  0.91188000000E+02  0.91188000000E+02 0.  0.
    9900012    2    3    3    0    0 -0.37589894137E+02  0.15358263573E+02 -0.20716595578E+01  0.50528829146E+02  0.29999906671E+02 0.  0.
        -12    1    3    3    0    0  0.37589894137E+02 -0.15358263573E+02  0.20716595578E+01  0.40659170854E+02  0.00000000000E+00 0.  1.
         11    1    4    4    0    0 -0.10143632207E+02  0.92308589547E+01 -0.48212228058E+01  0.14537751580E+02  0.51100000000E-03 0. -1.
        -11    1    4    4    0    0 -0.13370056335E+02  0.13797714254E+02 -0.18824461622E+01  0.19304893909E+02  0.51100000000E-03 0.  1.
         12    1    4    4    0    0 -0.14076205595E+02 -0.76703096351E+01  0.46320094102E+01  0.16686183657E+02  0.00000000000E+00 0. -1.
</event>
<event>
 8    1  0.5829710E-012  0.9118800E+02  0.7816164E-02  0.1184000E+00
        -11   -1    0    0    0    0  0.00000000000E+00  0.00000000000E+00  0.45593999997E+02  0.45594000000E+02  0.51100000000E-03 0. -1.
         11   -1    0    0    0    0 -0.00000000000E+00 -0.00000000000E+00 -0.45593999997E+02  0.45594000000E+02  0.51100000000E-03 0.  1.
         23    2    1    2    0    0  0.00000000000E+00 -0.44408920985E-15  0.00000000000E+00  0.91188000000E+02  0.91188000000E+02 0.  0.
    9900012    2    3    3    0    0 -0.10702017029E+02 -0.39590401525E+01 -0.39025113504E+02  0.50528847876E+02  0.29999963604E+02 0.  0.
         12    1    3    3    0    0  0.10702017029E+02  0.39590401525E+01  0.39025113504E+02  0.40659152124E+02  0.00000000000E+00 0. -1.
         11    1    4    4    0    0  0.33015004753E+00 -0.67839238985E+01 -0.12896125702E+02  0.14575344967E+02  0.51100000000E-03 0. -1.
        -11    1    4    4    0    0 -0.36785529178E+01 -0.53869419229E+01 -0.23812221788E+02  0.24689528177E+02  0.51100000000E-03 0.  1.
         12    1    4    4    0    0 -0.73536141585E+01  0.82118256688E+01 -0.23167660143E+01  0.11263974732E+02  0.00000000000E+00 0. -1.
</event>
<event>
 8    1  0.5829710E-012  0.9118800E+02  0.7816164E-02  0.1184000E+00
        -11   -1    0    0    0    0  0.00000000000E+00  0.00000000000E+00  0.45593999997E+02  0.45594000000E+02  0.51100000000E-03 0. -1.
         11   -1    0    0    0    0 -0.00000000000E+00 -0.00000000000E+00 -0.45593999997E+02  0.45594000000E+02  0.51100000000E-03 0.  1.
         23    2    1    2    0    0 -0.71054273576E-14 -0.44408920985E-15  0.00000000000E+00  0.91188000000E+02  0.91188000000E+02 0.  0.
    9900012    2    3    3    0    0  0.39388652172E+02  0.26638372293E+01 -0.97264265769E+01  0.50528864217E+02  0.30000013273E+02 0.  0.
         12    1    3    3    0    0 -0.39388652172E+02 -0.26638372293E+01  0.97264265769E+01  0.40659135783E+02  0.00000000000E+00 0. -1.
         11    1    4    4    0    0  0.29631520043E+02 -0.62272570579E+01  0.14690743863E+01  0.30314417203E+02  0.51100000000E-03 0. -1.
        -11    1    4    4    0    0  0.11555926080E+01  0.40729177127E+01  0.11769617350E+01  0.43942339670E+01  0.51100000000E-03 0.  1.
        -12    1    4    4    0    0  0.86015395204E+01  0.48181765744E+01 -0.12372462698E+02  0.15820213047E+02  0.00000000000E+00 0.  1.
</event>
<event>
 8    1  0.5829710E-012  0.9118800E+02  0.7816164E-02  0.1184000E+00
        -11   -1    0    0    0    0  0.00000000000E+00  0.00000000000E+00  0.45593999997E+02  0.45594000000E+02  0.51100000000E-03 0. -1.
         11   -1    0    0    0    0 -0.00000000000E+00 -0.00000000000E+00 -0.45593999997E+02  0.45594000000E+02  0.51100000000E-03 0.  1.
         23    2    1    2    0    0 -0.17763568394E-14  0.00000000000E+00  0.00000000000E+00  0.91188000000E+02  0.91188000000E+02 0.  0.
    9900012    2    3    3    0    0 -0.12241001135E+02  0.21242859519E+02 -0.32435591880E+02  0.50528821332E+02  0.29999882922E+02 0.  0.
         12    1    3    3    0    0  0.12241001135E+02 -0.21242859519E+02  0.32435591880E+02  0.40659178668E+02  0.00000000000E+00 0. -1.
         11    1    4    4    0    0 -0.85795099515E+01  0.34280319536E+01  0.49381888667E+00  0.92522025181E+01  0.51100000000E-03 0. -1.
        -11    1    4    4    0    0 -0.72973121650E+01  0.23217982631E+01 -0.50437664831E+01  0.91695742870E+01  0.51100000000E-03 0.  1.
        -12    1    4    4    0    0  0.36358209818E+01  0.15493029302E+02 -0.27885644284E+02  0.32107044527E+02  0.00000000000E+00 0.  1.
</event>
<event>
 8    1  0.5829710E-012  0.9118800E+02  0.7816164E-02  0.1184000E+00
        -11   -1    0    0    0    0  0.00000000000E+00  0.00000000000E+00  0.45593999997E+02  0.45594000000E+02  0.51100000000E-03 0. -1.
         11   -1    0    0    0    0 -0.00000000000E+00 -0.00000000000E+00 -0.45593999997E+02  0.45594000000E+02  0.51100000000E-03 0.  1.
         23    2    1    2    0    0  0.00000000000E+00  0.00000000000E+00  0.35527136788E-14  0.91188000000E+02  0.91188000000E+02 0.  0.
    9900012    2    3    3    0    0  0.16846246408E+02  0.32897031317E+02 -0.16945644978E+02  0.50528861160E+02  0.30000003982E+02 0.  0.
         12    1    3    3    0    0 -0.16846246408E+02 -0.32897031317E+02  0.16945644978E+02  0.40659138840E+02  0.00000000000E+00 0. -1.
         11    1    4    4    0    0  0.77831497382E+01  0.19922690997E+02 -0.25581958447E+00  0.21390569893E+02  0.51100000000E-03 0. -1.
        -11    1    4    4    0    0  0.63910719777E+01 -0.78799241412E+00  0.10532771333E+01  0.65250383945E+01  0.51100000000E-03 0.  1.
        -12    1    4    4    0    0  0.26720246925E+01  0.13762332734E+02 -0.17743102527E+02  0.22613252873E+02  0.00000000000E+00 0.  1.
</event>
<event>
 8    1  0.5829710E-012  0.9118800E+02  0.7816164E-02  0.1184000E+00
        -11   -1    0    0    0    0  0.00000000000E+00  0.00000000000E+00  0.45593999997E+02  0.45594000000E+02  0.51100000000E-03 0. -1.
         11   -1    0    0    0    0 -0.00000000000E+00 -0.00000000000E+00 -0.45593999997E+02  0.45594000000E+02  0.51100000000E-03 0.  1.
         23    2    1    2    0    0 -0.35527136788E-14  0.27755575616E-15  0.00000000000E+00  0.91188000000E+02  0.91188000000E+02 0.  0.
    9900012    2    3    3    0    0 -0.18633304306E+02  0.16296417580E+00 -0.36137776075E+02  0.50528862696E+02  0.30000008649E+02 0.  0.
         12    1    3    3    0    0  0.18633304306E+02 -0.16296417580E+00  0.36137776075E+02  0.40659137304E+02  0.00000000000E+00 0. -1.
         11    1    4    4    0    0 -0.17864047465E+01  0.33980301873E+01  0.23413445156E+01  0.44966371295E+01  0.51100000000E-03 0. -1.
        -11    1    4    4    0    0 -0.19232464365E+02  0.18060276781E+01 -0.32846643600E+02  0.38105792441E+02  0.51100000000E-03 0.  1.
         12    1    4    4    0    0  0.23855648057E+01 -0.50410936896E+01 -0.56324769909E+01  0.79264331248E+01  0.00000000000E+00 0. -1.
</event>
<event>
 8    1  0.5829710E-012  0.9118800E+02  0.7816164E-02  0.1184000E+00
        -11   -1    0    0    0    0  0.00000000000E+00  0.00000000000E+00  0.45593999997E+02  0.45594000000E+02  0.51100000000E-03 0. -1.
         11   -1    0    0    0    0 -0.00000000000E+00 -0.00000000000E+00 -0.45593999997E+02  0.45594000000E+02  0.51100000000E-03 0.  1.
         23    2    1    2    0    0 -0.71054273576E-14  0.13877787808E-14  0.00000000000E+00  0.91188000000E+02  0.91188000000E+02 0.  0.
    9900012    2    3    3    0    0  0.36408953818E+02  0.47068996757E+00  0.18092325184E+02  0.50528859604E+02  0.29999999252E+02 0.  0.
        -12    1    3    3    0    0 -0.36408953818E+02 -0.47068996757E+00 -0.18092325184E+02  0.40659140396E+02  0.00000000000E+00 0.  1.
         11    1    4    4    0    0 -0.29183483440E+01  0.47266415876E+01  0.32912925598E+01  0.64568184681E+01  0.51100000000E-03 0. -1.
        -11    1    4    4    0    0  0.15443891323E+02  0.72660433380E+00  0.11884259134E+02  0.19500701230E+02  0.51100000000E-03 0.  1.
        -12    1    4    4    0    0  0.23883410840E+02 -0.49825559538E+01  0.29167734905E+01  0.24571339906E+02  0.00000000000E+00 0.  1.
</event>
<event>
 8    1  0.5829710E-012  0.9118800E+02  0.7816164E-02  0.1184000E+00
        -11   -1    0    0    0    0  0.00000000000E+00  0.00000000000E+00  0.45593999997E+02  0.45594000000E+02  0.51100000000E-03 0. -1.
         11   -1    0    0    0    0 -0.00000000000E+00 -0.00000000000E+00 -0.45593999997E+02  0.45594000000E+02  0.51100000000E-03 0.  1.
         23    2    1    2    0    0  0.17763568394E-14  0.35527136788E-14  0.00000000000E+00  0.91188000000E+02  0.91188000000E+02 0.  0.
    9900012    2    3    3    0    0 -0.13005203444E+02 -0.20816825967E+02  0.32414350589E+02  0.50528859773E+02  0.29999999765E+02 0.  0.
        -12    1    3    3    0    0  0.13005203444E+02  0.20816825967E+02 -0.32414350589E+02  0.40659140227E+02  0.00000000000E+00 0.  1.
         11    1    4    4    0    0 -0.67594609616E+01  0.24842737754E+01  0.38754828286E+01  0.81780985626E+01  0.51100000000E-03 0.  1.
        -11    1    4    4    0    0  0.79499210121E+00 -0.16483628104E+01 -0.29626403839E+01  0.34822910133E+01  0.51100000000E-03 0. -1.
         12    1    4    4    0    0 -0.70407345833E+01 -0.21652736931E+02  0.31501508144E+02  0.38868470197E+02  0.00000000000E+00 0. -1.
</event>
<event>
 8    1  0.5829710E-012  0.9118800E+02  0.7816164E-02  0.1184000E+00
        -11   -1    0    0    0    0  0.00000000000E+00  0.00000000000E+00  0.45593999997E+02  0.45594000000E+02  0.51100000000E-03 0. -1.
         11   -1    0    0    0    0 -0.00000000000E+00 -0.00000000000E+00 -0.45593999997E+02  0.45594000000E+02  0.51100000000E-03 0.  1.
         23    2    1    2    0    0 -0.35527136788E-14  0.00000000000E+00  0.35527136788E-14  0.91188000000E+02  0.91188000000E+02 0.  0.
    9900012    2    3    3    0    0 -0.17606980801E+02 -0.19897385001E+02 -0.30777481974E+02  0.50528866961E+02  0.30000021616E+02 0.  0.
         12    1    3    3    0    0  0.17606980801E+02  0.19897385001E+02  0.30777481974E+02  0.40659133039E+02  0.00000000000E+00 0. -1.
         11    1    4    4    0    0 -0.14474643510E+02 -0.20684425549E+01 -0.17047576879E+02  0.22459154861E+02  0.51100000000E-03 0. -1.
        -11    1    4    4    0    0  0.46085545124E+01  0.32683489628E+00 -0.37636586985E+01  0.59590874136E+01  0.51100000000E-03 0.  1.
        -12    1    4    4    0    0 -0.77408918035E+01 -0.18155777342E+02 -0.99662463958E+01  0.22110624687E+02  0.00000000000E+00 0.  1.
</event>
<event>
 8    1  0.5829710E-012  0.9118800E+02  0.7816164E-02  0.1184000E+00
        -11   -1    0    0    0    0  0.00000000000E+00  0.00000000000E+00  0.45593999997E+02  0.45594000000E+02  0.51100000000E-03 0. -1.
         11   -1    0    0    0    0 -0.00000000000E+00 -0.00000000000E+00 -0.45593999997E+02  0.45594000000E+02  0.51100000000E-03 0.  1.
         23    2    1    2    0    0  0.00000000000E+00  0.35527136788E-14 -0.71054273576E-14  0.91188000000E+02  0.91188000000E+02 0.  0.
    9900012    2    3    3    0    0  0.15821677181E+01 -0.24277107623E+02  0.32577355316E+02  0.50528864635E+02  0.30000014545E+02 0.  0.
        -12    1    3    3    0    0 -0.15821677181E+01  0.24277107623E+02 -0.32577355316E+02  0.40659135365E+02  0.00000000000E+00 0.  1.
         11    1    4    4    0    0  0.36401623002E+01  0.37862457038E+01  0.19869395960E+01  0.56155469298E+01  0.51100000000E-03 0. -1.
        -11    1    4    4    0    0  0.17981534202E+01 -0.22933953762E+01 -0.17364591789E+01  0.33923898383E+01  0.51100000000E-03 0.  1.
         12    1    4    4    0    0 -0.38561480023E+01 -0.25769957950E+02  0.32326874899E+02  0.41520927867E+02  0.00000000000E+00 0. -1.
</event>
<event>
 8    1  0.5829710E-012  0.9118800E+02  0.7816164E-02  0.1184000E+00
        -11   -1    0    0    0    0  0.00000000000E+00  0.00000000000E+00  0.45593999997E+02  0.45594000000E+02  0.51100000000E-03 0.  1.
         11   -1    0    0    0    0 -0.00000000000E+00 -0.00000000000E+00 -0.45593999997E+02  0.45594000000E+02  0.51100000000E-03 0. -1.
         23    2    1    2    0    0  0.00000000000E+00  0.00000000000E+00 -0.35527136788E-14  0.91188000000E+02  0.91188000000E+02 0.  0.
    9900012    2    3    3    0    0  0.26765002016E+02  0.28839343311E+02 -0.10251439942E+02  0.50528867245E+02  0.30000022477E+02 0.  0.
         12    1    3    3    0    0 -0.26765002016E+02 -0.28839343311E+02  0.10251439942E+02  0.40659132755E+02  0.00000000000E+00 0. -1.
         11    1    4    4    0    0  0.89238425462E+01  0.15655473089E+02 -0.13586940429E+02  0.22568423824E+02  0.51100000000E-03 0. -1.
        -11    1    4    4    0    0  0.56775981037E+01  0.42523375700E+01 -0.67645127019E+01  0.98018430609E+01  0.51100000000E-03 0.  1.
        -12    1    4    4    0    0  0.12163561366E+02  0.89315326525E+01  0.10100013189E+02  0.18158600360E+02  0.00000000000E+00 0.  1.
</event>
<event>
 8    1  0.5829710E-012  0.9118800E+02  0.7816164E-02  0.1184000E+00
        -11   -1    0    0    0    0  0.00000000000E+00  0.00000000000E+00  0.45593999997E+02  0.45594000000E+02  0.51100000000E-03 0.  1.
         11   -1    0    0    0    0 -0.00000000000E+00 -0.00000000000E+00 -0.45593999997E+02  0.45594000000E+02  0.51100000000E-03 0. -1.
         23    2    1    2    0    0  0.00000000000E+00  0.00000000000E+00 -0.35527136788E-14  0.91188000000E+02  0.91188000000E+02 0.  0.
    9900012    2    3    3    0    0  0.27815201802E+02  0.13652066145E+02  0.26326809642E+02  0.50528864898E+02  0.30000015345E+02 0.  0.
        -12    1    3    3    0    0 -0.27815201802E+02 -0.13652066145E+02 -0.26326809642E+02  0.40659135102E+02  0.00000000000E+00 0.  1.
         11    1    4    4    0    0  0.14734969405E+02 -0.57445869537E+01  0.15835099791E+02  0.22380124850E+02  0.51100000000E-03 0. -1.
        -11    1    4    4    0    0  0.84964789746E+01  0.30501968296E+01  0.49187414600E+01  0.10280460762E+02  0.51100000000E-03 0.  1.
         12    1    4    4    0    0  0.45837534219E+01  0.16346456269E+02  0.55729683909E+01  0.17868279287E+02  0.00000000000E+00 0. -1.
</event>
<event>
 8    1  0.5992757E-012  0.9118800E+02  0.7816164E-02  0.1184000E+00
        -11   -1    0    0    0    0  0.00000000000E+00  0.00000000000E+00  0.45593999997E+02  0.45594000000E+02  0.51100000000E-03 0. -1.
         11   -1    0    0    0    0 -0.00000000000E+00 -0.00000000000E+00 -0.45593999997E+02  0.45594000000E+02  0.51100000000E-03 0.  1.
         23    2    1    2    0    0  0.00000000000E+00 -0.71054273576E-14  0.35527136788E-14  0.91188000000E+02  0.91188000000E+02 0.  0.
    9900012    2    3    3    0    0 -0.91524980498E+01  0.31586889214E+02 -0.23909540066E+02  0.50528857154E+02  0.29999991806E+02 0.  0.
         12    1    3    3    0    0  0.91524980498E+01 -0.31586889214E+02  0.23909540066E+02  0.40659142846E+02  0.00000000000E+00 0. -1.
         11    1    4    4    0    0  0.70365805137E+00  0.16348836043E+02 -0.16252221573E+02  0.23063266918E+02  0.51100000000E-03 0. -1.
        -11    1    4    4    0    0  0.18945918426E+01  0.14450613530E+02 -0.36375481499E+01  0.15021366996E+02  0.51100000000E-03 0.  1.
         12    1    4    4    0    0 -0.11750747944E+02  0.78743964120E+00 -0.40197703430E+01  0.12444223240E+02  0.00000000000E+00 0. -1.
</event>
<event>
 8    1  0.5829710E-012  0.9118800E+02  0.7816164E-02  0.1184000E+00
        -11   -1    0    0    0    0  0.00000000000E+00  0.00000000000E+00  0.45593999997E+02  0.45594000000E+02  0.51100000000E-03 0. -1.
         11   -1    0    0    0    0 -0.00000000000E+00 -0.00000000000E+00 -0.45593999997E+02  0.45594000000E+02  0.51100000000E-03 0.  1.
         23    2    1    2    0    0  0.38857805862E-15  0.00000000000E+00  0.00000000000E+00  0.91188000000E+02  0.91188000000E+02 0.  0.
    9900012    2    3    3    0    0 -0.39754364693E+00  0.17058209504E+02 -0.36905626598E+02  0.50528858014E+02  0.29999994418E+02 0.  0.
         12    1    3    3    0    0  0.39754364693E+00 -0.17058209504E+02  0.36905626598E+02  0.40659141986E+02  0.00000000000E+00 0. -1.
         11    1    4    4    0    0  0.46079708333E+01  0.10295529023E+02 -0.27783128366E+02  0.29985555442E+02  0.51100000000E-03 0. -1.
        -11    1    4    4    0    0 -0.37467820383E+01  0.92506581957E+01 -0.12607684911E+02  0.16080011560E+02  0.51100000000E-03 0.  1.
         12    1    4    4    0    0 -0.12587324420E+01 -0.24879777140E+01  0.34851866792E+01  0.44632910117E+01  0.00000000000E+00 0. -1.
</event>
<event>
 8    1  0.5829710E-012  0.9118800E+02  0.7816164E-02  0.1184000E+00
        -11   -1    0    0    0    0  0.00000000000E+00  0.00000000000E+00  0.45593999997E+02  0.45594000000E+02  0.51100000000E-03 0. -1.
         11   -1    0    0    0    0 -0.00000000000E+00 -0.00000000000E+00 -0.45593999997E+02  0.45594000000E+02  0.51100000000E-03 0.  1.
         23    2    1    2    0    0  0.17763568394E-14 -0.17763568394E-14 -0.71054273576E-14  0.91188000000E+02  0.91188000000E+02 0.  0.
    9900012    2    3    3    0    0  0.81389883090E+01 -0.13992580996E+02 -0.37297813381E+02  0.50528900936E+02  0.30000124886E+02 0.  0.
         12    1    3    3    0    0 -0.81389883090E+01  0.13992580996E+02  0.37297813381E+02  0.40659099064E+02  0.00000000000E+00 0. -1.
         11    1    4    4    0    0 -0.68007289023E+00 -0.39231320163E+01 -0.64594802828E+00  0.40336971961E+01  0.51100000000E-03 0. -1.
        -11    1    4    4    0    0  0.13526764239E+02 -0.94187327012E+01 -0.96952413170E+01  0.19122854937E+02  0.51100000000E-03 0.  1.
        -12    1    4    4    0    0 -0.47077030401E+01 -0.65071627854E+00 -0.26956624036E+02  0.27372348803E+02  0.00000000000E+00 0.  1.
</event>
<event>
 8    1  0.5829710E-012  0.9118800E+02  0.7816164E-02  0.1184000E+00
        -11   -1    0    0    0    0  0.00000000000E+00  0.00000000000E+00  0.45593999997E+02  0.45594000000E+02  0.51100000000E-03 0. -1.
         11   -1    0    0    0    0 -0.00000000000E+00 -0.00000000000E+00 -0.45593999997E+02  0.45594000000E+02  0.51100000000E-03 0.  1.
         23    2    1    2    0    0  0.00000000000E+00  0.00000000000E+00  0.71054273576E-14  0.91188000000E+02  0.91188000000E+02 0.  0.
    9900012    2    3    3    0    0  0.21971343770E+01  0.11130109719E+02  0.39044324658E+02  0.50528855520E+02  0.29999986839E+02 0.  0.
        -12    1    3    3    0    0 -0.21971343770E+01 -0.11130109719E+02 -0.39044324658E+02  0.40659144480E+02  0.00000000000E+00 0.  1.
         11    1    4    4    0    0 -0.22425828684E+01 -0.21546326769E+01  0.79707325384E+01  0.85559451467E+01  0.51100000000E-03 0. -1.
        -11    1    4    4    0    0  0.14525339629E+01 -0.65915973102E+01  0.28570614470E+01  0.73295163814E+01  0.51100000000E-03 0.  1.
         12    1    4    4    0    0  0.29871832825E+01  0.19876339706E+02  0.28216530673E+02  0.34643393992E+02  0.00000000000E+00 0. -1.
</event>
<event>
 8    1  0.5829710E-012  0.9118800E+02  0.7816164E-02  0.1184000E+00
        -11   -1    0    0    0    0  0.00000000000E+00  0.00000000000E+00  0.45593999997E+02  0.45594000000E+02  0.51100000000E-03 0.  1.
         11   -1    0    0    0    0 -0.00000000000E+00 -0.00000000000E+00 -0.45593999997E+02  0.45594000000E+02  0.51100000000E-03 0. -1.
         23    2    1    2    0    0  0.71054273576E-14  0.00000000000E+00 -0.88817841970E-15  0.91188000000E+02  0.91188000000E+02 0.  0.
    9900012    2    3    3    0    0  0.39522259592E+02  0.68830653224E+01 -0.66166075004E+01  0.50528867123E+02  0.30000022107E+02 0.  0.
        -12    1    3    3    0    0 -0.39522259592E+02 -0.68830653224E+01  0.66166075004E+01  0.40659132877E+02  0.00000000000E+00 0.  1.
         11    1    4    4    0    0  0.11549141513E+02  0.14047769317E+01 -0.12768195950E+01  0.11704116218E+02  0.51100000000E-03 0. -1.
        -11    1    4    4    0    0  0.21812071827E+02 -0.65719065233E+01 -0.94760788992E+01  0.24672910333E+02  0.51100000000E-03 0.  1.
        -12    1    4    4    0    0  0.61610462523E+01  0.12050194914E+02  0.41362909938E+01  0.14151840572E+02  0.00000000000E+00 0.  1.
</event>
<event>
 8    1  0.6982318E-012  0.9118800E+02  0.7816164E-02  0.1184000E+00
        -11   -1    0    0    0    0  0.00000000000E+00  0.00000000000E+00  0.45593999997E+02  0.45594000000E+02  0.51100000000E-03 0. -1.
         11   -1    0    0    0    0 -0.00000000000E+00 -0.00000000000E+00 -0.45593999997E+02  0.45594000000E+02  0.51100000000E-03 0.  1.
         23    2    1    2    0    0  0.00000000000E+00  0.00000000000E+00  0.00000000000E+00  0.91188000000E+02  0.91188000000E+02 0.  0.
    9900012    2    3    3    0    0  0.33595544198E+02  0.95708456452E+01 -0.20806336876E+02  0.50528864120E+02  0.30000012979E+02 0.  0.
         12    1    3    3    0    0 -0.33595544198E+02 -0.95708456452E+01  0.20806336876E+02  0.40659135880E+02  0.00000000000E+00 0. -1.
         11    1    4    4    0    0  0.11843487107E+02  0.48206874060E+01 -0.12224329857E+02  0.17690151346E+02  0.51100000000E-03 0. -1.
        -11    1    4    4    0    0  0.20656737020E+02  0.26356076717E+01 -0.15215529162E+02  0.25790687080E+02  0.51100000000E-03 0.  1.
         12    1    4    4    0    0  0.10953200709E+01  0.21145505675E+01  0.66335221433E+01  0.70480256942E+01  0.00000000000E+00 0. -1.
</event>
<event>
 8    1  0.5829710E-012  0.9118800E+02  0.7816164E-02  0.1184000E+00
        -11   -1    0    0    0    0  0.00000000000E+00  0.00000000000E+00  0.45593999997E+02  0.45594000000E+02  0.51100000000E-03 0. -1.
         11   -1    0    0    0    0 -0.00000000000E+00 -0.00000000000E+00 -0.45593999997E+02  0.45594000000E+02  0.51100000000E-03 0.  1.
         23    2    1    2    0    0  0.00000000000E+00  0.88817841970E-15  0.88817841970E-15  0.91188000000E+02  0.91188000000E+02 0.  0.
    9900012    2    3    3    0    0 -0.39690085729E+02 -0.42535416115E+01 -0.77310657914E+01  0.50528869418E+02  0.30000029082E+02 0.  0.
         12    1    3    3    0    0  0.39690085729E+02  0.42535416115E+01  0.77310657914E+01  0.40659130582E+02  0.00000000000E+00 0. -1.
         11    1    4    4    0    0 -0.14739529103E+02 -0.12377694227E+02  0.51962654186E-03  0.19247364315E+02  0.51100000000E-03 0. -1.
        -11    1    4    4    0    0 -0.11910911122E+02 -0.39220825164E+01 -0.37416726583E+01  0.13086353562E+02  0.51100000000E-03 0.  1.
        -12    1    4    4    0    0 -0.13039645505E+02  0.12046235132E+02 -0.39899127597E+01  0.18195151540E+02  0.00000000000E+00 0.  1.
</event>
<event>
 8    1  0.5829710E-012  0.9118800E+02  0.7816164E-02  0.1184000E+00
        -11   -1    0    0    0    0  0.00000000000E+00  0.00000000000E+00  0.45593999997E+02  0.45594000000E+02  0.51100000000E-03 0. -1.
         11   -1    0    0    0    0 -0.00000000000E+00 -0.00000000000E+00 -0.45593999997E+02  0.45594000000E+02  0.51100000000E-03 0.  1.
         23    2    1    2    0    0  0.00000000000E+00  0.00000000000E+00  0.00000000000E+00  0.91188000000E+02  0.91188000000E+02 0.  0.
    9900012    2    3    3    0    0  0.80203627232E+01 -0.22191511710E+02 -0.33111570153E+02  0.50528862181E+02  0.30000007085E+02 0.  0.
         12    1    3    3    0    0 -0.80203627232E+01  0.22191511710E+02  0.33111570153E+02  0.40659137819E+02  0.00000000000E+00 0. -1.
         11    1    4    4    0    0 -0.27054376350E+01 -0.75555412374E+01 -0.11755117116E+02  0.14233354308E+02  0.51100000000E-03 0. -1.
        -11    1    4    4    0    0  0.17033914657E+02 -0.11980452762E+02 -0.20792389772E+02  0.29428030339E+02  0.51100000000E-03 0.  1.
        -12    1    4    4    0    0 -0.63081142987E+01 -0.26555177110E+01 -0.56406326498E+00  0.68674775344E+01  0.00000000000E+00 0.  1.
</event>
<event>
 8    1  0.8013929E-012  0.9118800E+02  0.7816164E-02  0.1184000E+00
        -11   -1    0    0    0    0  0.00000000000E+00  0.00000000000E+00  0.45593999997E+02  0.45594000000E+02  0.51100000000E-03 0. -1.
         11   -1    0    0    0    0 -0.00000000000E+00 -0.00000000000E+00 -0.45593999997E+02  0.45594000000E+02  0.51100000000E-03 0.  1.
         23    2    1    2    0    0 -0.35527136788E-14  0.00000000000E+00  0.00000000000E+00  0.91188000000E+02  0.91188000000E+02 0.  0.
    9900012    2    3    3    0    0 -0.27647323256E+02 -0.42583900003E+01 -0.29506897185E+02  0.50528863879E+02  0.30000012246E+02 0.  0.
         12    1    3    3    0    0  0.27647323256E+02  0.42583900003E+01  0.29506897185E+02  0.40659136121E+02  0.00000000000E+00 0. -1.
         11    1    4    4    0    0 -0.13184930713E+02  0.47958929593E+01 -0.17147768083E+02  0.22156013578E+02  0.51100000000E-03 0. -1.
        -11    1    4    4    0    0 -0.12595486225E+02 -0.88761047839E+01 -0.17252864751E+02  0.23132074092E+02  0.51100000000E-03 0.  1.
         12    1    4    4    0    0 -0.18669063184E+01 -0.17817817567E+00  0.48937356497E+01  0.52407762090E+01  0.00000000000E+00 0. -1.
</event>
<event>
 8    1  0.5829710E-012  0.9118800E+02  0.7816164E-02  0.1184000E+00
        -11   -1    0    0    0    0  0.00000000000E+00  0.00000000000E+00  0.45593999997E+02  0.45594000000E+02  0.51100000000E-03 0. -1.
         11   -1    0    0    0    0 -0.00000000000E+00 -0.00000000000E+00 -0.45593999997E+02  0.45594000000E+02  0.51100000000E-03 0.  1.
         23    2    1    2    0    0  0.17763568394E-14 -0.14210854715E-13  0.00000000000E+00  0.91188000000E+02  0.91188000000E+02 0.  0.
    9900012    2    3    3    0    0 -0.10407147435E+02  0.32699979191E+02 -0.21807526723E+02  0.50528861069E+02  0.30000003705E+02 0.  0.
         12    1    3    3    0    0  0.10407147435E+02 -0.32699979191E+02  0.21807526723E+02  0.40659138931E+02  0.00000000000E+00 0. -1.
         11    1    4    4    0    0  0.12450123579E+01  0.13520822900E+01  0.10293661730E+00  0.18408635198E+01  0.51100000000E-03 0. -1.
        -11    1    4    4    0    0  0.24004845405E+01  0.29132223552E+02 -0.15462960629E+02  0.33068896667E+02  0.51100000000E-03 0.  1.
         12    1    4    4    0    0 -0.14052644333E+02  0.22156733495E+01 -0.64475027111E+01  0.15619100882E+02  0.00000000000E+00 0. -1.
</event>
<event>
 8    1  0.5829710E-012  0.9118800E+02  0.7816164E-02  0.1184000E+00
        -11   -1    0    0    0    0  0.00000000000E+00  0.00000000000E+00  0.45593999997E+02  0.45594000000E+02  0.51100000000E-03 0.  1.
         11   -1    0    0    0    0 -0.00000000000E+00 -0.00000000000E+00 -0.45593999997E+02  0.45594000000E+02  0.51100000000E-03 0. -1.
         23    2    1    2    0    0  0.00000000000E+00  0.00000000000E+00  0.00000000000E+00  0.91188000000E+02  0.91188000000E+02 0.  0.
    9900012    2    3    3    0    0 -0.24188819512E+02 -0.29810422552E+02  0.13394305111E+02  0.50528835086E+02  0.29999924726E+02 0.  0.
         12    1    3    3    0    0  0.24188819512E+02  0.29810422552E+02 -0.13394305111E+02  0.40659164914E+02  0.00000000000E+00 0. -1.
         11    1    4    4    0    0 -0.11943774940E+02  0.73828671468E+00  0.69473277003E+01  0.13837058558E+02  0.51100000000E-03 0. -1.
        -11    1    4    4    0    0 -0.59930092081E+01 -0.20387317817E+01 -0.13675477489E+01  0.64763240926E+01  0.51100000000E-03 0.  1.
        -12    1    4    4    0    0 -0.62520353635E+01 -0.28509977485E+02  0.78145251597E+01  0.30215452435E+02  0.00000000000E+00 0.  1.
</event>
<event>
 8    1  0.5829710E-012  0.9118800E+02  0.7816164E-02  0.1184000E+00
        -11   -1    0    0    0    0  0.00000000000E+00  0.00000000000E+00  0.45593999997E+02  0.45594000000E+02  0.51100000000E-03 0. -1.
         11   -1    0    0    0    0 -0.00000000000E+00 -0.00000000000E+00 -0.45593999997E+02  0.45594000000E+02  0.51100000000E-03 0.  1.
         23    2    1    2    0    0  0.17763568394E-14  0.00000000000E+00  0.00000000000E+00  0.91188000000E+02  0.91188000000E+02 0.  0.
    9900012    2    3    3    0    0 -0.62286378331E+01  0.10393685871E+02 -0.38811620505E+02  0.50528849475E+02  0.29999968463E+02 0.  0.
         12    1    3    3    0    0  0.62286378331E+01 -0.10393685871E+02  0.38811620505E+02  0.40659150525E+02  0.00000000000E+00 0. -1.
         11    1    4    4    0    0  0.54398776686E+01  0.33984246700E+01 -0.82631070552E+01  0.10460425314E+02  0.51100000000E-03 0. -1.
        -11    1    4    4    0    0  0.62850903816E+01  0.42509475597E+00 -0.11310663682E+02  0.12946589506E+02  0.51100000000E-03 0.  1.
         12    1    4    4    0    0 -0.17953605883E+02  0.65701664448E+01 -0.19237849768E+02  0.27121834654E+02  0.00000000000E+00 0. -1.
</event>
<event>
 8    1  0.5829710E-012  0.9118800E+02  0.7816164E-02  0.1184000E+00
        -11   -1    0    0    0    0  0.00000000000E+00  0.00000000000E+00  0.45593999997E+02  0.45594000000E+02  0.51100000000E-03 0. -1.
         11   -1    0    0    0    0 -0.00000000000E+00 -0.00000000000E+00 -0.45593999997E+02  0.45594000000E+02  0.51100000000E-03 0.  1.
         23    2    1    2    0    0 -0.71054273576E-14  0.88817841970E-15  0.00000000000E+00  0.91188000000E+02  0.91188000000E+02 0.  0.
    9900012    2    3    3    0    0 -0.22996693967E+02  0.52233144800E+01 -0.33121505716E+02  0.50528867097E+02  0.30000022027E+02 0.  0.
         12    1    3    3    0    0  0.22996693967E+02 -0.52233144800E+01  0.33121505716E+02  0.40659132903E+02  0.00000000000E+00 0. -1.
         11    1    4    4    0    0 -0.26156774113E+02  0.57370894413E+01 -0.17736451151E+02  0.32119662622E+02  0.51100000000E-03 0. -1.
        -11    1    4    4    0    0  0.12864419578E+01 -0.48983215014E+01 -0.57735217590E+01  0.76799765758E+01  0.51100000000E-03 0.  1.
        -12    1    4    4    0    0  0.18736381883E+01  0.43845465401E+01 -0.96115328064E+01  0.10729227899E+02  0.00000000000E+00 0.  1.
</event>
<event>
 8    1  0.5829710E-012  0.9118800E+02  0.7816164E-02  0.1184000E+00
        -11   -1    0    0    0    0  0.00000000000E+00  0.00000000000E+00  0.45593999997E+02  0.45594000000E+02  0.51100000000E-03 0. -1.
         11   -1    0    0    0    0 -0.00000000000E+00 -0.00000000000E+00 -0.45593999997E+02  0.45594000000E+02  0.51100000000E-03 0.  1.
         23    2    1    2    0    0  0.35527136788E-14  0.83266726847E-16  0.00000000000E+00  0.91188000000E+02  0.91188000000E+02 0.  0.
    9900012    2    3    3    0    0 -0.24499823818E+02 -0.18565921731E+00 -0.32448259449E+02  0.50528863540E+02  0.30000011216E+02 0.  0.
         12    1    3    3    0    0  0.24499823818E+02  0.18565921731E+00  0.32448259449E+02  0.40659136460E+02  0.00000000000E+00 0. -1.
         11    1    4    4    0    0  0.15869711100E+01 -0.71484736683E+01  0.21199678812E+00  0.73255782017E+01  0.51100000000E-03 0. -1.
        -11    1    4    4    0    0 -0.12762806132E+02  0.22161329466E+01 -0.21849060018E+02  0.25400430893E+02  0.51100000000E-03 0.  1.
        -12    1    4    4    0    0 -0.13323988795E+02  0.47466815044E+01 -0.10811196218E+02  0.17802854445E+02  0.00000000000E+00 0.  1.
</event>
<event>
 8    1  0.5829710E-012  0.9118800E+02  0.7816164E-02  0.1184000E+00
        -11   -1    0    0    0    0  0.00000000000E+00  0.00000000000E+00  0.45593999997E+02  0.45594000000E+02  0.51100000000E-03 0. -1.
         11   -1    0    0    0    0 -0.00000000000E+00 -0.00000000000E+00 -0.45593999997E+02  0.45594000000E+02  0.51100000000E-03 0.  1.
         23    2    1    2    0    0  0.88817841970E-15 -0.71054273576E-14 -0.71054273576E-14  0.91188000000E+02  0.91188000000E+02 0.  0.
    9900012    2    3    3    0    0 -0.58143956295E+01  0.27471072926E+02  0.29405760048E+02  0.50528858737E+02  0.29999996617E+02 0.  0.
        -12    1    3    3    0    0  0.58143956295E+01 -0.27471072926E+02 -0.29405760048E+02  0.40659141263E+02  0.00000000000E+00 0.  1.
         11    1    4    4    0    0 -0.26649816956E+01  0.46765867461E+01  0.37481445807E+01  0.65590532160E+01  0.51100000000E-03 0. -1.
        -11    1    4    4    0    0 -0.61790756004E+01  0.16411685484E+02  0.30654491498E+02  0.35316033823E+02  0.51100000000E-03 0.  1.
        -12    1    4    4    0    0  0.30296616665E+01  0.63828006962E+01 -0.49968760306E+01  0.86537716983E+01  0.00000000000E+00 0.  1.
</event>
<event>
 8    1  0.5829710E-012  0.9118800E+02  0.7816164E-02  0.1184000E+00
        -11   -1    0    0    0    0  0.00000000000E+00  0.00000000000E+00  0.45593999997E+02  0.45594000000E+02  0.51100000000E-03 0. -1.
         11   -1    0    0    0    0 -0.00000000000E+00 -0.00000000000E+00 -0.45593999997E+02  0.45594000000E+02  0.51100000000E-03 0.  1.
         23    2    1    2    0    0  0.17763568394E-14  0.35527136788E-14 -0.35527136788E-14  0.91188000000E+02  0.91188000000E+02 0.  0.
    9900012    2    3    3    0    0 -0.93940059689E+01 -0.30435971494E+02  0.25269962143E+02  0.50528847333E+02  0.29999961953E+02 0.  0.
        -12    1    3    3    0    0  0.93940059689E+01  0.30435971494E+02 -0.25269962143E+02  0.40659152667E+02  0.00000000000E+00 0.  1.
         11    1    4    4    0    0  0.25392686502E+01  0.27927649376E+00 -0.96180861597E+00  0.27296440634E+01  0.51100000000E-03 0. -1.
        -11    1    4    4    0    0  0.53680020315E+01 -0.53748176387E+01  0.11450363031E+02  0.13740994297E+02  0.51100000000E-03 0.  1.
         12    1    4    4    0    0 -0.17301276651E+02 -0.25340430349E+02  0.14781407728E+02  0.34058208973E+02  0.00000000000E+00 0. -1.
</event>
<event>
 8    1  0.5829710E-012  0.9118800E+02  0.7816164E-02  0.1184000E+00
        -11   -1    0    0    0    0  0.00000000000E+00  0.00000000000E+00  0.45593999997E+02  0.45594000000E+02  0.51100000000E-03 0. -1.
         11   -1    0    0    0    0 -0.00000000000E+00 -0.00000000000E+00 -0.45593999997E+02  0.45594000000E+02  0.51100000000E-03 0.  1.
         23    2    1    2    0    0  0.00000000000E+00 -0.88817841970E-15 -0.71054273576E-14  0.91188000000E+02  0.91188000000E+02 0.  0.
    9900012    2    3    3    0    0 -0.15770830802E+01  0.18649353760E+01  0.40585710199E+02  0.50528867602E+02  0.30000023563E+02 0.  0.
        -12    1    3    3    0    0  0.15770830802E+01 -0.18649353760E+01 -0.40585710199E+02  0.40659132398E+02  0.00000000000E+00 0.  1.
         11    1    4    4    0    0 -0.14241441432E+01  0.99113683053E+01  0.27672947159E+02  0.29428819428E+02  0.51100000000E-03 0. -1.
        -11    1    4    4    0    0  0.24339563432E+00  0.41140632934E+00 -0.30197777302E+01  0.30573770464E+01  0.51100000000E-03 0.  1.
        -12    1    4    4    0    0 -0.39633457132E+00 -0.84578392586E+01  0.15932540770E+02  0.18042671128E+02  0.00000000000E+00 0.  1.
</event>
<event>
 8    1  0.5829710E-012  0.9118800E+02  0.7816164E-02  0.1184000E+00
        -11   -1    0    0    0    0  0.00000000000E+00  0.00000000000E+00  0.45593999997E+02  0.45594000000E+02  0.51100000000E-03 0. -1.
         11   -1    0    0    0    0 -0.00000000000E+00 -0.00000000000E+00 -0.45593999997E+02  0.45594000000E+02  0.51100000000E-03 0.  1.
         23    2    1    2    0    0  0.00000000000E+00  0.00000000000E+00  0.00000000000E+00  0.91188000000E+02  0.91188000000E+02 0.  0.
    9900012    2    3    3    0    0  0.34128778311E+02  0.19007763194E+02 -0.11273736691E+02  0.50528859458E+02  0.29999998809E+02 0.  0.
         12    1    3    3    0    0 -0.34128778311E+02 -0.19007763194E+02  0.11273736691E+02  0.40659140542E+02  0.00000000000E+00 0. -1.
         11    1    4    4    0    0 -0.19091496519E+01 -0.58205869095E+00 -0.29346731236E+00  0.20173666096E+01  0.51100000000E-03 0. -1.
        -11    1    4    4    0    0  0.22443878792E+02  0.20476423333E+02 -0.15567009206E+02  0.34137126177E+02  0.51100000000E-03 0.  1.
         12    1    4    4    0    0  0.13594049170E+02 -0.88660144779E+00  0.45867398265E+01  0.14374366672E+02  0.00000000000E+00 0. -1.
</event>
<event>
 8    1  0.5829710E-012  0.9118800E+02  0.7816164E-02  0.1184000E+00
        -11   -1    0    0    0    0  0.00000000000E+00  0.00000000000E+00  0.45593999997E+02  0.45594000000E+02  0.51100000000E-03 0. -1.
         11   -1    0    0    0    0 -0.00000000000E+00 -0.00000000000E+00 -0.45593999997E+02  0.45594000000E+02  0.51100000000E-03 0.  1.
         23    2    1    2    0    0  0.00000000000E+00  0.00000000000E+00  0.13322676296E-14  0.91188000000E+02  0.91188000000E+02 0.  0.
    9900012    2    3    3    0    0  0.32964229626E+02 -0.23670874264E+02 -0.24929651748E+01  0.50528860823E+02  0.30000002958E+02 0.  0.
         12    1    3    3    0    0 -0.32964229626E+02  0.23670874264E+02  0.24929651748E+01  0.40659139177E+02  0.00000000000E+00 0. -1.
         11    1    4    4    0    0  0.43216178307E+01 -0.23063483015E+01  0.11465115759E+01  0.50309156440E+01  0.51100000000E-03 0. -1.
        -11    1    4    4    0    0  0.30844315581E+02 -0.15941417214E+02 -0.10695486434E+02  0.36330345673E+02  0.51100000000E-03 0.  1.
         12    1    4    4    0    0 -0.22017037855E+01 -0.54231087480E+01  0.70560096831E+01  0.91675995059E+01  0.00000000000E+00 0. -1.
</event>
<event>
 8    1  0.5829710E-012  0.9118800E+02  0.7816164E-02  0.1184000E+00
        -11   -1    0    0    0    0  0.00000000000E+00  0.00000000000E+00  0.45593999997E+02  0.45594000000E+02  0.51100000000E-03 0.  1.
         11   -1    0    0    0    0 -0.00000000000E+00 -0.00000000000E+00 -0.45593999997E+02  0.45594000000E+02  0.51100000000E-03 0. -1.
         23    2    1    2    0    0  0.35527136788E-14 -0.35527136788E-14  0.44408920985E-15  0.91188000000E+02  0.91188000000E+02 0.  0.
    9900012    2    3    3    0    0 -0.27161959481E+02  0.30027470840E+02  0.37074528556E+01  0.50528852756E+02  0.29999978439E+02 0.  0.
        -12    1    3    3    0    0  0.27161959481E+02 -0.30027470840E+02 -0.37074528556E+01  0.40659147244E+02  0.00000000000E+00 0.  1.
         11    1    4    4    0    0 -0.15270399079E+02 -0.24266421243E+01  0.10698218095E+01  0.15498974127E+02  0.51100000000E-03 0.  1.
        -11    1    4    4    0    0 -0.89467777118E+01  0.17438235720E+02  0.21905236818E+01  0.19721442410E+02  0.51100000000E-03 0. -1.
        -12    1    4    4    0    0 -0.29447826905E+01  0.15015877244E+02  0.44710736435E+00  0.15308436219E+02  0.00000000000E+00 0.  1.
</event>
<event>
 8    1  0.5829710E-012  0.9118800E+02  0.7816164E-02  0.1184000E+00
        -11   -1    0    0    0    0  0.00000000000E+00  0.00000000000E+00  0.45593999997E+02  0.45594000000E+02  0.51100000000E-03 0. -1.
         11   -1    0    0    0    0 -0.00000000000E+00 -0.00000000000E+00 -0.45593999997E+02  0.45594000000E+02  0.51100000000E-03 0.  1.
         23    2    1    2    0    0  0.00000000000E+00 -0.88817841970E-15  0.00000000000E+00  0.91188000000E+02  0.91188000000E+02 0.  0.
    9900012    2    3    3    0    0  0.22153619321E+02 -0.55780351215E+01  0.33634199393E+02  0.50528970331E+02  0.30000335816E+02 0.  0.
        -12    1    3    3    0    0 -0.22153619321E+02  0.55780351215E+01 -0.33634199393E+02  0.40659029669E+02  0.00000000000E+00 0.  1.
         11    1    4    4    0    0  0.32130280838E+01  0.37126768263E+01  0.68949352701E+01  0.84644935657E+01  0.51100000000E-03 0. -1.
        -11    1    4    4    0    0  0.36841273744E+01  0.29945694337E+01 -0.35952428059E+01  0.59553347260E+01  0.51100000000E-03 0.  1.
         12    1    4    4    0    0  0.15256463863E+02 -0.12285281381E+02  0.30334506928E+02  0.36109142039E+02  0.00000000000E+00 0. -1.
</event>
<event>
 8    1  0.5829710E-012  0.9118800E+02  0.7816164E-02  0.1184000E+00
        -11   -1    0    0    0    0  0.00000000000E+00  0.00000000000E+00  0.45593999997E+02  0.45594000000E+02  0.51100000000E-03 0. -1.
         11   -1    0    0    0    0 -0.00000000000E+00 -0.00000000000E+00 -0.45593999997E+02  0.45594000000E+02  0.51100000000E-03 0.  1.
         23    2    1    2    0    0  0.17763568394E-14  0.88817841970E-15  0.00000000000E+00  0.91188000000E+02  0.91188000000E+02 0.  0.
    9900012    2    3    3    0    0  0.11047534855E+02 -0.12088425724E+01 -0.39110818808E+02  0.50528862348E+02  0.30000007593E+02 0.  0.
         12    1    3    3    0    0 -0.11047534855E+02  0.12088425724E+01  0.39110818808E+02  0.40659137652E+02  0.00000000000E+00 0. -1.
         11    1    4    4    0    0  0.84301224311E+01 -0.57453676634E+01 -0.16781788226E+02  0.19639364300E+02  0.51100000000E-03 0. -1.
        -11    1    4    4    0    0 -0.28353436253E+00 -0.81524808652E+01 -0.67465736494E+01  0.10585820340E+02  0.51100000000E-03 0.  1.
        -12    1    4    4    0    0  0.29009467867E+01  0.12689005956E+02 -0.15582456933E+02  0.20303677708E+02  0.00000000000E+00 0.  1.
</event>
<event>
 8    1  0.5829710E-012  0.9118800E+02  0.7816164E-02  0.1184000E+00
        -11   -1    0    0    0    0  0.00000000000E+00  0.00000000000E+00  0.45593999997E+02  0.45594000000E+02  0.51100000000E-03 0. -1.
         11   -1    0    0    0    0 -0.00000000000E+00 -0.00000000000E+00 -0.45593999997E+02  0.45594000000E+02  0.51100000000E-03 0.  1.
         23    2    1    2    0    0  0.35527136788E-14 -0.35527136788E-14 -0.35527136788E-14  0.91188000000E+02  0.91188000000E+02 0.  0.
    9900012    2    3    3    0    0  0.29472039608E+02  0.22766178575E+02  0.16317651298E+02  0.50528858968E+02  0.29999997319E+02 0.  0.
         12    1    3    3    0    0 -0.29472039608E+02 -0.22766178575E+02 -0.16317651298E+02  0.40659141032E+02  0.00000000000E+00 0. -1.
         11    1    4    4    0    0 -0.22268905260E+01  0.19856138009E+01  0.43821580642E+01  0.53014161449E+01  0.51100000000E-03 0. -1.
        -11    1    4    4    0    0  0.25398001660E+02  0.80293667321E+01  0.15152418798E+02  0.30645146665E+02  0.51100000000E-03 0.  1.
        -12    1    4    4    0    0  0.63009284740E+01  0.12751198042E+02 -0.32169255643E+01  0.14582296158E+02  0.00000000000E+00 0.  1.
</event>
<event>
 8    1  0.5829710E-012  0.9118800E+02  0.7816164E-02  0.1184000E+00
        -11   -1    0    0    0    0  0.00000000000E+00  0.00000000000E+00  0.45593999997E+02  0.45594000000E+02  0.51100000000E-03 0. -1.
         11   -1    0    0    0    0 -0.00000000000E+00 -0.00000000000E+00 -0.45593999997E+02  0.45594000000E+02  0.51100000000E-03 0.  1.
         23    2    1    2    0    0  0.00000000000E+00  0.00000000000E+00  0.00000000000E+00  0.91188000000E+02  0.91188000000E+02 0.  0.
    9900012    2    3    3    0    0 -0.35540593714E+02 -0.17408612363E+02 -0.93258713562E+01  0.50528862497E+02  0.30000008046E+02 0.  0.
         12    1    3    3    0    0  0.35540593714E+02  0.17408612363E+02  0.93258713562E+01  0.40659137503E+02  0.00000000000E+00 0. -1.
         11    1    4    4    0    0 -0.88829172361E+01 -0.69101739237E+01 -0.13503294005E+02  0.17578272712E+02  0.51100000000E-03 0. -1.
        -11    1    4    4    0    0 -0.50869566055E+01 -0.88596478453E+01 -0.20906863305E+01  0.10427917196E+02  0.51100000000E-03 0.  1.
         12    1    4    4    0    0 -0.21570719872E+02 -0.16387905940E+01  0.62681089791E+01  0.22522672590E+02  0.00000000000E+00 0. -1.
</event>
<event>
 8    1  0.5829710E-012  0.9118800E+02  0.7816164E-02  0.1184000E+00
        -11   -1    0    0    0    0  0.00000000000E+00  0.00000000000E+00  0.45593999997E+02  0.45594000000E+02  0.51100000000E-03 0.  1.
         11   -1    0    0    0    0 -0.00000000000E+00 -0.00000000000E+00 -0.45593999997E+02  0.45594000000E+02  0.51100000000E-03 0. -1.
         23    2    1    2    0    0  0.00000000000E+00  0.00000000000E+00  0.00000000000E+00  0.91188000000E+02  0.91188000000E+02 0.  0.
    9900012    2    3    3    0    0  0.20942895675E+02 -0.27061082742E+02 -0.21960392078E+02  0.50528857134E+02  0.29999991744E+02 0.  0.
         12    1    3    3    0    0 -0.20942895675E+02  0.27061082742E+02  0.21960392078E+02  0.40659142866E+02  0.00000000000E+00 0. -1.
         11    1    4    4    0    0 -0.25485751225E+01  0.77881726434E+00 -0.31946719385E+00  0.26839990751E+01  0.51100000000E-03 0. -1.
        -11    1    4    4    0    0  0.43689924705E+01 -0.25577861634E+01  0.44873942488E+01  0.67651365597E+01  0.51100000000E-03 0.  1.
        -12    1    4    4    0    0  0.19122478327E+02 -0.25282113843E+02 -0.26128319133E+02  0.41079721499E+02  0.00000000000E+00 0.  1.
</event>
<event>
 8    1  0.5829710E-012  0.9118800E+02  0.7816164E-02  0.1184000E+00
        -11   -1    0    0    0    0  0.00000000000E+00  0.00000000000E+00  0.45593999997E+02  0.45594000000E+02  0.51100000000E-03 0. -1.
         11   -1    0    0    0    0 -0.00000000000E+00 -0.00000000000E+00 -0.45593999997E+02  0.45594000000E+02  0.51100000000E-03 0.  1.
         23    2    1    2    0    0  0.35527136788E-14 -0.17763568394E-14 -0.35527136788E-14  0.91188000000E+02  0.91188000000E+02 0.  0.
    9900012    2    3    3    0    0  0.23345780678E+02 -0.14878624665E+02 -0.29778621512E+02  0.50528865153E+02  0.30000016118E+02 0.  0.
         12    1    3    3    0    0 -0.23345780678E+02  0.14878624665E+02  0.29778621512E+02  0.40659134847E+02  0.00000000000E+00 0. -1.
         11    1    4    4    0    0 -0.32171511453E+01 -0.92109775642E+01 -0.17528884739E+02  0.20061255435E+02  0.51100000000E-03 0. -1.
        -11    1    4    4    0    0  0.10038520216E+01  0.71296566211E+00  0.32989098395E+00  0.12747028042E+01  0.51100000000E-03 0.  1.
        -12    1    4    4    0    0  0.25559079802E+02 -0.63806127634E+01 -0.12579627756E+02  0.29192906913E+02  0.00000000000E+00 0.  1.
</event>
<event>
 8    1  0.8338022E-012  0.9118800E+02  0.7816164E-02  0.1184000E+00
        -11   -1    0    0    0    0  0.00000000000E+00  0.00000000000E+00  0.45593999997E+02  0.45594000000E+02  0.51100000000E-03 0. -1.
         11   -1    0    0    0    0 -0.00000000000E+00 -0.00000000000E+00 -0.45593999997E+02  0.45594000000E+02  0.51100000000E-03 0.  1.
         23    2    1    2    0    0  0.00000000000E+00  0.00000000000E+00 -0.71054273576E-14  0.91188000000E+02  0.91188000000E+02 0.  0.
    9900012    2    3    3    0    0 -0.14676400447E+02  0.18734111001E+02 -0.32966683161E+02  0.50528857809E+02  0.29999993796E+02 0.  0.
         12    1    3    3    0    0  0.14676400447E+02 -0.18734111001E+02  0.32966683161E+02  0.40659142191E+02  0.00000000000E+00 0. -1.
         11    1    4    4    0    0 -0.11192601906E+02  0.59122325970E+01 -0.79727163984E+01  0.14959713859E+02  0.51100000000E-03 0. -1.
        -11    1    4    4    0    0 -0.11715827568E+02  0.87959671097E+01 -0.20922216966E+02  0.25541511624E+02  0.51100000000E-03 0.  1.
         12    1    4    4    0    0  0.82320290275E+01  0.40259112943E+01 -0.40717497965E+01  0.10027632326E+02  0.00000000000E+00 0. -1.
</event>
<event>
 8    1  0.5829710E-012  0.9118800E+02  0.7816164E-02  0.1184000E+00
        -11   -1    0    0    0    0  0.00000000000E+00  0.00000000000E+00  0.45593999997E+02  0.45594000000E+02  0.51100000000E-03 0. -1.
         11   -1    0    0    0    0 -0.00000000000E+00 -0.00000000000E+00 -0.45593999997E+02  0.45594000000E+02  0.51100000000E-03 0.  1.
         23    2    1    2    0    0  0.00000000000E+00  0.35527136788E-14 -0.35527136788E-14  0.91188000000E+02  0.91188000000E+02 0.  0.
    9900012    2    3    3    0    0  0.26027870239E+02  0.16556554875E+02 -0.26487647312E+02  0.50528868201E+02  0.30000025385E+02 0.  0.
         12    1    3    3    0    0 -0.26027870239E+02 -0.16556554875E+02  0.26487647312E+02  0.40659131799E+02  0.00000000000E+00 0. -1.
         11    1    4    4    0    0  0.41885981275E+01  0.31125471327E+01 -0.15517816966E+01  0.54442933997E+01  0.51100000000E-03 0. -1.
        -11    1    4    4    0    0 -0.25596557592E+01  0.12903976116E+02 -0.86118215138E+01  0.15723482669E+02  0.51100000000E-03 0.  1.
         12    1    4    4    0    0  0.24398927871E+02  0.54003162647E+00 -0.16324044101E+02  0.29361092133E+02  0.00000000000E+00 0. -1.
</event>
<event>
 8    1  0.5829710E-012  0.9118800E+02  0.7816164E-02  0.1184000E+00
        -11   -1    0    0    0    0  0.00000000000E+00  0.00000000000E+00  0.45593999997E+02  0.45594000000E+02  0.51100000000E-03 0. -1.
         11   -1    0    0    0    0 -0.00000000000E+00 -0.00000000000E+00 -0.45593999997E+02  0.45594000000E+02  0.51100000000E-03 0.  1.
         23    2    1    2    0    0  0.00000000000E+00  0.17763568394E-14 -0.35527136788E-14  0.91188000000E+02  0.91188000000E+02 0.  0.
    9900012    2    3    3    0    0 -0.32220252042E+02 -0.10600273341E+02 -0.22420083533E+02  0.50528799538E+02  0.29999816675E+02 0.  0.
         12    1    3    3    0    0  0.32220252042E+02  0.10600273341E+02  0.22420083533E+02  0.40659200462E+02  0.00000000000E+00 0. -1.
         11    1    4    4    0    0 -0.13483591623E+02 -0.66921618495E+01 -0.14076679282E+02  0.20609346742E+02  0.51100000000E-03 0. -1.
        -11    1    4    4    0    0 -0.34516955414E+01  0.46324698997E+00 -0.12915893666E+02  0.13377186151E+02  0.51100000000E-03 0.  1.
         12    1    4    4    0    0 -0.15284964878E+02 -0.43713584815E+01  0.45724894144E+01  0.16542266644E+02  0.00000000000E+00 0. -1.
</event>
<event>
 8    1  0.5829710E-012  0.9118800E+02  0.7816164E-02  0.1184000E+00
        -11   -1    0    0    0    0  0.00000000000E+00  0.00000000000E+00  0.45593999997E+02  0.45594000000E+02  0.51100000000E-03 0. -1.
         11   -1    0    0    0    0 -0.00000000000E+00 -0.00000000000E+00 -0.45593999997E+02  0.45594000000E+02  0.51100000000E-03 0.  1.
         23    2    1    2    0    0  0.17763568394E-14  0.00000000000E+00  0.00000000000E+00  0.91188000000E+02  0.91188000000E+02 0.  0.
    9900012    2    3    3    0    0  0.13780614871E+02  0.18267050839E+02 -0.33609172361E+02  0.50528844090E+02  0.29999952095E+02 0.  0.
         12    1    3    3    0    0 -0.13780614871E+02 -0.18267050839E+02  0.33609172361E+02  0.40659155910E+02  0.00000000000E+00 0. -1.
         11    1    4    4    0    0 -0.38888883390E+01 -0.12474956324E+00  0.38441908009E+00  0.39098328937E+01  0.51100000000E-03 0. -1.
        -11    1    4    4    0    0  0.98446810697E+01  0.18228707215E+02 -0.13618578664E+02  0.24792523009E+02  0.51100000000E-03 0.  1.
         12    1    4    4    0    0  0.78248221402E+01  0.16309318737E+00 -0.20375012777E+02  0.21826488187E+02  0.00000000000E+00 0. -1.
</event>
<event>
 8    1  0.5829710E-012  0.9118800E+02  0.7816164E-02  0.1184000E+00
        -11   -1    0    0    0    0  0.00000000000E+00  0.00000000000E+00  0.45593999997E+02  0.45594000000E+02  0.51100000000E-03 0. -1.
         11   -1    0    0    0    0 -0.00000000000E+00 -0.00000000000E+00 -0.45593999997E+02  0.45594000000E+02  0.51100000000E-03 0.  1.
         23    2    1    2    0    0 -0.22204460493E-15  0.00000000000E+00  0.00000000000E+00  0.91188000000E+02  0.91188000000E+02 0.  0.
    9900012    2    3    3    0    0  0.10788678221E+01 -0.20079967452E+02  0.35338301422E+02  0.50528873152E+02  0.30000040432E+02 0.  0.
        -12    1    3    3    0    0 -0.10788678221E+01  0.20079967452E+02 -0.35338301422E+02  0.40659126848E+02  0.00000000000E+00 0.  1.
         11    1    4    4    0    0 -0.73334461870E+01 -0.12855447385E+02  0.10376838672E+02  0.18075418156E+02  0.51100000000E-03 0. -1.
        -11    1    4    4    0    0 -0.41681797376E+01 -0.49491368374E+01  0.32098403778E+01  0.72229324566E+01  0.51100000000E-03 0.  1.
         12    1    4    4    0    0  0.12580493747E+02 -0.22753832295E+01  0.21751622373E+02  0.25230522539E+02  0.00000000000E+00 0. -1.
</event>
<event>
 8    1  0.5829710E-012  0.9118800E+02  0.7816164E-02  0.1184000E+00
        -11   -1    0    0    0    0  0.00000000000E+00  0.00000000000E+00  0.45593999997E+02  0.45594000000E+02  0.51100000000E-03 0. -1.
         11   -1    0    0    0    0 -0.00000000000E+00 -0.00000000000E+00 -0.45593999997E+02  0.45594000000E+02  0.51100000000E-03 0.  1.
         23    2    1    2    0    0  0.71054273576E-14  0.35527136788E-14 -0.35527136788E-14  0.91188000000E+02  0.91188000000E+02 0.  0.
    9900012    2    3    3    0    0 -0.18933929708E+02 -0.22362434033E+02  0.28188547597E+02  0.50528851390E+02  0.29999974284E+02 0.  0.
        -12    1    3    3    0    0  0.18933929708E+02  0.22362434033E+02 -0.28188547597E+02  0.40659148610E+02  0.00000000000E+00 0.  1.
         11    1    4    4    0    0 -0.61504658830E+01 -0.12685885370E+01 -0.23602674815E+01  0.67088307699E+01  0.51100000000E-03 0.  1.
        -11    1    4    4    0    0 -0.11572000459E+02 -0.20816398191E+01  0.76264042721E+01  0.14014508959E+02  0.51100000000E-03 0. -1.
        -12    1    4    4    0    0 -0.12114633659E+01 -0.19012205677E+02  0.22922410807E+02  0.29805511661E+02  0.00000000000E+00 0.  1.
</event>
<event>
 8    1  0.5829710E-012  0.9118800E+02  0.7816164E-02  0.1184000E+00
        -11   -1    0    0    0    0  0.00000000000E+00  0.00000000000E+00  0.45593999997E+02  0.45594000000E+02  0.51100000000E-03 0. -1.
         11   -1    0    0    0    0 -0.00000000000E+00 -0.00000000000E+00 -0.45593999997E+02  0.45594000000E+02  0.51100000000E-03 0.  1.
         23    2    1    2    0    0  0.00000000000E+00  0.00000000000E+00  0.17763568394E-14  0.91188000000E+02  0.91188000000E+02 0.  0.
    9900012    2    3    3    0    0  0.13141229333E+02 -0.35357954602E+02 -0.15175254320E+02  0.50528865655E+02  0.30000017646E+02 0.  0.
         12    1    3    3    0    0 -0.13141229333E+02  0.35357954602E+02  0.15175254320E+02  0.40659134345E+02  0.00000000000E+00 0. -1.
         11    1    4    4    0    0 -0.11885771108E+01 -0.43485267036E+01 -0.10952812405E+01  0.46391854131E+01  0.51100000000E-03 0. -1.
        -11    1    4    4    0    0  0.34971410408E+01 -0.15266316598E+02 -0.20438830983E+02  0.25749489901E+02  0.51100000000E-03 0.  1.
        -12    1    4    4    0    0  0.10832665403E+02 -0.15743111300E+02  0.63588579039E+01  0.20140190341E+02  0.00000000000E+00 0.  1.
</event>
<event>
 8    1  0.5829710E-012  0.9118800E+02  0.7816164E-02  0.1184000E+00
        -11   -1    0    0    0    0  0.00000000000E+00  0.00000000000E+00  0.45593999997E+02  0.45594000000E+02  0.51100000000E-03 0. -1.
         11   -1    0    0    0    0 -0.00000000000E+00 -0.00000000000E+00 -0.45593999997E+02  0.45594000000E+02  0.51100000000E-03 0.  1.
         23    2    1    2    0    0 -0.17763568394E-14  0.00000000000E+00 -0.35527136788E-14  0.91188000000E+02  0.91188000000E+02 0.  0.
    9900012    2    3    3    0    0  0.11917176650E+02 -0.26292176536E+02  0.28633301738E+02  0.50528885219E+02  0.30000077113E+02 0.  0.
        -12    1    3    3    0    0 -0.11917176650E+02  0.26292176536E+02 -0.28633301738E+02  0.40659114781E+02  0.00000000000E+00 0.  1.
         11    1    4    4    0    0 -0.99737206506E+01 -0.10020428664E+02  0.80568088424E+01  0.16272561667E+02  0.51100000000E-03 0.  1.
        -11    1    4    4    0    0  0.75029735180E+01 -0.41511097040E+01  0.65334943785E+01  0.10780207440E+02  0.51100000000E-03 0. -1.
        -12    1    4    4    0    0  0.14387923783E+02 -0.12120638168E+02  0.14042998517E+02  0.23476116113E+02  0.00000000000E+00 0.  1.
</event>
<event>
 8    1  0.5829710E-012  0.9118800E+02  0.7816164E-02  0.1184000E+00
        -11   -1    0    0    0    0  0.00000000000E+00  0.00000000000E+00  0.45593999997E+02  0.45594000000E+02  0.51100000000E-03 0. -1.
         11   -1    0    0    0    0 -0.00000000000E+00 -0.00000000000E+00 -0.45593999997E+02  0.45594000000E+02  0.51100000000E-03 0.  1.
         23    2    1    2    0    0  0.88817841970E-15  0.00000000000E+00  0.35527136788E-14  0.91188000000E+02  0.91188000000E+02 0.  0.
    9900012    2    3    3    0    0 -0.69719373570E+01 -0.35097994375E+02  0.19305149058E+02  0.50528857119E+02  0.29999991699E+02 0.  0.
        -12    1    3    3    0    0  0.69719373570E+01  0.35097994375E+02 -0.19305149058E+02  0.40659142881E+02  0.00000000000E+00 0.  1.
         11    1    4    4    0    0  0.23107618496E+01 -0.24368328758E+02  0.67491877567E+01  0.25391073282E+02  0.51100000000E-03 0. -1.
        -11    1    4    4    0    0  0.16108227520E+01 -0.84629962600E+01  0.35096553631E+00  0.86220782125E+01  0.51100000000E-03 0.  1.
        -12    1    4    4    0    0 -0.10893521959E+02 -0.22666693568E+01  0.12204995765E+02  0.16515705624E+02  0.00000000000E+00 0.  1.
</event>
<event>
 8    1  0.5829710E-012  0.9118800E+02  0.7816164E-02  0.1184000E+00
        -11   -1    0    0    0    0  0.00000000000E+00  0.00000000000E+00  0.45593999997E+02  0.45594000000E+02  0.51100000000E-03 0. -1.
         11   -1    0    0    0    0 -0.00000000000E+00 -0.00000000000E+00 -0.45593999997E+02  0.45594000000E+02  0.51100000000E-03 0.  1.
         23    2    1    2    0    0  0.00000000000E+00 -0.55511151231E-16  0.00000000000E+00  0.91188000000E+02  0.91188000000E+02 0.  0.
    9900012    2    3    3    0    0 -0.13162748972E+02  0.34479641465E+00 -0.38468029039E+02  0.50528854618E+02  0.29999984097E+02 0.  0.
         12    1    3    3    0    0  0.13162748972E+02 -0.34479641465E+00  0.38468029039E+02  0.40659145382E+02  0.00000000000E+00 0. -1.
         11    1    4    4    0    0  0.34585110681E+01  0.73761307569E+00 -0.75134690153E+00  0.36152308758E+01  0.51100000000E-03 0. -1.
        -11    1    4    4    0    0  0.52913850088E+01 -0.18295825703E+01 -0.49754830673E+01  0.74900974431E+01  0.51100000000E-03 0.  1.
        -12    1    4    4    0    0 -0.21912645049E+02  0.14367659093E+01 -0.32741199070E+02  0.39423526299E+02  0.00000000000E+00 0.  1.
</event>
<event>
 8    1  0.5829710E-012  0.9118800E+02  0.7816164E-02  0.1184000E+00
        -11   -1    0    0    0    0  0.00000000000E+00  0.00000000000E+00  0.45593999997E+02  0.45594000000E+02  0.51100000000E-03 0. -1.
         11   -1    0    0    0    0 -0.00000000000E+00 -0.00000000000E+00 -0.45593999997E+02  0.45594000000E+02  0.51100000000E-03 0.  1.
         23    2    1    2    0    0  0.17763568394E-14 -0.71054273576E-14 -0.35527136788E-14  0.91188000000E+02  0.91188000000E+02 0.  0.
    9900012    2    3    3    0    0 -0.80710834759E+01  0.35405073615E+02  0.18289451044E+02  0.50528860244E+02  0.30000001199E+02 0.  0.
        -12    1    3    3    0    0  0.80710834759E+01 -0.35405073615E+02 -0.18289451044E+02  0.40659139756E+02  0.00000000000E+00 0.  1.
         11    1    4    4    0    0 -0.15189582389E+02  0.20563187289E+02  0.12546523939E+02  0.28477769363E+02  0.51100000000E-03 0. -1.
        -11    1    4    4    0    0  0.89386514862E+00 -0.10935506013E+01  0.47041065018E+01  0.49115645230E+01  0.51100000000E-03 0.  1.
         12    1    4    4    0    0  0.62246337646E+01  0.15935436927E+02  0.10388206032E+01  0.17139526359E+02  0.00000000000E+00 0. -1.
</event>
<event>
 8    1  0.5829710E-012  0.9118800E+02  0.7816164E-02  0.1184000E+00
        -11   -1    0    0    0    0  0.00000000000E+00  0.00000000000E+00  0.45593999997E+02  0.45594000000E+02  0.51100000000E-03 0.  1.
         11   -1    0    0    0    0 -0.00000000000E+00 -0.00000000000E+00 -0.45593999997E+02  0.45594000000E+02  0.51100000000E-03 0. -1.
         23    2    1    2    0    0  0.35527136788E-14 -0.35527136788E-14  0.00000000000E+00  0.91188000000E+02  0.91188000000E+02 0.  0.
    9900012    2    3    3    0    0  0.17380705581E+02  0.20440465008E+02 -0.30549371193E+02  0.50528860603E+02  0.30000002290E+02 0.  0.
         12    1    3    3    0    0 -0.17380705581E+02 -0.20440465008E+02  0.30549371193E+02  0.40659139397E+02  0.00000000000E+00 0. -1.
         11    1    4    4    0    0  0.27321158419E+01 -0.32070380901E+01 -0.38995603888E+01  0.57407422666E+01  0.51100000000E-03 0. -1.
        -11    1    4    4    0    0  0.20020280045E+02  0.15301818768E+02 -0.14401698552E+02  0.29023545478E+02  0.51100000000E-03 0.  1.
        -12    1    4    4    0    0 -0.53716903057E+01  0.83456843295E+01 -0.12248112252E+02  0.15764572859E+02  0.00000000000E+00 0.  1.
</event>
<event>
 8    1  0.5829710E-012  0.9118800E+02  0.7816164E-02  0.1184000E+00
        -11   -1    0    0    0    0  0.00000000000E+00  0.00000000000E+00  0.45593999997E+02  0.45594000000E+02  0.51100000000E-03 0. -1.
         11   -1    0    0    0    0 -0.00000000000E+00 -0.00000000000E+00 -0.45593999997E+02  0.45594000000E+02  0.51100000000E-03 0.  1.
         23    2    1    2    0    0 -0.35527136788E-14 -0.35527136788E-14  0.35527136788E-14  0.91188000000E+02  0.91188000000E+02 0.  0.
    9900012    2    3    3    0    0 -0.30543711974E+02 -0.16609873173E+02  0.21079831126E+02  0.50528861934E+02  0.30000006334E+02 0.  0.
        -12    1    3    3    0    0  0.30543711974E+02  0.16609873173E+02 -0.21079831126E+02  0.40659138066E+02  0.00000000000E+00 0.  1.
         11    1    4    4    0    0 -0.14847849740E+02 -0.25251033932E+01  0.58958126089E+01  0.16173910957E+02  0.51100000000E-03 0. -1.
        -11    1    4    4    0    0 -0.13571600379E+02  0.26185158037E+01  0.51260787948E+01  0.14741833194E+02  0.51100000000E-03 0.  1.
         12    1    4    4    0    0 -0.21242618554E+01 -0.16703285583E+02  0.10057939723E+02  0.19613117783E+02  0.00000000000E+00 0. -1.
</event>
<event>
 8    1  0.5829710E-012  0.9118800E+02  0.7816164E-02  0.1184000E+00
        -11   -1    0    0    0    0  0.00000000000E+00  0.00000000000E+00  0.45593999997E+02  0.45594000000E+02  0.51100000000E-03 0. -1.
         11   -1    0    0    0    0 -0.00000000000E+00 -0.00000000000E+00 -0.45593999997E+02  0.45594000000E+02  0.51100000000E-03 0.  1.
         23    2    1    2    0    0  0.35527136788E-14 -0.17763568394E-14  0.00000000000E+00  0.91188000000E+02  0.91188000000E+02 0.  0.
    9900012    2    3    3    0    0 -0.31076552443E+02 -0.12740481202E+02  0.22914929999E+02  0.50528856012E+02  0.29999988334E+02 0.  0.
        -12    1    3    3    0    0  0.31076552443E+02  0.12740481202E+02 -0.22914929999E+02  0.40659143988E+02  0.00000000000E+00 0.  1.
         11    1    4    4    0    0  0.20523109027E+01  0.99531411004E+00  0.41235907123E+00  0.23179021731E+01  0.51100000000E-03 0. -1.
        -11    1    4    4    0    0 -0.25641530536E+02  0.14196316104E+01  0.12396022645E+02  0.28516044954E+02  0.51100000000E-03 0.  1.
         12    1    4    4    0    0 -0.74873328098E+01 -0.15155426922E+02  0.10106548283E+02  0.19694908885E+02  0.00000000000E+00 0. -1.
</event>
<event>
 8    1  0.5829710E-012  0.9118800E+02  0.7816164E-02  0.1184000E+00
        -11   -1    0    0    0    0  0.00000000000E+00  0.00000000000E+00  0.45593999997E+02  0.45594000000E+02  0.51100000000E-03 0. -1.
         11   -1    0    0    0    0 -0.00000000000E+00 -0.00000000000E+00 -0.45593999997E+02  0.45594000000E+02  0.51100000000E-03 0.  1.
         23    2    1    2    0    0 -0.13322676296E-14  0.17763568394E-14  0.71054273576E-14  0.91188000000E+02  0.91188000000E+02 0.  0.
    9900012    2    3    3    0    0  0.11598717844E+01 -0.40442396508E+01  0.40440883311E+02  0.50528853183E+02  0.29999979734E+02 0.  0.
        -12    1    3    3    0    0 -0.11598717844E+01  0.40442396508E+01 -0.40440883311E+02  0.40659146817E+02  0.00000000000E+00 0.  1.
         11    1    4    4    0    0  0.28604724267E+01 -0.72168259571E+01  0.27833078793E+02  0.28895417539E+02  0.51100000000E-03 0. -1.
        -11    1    4    4    0    0  0.24207526759E+01 -0.63916800770E+01  0.70885235634E+01  0.98468667247E+01  0.51100000000E-03 0.  1.
        -12    1    4    4    0    0 -0.41213533182E+01  0.95642663833E+01  0.55192809553E+01  0.11786568919E+02  0.00000000000E+00 0.  1.
</event>
<event>
 8    1  0.5829710E-012  0.9118800E+02  0.7816164E-02  0.1184000E+00
        -11   -1    0    0    0    0  0.00000000000E+00  0.00000000000E+00  0.45593999997E+02  0.45594000000E+02  0.51100000000E-03 0. -1.
         11   -1    0    0    0    0 -0.00000000000E+00 -0.00000000000E+00 -0.45593999997E+02  0.45594000000E+02  0.51100000000E-03 0.  1.
         23    2    1    2    0    0  0.00000000000E+00  0.00000000000E+00  0.00000000000E+00  0.91188000000E+02  0.91188000000E+02 0.  0.
    9900012    2    3    3    0    0  0.14329364296E+02  0.15045696336E+02  0.34949418482E+02  0.50528861893E+02  0.30000006210E+02 0.  0.
        -12    1    3    3    0    0 -0.14329364296E+02 -0.15045696336E+02 -0.34949418482E+02  0.40659138107E+02  0.00000000000E+00 0.  1.
         11    1    4    4    0    0  0.24295812241E+01 -0.37444483038E+01  0.24581670354E+01  0.50957181495E+01  0.51100000000E-03 0. -1.
        -11    1    4    4    0    0 -0.12105182524E+01 -0.11285706202E+01 -0.25546390484E+01  0.30438802560E+01  0.51100000000E-03 0.  1.
        -12    1    4    4    0    0  0.13110301325E+02  0.19918715260E+02  0.35045890495E+02  0.42389263488E+02  0.00000000000E+00 0.  1.
</event>
<event>
 8    1  0.5829710E-012  0.9118800E+02  0.7816164E-02  0.1184000E+00
        -11   -1    0    0    0    0  0.00000000000E+00  0.00000000000E+00  0.45593999997E+02  0.45594000000E+02  0.51100000000E-03 0. -1.
         11   -1    0    0    0    0 -0.00000000000E+00 -0.00000000000E+00 -0.45593999997E+02  0.45594000000E+02  0.51100000000E-03 0.  1.
         23    2    1    2    0    0  0.00000000000E+00  0.00000000000E+00 -0.71054273576E-14  0.91188000000E+02  0.91188000000E+02 0.  0.
    9900012    2    3    3    0    0  0.94188926848E+01  0.20543894831E+02  0.33799399802E+02  0.50528848739E+02  0.29999966229E+02 0.  0.
        -12    1    3    3    0    0 -0.94188926848E+01 -0.20543894831E+02 -0.33799399802E+02  0.40659151261E+02  0.00000000000E+00 0.  1.
         11    1    4    4    0    0  0.85849687714E+00  0.50558264052E+01  0.62532311126E+00  0.51661810636E+01  0.51100000000E-03 0. -1.
        -11    1    4    4    0    0 -0.65443086566E+00  0.61212456750E+01 -0.30202401765E+01  0.68570970065E+01  0.51100000000E-03 0.  1.
         12    1    4    4    0    0  0.92148266733E+01  0.93668227506E+01  0.36194316868E+02  0.38505570669E+02  0.00000000000E+00 0. -1.
</event>
<event>
 8    1  0.5829710E-012  0.9118800E+02  0.7816164E-02  0.1184000E+00
        -11   -1    0    0    0    0  0.00000000000E+00  0.00000000000E+00  0.45593999997E+02  0.45594000000E+02  0.51100000000E-03 0. -1.
         11   -1    0    0    0    0 -0.00000000000E+00 -0.00000000000E+00 -0.45593999997E+02  0.45594000000E+02  0.51100000000E-03 0.  1.
         23    2    1    2    0    0  0.00000000000E+00 -0.35527136788E-14 -0.35527136788E-14  0.91188000000E+02  0.91188000000E+02 0.  0.
    9900012    2    3    3    0    0 -0.12786805176E+02 -0.23969414579E+02  0.30251123265E+02  0.50528859814E+02  0.29999999890E+02 0.  0.
        -12    1    3    3    0    0  0.12786805176E+02  0.23969414579E+02 -0.30251123265E+02  0.40659140186E+02  0.00000000000E+00 0.  1.
         11    1    4    4    0    0 -0.12426498166E+02 -0.23823373920E+02  0.20082089905E+02  0.33544915216E+02  0.51100000000E-03 0. -1.
        -11    1    4    4    0    0 -0.25938289901E+01 -0.58463245611E+01  0.18559330093E+01  0.66597257676E+01  0.51100000000E-03 0.  1.
        -12    1    4    4    0    0  0.22335219806E+01  0.57002839024E+01  0.83131003515E+01  0.10324218831E+02  0.00000000000E+00 0.  1.
</event>
<event>
 8    1  0.5829710E-012  0.9118800E+02  0.7816164E-02  0.1184000E+00
        -11   -1    0    0    0    0  0.00000000000E+00  0.00000000000E+00  0.45593999997E+02  0.45594000000E+02  0.51100000000E-03 0.  1.
         11   -1    0    0    0    0 -0.00000000000E+00 -0.00000000000E+00 -0.45593999997E+02  0.45594000000E+02  0.51100000000E-03 0. -1.
         23    2    1    2    0    0  0.00000000000E+00  0.00000000000E+00  0.00000000000E+00  0.91188000000E+02  0.91188000000E+02 0.  0.
    9900012    2    3    3    0    0 -0.37118675310E+02  0.25711222275E+01  0.16393990330E+02  0.50528811061E+02  0.29999851700E+02 0.  0.
        -12    1    3    3    0    0  0.37118675310E+02 -0.25711222275E+01 -0.16393990330E+02  0.40659188939E+02  0.00000000000E+00 0.  1.
         11    1    4    4    0    0  0.16770835888E+01  0.97235429597E+00 -0.35443186720E+01  0.40398363024E+01  0.51100000000E-03 0. -1.
        -11    1    4    4    0    0 -0.26273259962E+00 -0.31009246720E+01  0.21904527247E+01  0.38056334086E+01  0.51100000000E-03 0.  1.
        -12    1    4    4    0    0 -0.38533026299E+02  0.46996926035E+01  0.17747856277E+02  0.42683341350E+02  0.00000000000E+00 0.  1.
</event>
<event>
 8    1  0.5829710E-012  0.9118800E+02  0.7816164E-02  0.1184000E+00
        -11   -1    0    0    0    0  0.00000000000E+00  0.00000000000E+00  0.45593999997E+02  0.45594000000E+02  0.51100000000E-03 0. -1.
         11   -1    0    0    0    0 -0.00000000000E+00 -0.00000000000E+00 -0.45593999997E+02  0.45594000000E+02  0.51100000000E-03 0.  1.
         23    2    1    2    0    0 -0.17763568394E-14 -0.17763568394E-14  0.00000000000E+00  0.91188000000E+02  0.91188000000E+02 0.  0.
    9900012    2    3    3    0    0  0.87128628267E+01  0.13509457443E+02 -0.37346289444E+02  0.50528871206E+02  0.30000034517E+02 0.  0.
         12    1    3    3    0    0 -0.87128628267E+01 -0.13509457443E+02  0.37346289444E+02  0.40659128794E+02  0.00000000000E+00 0. -1.
         11    1    4    4    0    0 -0.57151576414E+01 -0.15323756008E+01  0.84714342259E-01  0.59176328569E+01  0.51100000000E-03 0. -1.
        -11    1    4    4    0    0 -0.27390728354E+00  0.38190271472E+01 -0.13394672944E+01  0.40563735584E+01  0.51100000000E-03 0.  1.
         12    1    4    4    0    0  0.14701927752E+02  0.11222805897E+02 -0.36091536492E+02  0.40554864791E+02  0.00000000000E+00 0. -1.
</event>
<event>
 8    1  0.5829710E-012  0.9118800E+02  0.7816164E-02  0.1184000E+00
        -11   -1    0    0    0    0  0.00000000000E+00  0.00000000000E+00  0.45593999997E+02  0.45594000000E+02  0.51100000000E-03 0. -1.
         11   -1    0    0    0    0 -0.00000000000E+00 -0.00000000000E+00 -0.45593999997E+02  0.45594000000E+02  0.51100000000E-03 0.  1.
         23    2    1    2    0    0 -0.35527136788E-14 -0.35527136788E-14  0.00000000000E+00  0.91188000000E+02  0.91188000000E+02 0.  0.
    9900012    2    3    3    0    0 -0.25519167809E+02 -0.25552875708E+02  0.18681227151E+02  0.50528860431E+02  0.30000001767E+02 0.  0.
        -12    1    3    3    0    0  0.25519167809E+02  0.25552875708E+02 -0.18681227151E+02  0.40659139569E+02  0.00000000000E+00 0.  1.
         11    1    4    4    0    0  0.18957147833E+01 -0.11243411822E+02  0.66361371583E+00  0.11421402163E+02  0.51100000000E-03 0. -1.
        -11    1    4    4    0    0 -0.19979038648E+01  0.28971866121E+01  0.41077476971E+01  0.54091497966E+01  0.51100000000E-03 0.  1.
         12    1    4    4    0    0 -0.25416978727E+02 -0.17206650498E+02  0.13909865738E+02  0.33698308471E+02  0.00000000000E+00 0. -1.
</event>
<event>
 8    1  0.5829710E-012  0.9118800E+02  0.7816164E-02  0.1184000E+00
        -11   -1    0    0    0    0  0.00000000000E+00  0.00000000000E+00  0.45593999997E+02  0.45594000000E+02  0.51100000000E-03 0. -1.
         11   -1    0    0    0    0 -0.00000000000E+00 -0.00000000000E+00 -0.45593999997E+02  0.45594000000E+02  0.51100000000E-03 0.  1.
         23    2    1    2    0    0  0.35527136788E-14  0.00000000000E+00  0.00000000000E+00  0.91188000000E+02  0.91188000000E+02 0.  0.
    9900012    2    3    3    0    0  0.29835370950E+02  0.16255539971E+02 -0.22333241306E+02  0.50528860724E+02  0.30000002657E+02 0.  0.
         12    1    3    3    0    0 -0.29835370950E+02 -0.16255539971E+02  0.22333241306E+02  0.40659139276E+02  0.00000000000E+00 0. -1.
         11    1    4    4    0    0  0.97295914652E+00  0.69643627498E+01  0.18344331816E+01  0.72673339933E+01  0.51100000000E-03 0. -1.
        -11    1    4    4    0    0 -0.20670912417E+01  0.17328087355E+01 -0.60595027653E+01  0.66327269158E+01  0.51100000000E-03 0.  1.
         12    1    4    4    0    0  0.30929503045E+02  0.75583684853E+01 -0.18108171722E+02  0.36628799815E+02  0.00000000000E+00 0. -1.
</event>
<event>
 8    1  0.5985208E-012  0.9118800E+02  0.7816164E-02  0.1184000E+00
        -11   -1    0    0    0    0  0.00000000000E+00  0.00000000000E+00  0.45593999997E+02  0.45594000000E+02  0.51100000000E-03 0.  1.
         11   -1    0    0    0    0 -0.00000000000E+00 -0.00000000000E+00 -0.45593999997E+02  0.45594000000E+02  0.51100000000E-03 0. -1.
         23    2    1    2    0    0  0.00000000000E+00 -0.17763568394E-14  0.71054273576E-14  0.91188000000E+02  0.91188000000E+02 0.  0.
    9900012    2    3    3    0    0 -0.28678746223E+02  0.11578585112E+02 -0.26393762968E+02  0.50528870131E+02  0.30000031249E+02 0.  0.
         12    1    3    3    0    0  0.28678746223E+02 -0.11578585112E+02  0.26393762968E+02  0.40659129869E+02  0.00000000000E+00 0. -1.
         11    1    4    4    0    0 -0.17277935837E+02 -0.39112198026E+01 -0.19494531580E+02  0.26341250329E+02  0.51100000000E-03 0. -1.
        -11    1    4    4    0    0 -0.80501162476E+01  0.10880736500E+01 -0.42425576159E+01  0.91644733212E+01  0.51100000000E-03 0.  1.
         12    1    4    4    0    0 -0.33506941388E+01  0.14401731265E+02 -0.26566737716E+01  0.15023146480E+02  0.00000000000E+00 0. -1.
</event>
<event>
 8    1  0.6288412E-012  0.9118800E+02  0.7816164E-02  0.1184000E+00
        -11   -1    0    0    0    0  0.00000000000E+00  0.00000000000E+00  0.45593999997E+02  0.45594000000E+02  0.51100000000E-03 0. -1.
         11   -1    0    0    0    0 -0.00000000000E+00 -0.00000000000E+00 -0.45593999997E+02  0.45594000000E+02  0.51100000000E-03 0.  1.
         23    2    1    2    0    0  0.00000000000E+00  0.00000000000E+00 -0.35527136788E-14  0.91188000000E+02  0.91188000000E+02 0.  0.
    9900012    2    3    3    0    0  0.24290729047E+02  0.14323993873E+02 -0.29290780003E+02  0.50528854518E+02  0.29999983792E+02 0.  0.
         12    1    3    3    0    0 -0.24290729047E+02 -0.14323993873E+02  0.29290780003E+02  0.40659145482E+02  0.00000000000E+00 0. -1.
         11    1    4    4    0    0  0.29644462403E+01  0.20510302949E+01  0.34519271063E+01  0.49910387487E+01  0.51100000000E-03 0. -1.
        -11    1    4    4    0    0 -0.20322106093E+01  0.68820117188E+01 -0.44034963291E+01  0.84191891201E+01  0.51100000000E-03 0.  1.
        -12    1    4    4    0    0  0.23358493416E+02  0.53909518593E+01 -0.28339210781E+02  0.37118626649E+02  0.00000000000E+00 0.  1.
</event>
<event>
 8    1  0.5829710E-012  0.9118800E+02  0.7816164E-02  0.1184000E+00
        -11   -1    0    0    0    0  0.00000000000E+00  0.00000000000E+00  0.45593999997E+02  0.45594000000E+02  0.51100000000E-03 0. -1.
         11   -1    0    0    0    0 -0.00000000000E+00 -0.00000000000E+00 -0.45593999997E+02  0.45594000000E+02  0.51100000000E-03 0.  1.
         23    2    1    2    0    0  0.00000000000E+00  0.35527136788E-14 -0.35527136788E-14  0.91188000000E+02  0.91188000000E+02 0.  0.
    9900012    2    3    3    0    0 -0.12243636826E+02  0.27167642648E+02 -0.27661858828E+02  0.50528857318E+02  0.29999992304E+02 0.  0.
         12    1    3    3    0    0  0.12243636826E+02 -0.27167642648E+02  0.27661858828E+02  0.40659142682E+02  0.00000000000E+00 0. -1.
         11    1    4    4    0    0  0.15959752824E+00 -0.12520062950E+01 -0.12523559486E+01  0.17780289134E+01  0.51100000000E-03 0. -1.
        -11    1    4    4    0    0 -0.27707595886E+01  0.14478785283E+02 -0.28089532701E+02  0.31722770679E+02  0.51100000000E-03 0.  1.
         12    1    4    4    0    0 -0.96324747659E+01  0.13940863660E+02  0.16800298210E+01  0.17028057725E+02  0.00000000000E+00 0. -1.
</event>
<event>
 8    1  0.5829710E-012  0.9118800E+02  0.7816164E-02  0.1184000E+00
        -11   -1    0    0    0    0  0.00000000000E+00  0.00000000000E+00  0.45593999997E+02  0.45594000000E+02  0.51100000000E-03 0. -1.
         11   -1    0    0    0    0 -0.00000000000E+00 -0.00000000000E+00 -0.45593999997E+02  0.45594000000E+02  0.51100000000E-03 0.  1.
         23    2    1    2    0    0 -0.35527136788E-14  0.17763568394E-14  0.71054273576E-14  0.91188000000E+02  0.91188000000E+02 0.  0.
    9900012    2    3    3    0    0 -0.20497132890E+02  0.15417595753E+02  0.31548859305E+02  0.50528865246E+02  0.30000016401E+02 0.  0.
        -12    1    3    3    0    0  0.20497132890E+02 -0.15417595753E+02 -0.31548859305E+02  0.40659134754E+02  0.00000000000E+00 0.  1.
         11    1    4    4    0    0 -0.53538351692E+01  0.14500367258E+02  0.23506049030E+02  0.28132872994E+02  0.51100000000E-03 0. -1.
        -11    1    4    4    0    0 -0.68268889232E+01  0.47376942797E+01  0.10035768804E+02  0.13029536262E+02  0.51100000000E-03 0.  1.
        -12    1    4    4    0    0 -0.83164087977E+01 -0.38204657849E+01 -0.19929585291E+01  0.93664559895E+01  0.00000000000E+00 0.  1.
</event>
<event>
 8    1  0.5829710E-012  0.9118800E+02  0.7816164E-02  0.1184000E+00
        -11   -1    0    0    0    0  0.00000000000E+00  0.00000000000E+00  0.45593999997E+02  0.45594000000E+02  0.51100000000E-03 0. -1.
         11   -1    0    0    0    0 -0.00000000000E+00 -0.00000000000E+00 -0.45593999997E+02  0.45594000000E+02  0.51100000000E-03 0.  1.
         23    2    1    2    0    0  0.00000000000E+00  0.35527136788E-14  0.00000000000E+00  0.91188000000E+02  0.91188000000E+02 0.  0.
    9900012    2    3    3    0    0 -0.19410924502E+02  0.24041379862E+02  0.26427136227E+02  0.50528862469E+02  0.30000007959E+02 0.  0.
        -12    1    3    3    0    0  0.19410924502E+02 -0.24041379862E+02 -0.26427136227E+02  0.40659137531E+02  0.00000000000E+00 0.  1.
         11    1    4    4    0    0 -0.10006569696E+02  0.11417129221E+02  0.12894479274E+02  0.19918581093E+02  0.51100000000E-03 0. -1.
        -11    1    4    4    0    0 -0.13270385658E+02  0.73388174557E+01  0.17339924274E+02  0.23035501975E+02  0.51100000000E-03 0.  1.
        -12    1    4    4    0    0  0.38660308526E+01  0.52854331848E+01 -0.38072673218E+01  0.75747794003E+01  0.00000000000E+00 0.  1.
</event>
<event>
 8    1  0.5829710E-012  0.9118800E+02  0.7816164E-02  0.1184000E+00
        -11   -1    0    0    0    0  0.00000000000E+00  0.00000000000E+00  0.45593999997E+02  0.45594000000E+02  0.51100000000E-03 0. -1.
         11   -1    0    0    0    0 -0.00000000000E+00 -0.00000000000E+00 -0.45593999997E+02  0.45594000000E+02  0.51100000000E-03 0.  1.
         23    2    1    2    0    0 -0.35527136788E-14  0.00000000000E+00  0.00000000000E+00  0.91188000000E+02  0.91188000000E+02 0.  0.
    9900012    2    3    3    0    0  0.24555805179E+02 -0.23656721671E+02 -0.22148085550E+02  0.50528859063E+02  0.29999997608E+02 0.  0.
         12    1    3    3    0    0 -0.24555805179E+02  0.23656721671E+02  0.22148085550E+02  0.40659140937E+02  0.00000000000E+00 0. -1.
         11    1    4    4    0    0  0.42447906138E+01 -0.17765265755E+01  0.25103636965E+01  0.52417764335E+01  0.51100000000E-03 0. -1.
        -11    1    4    4    0    0  0.17019051019E+01 -0.11884839820E+02  0.10052362442E+01  0.12048086930E+02  0.51100000000E-03 0.  1.
        -12    1    4    4    0    0  0.18609109464E+02 -0.99953552755E+01 -0.25663685491E+02  0.33238995699E+02  0.00000000000E+00 0.  1.
</event>
<event>
 8    1  0.5829710E-012  0.9118800E+02  0.7816164E-02  0.1184000E+00
        -11   -1    0    0    0    0  0.00000000000E+00  0.00000000000E+00  0.45593999997E+02  0.45594000000E+02  0.51100000000E-03 0.  1.
         11   -1    0    0    0    0 -0.00000000000E+00 -0.00000000000E+00 -0.45593999997E+02  0.45594000000E+02  0.51100000000E-03 0. -1.
         23    2    1    2    0    0  0.00000000000E+00  0.00000000000E+00  0.88817841970E-15  0.91188000000E+02  0.91188000000E+02 0.  0.
    9900012    2    3    3    0    0 -0.37763431151E+02  0.12837516554E+02 -0.78922021238E+01  0.50528863045E+02  0.30000009711E+02 0.  0.
        -12    1    3    3    0    0  0.37763431151E+02 -0.12837516554E+02  0.78922021238E+01  0.40659136955E+02  0.00000000000E+00 0.  1.
         11    1    4    4    0    0 -0.18699362710E+02  0.46417012325E+01 -0.92248573198E+01  0.21361403252E+02  0.51100000000E-03 0. -1.
        -11    1    4    4    0    0 -0.19468682330E+02  0.16845882869E+01 -0.48984417064E+01  0.20146020966E+02  0.51100000000E-03 0.  1.
        -12    1    4    4    0    0  0.40461388826E+00  0.65112270342E+01  0.62310969024E+01  0.90214388263E+01  0.00000000000E+00 0.  1.
</event>
<event>
 8    1  0.5829710E-012  0.9118800E+02  0.7816164E-02  0.1184000E+00
        -11   -1    0    0    0    0  0.00000000000E+00  0.00000000000E+00  0.45593999997E+02  0.45594000000E+02  0.51100000000E-03 0. -1.
         11   -1    0    0    0    0 -0.00000000000E+00 -0.00000000000E+00 -0.45593999997E+02  0.45594000000E+02  0.51100000000E-03 0.  1.
         23    2    1    2    0    0 -0.35527136788E-14  0.00000000000E+00  0.00000000000E+00  0.91188000000E+02  0.91188000000E+02 0.  0.
    9900012    2    3    3    0    0 -0.21504267215E+02  0.21856069413E+02  0.26702861197E+02  0.50528879562E+02  0.30000059918E+02 0.  0.
        -12    1    3    3    0    0  0.21504267215E+02 -0.21856069413E+02 -0.26702861197E+02  0.40659120438E+02  0.00000000000E+00 0.  1.
         11    1    4    4    0    0 -0.67457121507E+01  0.55261574397E+01 -0.14133924683E+01  0.88340662777E+01  0.51100000000E-03 0.  1.
        -11    1    4    4    0    0 -0.11515193024E+02  0.12083185493E+02  0.42312471246E+01  0.17219363941E+02  0.51100000000E-03 0. -1.
         12    1    4    4    0    0 -0.32433620404E+01  0.42467264798E+01  0.23885006541E+02  0.24475449343E+02  0.00000000000E+00 0. -1.
</event>
<event>
 8    1  0.5829710E-012  0.9118800E+02  0.7816164E-02  0.1184000E+00
        -11   -1    0    0    0    0  0.00000000000E+00  0.00000000000E+00  0.45593999997E+02  0.45594000000E+02  0.51100000000E-03 0. -1.
         11   -1    0    0    0    0 -0.00000000000E+00 -0.00000000000E+00 -0.45593999997E+02  0.45594000000E+02  0.51100000000E-03 0.  1.
         23    2    1    2    0    0  0.00000000000E+00  0.22204460493E-15  0.00000000000E+00  0.91188000000E+02  0.91188000000E+02 0.  0.
    9900012    2    3    3    0    0 -0.99310181869E+01 -0.13410808248E+01  0.39404850103E+02  0.50528857957E+02  0.29999994246E+02 0.  0.
        -12    1    3    3    0    0  0.99310181869E+01  0.13410808248E+01 -0.39404850103E+02  0.40659142043E+02  0.00000000000E+00 0.  1.
         11    1    4    4    0    0  0.40668420069E+01 -0.49781172751E+01  0.20879186857E+01  0.67587173497E+01  0.51100000000E-03 0. -1.
        -11    1    4    4    0    0  0.35160398140E+01  0.16415673678E+01  0.21584609917E+01  0.44402965566E+01  0.51100000000E-03 0.  1.
         12    1    4    4    0    0 -0.17513900008E+02  0.19954690825E+01  0.35158470426E+02  0.39329844051E+02  0.00000000000E+00 0. -1.
</event>
<event>
 8    1  0.5829710E-012  0.9118800E+02  0.7816164E-02  0.1184000E+00
        -11   -1    0    0    0    0  0.00000000000E+00  0.00000000000E+00  0.45593999997E+02  0.45594000000E+02  0.51100000000E-03 0. -1.
         11   -1    0    0    0    0 -0.00000000000E+00 -0.00000000000E+00 -0.45593999997E+02  0.45594000000E+02  0.51100000000E-03 0.  1.
         23    2    1    2    0    0  0.00000000000E+00  0.00000000000E+00  0.00000000000E+00  0.91188000000E+02  0.91188000000E+02 0.  0.
    9900012    2    3    3    0    0 -0.71543351589E+01 -0.23887214412E+02  0.32115096953E+02  0.50528893072E+02  0.30000100980E+02 0.  0.
        -12    1    3    3    0    0  0.71543351589E+01  0.23887214412E+02 -0.32115096953E+02  0.40659106928E+02  0.00000000000E+00 0.  1.
         11    1    4    4    0    0 -0.21030070500E+01 -0.14364273104E+02  0.24885419261E+02  0.28810398687E+02  0.51100000000E-03 0. -1.
        -11    1    4    4    0    0 -0.36793995538E+01 -0.12070907798E+02  0.11154317539E+02  0.16842315642E+02  0.51100000000E-03 0.  1.
         12    1    4    4    0    0 -0.13719285551E+01  0.25479664895E+01 -0.39246398481E+01  0.48761787425E+01  0.00000000000E+00 0. -1.
</event>
<event>
 8    1  0.5829710E-012  0.9118800E+02  0.7816164E-02  0.1184000E+00
        -11   -1    0    0    0    0  0.00000000000E+00  0.00000000000E+00  0.45593999997E+02  0.45594000000E+02  0.51100000000E-03 0. -1.
         11   -1    0    0    0    0 -0.00000000000E+00 -0.00000000000E+00 -0.45593999997E+02  0.45594000000E+02  0.51100000000E-03 0.  1.
         23    2    1    2    0    0 -0.71054273576E-14  0.00000000000E+00 -0.71054273576E-14  0.91188000000E+02  0.91188000000E+02 0.  0.
    9900012    2    3    3    0    0 -0.20351807541E+02  0.21942846372E+02 -0.27522409957E+02  0.50528835881E+02  0.29999927143E+02 0.  0.
         12    1    3    3    0    0  0.20351807541E+02 -0.21942846372E+02  0.27522409957E+02  0.40659164119E+02  0.00000000000E+00 0. -1.
         11    1    4    4    0    0 -0.53496850912E+01 -0.96720104863E+00 -0.12840493394E+02  0.13943919080E+02  0.51100000000E-03 0. -1.
        -11    1    4    4    0    0 -0.13501319312E+02  0.48581692723E+01 -0.11049399669E+02  0.18110126039E+02  0.51100000000E-03 0.  1.
         12    1    4    4    0    0 -0.15008031379E+01  0.18051878148E+02 -0.36325168939E+01  0.18474790762E+02  0.00000000000E+00 0. -1.
</event>
<event>
 8    1  0.5829710E-012  0.9118800E+02  0.7816164E-02  0.1184000E+00
        -11   -1    0    0    0    0  0.00000000000E+00  0.00000000000E+00  0.45593999997E+02  0.45594000000E+02  0.51100000000E-03 0. -1.
         11   -1    0    0    0    0 -0.00000000000E+00 -0.00000000000E+00 -0.45593999997E+02  0.45594000000E+02  0.51100000000E-03 0.  1.
         23    2    1    2    0    0  0.17763568394E-14 -0.44408920985E-15  0.00000000000E+00  0.91188000000E+02  0.91188000000E+02 0.  0.
    9900012    2    3    3    0    0  0.14893599761E+02 -0.39825220883E+01  0.37622951789E+02  0.50528852230E+02  0.29999976839E+02 0.  0.
        -12    1    3    3    0    0 -0.14893599761E+02  0.39825220883E+01 -0.37622951789E+02  0.40659147770E+02  0.00000000000E+00 0.  1.
         11    1    4    4    0    0  0.48178558628E+00  0.73665131620E+01  0.10706324749E+02  0.13004730809E+02  0.51100000000E-03 0. -1.
        -11    1    4    4    0    0 -0.11966200884E+01  0.40303864460E+01  0.49947247149E+01  0.65286437932E+01  0.51100000000E-03 0.  1.
        -12    1    4    4    0    0  0.15608434263E+02 -0.15379421696E+02  0.21921902325E+02  0.30995477628E+02  0.00000000000E+00 0.  1.
</event>
<event>
 8    1  0.5829710E-012  0.9118800E+02  0.7816164E-02  0.1184000E+00
        -11   -1    0    0    0    0  0.00000000000E+00  0.00000000000E+00  0.45593999997E+02  0.45594000000E+02  0.51100000000E-03 0. -1.
         11   -1    0    0    0    0 -0.00000000000E+00 -0.00000000000E+00 -0.45593999997E+02  0.45594000000E+02  0.51100000000E-03 0.  1.
         23    2    1    2    0    0 -0.71054273576E-14  0.00000000000E+00 -0.17763568394E-14  0.91188000000E+02  0.91188000000E+02 0.  0.
    9900012    2    3    3    0    0 -0.37561660321E+02  0.56879965934E+01 -0.14489119050E+02  0.50528853401E+02  0.29999980398E+02 0.  0.
         12    1    3    3    0    0  0.37561660321E+02 -0.56879965934E+01  0.14489119050E+02  0.40659146599E+02  0.00000000000E+00 0. -1.
         11    1    4    4    0    0 -0.20111497359E+02  0.82439696873E+01 -0.12142993809E+01  0.21769471410E+02  0.51100000000E-03 0. -1.
        -11    1    4    4    0    0 -0.20261530729E+02  0.14100121400E+01 -0.87397777576E+01  0.22111116598E+02  0.51100000000E-03 0.  1.
         12    1    4    4    0    0  0.28113677669E+01 -0.39659852340E+01 -0.45350419114E+01  0.66482653930E+01  0.00000000000E+00 0. -1.
</event>
<event>
 8    1  0.5829710E-012  0.9118800E+02  0.7816164E-02  0.1184000E+00
        -11   -1    0    0    0    0  0.00000000000E+00  0.00000000000E+00  0.45593999997E+02  0.45594000000E+02  0.51100000000E-03 0. -1.
         11   -1    0    0    0    0 -0.00000000000E+00 -0.00000000000E+00 -0.45593999997E+02  0.45594000000E+02  0.51100000000E-03 0.  1.
         23    2    1    2    0    0  0.17763568394E-14  0.35527136788E-14  0.00000000000E+00  0.91188000000E+02  0.91188000000E+02 0.  0.
    9900012    2    3    3    0    0 -0.13600001010E+02 -0.16533121442E+02 -0.34566766090E+02  0.50528862651E+02  0.30000008513E+02 0.  0.
         12    1    3    3    0    0  0.13600001010E+02  0.16533121442E+02  0.34566766090E+02  0.40659137349E+02  0.00000000000E+00 0. -1.
         11    1    4    4    0    0 -0.15893096516E+01 -0.88227097528E+00  0.42135198610E+01  0.45889058743E+01  0.51100000000E-03 0. -1.
        -11    1    4    4    0    0  0.20425536074E+01 -0.27546473899E+01 -0.92645391664E+00  0.35522421937E+01  0.51100000000E-03 0.  1.
        -12    1    4    4    0    0 -0.14053244966E+02 -0.12896203076E+02 -0.37853832034E+02  0.42387714583E+02  0.00000000000E+00 0.  1.
</event>
<event>
 8    1  0.5829710E-012  0.9118800E+02  0.7816164E-02  0.1184000E+00
        -11   -1    0    0    0    0  0.00000000000E+00  0.00000000000E+00  0.45593999997E+02  0.45594000000E+02  0.51100000000E-03 0. -1.
         11   -1    0    0    0    0 -0.00000000000E+00 -0.00000000000E+00 -0.45593999997E+02  0.45594000000E+02  0.51100000000E-03 0.  1.
         23    2    1    2    0    0  0.71054273576E-14  0.88817841970E-15  0.17763568394E-14  0.91188000000E+02  0.91188000000E+02 0.  0.
    9900012    2    3    3    0    0 -0.39099983690E+02 -0.52945922463E+01 -0.98144971211E+01  0.50528858527E+02  0.29999995978E+02 0.  0.
         12    1    3    3    0    0  0.39099983690E+02  0.52945922463E+01  0.98144971211E+01  0.40659141473E+02  0.00000000000E+00 0. -1.
         11    1    4    4    0    0 -0.26083961087E+01  0.16287618812E+01  0.50353146647E+01  0.59000838604E+01  0.51100000000E-03 0. -1.
        -11    1    4    4    0    0 -0.53653278529E+01  0.53124570338E+01  0.10034549883E+01  0.76168146151E+01  0.51100000000E-03 0.  1.
        -12    1    4    4    0    0 -0.31126259728E+02 -0.12235811161E+02 -0.15853266774E+02  0.37011960051E+02  0.00000000000E+00 0.  1.
</event>
<event>
 8    1  0.5829710E-012  0.9118800E+02  0.7816164E-02  0.1184000E+00
        -11   -1    0    0    0    0  0.00000000000E+00  0.00000000000E+00  0.45593999997E+02  0.45594000000E+02  0.51100000000E-03 0.  1.
         11   -1    0    0    0    0 -0.00000000000E+00 -0.00000000000E+00 -0.45593999997E+02  0.45594000000E+02  0.51100000000E-03 0. -1.
         23    2    1    2    0    0  0.00000000000E+00  0.00000000000E+00  0.88817841970E-15  0.91188000000E+02  0.91188000000E+02 0.  0.
    9900012    2    3    3    0    0  0.34316093698E+02  0.21422740708E+02 -0.40793150820E+01  0.50528820007E+02  0.29999878894E+02 0.  0.
        -12    1    3    3    0    0 -0.34316093698E+02 -0.21422740708E+02  0.40793150820E+01  0.40659179993E+02  0.00000000000E+00 0.  1.
         11    1    4    4    0    0  0.24527598616E+02  0.15219077984E+02 -0.31281949158E+01  0.29034617825E+02  0.51100000000E-03 0. -1.
        -11    1    4    4    0    0  0.11758247204E+02  0.90841445702E+01 -0.54270810817E+01  0.15818699985E+02  0.51100000000E-03 0.  1.
        -12    1    4    4    0    0 -0.19697521210E+01 -0.28804818464E+01  0.44759609154E+01  0.56755021982E+01  0.00000000000E+00 0.  1.
</event>
<event>
 8    1  0.5829710E-012  0.9118800E+02  0.7816164E-02  0.1184000E+00
        -11   -1    0    0    0    0  0.00000000000E+00  0.00000000000E+00  0.45593999997E+02  0.45594000000E+02  0.51100000000E-03 0. -1.
         11   -1    0    0    0    0 -0.00000000000E+00 -0.00000000000E+00 -0.45593999997E+02  0.45594000000E+02  0.51100000000E-03 0.  1.
         23    2    1    2    0    0  0.00000000000E+00  0.00000000000E+00  0.00000000000E+00  0.91188000000E+02  0.91188000000E+02 0.  0.
    9900012    2    3    3    0    0 -0.96752511182E+01 -0.23708390965E+02  0.31582709343E+02  0.50528858152E+02  0.29999994839E+02 0.  0.
        -12    1    3    3    0    0  0.96752511182E+01  0.23708390965E+02 -0.31582709343E+02  0.40659141848E+02  0.00000000000E+00 0.  1.
         11    1    4    4    0    0  0.10273994149E+01 -0.26473352741E+02  0.15153937807E+02  0.30521071184E+02  0.51100000000E-03 0. -1.
        -11    1    4    4    0    0 -0.20404627832E+00  0.60931834806E+00  0.14845182146E+01  0.16176211928E+01  0.51100000000E-03 0.  1.
         12    1    4    4    0    0 -0.10498604255E+02  0.21556434278E+01  0.14944253322E+02  0.18390165775E+02  0.00000000000E+00 0. -1.
</event>
<event>
 8    1  0.5829710E-012  0.9118800E+02  0.7816164E-02  0.1184000E+00
        -11   -1    0    0    0    0  0.00000000000E+00  0.00000000000E+00  0.45593999997E+02  0.45594000000E+02  0.51100000000E-03 0. -1.
         11   -1    0    0    0    0 -0.00000000000E+00 -0.00000000000E+00 -0.45593999997E+02  0.45594000000E+02  0.51100000000E-03 0.  1.
         23    2    1    2    0    0  0.00000000000E+00  0.88817841970E-15 -0.35527136788E-14  0.91188000000E+02  0.91188000000E+02 0.  0.
    9900012    2    3    3    0    0 -0.26135239201E+02  0.39895527602E+01 -0.30890099707E+02  0.50528861799E+02  0.30000005925E+02 0.  0.
         12    1    3    3    0    0  0.26135239201E+02 -0.39895527602E+01  0.30890099707E+02  0.40659138201E+02  0.00000000000E+00 0. -1.
         11    1    4    4    0    0 -0.11017594991E+02  0.34081012053E+01 -0.35213916811E+01  0.12058306384E+02  0.51100000000E-03 0. -1.
        -11    1    4    4    0    0 -0.18244778178E+02  0.71941858449E+01 -0.18346435605E+02  0.26855538356E+02  0.51100000000E-03 0.  1.
        -12    1    4    4    0    0  0.31271339682E+01 -0.66127342900E+01 -0.90222724204E+01  0.11615017059E+02  0.00000000000E+00 0.  1.
</event>
<event>
 8    1  0.5829710E-012  0.9118800E+02  0.7816164E-02  0.1184000E+00
        -11   -1    0    0    0    0  0.00000000000E+00  0.00000000000E+00  0.45593999997E+02  0.45594000000E+02  0.51100000000E-03 0. -1.
         11   -1    0    0    0    0 -0.00000000000E+00 -0.00000000000E+00 -0.45593999997E+02  0.45594000000E+02  0.51100000000E-03 0.  1.
         23    2    1    2    0    0  0.00000000000E+00  0.00000000000E+00  0.00000000000E+00  0.91188000000E+02  0.91188000000E+02 0.  0.
    9900012    2    3    3    0    0 -0.30830955316E+02 -0.24276018084E+02 -0.10643941561E+02  0.50528851563E+02  0.29999974809E+02 0.  0.
         12    1    3    3    0    0  0.30830955316E+02  0.24276018084E+02  0.10643941561E+02  0.40659148437E+02  0.00000000000E+00 0. -1.
         11    1    4    4    0    0 -0.26962275210E+02 -0.11462924976E+02 -0.52562394205E+01  0.29765600726E+02  0.51100000000E-03 0. -1.
        -11    1    4    4    0    0 -0.60378288768E+00  0.31189447779E+01  0.93920395215E+00  0.33127744607E+01  0.51100000000E-03 0.  1.
        -12    1    4    4    0    0 -0.32648972189E+01 -0.15932037885E+02 -0.63269060925E+01  0.17450476375E+02  0.00000000000E+00 0.  1.
</event>
<event>
 8    1  0.5829710E-012  0.9118800E+02  0.7816164E-02  0.1184000E+00
        -11   -1    0    0    0    0  0.00000000000E+00  0.00000000000E+00  0.45593999997E+02  0.45594000000E+02  0.51100000000E-03 0. -1.
         11   -1    0    0    0    0 -0.00000000000E+00 -0.00000000000E+00 -0.45593999997E+02  0.45594000000E+02  0.51100000000E-03 0.  1.
         23    2    1    2    0    0 -0.17763568394E-14 -0.35527136788E-14  0.35527136788E-14  0.91188000000E+02  0.91188000000E+02 0.  0.
    9900012    2    3    3    0    0 -0.11597386043E+02  0.26055510229E+02 -0.28978881895E+02  0.50528873445E+02  0.30000041323E+02 0.  0.
         12    1    3    3    0    0  0.11597386043E+02 -0.26055510229E+02  0.28978881895E+02  0.40659126555E+02  0.00000000000E+00 0. -1.
         11    1    4    4    0    0 -0.70786925072E+01  0.28242642744E+01 -0.29051232792E+01  0.81562306141E+01  0.51100000000E-03 0. -1.
        -11    1    4    4    0    0 -0.99008837924E+01  0.14628429424E+02 -0.40484195344E+01  0.18122034882E+02  0.51100000000E-03 0.  1.
        -12    1    4    4    0    0  0.53821902562E+01  0.86028165311E+01 -0.22025339082E+02  0.24250607949E+02  0.00000000000E+00 0.  1.
</event>
<event>
 8    1  0.5829710E-012  0.9118800E+02  0.7816164E-02  0.1184000E+00
        -11   -1    0    0    0    0  0.00000000000E+00  0.00000000000E+00  0.45593999997E+02  0.45594000000E+02  0.51100000000E-03 0. -1.
         11   -1    0    0    0    0 -0.00000000000E+00 -0.00000000000E+00 -0.45593999997E+02  0.45594000000E+02  0.51100000000E-03 0.  1.
         23    2    1    2    0    0 -0.17763568394E-14 -0.35527136788E-14  0.35527136788E-14  0.91188000000E+02  0.91188000000E+02 0.  0.
    9900012    2    3    3    0    0 -0.88836871303E+01  0.31510300995E+02  0.24111178012E+02  0.50528832879E+02  0.29999918020E+02 0.  0.
        -12    1    3    3    0    0  0.88836871303E+01 -0.31510300995E+02 -0.24111178012E+02  0.40659167121E+02  0.00000000000E+00 0.  1.
         11    1    4    4    0    0  0.17185312454E+01  0.27190907955E+01 -0.28300669934E+01  0.42844000565E+01  0.51100000000E-03 0.  1.
        -11    1    4    4    0    0 -0.12491314259E+02  0.25170369578E+02  0.30028140239E+02  0.41125048852E+02  0.51100000000E-03 0. -1.
         12    1    4    4    0    0  0.18890958832E+01  0.36208406212E+01 -0.30868952333E+01  0.51193839709E+01  0.00000000000E+00 0. -1.
</event>
<event>
 8    1  0.5829710E-012  0.9118800E+02  0.7816164E-02  0.1184000E+00
        -11   -1    0    0    0    0  0.00000000000E+00  0.00000000000E+00  0.45593999997E+02  0.45594000000E+02  0.51100000000E-03 0. -1.
         11   -1    0    0    0    0 -0.00000000000E+00 -0.00000000000E+00 -0.45593999997E+02  0.45594000000E+02  0.51100000000E-03 0.  1.
         23    2    1    2    0    0  0.00000000000E+00  0.88817841970E-15  0.00000000000E+00  0.91188000000E+02  0.91188000000E+02 0.  0.
    9900012    2    3    3    0    0 -0.42457964228E+01 -0.34029496295E+01  0.40293374812E+02  0.50528893920E+02  0.30000103560E+02 0.  0.
        -12    1    3    3    0    0  0.42457964228E+01  0.34029496295E+01 -0.40293374812E+02  0.40659106080E+02  0.00000000000E+00 0.  1.
         11    1    4    4    0    0  0.38573700942E+01  0.42519616625E+01  0.26864455940E+01  0.63384124364E+01  0.51100000000E-03 0. -1.
        -11    1    4    4    0    0  0.47731086626E+01  0.93985454932E+00  0.20710419144E+02  0.21274100551E+02  0.51100000000E-03 0.  1.
         12    1    4    4    0    0 -0.12876275180E+02 -0.85947658414E+01  0.16896510074E+02  0.22916380933E+02  0.00000000000E+00 0. -1.
</event>
<event>
 8    1  0.5829710E-012  0.9118800E+02  0.7816164E-02  0.1184000E+00
        -11   -1    0    0    0    0  0.00000000000E+00  0.00000000000E+00  0.45593999997E+02  0.45594000000E+02  0.51100000000E-03 0. -1.
         11   -1    0    0    0    0 -0.00000000000E+00 -0.00000000000E+00 -0.45593999997E+02  0.45594000000E+02  0.51100000000E-03 0.  1.
         23    2    1    2    0    0  0.35527136788E-14  0.00000000000E+00  0.00000000000E+00  0.91188000000E+02  0.91188000000E+02 0.  0.
    9900012    2    3    3    0    0  0.24056790374E+02 -0.99108678675E+01  0.31244452058E+02  0.50528803631E+02  0.29999829117E+02 0.  0.
        -12    1    3    3    0    0 -0.24056790374E+02  0.99108678675E+01 -0.31244452058E+02  0.40659196369E+02  0.00000000000E+00 0.  1.
         11    1    4    4    0    0  0.98746915333E+01  0.34932579401E+01  0.32109280394E+01  0.10955475483E+02  0.51100000000E-03 0. -1.
        -11    1    4    4    0    0  0.57353356752E+01 -0.25576394834E+01 -0.19606334415E+01  0.65787292684E+01  0.51100000000E-03 0.  1.
         12    1    4    4    0    0  0.84467631653E+01 -0.10846486324E+02  0.29994157460E+02  0.32994598880E+02  0.00000000000E+00 0. -1.
</event>
<event>
 8    1  0.5829710E-012  0.9118800E+02  0.7816164E-02  0.1184000E+00
        -11   -1    0    0    0    0  0.00000000000E+00  0.00000000000E+00  0.45593999997E+02  0.45594000000E+02  0.51100000000E-03 0. -1.
         11   -1    0    0    0    0 -0.00000000000E+00 -0.00000000000E+00 -0.45593999997E+02  0.45594000000E+02  0.51100000000E-03 0.  1.
         23    2    1    2    0    0  0.35527136788E-14 -0.35527136788E-14  0.00000000000E+00  0.91188000000E+02  0.91188000000E+02 0.  0.
    9900012    2    3    3    0    0 -0.16729163249E+02  0.25485458757E+02 -0.26903398441E+02  0.50528851475E+02  0.29999974543E+02 0.  0.
         12    1    3    3    0    0  0.16729163249E+02 -0.25485458757E+02  0.26903398441E+02  0.40659148525E+02  0.00000000000E+00 0. -1.
         11    1    4    4    0    0 -0.19678261809E+01  0.85897376002E+00  0.42310901195E+00  0.21884234726E+01  0.51100000000E-03 0. -1.
        -11    1    4    4    0    0 -0.12985557153E+02  0.56758490791E+01  0.10067861989E+01  0.14207518293E+02  0.51100000000E-03 0.  1.
        -12    1    4    4    0    0 -0.17757799152E+01  0.18950635918E+02 -0.28333293652E+02  0.34132909709E+02  0.00000000000E+00 0.  1.
</event>
<event>
 8    1  0.5829710E-012  0.9118800E+02  0.7816164E-02  0.1184000E+00
        -11   -1    0    0    0    0  0.00000000000E+00  0.00000000000E+00  0.45593999997E+02  0.45594000000E+02  0.51100000000E-03 0. -1.
         11   -1    0    0    0    0 -0.00000000000E+00 -0.00000000000E+00 -0.45593999997E+02  0.45594000000E+02  0.51100000000E-03 0.  1.
         23    2    1    2    0    0  0.35527136788E-14  0.71054273576E-14  0.00000000000E+00  0.91188000000E+02  0.91188000000E+02 0.  0.
    9900012    2    3    3    0    0  0.14071230539E+02  0.29265941062E+02  0.24467812965E+02  0.50528822605E+02  0.29999886791E+02 0.  0.
        -12    1    3    3    0    0 -0.14071230539E+02 -0.29265941062E+02 -0.24467812965E+02  0.40659177395E+02  0.00000000000E+00 0.  1.
         11    1    4    4    0    0  0.13876460896E+02  0.19379631522E+02  0.12657053480E+02  0.26987539495E+02  0.51100000000E-03 0. -1.
        -11    1    4    4    0    0  0.43546781054E+01  0.48378785788E+01 -0.31364335139E+01  0.72253377771E+01  0.51100000000E-03 0.  1.
         12    1    4    4    0    0 -0.41599084628E+01  0.50484309619E+01  0.14947192998E+02  0.16315945333E+02  0.00000000000E+00 0. -1.
</event>
<event>
 8    1  0.5829710E-012  0.9118800E+02  0.7816164E-02  0.1184000E+00
        -11   -1    0    0    0    0  0.00000000000E+00  0.00000000000E+00  0.45593999997E+02  0.45594000000E+02  0.51100000000E-03 0. -1.
         11   -1    0    0    0    0 -0.00000000000E+00 -0.00000000000E+00 -0.45593999997E+02  0.45594000000E+02  0.51100000000E-03 0.  1.
         23    2    1    2    0    0 -0.88817841970E-15  0.00000000000E+00 -0.35527136788E-14  0.91188000000E+02  0.91188000000E+02 0.  0.
    9900012    2    3    3    0    0 -0.54734557481E+01  0.28047241859E+02  0.28923326873E+02  0.50528864113E+02  0.30000012958E+02 0.  0.
        -12    1    3    3    0    0  0.54734557481E+01 -0.28047241859E+02 -0.28923326873E+02  0.40659135887E+02  0.00000000000E+00 0.  1.
         11    1    4    4    0    0 -0.64896149664E+01  0.30737281954E+00  0.48382459192E+00  0.65148804255E+01  0.51100000000E-03 0. -1.
        -11    1    4    4    0    0  0.18512263789E+00  0.23470393845E+01  0.15168866170E+02  0.15350484207E+02  0.51100000000E-03 0.  1.
        -12    1    4    4    0    0  0.83103658041E+00  0.25392829654E+02  0.13270636111E+02  0.28663499480E+02  0.00000000000E+00 0.  1.
</event>
<event>
 8    1  0.5829710E-012  0.9118800E+02  0.7816164E-02  0.1184000E+00
        -11   -1    0    0    0    0  0.00000000000E+00  0.00000000000E+00  0.45593999997E+02  0.45594000000E+02  0.51100000000E-03 0. -1.
         11   -1    0    0    0    0 -0.00000000000E+00 -0.00000000000E+00 -0.45593999997E+02  0.45594000000E+02  0.51100000000E-03 0.  1.
         23    2    1    2    0    0  0.00000000000E+00  0.35527136788E-14  0.00000000000E+00  0.91188000000E+02  0.91188000000E+02 0.  0.
    9900012    2    3    3    0    0  0.25310777342E+02  0.29607583779E+02  0.11658536806E+02  0.50528856534E+02  0.29999989921E+02 0.  0.
        -12    1    3    3    0    0 -0.25310777342E+02 -0.29607583779E+02 -0.11658536806E+02  0.40659143466E+02  0.00000000000E+00 0.  1.
         11    1    4    4    0    0  0.12759550043E+02  0.10268232811E+02 -0.19714645610E+01  0.16496344902E+02  0.51100000000E-03 0. -1.
        -11    1    4    4    0    0  0.10803810159E+02  0.18782909800E+02  0.18712041450E+02  0.28629713760E+02  0.51100000000E-03 0.  1.
         12    1    4    4    0    0  0.17474171403E+01  0.55644116829E+00 -0.50820400829E+01  0.54027978715E+01  0.00000000000E+00 0. -1.
</event>
<event>
 8    1  0.5829710E-012  0.9118800E+02  0.7816164E-02  0.1184000E+00
        -11   -1    0    0    0    0  0.00000000000E+00  0.00000000000E+00  0.45593999997E+02  0.45594000000E+02  0.51100000000E-03 0. -1.
         11   -1    0    0    0    0 -0.00000000000E+00 -0.00000000000E+00 -0.45593999997E+02  0.45594000000E+02  0.51100000000E-03 0.  1.
         23    2    1    2    0    0 -0.88817841970E-15  0.35527136788E-14  0.35527136788E-14  0.91188000000E+02  0.91188000000E+02 0.  0.
    9900012    2    3    3    0    0 -0.56708407377E+01  0.27529382473E+02  0.29379248640E+02  0.50528860995E+02  0.30000003480E+02 0.  0.
        -12    1    3    3    0    0  0.56708407377E+01 -0.27529382473E+02 -0.29379248640E+02  0.40659139005E+02  0.00000000000E+00 0.  1.
         11    1    4    4    0    0 -0.58833703710E+01  0.75337433621E+01  0.84331021303E+01  0.12747099583E+02  0.51100000000E-03 0. -1.
        -11    1    4    4    0    0 -0.89876768943E+01  0.46052449025E+00  0.10392533260E+02  0.13747551294E+02  0.51100000000E-03 0.  1.
         12    1    4    4    0    0  0.92002065275E+01  0.19535114621E+02  0.10553613249E+02  0.24034210118E+02  0.00000000000E+00 0. -1.
</event>
<event>
 8    1  0.5829710E-012  0.9118800E+02  0.7816164E-02  0.1184000E+00
        -11   -1    0    0    0    0  0.00000000000E+00  0.00000000000E+00  0.45593999997E+02  0.45594000000E+02  0.51100000000E-03 0.  1.
         11   -1    0    0    0    0 -0.00000000000E+00 -0.00000000000E+00 -0.45593999997E+02  0.45594000000E+02  0.51100000000E-03 0. -1.
         23    2    1    2    0    0  0.00000000000E+00  0.00000000000E+00  0.35527136788E-14  0.91188000000E+02  0.91188000000E+02 0.  0.
    9900012    2    3    3    0    0  0.24043105285E+02  0.19315843529E+02  0.26495182405E+02  0.50528838503E+02  0.29999935114E+02 0.  0.
        -12    1    3    3    0    0 -0.24043105285E+02 -0.19315843529E+02 -0.26495182405E+02  0.40659161497E+02  0.00000000000E+00 0.  1.
         11    1    4    4    0    0  0.50752811038E+01  0.10145792834E+02  0.13729715908E+02  0.17810128850E+02  0.51100000000E-03 0. -1.
        -11    1    4    4    0    0  0.64786723836E+01  0.96683818000E+01  0.16021474549E+02  0.19802485942E+02  0.51100000000E-03 0.  1.
         12    1    4    4    0    0  0.12489151797E+02 -0.49833110438E+00 -0.32560080524E+01  0.12916223711E+02  0.00000000000E+00 0. -1.
</event>
<event>
 8    1  0.5829710E-012  0.9118800E+02  0.7816164E-02  0.1184000E+00
        -11   -1    0    0    0    0  0.00000000000E+00  0.00000000000E+00  0.45593999997E+02  0.45594000000E+02  0.51100000000E-03 0. -1.
         11   -1    0    0    0    0 -0.00000000000E+00 -0.00000000000E+00 -0.45593999997E+02  0.45594000000E+02  0.51100000000E-03 0.  1.
         23    2    1    2    0    0  0.00000000000E+00  0.00000000000E+00  0.00000000000E+00  0.91188000000E+02  0.91188000000E+02 0.  0.
    9900012    2    3    3    0    0  0.12225741987E+02 -0.28285852170E+02  0.26525594707E+02  0.50528863577E+02  0.30000011329E+02 0.  0.
        -12    1    3    3    0    0 -0.12225741987E+02  0.28285852170E+02 -0.26525594707E+02  0.40659136423E+02  0.00000000000E+00 0.  1.
         11    1    4    4    0    0 -0.10398800602E+01  0.25982601976E+01  0.38289546375E+01  0.47426997028E+01  0.51100000000E-03 0. -1.
        -11    1    4    4    0    0  0.56903588424E+01  0.76029428393E+00 -0.59327746311E+00  0.57714997672E+01  0.51100000000E-03 0.  1.
         12    1    4    4    0    0  0.75752632051E+01 -0.31644406651E+02  0.23289917532E+02  0.40014664107E+02  0.00000000000E+00 0. -1.
</event>
<event>
 8    1  0.1031607E-011  0.9118800E+02  0.7816164E-02  0.1184000E+00
        -11   -1    0    0    0    0  0.00000000000E+00  0.00000000000E+00  0.45593999997E+02  0.45594000000E+02  0.51100000000E-03 0. -1.
         11   -1    0    0    0    0 -0.00000000000E+00 -0.00000000000E+00 -0.45593999997E+02  0.45594000000E+02  0.51100000000E-03 0.  1.
         23    2    1    2    0    0  0.00000000000E+00 -0.35527136788E-14  0.00000000000E+00  0.91188000000E+02  0.91188000000E+02 0.  0.
    9900012    2    3    3    0    0  0.94476205446E+01 -0.23916165252E+02 -0.31494844532E+02  0.50528859252E+02  0.29999998181E+02 0.  0.
         12    1    3    3    0    0 -0.94476205446E+01  0.23916165252E+02  0.31494844532E+02  0.40659140748E+02  0.00000000000E+00 0. -1.
         11    1    4    4    0    0 -0.42066355537E+01  0.38598874688E+00 -0.67002339260E+01  0.79207262873E+01  0.51100000000E-03 0. -1.
        -11    1    4    4    0    0  0.12319773874E+02 -0.25284314847E+02 -0.27564066629E+02  0.39380847820E+02  0.51100000000E-03 0.  1.
         12    1    4    4    0    0  0.13344822246E+01  0.98216084846E+00  0.27694560234E+01  0.32272851448E+01  0.00000000000E+00 0. -1.
</event>
<event>
 8    1  0.5829710E-012  0.9118800E+02  0.7816164E-02  0.1184000E+00
        -11   -1    0    0    0    0  0.00000000000E+00  0.00000000000E+00  0.45593999997E+02  0.45594000000E+02  0.51100000000E-03 0. -1.
         11   -1    0    0    0    0 -0.00000000000E+00 -0.00000000000E+00 -0.45593999997E+02  0.45594000000E+02  0.51100000000E-03 0.  1.
         23    2    1    2    0    0  0.00000000000E+00  0.00000000000E+00 -0.35527136788E-14  0.91188000000E+02  0.91188000000E+02 0.  0.
    9900012    2    3    3    0    0  0.15965041207E+02  0.31154441730E+02  0.20680524676E+02  0.50528857349E+02  0.29999992397E+02 0.  0.
        -12    1    3    3    0    0 -0.15965041207E+02 -0.31154441730E+02 -0.20680524676E+02  0.40659142651E+02  0.00000000000E+00 0.  1.
         11    1    4    4    0    0  0.36982736375E+00  0.17654312789E+02 -0.20676891066E+00  0.17659396535E+02  0.51100000000E-03 0. -1.
        -11    1    4    4    0    0  0.32988900762E+01  0.22718727478E+01 -0.20702542818E+01  0.45088839605E+01  0.51100000000E-03 0.  1.
         12    1    4    4    0    0  0.12296323768E+02  0.11228256193E+02  0.22957547868E+02  0.28360576854E+02  0.00000000000E+00 0. -1.
</event>
<event>
 8    1  0.5829710E-012  0.9118800E+02  0.7816164E-02  0.1184000E+00
        -11   -1    0    0    0    0  0.00000000000E+00  0.00000000000E+00  0.45593999997E+02  0.45594000000E+02  0.51100000000E-03 0. -1.
         11   -1    0    0    0    0 -0.00000000000E+00 -0.00000000000E+00 -0.45593999997E+02  0.45594000000E+02  0.51100000000E-03 0.  1.
         23    2    1    2    0    0  0.00000000000E+00  0.00000000000E+00 -0.71054273576E-14  0.91188000000E+02  0.91188000000E+02 0.  0.
    9900012    2    3    3    0    0  0.16175821704E+02 -0.17406746930E+02 -0.32992598321E+02  0.50528885518E+02  0.30000078020E+02 0.  0.
         12    1    3    3    0    0 -0.16175821704E+02  0.17406746930E+02  0.32992598321E+02  0.40659114482E+02  0.00000000000E+00 0. -1.
         11    1    4    4    0    0 -0.89103642569E+00 -0.60913815242E+01 -0.47008657504E+01  0.77457739348E+01  0.51100000000E-03 0.  1.
        -11    1    4    4    0    0 -0.44227010912E+01 -0.34880620443E+01 -0.15690044758E+02  0.16670463897E+02  0.51100000000E-03 0. -1.
         12    1    4    4    0    0  0.21489559221E+02 -0.78273033615E+01 -0.12601687813E+02  0.26112647686E+02  0.00000000000E+00 0. -1.
</event>
<event>
 8    1  0.5829710E-012  0.9118800E+02  0.7816164E-02  0.1184000E+00
        -11   -1    0    0    0    0  0.00000000000E+00  0.00000000000E+00  0.45593999997E+02  0.45594000000E+02  0.51100000000E-03 0. -1.
         11   -1    0    0    0    0 -0.00000000000E+00 -0.00000000000E+00 -0.45593999997E+02  0.45594000000E+02  0.51100000000E-03 0.  1.
         23    2    1    2    0    0  0.00000000000E+00  0.00000000000E+00  0.71054273576E-14  0.91188000000E+02  0.91188000000E+02 0.  0.
    9900012    2    3    3    0    0 -0.17303409105E+02  0.98258446870E+01  0.35457160609E+02  0.50528862910E+02  0.30000009300E+02 0.  0.
        -12    1    3    3    0    0  0.17303409105E+02 -0.98258446870E+01 -0.35457160609E+02  0.40659137090E+02  0.00000000000E+00 0.  1.
         11    1    4    4    0    0 -0.55165679182E+01 -0.60824551103E+01  0.11747840180E+02  0.14333196815E+02  0.51100000000E-03 0. -1.
        -11    1    4    4    0    0 -0.13555120087E+01  0.15160132911E+02  0.19926241082E+02  0.25074332027E+02  0.51100000000E-03 0.  1.
         12    1    4    4    0    0 -0.10431329178E+02  0.74816688659E+00  0.37830793465E+01  0.11121334068E+02  0.00000000000E+00 0. -1.
</event>
<event>
 8    1  0.5829710E-012  0.9118800E+02  0.7816164E-02  0.1184000E+00
        -11   -1    0    0    0    0  0.00000000000E+00  0.00000000000E+00  0.45593999997E+02  0.45594000000E+02  0.51100000000E-03 0. -1.
         11   -1    0    0    0    0 -0.00000000000E+00 -0.00000000000E+00 -0.45593999997E+02  0.45594000000E+02  0.51100000000E-03 0.  1.
         23    2    1    2    0    0  0.00000000000E+00  0.44408920985E-15 -0.35527136788E-14  0.91188000000E+02  0.91188000000E+02 0.  0.
    9900012    2    3    3    0    0  0.26391339223E+02 -0.12263995814E+01  0.30905634170E+02  0.50528867381E+02  0.30000022890E+02 0.  0.
        -12    1    3    3    0    0 -0.26391339223E+02  0.12263995814E+01 -0.30905634170E+02  0.40659132619E+02  0.00000000000E+00 0.  1.
         11    1    4    4    0    0  0.15927507996E+02  0.73145762225E+01  0.18823680432E+02  0.25720021025E+02  0.51100000000E-03 0. -1.
        -11    1    4    4    0    0  0.10203775772E+02  0.21845849273E+01  0.86215035383E+01  0.13535869933E+02  0.51100000000E-03 0.  1.
        -12    1    4    4    0    0  0.26005545490E+00 -0.10725560731E+02  0.34604501998E+01  0.11272976423E+02  0.00000000000E+00 0.  1.
</event>
<event>
 8    1  0.5829710E-012  0.9118800E+02  0.7816164E-02  0.1184000E+00
        -11   -1    0    0    0    0  0.00000000000E+00  0.00000000000E+00  0.45593999997E+02  0.45594000000E+02  0.51100000000E-03 0. -1.
         11   -1    0    0    0    0 -0.00000000000E+00 -0.00000000000E+00 -0.45593999997E+02  0.45594000000E+02  0.51100000000E-03 0.  1.
         23    2    1    2    0    0 -0.35527136788E-14  0.00000000000E+00 -0.71054273576E-14  0.91188000000E+02  0.91188000000E+02 0.  0.
    9900012    2    3    3    0    0 -0.18604095166E+02 -0.44171037207E+01 -0.35882344418E+02  0.50528858308E+02  0.29999995313E+02 0.  0.
         12    1    3    3    0    0  0.18604095166E+02  0.44171037207E+01  0.35882344418E+02  0.40659141692E+02  0.00000000000E+00 0. -1.
         11    1    4    4    0    0  0.23261435969E+01 -0.58419708935E+01  0.12793149024E+01  0.64168695510E+01  0.51100000000E-03 0. -1.
        -11    1    4    4    0    0 -0.33612444478E+00 -0.21325318769E+01 -0.76562989463E+01  0.79548466776E+01  0.51100000000E-03 0.  1.
        -12    1    4    4    0    0 -0.20594114318E+02  0.35573990497E+01 -0.29505360374E+02  0.36157142079E+02  0.00000000000E+00 0.  1.
</event>
<event>
 8    1  0.5829710E-012  0.9118800E+02  0.7816164E-02  0.1184000E+00
        -11   -1    0    0    0    0  0.00000000000E+00  0.00000000000E+00  0.45593999997E+02  0.45594000000E+02  0.51100000000E-03 0. -1.
         11   -1    0    0    0    0 -0.00000000000E+00 -0.00000000000E+00 -0.45593999997E+02  0.45594000000E+02  0.51100000000E-03 0.  1.
         23    2    1    2    0    0  0.35527136788E-14 -0.17763568394E-14  0.00000000000E+00  0.91188000000E+02  0.91188000000E+02 0.  0.
    9900012    2    3    3    0    0 -0.31296422455E+02  0.76660268390E+01  0.24797814964E+02  0.50528860155E+02  0.30000000927E+02 0.  0.
        -12    1    3    3    0    0  0.31296422455E+02 -0.76660268390E+01 -0.24797814964E+02  0.40659139845E+02  0.00000000000E+00 0.  1.
         11    1    4    4    0    0 -0.12022458707E+02  0.93174761415E+01  0.33801424513E+01  0.15581406813E+02  0.51100000000E-03 0. -1.
        -11    1    4    4    0    0  0.27452404615E+01  0.25103218691E+01 -0.31193351710E+00  0.37330100266E+01  0.51100000000E-03 0.  1.
         12    1    4    4    0    0 -0.22019204209E+02 -0.41617711716E+01  0.21729606029E+02  0.31214443315E+02  0.00000000000E+00 0. -1.
</event>
<event>
 8    1  0.5829710E-012  0.9118800E+02  0.7816164E-02  0.1184000E+00
        -11   -1    0    0    0    0  0.00000000000E+00  0.00000000000E+00  0.45593999997E+02  0.45594000000E+02  0.51100000000E-03 0. -1.
         11   -1    0    0    0    0 -0.00000000000E+00 -0.00000000000E+00 -0.45593999997E+02  0.45594000000E+02  0.51100000000E-03 0.  1.
         23    2    1    2    0    0  0.00000000000E+00  0.00000000000E+00  0.00000000000E+00  0.91188000000E+02  0.91188000000E+02 0.  0.
    9900012    2    3    3    0    0  0.23196499494E+02  0.92871948013E+01  0.32075449940E+02  0.50528879684E+02  0.30000060287E+02 0.  0.
        -12    1    3    3    0    0 -0.23196499494E+02 -0.92871948013E+01 -0.32075449940E+02  0.40659120316E+02  0.00000000000E+00 0.  1.
         11    1    4    4    0    0  0.16386560188E+02  0.59363666213E+01  0.12958319657E+02  0.21718145686E+02  0.51100000000E-03 0. -1.
        -11    1    4    4    0    0  0.12887558852E+02 -0.73696296323E+00  0.70864724463E+01  0.14725840538E+02  0.51100000000E-03 0.  1.
        -12    1    4    4    0    0 -0.60776195458E+01  0.40877911432E+01  0.12030657836E+02  0.14084893459E+02  0.00000000000E+00 0.  1.
</event>
<event>
 8    1  0.5829710E-012  0.9118800E+02  0.7816164E-02  0.1184000E+00
        -11   -1    0    0    0    0  0.00000000000E+00  0.00000000000E+00  0.45593999997E+02  0.45594000000E+02  0.51100000000E-03 0. -1.
         11   -1    0    0    0    0 -0.00000000000E+00 -0.00000000000E+00 -0.45593999997E+02  0.45594000000E+02  0.51100000000E-03 0.  1.
         23    2    1    2    0    0 -0.13322676296E-14  0.00000000000E+00  0.00000000000E+00  0.91188000000E+02  0.91188000000E+02 0.  0.
    9900012    2    3    3    0    0 -0.38772967298E+01 -0.23789146937E+02 -0.32744600509E+02  0.50528858292E+02  0.29999995264E+02 0.  0.
         12    1    3    3    0    0  0.38772967298E+01  0.23789146937E+02  0.32744600509E+02  0.40659141708E+02  0.00000000000E+00 0. -1.
         11    1    4    4    0    0 -0.31169771786E+01 -0.66072552501E+01 -0.19670838022E+01  0.75657641794E+01  0.51100000000E-03 0. -1.
        -11    1    4    4    0    0 -0.12167896876E+02 -0.80284059465E+01 -0.10519675176E+02  0.17977112741E+02  0.51100000000E-03 0.  1.
        -12    1    4    4    0    0  0.11407577324E+02 -0.91534857408E+01 -0.20257841531E+02  0.24985981372E+02  0.00000000000E+00 0.  1.
</event>
<event>
 8    1  0.5829710E-012  0.9118800E+02  0.7816164E-02  0.1184000E+00
        -11   -1    0    0    0    0  0.00000000000E+00  0.00000000000E+00  0.45593999997E+02  0.45594000000E+02  0.51100000000E-03 0. -1.
         11   -1    0    0    0    0 -0.00000000000E+00 -0.00000000000E+00 -0.45593999997E+02  0.45594000000E+02  0.51100000000E-03 0.  1.
         23    2    1    2    0    0  0.00000000000E+00  0.00000000000E+00 -0.35527136788E-14  0.91188000000E+02  0.91188000000E+02 0.  0.
    9900012    2    3    3    0    0  0.88025801520E+01 -0.32274585200E+02  0.23109088391E+02  0.50528877611E+02  0.30000053987E+02 0.  0.
        -12    1    3    3    0    0 -0.88025801520E+01  0.32274585200E+02 -0.23109088391E+02  0.40659122389E+02  0.00000000000E+00 0.  1.
         11    1    4    4    0    0 -0.12523086558E+01 -0.37164093209E+01 -0.30267211256E+01  0.49538890019E+01  0.51100000000E-03 0. -1.
        -11    1    4    4    0    0 -0.65891058068E+01 -0.85405420701E+01  0.43584798636E+01  0.11634153221E+02  0.51100000000E-03 0.  1.
         12    1    4    4    0    0  0.16643994615E+02 -0.20017633809E+02  0.21777329653E+02  0.33940835388E+02  0.00000000000E+00 0. -1.
</event>
<event>
 8    1  0.5829710E-012  0.9118800E+02  0.7816164E-02  0.1184000E+00
        -11   -1    0    0    0    0  0.00000000000E+00  0.00000000000E+00  0.45593999997E+02  0.45594000000E+02  0.51100000000E-03 0. -1.
         11   -1    0    0    0    0 -0.00000000000E+00 -0.00000000000E+00 -0.45593999997E+02  0.45594000000E+02  0.51100000000E-03 0.  1.
         23    2    1    2    0    0  0.35527136788E-14  0.13322676296E-14  0.71054273576E-14  0.91188000000E+02  0.91188000000E+02 0.  0.
    9900012    2    3    3    0    0 -0.21088667258E+02 -0.34012970834E+01 -0.34595734636E+02  0.50528861254E+02  0.30000004269E+02 0.  0.
         12    1    3    3    0    0  0.21088667258E+02  0.34012970834E+01  0.34595734636E+02  0.40659138746E+02  0.00000000000E+00 0. -1.
         11    1    4    4    0    0 -0.77566082691E+01 -0.10156049460E+01 -0.84602566466E+01  0.11522689271E+02  0.51100000000E-03 0. -1.
        -11    1    4    4    0    0 -0.18828353878E+02 -0.75151049352E+01 -0.13676470619E+02  0.24454642929E+02  0.51100000000E-03 0.  1.
         12    1    4    4    0    0  0.54962948895E+01  0.51294127978E+01 -0.12459007370E+02  0.14551529054E+02  0.00000000000E+00 0. -1.
</event>
<event>
 8    1  0.5829710E-012  0.9118800E+02  0.7816164E-02  0.1184000E+00
        -11   -1    0    0    0    0  0.00000000000E+00  0.00000000000E+00  0.45593999997E+02  0.45594000000E+02  0.51100000000E-03 0.  1.
         11   -1    0    0    0    0 -0.00000000000E+00 -0.00000000000E+00 -0.45593999997E+02  0.45594000000E+02  0.51100000000E-03 0. -1.
         23    2    1    2    0    0  0.00000000000E+00  0.00000000000E+00  0.00000000000E+00  0.91188000000E+02  0.91188000000E+02 0.  0.
    9900012    2    3    3    0    0  0.18572607908E+02 -0.45764957871E+01 -0.35878662752E+02  0.50528874098E+02  0.30000043309E+02 0.  0.
         12    1    3    3    0    0 -0.18572607908E+02  0.45764957871E+01  0.35878662752E+02  0.40659125902E+02  0.00000000000E+00 0. -1.
         11    1    4    4    0    0  0.70079352999E+01 -0.65882418977E+01 -0.20429499375E+02  0.22580534393E+02  0.51100000000E-03 0. -1.
        -11    1    4    4    0    0  0.13254112241E+01  0.22454453686E+01 -0.17338622097E+02  0.17533583669E+02  0.51100000000E-03 0.  1.
        -12    1    4    4    0    0  0.10239261384E+02 -0.23369925797E+00  0.18894587198E+01  0.10414756036E+02  0.00000000000E+00 0.  1.
</event>
<event>
 8    1  0.5829710E-012  0.9118800E+02  0.7816164E-02  0.1184000E+00
        -11   -1    0    0    0    0  0.00000000000E+00  0.00000000000E+00  0.45593999997E+02  0.45594000000E+02  0.51100000000E-03 0.  1.
         11   -1    0    0    0    0 -0.00000000000E+00 -0.00000000000E+00 -0.45593999997E+02  0.45594000000E+02  0.51100000000E-03 0. -1.
         23    2    1    2    0    0  0.00000000000E+00  0.00000000000E+00 -0.17763568394E-14  0.91188000000E+02  0.91188000000E+02 0.  0.
    9900012    2    3    3    0    0  0.37516142949E+02 -0.13422303052E+02 -0.80961150943E+01  0.50528852437E+02  0.29999977466E+02 0.  0.
         12    1    3    3    0    0 -0.37516142949E+02  0.13422303052E+02  0.80961150943E+01  0.40659147563E+02  0.00000000000E+00 0. -1.
         11    1    4    4    0    0  0.40301697805E+01  0.31684859329E+01  0.63313047200E+01  0.81465938456E+01  0.51100000000E-03 0. -1.
        -11    1    4    4    0    0  0.27888174520E+02 -0.15005499247E+02 -0.61431931943E+01  0.32259170922E+02  0.51100000000E-03 0.  1.
        -12    1    4    4    0    0  0.55977986486E+01 -0.15852897378E+01 -0.82842266200E+01  0.10123087669E+02  0.00000000000E+00 0.  1.
</event>
<event>
 8    1  0.6277607E-012  0.9118800E+02  0.7816164E-02  0.1184000E+00
        -11   -1    0    0    0    0  0.00000000000E+00  0.00000000000E+00  0.45593999997E+02  0.45594000000E+02  0.51100000000E-03 0. -1.
         11   -1    0    0    0    0 -0.00000000000E+00 -0.00000000000E+00 -0.45593999997E+02  0.45594000000E+02  0.51100000000E-03 0.  1.
         23    2    1    2    0    0  0.00000000000E+00  0.00000000000E+00  0.00000000000E+00  0.91188000000E+02  0.91188000000E+02 0.  0.
    9900012    2    3    3    0    0 -0.10638001427E+02 -0.32073854207E+02 -0.22611198536E+02  0.50528862069E+02  0.30000006746E+02 0.  0.
         12    1    3    3    0    0  0.10638001427E+02  0.32073854207E+02  0.22611198536E+02  0.40659137931E+02  0.00000000000E+00 0. -1.
         11    1    4    4    0    0 -0.74784702981E+00 -0.17479203295E+02 -0.13767046916E+02  0.22262376424E+02  0.51100000000E-03 0.  1.
        -11    1    4    4    0    0 -0.83646442294E+01 -0.15482559091E+02 -0.14209480326E+02  0.22618272270E+02  0.51100000000E-03 0. -1.
         12    1    4    4    0    0 -0.15255101682E+01  0.88790817949E+00  0.53653287059E+01  0.56482133751E+01  0.00000000000E+00 0. -1.
</event>
<event>
 8    1  0.5829710E-012  0.9118800E+02  0.7816164E-02  0.1184000E+00
        -11   -1    0    0    0    0  0.00000000000E+00  0.00000000000E+00  0.45593999997E+02  0.45594000000E+02  0.51100000000E-03 0. -1.
         11   -1    0    0    0    0 -0.00000000000E+00 -0.00000000000E+00 -0.45593999997E+02  0.45594000000E+02  0.51100000000E-03 0.  1.
         23    2    1    2    0    0  0.00000000000E+00  0.00000000000E+00  0.00000000000E+00  0.91188000000E+02  0.91188000000E+02 0.  0.
    9900012    2    3    3    0    0 -0.52539931195E+01 -0.47475028175E+01 -0.40037743558E+02  0.50528878810E+02  0.30000057632E+02 0.  0.
         12    1    3    3    0    0  0.52539931195E+01  0.47475028175E+01  0.40037743558E+02  0.40659121190E+02  0.00000000000E+00 0. -1.
         11    1    4    4    0    0  0.47568979153E+00 -0.49808256105E+00  0.14460106063E+01  0.16016597486E+01  0.51100000000E-03 0. -1.
        -11    1    4    4    0    0  0.54989087644E+01  0.63266443938E+01 -0.62220451593E+01  0.10439265928E+02  0.51100000000E-03 0.  1.
        -12    1    4    4    0    0 -0.11228591676E+02 -0.10576064650E+02 -0.35261709005E+02  0.38487953134E+02  0.00000000000E+00 0.  1.
</event>
<event>
 8    1  0.5829710E-012  0.9118800E+02  0.7816164E-02  0.1184000E+00
        -11   -1    0    0    0    0  0.00000000000E+00  0.00000000000E+00  0.45593999997E+02  0.45594000000E+02  0.51100000000E-03 0. -1.
         11   -1    0    0    0    0 -0.00000000000E+00 -0.00000000000E+00 -0.45593999997E+02  0.45594000000E+02  0.51100000000E-03 0.  1.
         23    2    1    2    0    0 -0.17763568394E-14  0.00000000000E+00  0.00000000000E+00  0.91188000000E+02  0.91188000000E+02 0.  0.
    9900012    2    3    3    0    0  0.13011864795E+02 -0.38461942105E+02 -0.21298639547E+01  0.50528856669E+02  0.29999990332E+02 0.  0.
        -12    1    3    3    0    0 -0.13011864795E+02  0.38461942105E+02  0.21298639547E+01  0.40659143331E+02  0.00000000000E+00 0.  1.
         11    1    4    4    0    0  0.23217788285E+01 -0.17997062596E+02  0.67651064534E+01  0.19366248594E+02  0.51100000000E-03 0. -1.
        -11    1    4    4    0    0  0.15306759982E+02 -0.20007936446E+02 -0.69542995066E+01  0.26133822986E+02  0.51100000000E-03 0.  1.
         12    1    4    4    0    0 -0.46166740151E+01 -0.45694306249E+00 -0.19406709015E+01  0.50287850891E+01  0.00000000000E+00 0. -1.
</event>
<event>
 8    1  0.5829710E-012  0.9118800E+02  0.7816164E-02  0.1184000E+00
        -11   -1    0    0    0    0  0.00000000000E+00  0.00000000000E+00  0.45593999997E+02  0.45594000000E+02  0.51100000000E-03 0. -1.
         11   -1    0    0    0    0 -0.00000000000E+00 -0.00000000000E+00 -0.45593999997E+02  0.45594000000E+02  0.51100000000E-03 0.  1.
         23    2    1    2    0    0  0.88817841970E-15  0.17763568394E-14 -0.71054273576E-14  0.91188000000E+02  0.91188000000E+02 0.  0.
    9900012    2    3    3    0    0  0.50275360650E+01  0.53834551017E+01 -0.39986357588E+02  0.50528849728E+02  0.29999969232E+02 0.  0.
         12    1    3    3    0    0 -0.50275360650E+01 -0.53834551017E+01  0.39986357588E+02  0.40659150272E+02  0.00000000000E+00 0. -1.
         11    1    4    4    0    0  0.16393591344E+01 -0.13118795302E+01 -0.65404708902E+01  0.68692274675E+01  0.51100000000E-03 0. -1.
        -11    1    4    4    0    0 -0.23661688599E+01  0.88959816264E+01 -0.35875043958E+02  0.37037224834E+02  0.51100000000E-03 0.  1.
         12    1    4    4    0    0  0.57543457904E+01 -0.22006469945E+01  0.24291572604E+01  0.66223974258E+01  0.00000000000E+00 0. -1.
</event>
<event>
 8    1  0.5829710E-012  0.9118800E+02  0.7816164E-02  0.1184000E+00
        -11   -1    0    0    0    0  0.00000000000E+00  0.00000000000E+00  0.45593999997E+02  0.45594000000E+02  0.51100000000E-03 0. -1.
         11   -1    0    0    0    0 -0.00000000000E+00 -0.00000000000E+00 -0.45593999997E+02  0.45594000000E+02  0.51100000000E-03 0.  1.
         23    2    1    2    0    0  0.00000000000E+00  0.17763568394E-14  0.00000000000E+00  0.91188000000E+02  0.91188000000E+02 0.  0.
    9900012    2    3    3    0    0 -0.35894152593E+02  0.82303582199E+01  0.17234764112E+02  0.50528854893E+02  0.29999984933E+02 0.  0.
        -12    1    3    3    0    0  0.35894152593E+02 -0.82303582199E+01 -0.17234764112E+02  0.40659145107E+02  0.00000000000E+00 0.  1.
         11    1    4    4    0    0 -0.14203359562E+02  0.11190538981E+01 -0.35298105366E+01  0.14678122058E+02  0.51100000000E-03 0. -1.
        -11    1    4    4    0    0  0.19340042861E+01  0.46935321498E+01  0.61152488274E+01  0.79476968426E+01  0.51100000000E-03 0.  1.
        -12    1    4    4    0    0 -0.23624797318E+02  0.24177721721E+01  0.14649325821E+02  0.27903035992E+02  0.00000000000E+00 0.  1.
</event>
<event>
 8    1  0.5829710E-012  0.9118800E+02  0.7816164E-02  0.1184000E+00
        -11   -1    0    0    0    0  0.00000000000E+00  0.00000000000E+00  0.45593999997E+02  0.45594000000E+02  0.51100000000E-03 0.  1.
         11   -1    0    0    0    0 -0.00000000000E+00 -0.00000000000E+00 -0.45593999997E+02  0.45594000000E+02  0.51100000000E-03 0. -1.
         23    2    1    2    0    0  0.00000000000E+00 -0.35527136788E-14  0.88817841970E-15  0.91188000000E+02  0.91188000000E+02 0.  0.
    9900012    2    3    3    0    0  0.31983370504E+02  0.24571783639E+02 -0.51435066059E+01  0.50528878020E+02  0.30000055229E+02 0.  0.
         12    1    3    3    0    0 -0.31983370504E+02 -0.24571783639E+02  0.51435066059E+01  0.40659121980E+02  0.00000000000E+00 0. -1.
         11    1    4    4    0    0 -0.37329336207E+01  0.22608145147E+01 -0.18206032782E+01  0.47287072487E+01  0.51100000000E-03 0. -1.
        -11    1    4    4    0    0 -0.26655370794E+00  0.46921731217E+01  0.24855288566E+01  0.53165208023E+01  0.51100000000E-03 0.  1.
         12    1    4    4    0    0  0.35982857832E+02  0.17618796003E+02 -0.58084321843E+01  0.40483649969E+02  0.00000000000E+00 0. -1.
</event>
<event>
 8    1  0.5829710E-012  0.9118800E+02  0.7816164E-02  0.1184000E+00
        -11   -1    0    0    0    0  0.00000000000E+00  0.00000000000E+00  0.45593999997E+02  0.45594000000E+02  0.51100000000E-03 0.  1.
         11   -1    0    0    0    0 -0.00000000000E+00 -0.00000000000E+00 -0.45593999997E+02  0.45594000000E+02  0.51100000000E-03 0. -1.
         23    2    1    2    0    0  0.00000000000E+00 -0.35527136788E-14  0.00000000000E+00  0.91188000000E+02  0.91188000000E+02 0.  0.
    9900012    2    3    3    0    0 -0.31937551217E+02 -0.17180285064E+02 -0.18384665199E+02  0.50528864654E+02  0.30000014603E+02 0.  0.
         12    1    3    3    0    0  0.31937551217E+02  0.17180285064E+02  0.18384665199E+02  0.40659135346E+02  0.00000000000E+00 0. -1.
         11    1    4    4    0    0 -0.19791495171E+02 -0.42015537133E+01 -0.59637521578E+01  0.21093190246E+02  0.51100000000E-03 0. -1.
        -11    1    4    4    0    0 -0.74676696702E+01 -0.14361189377E+02 -0.10313559625E+00  0.16187046915E+02  0.51100000000E-03 0.  1.
         12    1    4    4    0    0 -0.46783863754E+01  0.13824580256E+01 -0.12317777445E+02  0.13248627493E+02  0.00000000000E+00 0. -1.
</event>
<event>
 8    1  0.5829710E-012  0.9118800E+02  0.7816164E-02  0.1184000E+00
        -11   -1    0    0    0    0  0.00000000000E+00  0.00000000000E+00  0.45593999997E+02  0.45594000000E+02  0.51100000000E-03 0. -1.
         11   -1    0    0    0    0 -0.00000000000E+00 -0.00000000000E+00 -0.45593999997E+02  0.45594000000E+02  0.51100000000E-03 0.  1.
         23    2    1    2    0    0  0.00000000000E+00 -0.44408920985E-15 -0.71054273576E-14  0.91188000000E+02  0.91188000000E+02 0.  0.
    9900012    2    3    3    0    0 -0.36580479637E+01 -0.27764273704E+01  0.40398961854E+02  0.50528856100E+02  0.29999988601E+02 0.  0.
        -12    1    3    3    0    0  0.36580479637E+01  0.27764273704E+01 -0.40398961854E+02  0.40659143900E+02  0.00000000000E+00 0.  1.
         11    1    4    4    0    0  0.21151515149E+01  0.40268184262E+01 -0.20847089377E+01  0.50035131842E+01  0.51100000000E-03 0. -1.
        -11    1    4    4    0    0 -0.29553302542E+01  0.36301510105E+01  0.69097998199E+01  0.83460953195E+01  0.51100000000E-03 0.  1.
         12    1    4    4    0    0 -0.28178692245E+01 -0.10433396807E+02  0.35573870972E+02  0.37179247596E+02  0.00000000000E+00 0. -1.
</event>
<event>
 8    1  0.5829710E-012  0.9118800E+02  0.7816164E-02  0.1184000E+00
        -11   -1    0    0    0    0  0.00000000000E+00  0.00000000000E+00  0.45593999997E+02  0.45594000000E+02  0.51100000000E-03 0. -1.
         11   -1    0    0    0    0 -0.00000000000E+00 -0.00000000000E+00 -0.45593999997E+02  0.45594000000E+02  0.51100000000E-03 0.  1.
         23    2    1    2    0    0  0.00000000000E+00  0.35527136788E-14  0.00000000000E+00  0.91188000000E+02  0.91188000000E+02 0.  0.
    9900012    2    3    3    0    0 -0.21315784679E+02 -0.24214477486E+02 -0.24747968895E+02  0.50528861287E+02  0.30000004369E+02 0.  0.
         12    1    3    3    0    0  0.21315784679E+02  0.24214477486E+02  0.24747968895E+02  0.40659138713E+02  0.00000000000E+00 0. -1.
         11    1    4    4    0    0  0.45686335144E+00 -0.36429568623E+01  0.30200763270E+01  0.47540214665E+01  0.51100000000E-03 0. -1.
        -11    1    4    4    0    0 -0.33530983126E+01  0.18024057550E+01 -0.12400932287E+02  0.12972087598E+02  0.51100000000E-03 0.  1.
        -12    1    4    4    0    0 -0.18419549718E+02 -0.22373926379E+02 -0.15367112935E+02  0.32802752223E+02  0.00000000000E+00 0.  1.
</event>
<event>
 8    1  0.5829710E-012  0.9118800E+02  0.7816164E-02  0.1184000E+00
        -11   -1    0    0    0    0  0.00000000000E+00  0.00000000000E+00  0.45593999997E+02  0.45594000000E+02  0.51100000000E-03 0. -1.
         11   -1    0    0    0    0 -0.00000000000E+00 -0.00000000000E+00 -0.45593999997E+02  0.45594000000E+02  0.51100000000E-03 0.  1.
         23    2    1    2    0    0  0.00000000000E+00  0.00000000000E+00 -0.88817841970E-15  0.91188000000E+02  0.91188000000E+02 0.  0.
    9900012    2    3    3    0    0 -0.36211462136E+02 -0.17627204636E+02 -0.55838351209E+01  0.50528836851E+02  0.29999930093E+02 0.  0.
         12    1    3    3    0    0  0.36211462136E+02  0.17627204636E+02  0.55838351209E+01  0.40659163149E+02  0.00000000000E+00 0. -1.
         11    1    4    4    0    0 -0.16614788557E+02 -0.66470843536E+01  0.72834549612E+01  0.19320549827E+02  0.51100000000E-03 0. -1.
        -11    1    4    4    0    0 -0.41713233814E+01  0.17528745529E+01  0.32086673453E+01  0.55468959197E+01  0.51100000000E-03 0.  1.
         12    1    4    4    0    0 -0.15425350198E+02 -0.12732994835E+02 -0.16075957427E+02  0.25661391104E+02  0.00000000000E+00 0. -1.
</event>
<event>
 8    1  0.5829710E-012  0.9118800E+02  0.7816164E-02  0.1184000E+00
        -11   -1    0    0    0    0  0.00000000000E+00  0.00000000000E+00  0.45593999997E+02  0.45594000000E+02  0.51100000000E-03 0.  1.
         11   -1    0    0    0    0 -0.00000000000E+00 -0.00000000000E+00 -0.45593999997E+02  0.45594000000E+02  0.51100000000E-03 0. -1.
         23    2    1    2    0    0  0.00000000000E+00  0.35527136788E-14  0.00000000000E+00  0.91188000000E+02  0.91188000000E+02 0.  0.
    9900012    2    3    3    0    0  0.17890958551E+02 -0.29435602934E+02  0.21601524453E+02  0.50528843877E+02  0.29999951448E+02 0.  0.
        -12    1    3    3    0    0 -0.17890958551E+02  0.29435602934E+02 -0.21601524453E+02  0.40659156123E+02  0.00000000000E+00 0.  1.
         11    1    4    4    0    0  0.85389425732E+01  0.20991064679E+01  0.75035288503E+01  0.11559529995E+02  0.51100000000E-03 0. -1.
        -11    1    4    4    0    0 -0.14791721475E+01 -0.61281319720E+01  0.88346936836E+01  0.10853283579E+02  0.51100000000E-03 0.  1.
         12    1    4    4    0    0  0.10831188125E+02 -0.25406577430E+02  0.52633019196E+01  0.28116030303E+02  0.00000000000E+00 0. -1.
</event>
<event>
 8    1  0.5829710E-012  0.9118800E+02  0.7816164E-02  0.1184000E+00
        -11   -1    0    0    0    0  0.00000000000E+00  0.00000000000E+00  0.45593999997E+02  0.45594000000E+02  0.51100000000E-03 0. -1.
         11   -1    0    0    0    0 -0.00000000000E+00 -0.00000000000E+00 -0.45593999997E+02  0.45594000000E+02  0.51100000000E-03 0.  1.
         23    2    1    2    0    0 -0.17763568394E-14  0.22204460493E-15 -0.71054273576E-14  0.91188000000E+02  0.91188000000E+02 0.  0.
    9900012    2    3    3    0    0 -0.90318905507E+01 -0.10250114394E+01 -0.39630041426E+02  0.50528857378E+02  0.29999992486E+02 0.  0.
         12    1    3    3    0    0  0.90318905507E+01  0.10250114394E+01  0.39630041426E+02  0.40659142622E+02  0.00000000000E+00 0. -1.
         11    1    4    4    0    0  0.51429315910E+00 -0.41999537206E+01 -0.15728844360E+01  0.45142080610E+01  0.51100000000E-03 0. -1.
        -11    1    4    4    0    0 -0.15030880815E+02 -0.14473231302E+01 -0.12917198889E+02  0.19871490878E+02  0.51100000000E-03 0.  1.
        -12    1    4    4    0    0  0.54846971049E+01  0.46222654114E+01 -0.25139958101E+02  0.26143158439E+02  0.00000000000E+00 0.  1.
</event>
<event>
 8    1  0.6059759E-012  0.9118800E+02  0.7816164E-02  0.1184000E+00
        -11   -1    0    0    0    0  0.00000000000E+00  0.00000000000E+00  0.45593999997E+02  0.45594000000E+02  0.51100000000E-03 0. -1.
         11   -1    0    0    0    0 -0.00000000000E+00 -0.00000000000E+00 -0.45593999997E+02  0.45594000000E+02  0.51100000000E-03 0.  1.
         23    2    1    2    0    0 -0.35527136788E-14 -0.35527136788E-14 -0.71054273576E-14  0.91188000000E+02  0.91188000000E+02 0.  0.
    9900012    2    3    3    0    0 -0.19163991969E+02 -0.24757598755E+02 -0.25941593796E+02  0.50528885733E+02  0.30000078673E+02 0.  0.
         12    1    3    3    0    0  0.19163991969E+02  0.24757598755E+02  0.25941593796E+02  0.40659114267E+02  0.00000000000E+00 0. -1.
         11    1    4    4    0    0 -0.11908623640E+02 -0.26159078282E+02 -0.17729486806E+02  0.33770510749E+02  0.51100000000E-03 0. -1.
        -11    1    4    4    0    0 -0.63796565151E+01 -0.44474705247E+01 -0.74953814667E+01  0.10800960833E+02  0.51100000000E-03 0.  1.
         12    1    4    4    0    0 -0.87571181452E+00  0.58489500518E+01 -0.71672552368E+00  0.59574141511E+01  0.00000000000E+00 0. -1.
</event>
<event>
 8    1  0.5829710E-012  0.9118800E+02  0.7816164E-02  0.1184000E+00
        -11   -1    0    0    0    0  0.00000000000E+00  0.00000000000E+00  0.45593999997E+02  0.45594000000E+02  0.51100000000E-03 0. -1.
         11   -1    0    0    0    0 -0.00000000000E+00 -0.00000000000E+00 -0.45593999997E+02  0.45594000000E+02  0.51100000000E-03 0.  1.
         23    2    1    2    0    0  0.17763568394E-14  0.00000000000E+00  0.71054273576E-14  0.91188000000E+02  0.91188000000E+02 0.  0.
    9900012    2    3    3    0    0 -0.84010469469E+01 -0.21317664995E+01 -0.39724598063E+02  0.50528859459E+02  0.29999998813E+02 0.  0.
         12    1    3    3    0    0  0.84010469469E+01  0.21317664995E+01  0.39724598063E+02  0.40659140541E+02  0.00000000000E+00 0. -1.
         11    1    4    4    0    0  0.11107540446E+01  0.19371530718E+01 -0.67295320875E+01  0.70903412435E+01  0.51100000000E-03 0. -1.
        -11    1    4    4    0    0 -0.35343653835E+01  0.26118637533E+01 -0.34121641275E+02  0.34403487824E+02  0.51100000000E-03 0.  1.
        -12    1    4    4    0    0 -0.59774356080E+01 -0.66807833246E+01  0.11265752987E+01  0.90350303919E+01  0.00000000000E+00 0.  1.
</event>
<event>
 8    1  0.5829710E-012  0.9118800E+02  0.7816164E-02  0.1184000E+00
        -11   -1    0    0    0    0  0.00000000000E+00  0.00000000000E+00  0.45593999997E+02  0.45594000000E+02  0.51100000000E-03 0. -1.
         11   -1    0    0    0    0 -0.00000000000E+00 -0.00000000000E+00 -0.45593999997E+02  0.45594000000E+02  0.51100000000E-03 0.  1.
         23    2    1    2    0    0 -0.35527136788E-14 -0.88817841970E-15  0.00000000000E+00  0.91188000000E+02  0.91188000000E+02 0.  0.
    9900012    2    3    3    0    0  0.20735953527E+02  0.49021273026E+01  0.34628818523E+02  0.50528859662E+02  0.29999999427E+02 0.  0.
        -12    1    3    3    0    0 -0.20735953527E+02 -0.49021273026E+01 -0.34628818523E+02  0.40659140338E+02  0.00000000000E+00 0.  1.
         11    1    4    4    0    0  0.13185700159E+02  0.44306846946E+01  0.79966024834E+01  0.16044915303E+02  0.51100000000E-03 0. -1.
        -11    1    4    4    0    0  0.18471494237E+01  0.10253088727E+02  0.14880270798E+02  0.18164807973E+02  0.51100000000E-03 0.  1.
         12    1    4    4    0    0  0.57031039443E+01 -0.97816461186E+01  0.11751945241E+02  0.16319136385E+02  0.00000000000E+00 0. -1.
</event>
<event>
 8    1  0.5829710E-012  0.9118800E+02  0.7816164E-02  0.1184000E+00
        -11   -1    0    0    0    0  0.00000000000E+00  0.00000000000E+00  0.45593999997E+02  0.45594000000E+02  0.51100000000E-03 0. -1.
         11   -1    0    0    0    0 -0.00000000000E+00 -0.00000000000E+00 -0.45593999997E+02  0.45594000000E+02  0.51100000000E-03 0.  1.
         23    2    1    2    0    0  0.44408920985E-15  0.00000000000E+00 -0.71054273576E-14  0.91188000000E+02  0.91188000000E+02 0.  0.
    9900012    2    3    3    0    0 -0.86910061374E+00 -0.23718870058E+02 -0.33012526034E+02  0.50528843493E+02  0.29999950282E+02 0.  0.
         12    1    3    3    0    0  0.86910061374E+00  0.23718870058E+02  0.33012526034E+02  0.40659156507E+02  0.00000000000E+00 0. -1.
         11    1    4    4    0    0  0.11160195650E+02 -0.27521501427E+01 -0.82070642086E+01  0.14123745981E+02  0.51100000000E-03 0. -1.
        -11    1    4    4    0    0 -0.10650430395E+01  0.44117492024E+00 -0.53397841532E+01  0.54628057855E+01  0.51100000000E-03 0.  1.
        -12    1    4    4    0    0 -0.10964253224E+02 -0.21407894836E+02 -0.19465677672E+02  0.30942291727E+02  0.00000000000E+00 0.  1.
</event>
<event>
 8    1  0.5829710E-012  0.9118800E+02  0.7816164E-02  0.1184000E+00
        -11   -1    0    0    0    0  0.00000000000E+00  0.00000000000E+00  0.45593999997E+02  0.45594000000E+02  0.51100000000E-03 0. -1.
         11   -1    0    0    0    0 -0.00000000000E+00 -0.00000000000E+00 -0.45593999997E+02  0.45594000000E+02  0.51100000000E-03 0.  1.
         23    2    1    2    0    0 -0.88817841970E-15  0.00000000000E+00 -0.71054273576E-14  0.91188000000E+02  0.91188000000E+02 0.  0.
    9900012    2    3    3    0    0 -0.54617633330E+01 -0.22752975733E+02 -0.33251122815E+02  0.50528856725E+02  0.29999990502E+02 0.  0.
         12    1    3    3    0    0  0.54617633330E+01  0.22752975733E+02  0.33251122815E+02  0.40659143275E+02  0.00000000000E+00 0. -1.
         11    1    4    4    0    0  0.26261774050E+01 -0.52999402529E+00 -0.43505053966E+01  0.51092659841E+01  0.51100000000E-03 0.  1.
        -11    1    4    4    0    0  0.45858009574E+01 -0.13146865859E+02 -0.16443255925E+01  0.14020465728E+02  0.51100000000E-03 0. -1.
        -12    1    4    4    0    0 -0.12673741695E+02 -0.90761158487E+01 -0.27256291826E+02  0.31399125013E+02  0.00000000000E+00 0.  1.
</event>
<event>
 8    1  0.5829710E-012  0.9118800E+02  0.7816164E-02  0.1184000E+00
        -11   -1    0    0    0    0  0.00000000000E+00  0.00000000000E+00  0.45593999997E+02  0.45594000000E+02  0.51100000000E-03 0. -1.
         11   -1    0    0    0    0 -0.00000000000E+00 -0.00000000000E+00 -0.45593999997E+02  0.45594000000E+02  0.51100000000E-03 0.  1.
         23    2    1    2    0    0  0.00000000000E+00 -0.17763568394E-14  0.00000000000E+00  0.91188000000E+02  0.91188000000E+02 0.  0.
    9900012    2    3    3    0    0 -0.23940023561E+02 -0.13311846490E+02  0.30047232719E+02  0.50528853684E+02  0.29999981257E+02 0.  0.
        -12    1    3    3    0    0  0.23940023561E+02  0.13311846490E+02 -0.30047232719E+02  0.40659146316E+02  0.00000000000E+00 0.  1.
         11    1    4    4    0    0 -0.17132591475E+02  0.16590526313E+01  0.16121673420E+02  0.23583606603E+02  0.51100000000E-03 0. -1.
        -11    1    4    4    0    0 -0.67595889954E+01  0.11831618821E+01  0.49867433932E+01  0.84828960478E+01  0.51100000000E-03 0.  1.
        -12    1    4    4    0    0 -0.47843090656E-01 -0.16154061003E+02  0.89388159059E+01  0.18462351033E+02  0.00000000000E+00 0.  1.
</event>
<event>
 8    1  0.5829710E-012  0.9118800E+02  0.7816164E-02  0.1184000E+00
        -11   -1    0    0    0    0  0.00000000000E+00  0.00000000000E+00  0.45593999997E+02  0.45594000000E+02  0.51100000000E-03 0. -1.
         11   -1    0    0    0    0 -0.00000000000E+00 -0.00000000000E+00 -0.45593999997E+02  0.45594000000E+02  0.51100000000E-03 0.  1.
         23    2    1    2    0    0  0.00000000000E+00  0.22204460493E-15  0.00000000000E+00  0.91188000000E+02  0.91188000000E+02 0.  0.
    9900012    2    3    3    0    0 -0.18713807759E+02  0.54870769041E+00  0.36092354995E+02  0.50528858714E+02  0.29999996548E+02 0.  0.
        -12    1    3    3    0    0  0.18713807759E+02 -0.54870769041E+00 -0.36092354995E+02  0.40659141286E+02  0.00000000000E+00 0.  1.
         11    1    4    4    0    0 -0.36373356939E+01 -0.30800389321E+01  0.69575146433E+00  0.48167334507E+01  0.51100000000E-03 0. -1.
        -11    1    4    4    0    0 -0.99974200094E+00 -0.71062856132E+01  0.12990704027E+01  0.72928981522E+01  0.51100000000E-03 0.  1.
         12    1    4    4    0    0 -0.14076730065E+02  0.10735032236E+02  0.34097533128E+02  0.38419227111E+02  0.00000000000E+00 0. -1.
</event>
<event>
 8    1  0.5829710E-012  0.9118800E+02  0.7816164E-02  0.1184000E+00
        -11   -1    0    0    0    0  0.00000000000E+00  0.00000000000E+00  0.45593999997E+02  0.45594000000E+02  0.51100000000E-03 0. -1.
         11   -1    0    0    0    0 -0.00000000000E+00 -0.00000000000E+00 -0.45593999997E+02  0.45594000000E+02  0.51100000000E-03 0.  1.
         23    2    1    2    0    0 -0.35527136788E-14  0.17763568394E-14  0.00000000000E+00  0.91188000000E+02  0.91188000000E+02 0.  0.
    9900012    2    3    3    0    0  0.20348821905E+02 -0.13402468597E+02  0.32549430803E+02  0.50528853883E+02  0.29999981861E+02 0.  0.
        -12    1    3    3    0    0 -0.20348821905E+02  0.13402468597E+02 -0.32549430803E+02  0.40659146117E+02  0.00000000000E+00 0.  1.
         11    1    4    4    0    0  0.13671077208E+02 -0.56007263717E+01  0.18035304828E+02  0.23313916625E+02  0.51100000000E-03 0. -1.
        -11    1    4    4    0    0  0.50503743094E+01 -0.31678479296E+01  0.19395108936E+02  0.20290682396E+02  0.51100000000E-03 0.  1.
        -12    1    4    4    0    0  0.16273703874E+01 -0.46338942953E+01 -0.48809829612E+01  0.69242548614E+01  0.00000000000E+00 0.  1.
</event>
<event>
 8    1  0.5829710E-012  0.9118800E+02  0.7816164E-02  0.1184000E+00
        -11   -1    0    0    0    0  0.00000000000E+00  0.00000000000E+00  0.45593999997E+02  0.45594000000E+02  0.51100000000E-03 0. -1.
         11   -1    0    0    0    0 -0.00000000000E+00 -0.00000000000E+00 -0.45593999997E+02  0.45594000000E+02  0.51100000000E-03 0.  1.
         23    2    1    2    0    0  0.35527136788E-14  0.00000000000E+00  0.00000000000E+00  0.91188000000E+02  0.91188000000E+02 0.  0.
    9900012    2    3    3    0    0  0.27256965735E+02  0.14737490735E+02  0.26325459356E+02  0.50528860504E+02  0.30000001988E+02 0.  0.
        -12    1    3    3    0    0 -0.27256965735E+02 -0.14737490735E+02 -0.26325459356E+02  0.40659139496E+02  0.00000000000E+00 0.  1.
         11    1    4    4    0    0  0.54747216114E+01  0.21239003231E+01  0.10618550012E+02  0.12134130951E+02  0.51100000000E-03 0. -1.
        -11    1    4    4    0    0  0.49858148827E+01  0.93405555113E+01  0.18245513638E+02  0.21095096480E+02  0.51100000000E-03 0.  1.
        -12    1    4    4    0    0  0.16796429241E+02  0.32730349002E+01 -0.25386042950E+01  0.17299633073E+02  0.00000000000E+00 0.  1.
</event>
<event>
 8    1  0.5829710E-012  0.9118800E+02  0.7816164E-02  0.1184000E+00
        -11   -1    0    0    0    0  0.00000000000E+00  0.00000000000E+00  0.45593999997E+02  0.45594000000E+02  0.51100000000E-03 0. -1.
         11   -1    0    0    0    0 -0.00000000000E+00 -0.00000000000E+00 -0.45593999997E+02  0.45594000000E+02  0.51100000000E-03 0.  1.
         23    2    1    2    0    0  0.00000000000E+00  0.00000000000E+00  0.00000000000E+00  0.91188000000E+02  0.91188000000E+02 0.  0.
    9900012    2    3    3    0    0  0.26052226039E+02  0.14146190770E+02  0.27826851015E+02  0.50528845652E+02  0.29999956843E+02 0.  0.
        -12    1    3    3    0    0 -0.26052226039E+02 -0.14146190770E+02 -0.27826851015E+02  0.40659154348E+02  0.00000000000E+00 0.  1.
         11    1    4    4    0    0  0.27528980754E+01 -0.40918627963E+01  0.22464836689E+01  0.54192691475E+01  0.51100000000E-03 0. -1.
        -11    1    4    4    0    0  0.71714851371E+01 -0.45716993703E+01  0.24765800887E+01  0.88579954504E+01  0.51100000000E-03 0.  1.
         12    1    4    4    0    0  0.16127842826E+02  0.22809752936E+02  0.23103787258E+02  0.36251581054E+02  0.00000000000E+00 0. -1.
</event>
<event>
 8    1  0.5829710E-012  0.9118800E+02  0.7816164E-02  0.1184000E+00
        -11   -1    0    0    0    0  0.00000000000E+00  0.00000000000E+00  0.45593999997E+02  0.45594000000E+02  0.51100000000E-03 0. -1.
         11   -1    0    0    0    0 -0.00000000000E+00 -0.00000000000E+00 -0.45593999997E+02  0.45594000000E+02  0.51100000000E-03 0.  1.
         23    2    1    2    0    0  0.35527136788E-14  0.00000000000E+00 -0.35527136788E-14  0.91188000000E+02  0.91188000000E+02 0.  0.
    9900012    2    3    3    0    0 -0.15943702511E+02  0.30052148239E+02 -0.22267311429E+02  0.50528850700E+02  0.29999972188E+02 0.  0.
         12    1    3    3    0    0  0.15943702511E+02 -0.30052148239E+02  0.22267311429E+02  0.40659149300E+02  0.00000000000E+00 0. -1.
         11    1    4    4    0    0 -0.70423090101E+01  0.10414847393E+02 -0.30194445233E+01  0.12929818557E+02  0.51100000000E-03 0. -1.
        -11    1    4    4    0    0 -0.13246766493E+02  0.20666877598E+02 -0.21468912253E+02  0.32611514006E+02  0.51100000000E-03 0.  1.
         12    1    4    4    0    0  0.43453729926E+01 -0.10295767522E+01  0.22210453474E+01  0.49875181372E+01  0.00000000000E+00 0. -1.
</event>
<event>
 8    1  0.5829710E-012  0.9118800E+02  0.7816164E-02  0.1184000E+00
        -11   -1    0    0    0    0  0.00000000000E+00  0.00000000000E+00  0.45593999997E+02  0.45594000000E+02  0.51100000000E-03 0. -1.
         11   -1    0    0    0    0 -0.00000000000E+00 -0.00000000000E+00 -0.45593999997E+02  0.45594000000E+02  0.51100000000E-03 0.  1.
         23    2    1    2    0    0 -0.17763568394E-14 -0.88817841970E-15 -0.71054273576E-14  0.91188000000E+02  0.91188000000E+02 0.  0.
    9900012    2    3    3    0    0  0.14826943582E+02  0.77189463183E+01  0.37064113490E+02  0.50528820261E+02  0.29999879666E+02 0.  0.
        -12    1    3    3    0    0 -0.14826943582E+02 -0.77189463183E+01 -0.37064113490E+02  0.40659179739E+02  0.00000000000E+00 0.  1.
         11    1    4    4    0    0  0.53445449452E+01 -0.61920919814E+01  0.34818121751E+01  0.88898357725E+01  0.51100000000E-03 0. -1.
        -11    1    4    4    0    0  0.84741257461E+01  0.68699696261E+01  0.46734768582E+01  0.11867968488E+02  0.51100000000E-03 0.  1.
         12    1    4    4    0    0  0.10082728904E+01  0.70410686737E+01  0.28908824456E+02  0.29771016001E+02  0.00000000000E+00 0. -1.
</event>
<event>
 8    1  0.5829710E-012  0.9118800E+02  0.7816164E-02  0.1184000E+00
        -11   -1    0    0    0    0  0.00000000000E+00  0.00000000000E+00  0.45593999997E+02  0.45594000000E+02  0.51100000000E-03 0. -1.
         11   -1    0    0    0    0 -0.00000000000E+00 -0.00000000000E+00 -0.45593999997E+02  0.45594000000E+02  0.51100000000E-03 0.  1.
         23    2    1    2    0    0  0.35527136788E-14  0.17763568394E-14 -0.71054273576E-14  0.91188000000E+02  0.91188000000E+02 0.  0.
    9900012    2    3    3    0    0  0.15882350848E+02 -0.25884694611E+01 -0.37339204589E+02  0.50528862750E+02  0.30000008814E+02 0.  0.
         12    1    3    3    0    0 -0.15882350848E+02  0.25884694611E+01  0.37339204589E+02  0.40659137250E+02  0.00000000000E+00 0. -1.
         11    1    4    4    0    0  0.37666739156E+01 -0.83195303555E+01 -0.60943413059E+01  0.10979226473E+02  0.51100000000E-03 0. -1.
        -11    1    4    4    0    0 -0.15071197421E+01 -0.50129715014E+01 -0.14586290039E+02  0.15497133624E+02  0.51100000000E-03 0.  1.
         12    1    4    4    0    0  0.13622796674E+02  0.10744032396E+02 -0.16658573244E+02  0.24052502653E+02  0.00000000000E+00 0. -1.
</event>
<event>
 8    1  0.5829710E-012  0.9118800E+02  0.7816164E-02  0.1184000E+00
        -11   -1    0    0    0    0  0.00000000000E+00  0.00000000000E+00  0.45593999997E+02  0.45594000000E+02  0.51100000000E-03 0. -1.
         11   -1    0    0    0    0 -0.00000000000E+00 -0.00000000000E+00 -0.45593999997E+02  0.45594000000E+02  0.51100000000E-03 0.  1.
         23    2    1    2    0    0  0.71054273576E-14  0.00000000000E+00  0.17763568394E-14  0.91188000000E+02  0.91188000000E+02 0.  0.
    9900012    2    3    3    0    0  0.33446891892E+02 -0.17226875911E+02  0.15417714151E+02  0.50528859078E+02  0.29999997653E+02 0.  0.
        -12    1    3    3    0    0 -0.33446891892E+02  0.17226875911E+02 -0.15417714151E+02  0.40659140922E+02  0.00000000000E+00 0.  1.
         11    1    4    4    0    0  0.11059613147E+02  0.12764680218E+01 -0.12751502514E+01  0.11205820897E+02  0.51100000000E-03 0. -1.
        -11    1    4    4    0    0  0.91070667932E+01  0.34518258051E+01  0.27487457301E+01  0.10119751495E+02  0.51100000000E-03 0.  1.
         12    1    4    4    0    0  0.13280211952E+02 -0.21955169738E+02  0.13944118672E+02  0.29203286686E+02  0.00000000000E+00 0. -1.
</event>
<event>
 8    1  0.5829710E-012  0.9118800E+02  0.7816164E-02  0.1184000E+00
        -11   -1    0    0    0    0  0.00000000000E+00  0.00000000000E+00  0.45593999997E+02  0.45594000000E+02  0.51100000000E-03 0. -1.
         11   -1    0    0    0    0 -0.00000000000E+00 -0.00000000000E+00 -0.45593999997E+02  0.45594000000E+02  0.51100000000E-03 0.  1.
         23    2    1    2    0    0  0.00000000000E+00  0.71054273576E-14  0.00000000000E+00  0.91188000000E+02  0.91188000000E+02 0.  0.
    9900012    2    3    3    0    0  0.17745322654E+02  0.32265952609E+02  0.17238830880E+02  0.50528862479E+02  0.30000007990E+02 0.  0.
        -12    1    3    3    0    0 -0.17745322654E+02 -0.32265952609E+02 -0.17238830880E+02  0.40659137521E+02  0.00000000000E+00 0.  1.
         11    1    4    4    0    0 -0.66234098945E-01  0.22313846672E+02  0.63596089122E+01  0.23202516372E+02  0.51100000000E-03 0. -1.
        -11    1    4    4    0    0  0.15378763925E+02  0.13695432691E+02  0.92326621081E+01  0.22567970806E+02  0.51100000000E-03 0.  1.
        -12    1    4    4    0    0  0.24327928272E+01 -0.37433267529E+01  0.16465598600E+01  0.47583752996E+01  0.00000000000E+00 0.  1.
</event>
<event>
 8    1  0.5829710E-012  0.9118800E+02  0.7816164E-02  0.1184000E+00
        -11   -1    0    0    0    0  0.00000000000E+00  0.00000000000E+00  0.45593999997E+02  0.45594000000E+02  0.51100000000E-03 0. -1.
         11   -1    0    0    0    0 -0.00000000000E+00 -0.00000000000E+00 -0.45593999997E+02  0.45594000000E+02  0.51100000000E-03 0.  1.
         23    2    1    2    0    0 -0.13322676296E-14  0.00000000000E+00  0.00000000000E+00  0.91188000000E+02  0.91188000000E+02 0.  0.
    9900012    2    3    3    0    0  0.14098631710E+01  0.20711147244E+02 -0.34960345845E+02  0.50528866759E+02  0.30000021002E+02 0.  0.
         12    1    3    3    0    0 -0.14098631710E+01 -0.20711147244E+02  0.34960345845E+02  0.40659133241E+02  0.00000000000E+00 0. -1.
         11    1    4    4    0    0 -0.86030235511E+01  0.91763229880E+01 -0.12303101051E+02  0.17594976940E+02  0.51100000000E-03 0.  1.
        -11    1    4    4    0    0 -0.44478381039E+01  0.71046232352E+01 -0.11048013892E+02  0.13867860193E+02  0.51100000000E-03 0. -1.
         12    1    4    4    0    0  0.14460724826E+02  0.44302010205E+01 -0.11609230902E+02  0.19066029626E+02  0.00000000000E+00 0. -1.
</event>
<event>
 8    1  0.5829710E-012  0.9118800E+02  0.7816164E-02  0.1184000E+00
        -11   -1    0    0    0    0  0.00000000000E+00  0.00000000000E+00  0.45593999997E+02  0.45594000000E+02  0.51100000000E-03 0. -1.
         11   -1    0    0    0    0 -0.00000000000E+00 -0.00000000000E+00 -0.45593999997E+02  0.45594000000E+02  0.51100000000E-03 0.  1.
         23    2    1    2    0    0  0.00000000000E+00  0.00000000000E+00  0.00000000000E+00  0.91188000000E+02  0.91188000000E+02 0.  0.
    9900012    2    3    3    0    0  0.17981828762E+02 -0.26234268020E+02 -0.25329474148E+02  0.50528865174E+02  0.30000016184E+02 0.  0.
         12    1    3    3    0    0 -0.17981828762E+02  0.26234268020E+02  0.25329474148E+02  0.40659134826E+02  0.00000000000E+00 0. -1.
         11    1    4    4    0    0  0.50859969435E+01  0.43546091785E+01 -0.17266117568E+01  0.69145624899E+01  0.51100000000E-03 0. -1.
        -11    1    4    4    0    0  0.21104088505E+01  0.15539921974E+01 -0.74534055057E+00  0.27247477064E+01  0.51100000000E-03 0.  1.
        -12    1    4    4    0    0  0.10785422968E+02 -0.32142869396E+02 -0.22857521841E+02  0.40889554978E+02  0.00000000000E+00 0.  1.
</event>
<event>
 8    1  0.5829710E-012  0.9118800E+02  0.7816164E-02  0.1184000E+00
        -11   -1    0    0    0    0  0.00000000000E+00  0.00000000000E+00  0.45593999997E+02  0.45594000000E+02  0.51100000000E-03 0.  1.
         11   -1    0    0    0    0 -0.00000000000E+00 -0.00000000000E+00 -0.45593999997E+02  0.45594000000E+02  0.51100000000E-03 0. -1.
         23    2    1    2    0    0  0.00000000000E+00  0.71054273576E-14  0.10547118734E-14  0.91188000000E+02  0.91188000000E+02 0.  0.
    9900012    2    3    3    0    0 -0.19704203020E+02  0.35564264084E+02  0.30435200503E+00  0.50528866627E+02  0.30000020600E+02 0.  0.
        -12    1    3    3    0    0  0.19704203020E+02 -0.35564264084E+02 -0.30435200503E+00  0.40659133373E+02  0.00000000000E+00 0.  1.
         11    1    4    4    0    0 -0.11715032533E+02  0.12802015647E+02  0.95039960190E+01  0.19785336299E+02  0.51100000000E-03 0. -1.
        -11    1    4    4    0    0  0.25119172593E+01 -0.14655477453E+01 -0.12657815217E+01  0.31717127287E+01  0.51100000000E-03 0.  1.
         12    1    4    4    0    0 -0.10501087746E+02  0.24227796182E+02 -0.79338624922E+01  0.27571817599E+02  0.00000000000E+00 0. -1.
</event>
<event>
 8    1  0.5829710E-012  0.9118800E+02  0.7816164E-02  0.1184000E+00
        -11   -1    0    0    0    0  0.00000000000E+00  0.00000000000E+00  0.45593999997E+02  0.45594000000E+02  0.51100000000E-03 0. -1.
         11   -1    0    0    0    0 -0.00000000000E+00 -0.00000000000E+00 -0.45593999997E+02  0.45594000000E+02  0.51100000000E-03 0.  1.
         23    2    1    2    0    0  0.00000000000E+00  0.00000000000E+00  0.00000000000E+00  0.91188000000E+02  0.91188000000E+02 0.  0.
    9900012    2    3    3    0    0  0.33965778725E+02 -0.21219665171E+02 -0.70154442135E+01  0.50528870990E+02  0.30000033860E+02 0.  0.
         12    1    3    3    0    0 -0.33965778725E+02  0.21219665171E+02  0.70154442135E+01  0.40659129010E+02  0.00000000000E+00 0. -1.
         11    1    4    4    0    0  0.14239616077E+02 -0.47008351120E+01  0.24643120854E+01  0.15196623016E+02  0.51100000000E-03 0.  1.
        -11    1    4    4    0    0  0.79001740966E+01  0.46596177762E+01  0.30375610579E+00  0.91769851590E+01  0.51100000000E-03 0. -1.
         12    1    4    4    0    0  0.11825988551E+02 -0.21178447835E+02 -0.97835124047E+01  0.26155262814E+02  0.00000000000E+00 0. -1.
</event>
<event>
 8    1  0.5829710E-012  0.9118800E+02  0.7816164E-02  0.1184000E+00
        -11   -1    0    0    0    0  0.00000000000E+00  0.00000000000E+00  0.45593999997E+02  0.45594000000E+02  0.51100000000E-03 0. -1.
         11   -1    0    0    0    0 -0.00000000000E+00 -0.00000000000E+00 -0.45593999997E+02  0.45594000000E+02  0.51100000000E-03 0.  1.
         23    2    1    2    0    0  0.88817841970E-15 -0.88817841970E-15  0.00000000000E+00  0.91188000000E+02  0.91188000000E+02 0.  0.
    9900012    2    3    3    0    0  0.48780025153E+01 -0.53785757642E+01 -0.40005509637E+02  0.50528870802E+02  0.30000033290E+02 0.  0.
         12    1    3    3    0    0 -0.48780025153E+01  0.53785757642E+01  0.40005509637E+02  0.40659129198E+02  0.00000000000E+00 0. -1.
         11    1    4    4    0    0 -0.90762261359E+01 -0.11201947464E+01 -0.78936254307E+01  0.12080647327E+02  0.51100000000E-03 0. -1.
        -11    1    4    4    0    0  0.44207787181E+01 -0.76573005791E+01 -0.66958804831E+01  0.11091093379E+02  0.51100000000E-03 0.  1.
        -12    1    4    4    0    0  0.95334499331E+01  0.33989195614E+01 -0.25416003724E+02  0.27357130096E+02  0.00000000000E+00 0.  1.
</event>
<event>
 8    1  0.8177231E-012  0.9118800E+02  0.7816164E-02  0.1184000E+00
        -11   -1    0    0    0    0  0.00000000000E+00  0.00000000000E+00  0.45593999997E+02  0.45594000000E+02  0.51100000000E-03 0. -1.
         11   -1    0    0    0    0 -0.00000000000E+00 -0.00000000000E+00 -0.45593999997E+02  0.45594000000E+02  0.51100000000E-03 0.  1.
         23    2    1    2    0    0  0.00000000000E+00  0.00000000000E+00  0.00000000000E+00  0.91188000000E+02  0.91188000000E+02 0.  0.
    9900012    2    3    3    0    0  0.88557865469E+01  0.25159223686E+02 -0.30687989822E+02  0.50528877885E+02  0.30000054819E+02 0.  0.
         12    1    3    3    0    0 -0.88557865469E+01 -0.25159223686E+02  0.30687989822E+02  0.40659122115E+02  0.00000000000E+00 0. -1.
         11    1    4    4    0    0 -0.33082399694E+01  0.66954610316E+01  0.64200107028E-01  0.74684517830E+01  0.51100000000E-03 0. -1.
        -11    1    4    4    0    0  0.68724773829E+01  0.22474356913E+02 -0.24011183399E+02  0.33598580215E+02  0.51100000000E-03 0.  1.
         12    1    4    4    0    0  0.52915491334E+01 -0.40105942583E+01 -0.67410065304E+01  0.94618458865E+01  0.00000000000E+00 0. -1.
</event>
<event>
 8    1  0.5829710E-012  0.9118800E+02  0.7816164E-02  0.1184000E+00
        -11   -1    0    0    0    0  0.00000000000E+00  0.00000000000E+00  0.45593999997E+02  0.45594000000E+02  0.51100000000E-03 0. -1.
         11   -1    0    0    0    0 -0.00000000000E+00 -0.00000000000E+00 -0.45593999997E+02  0.45594000000E+02  0.51100000000E-03 0.  1.
         23    2    1    2    0    0  0.00000000000E+00 -0.88817841970E-15  0.00000000000E+00  0.91188000000E+02  0.91188000000E+02 0.  0.
    9900012    2    3    3    0    0 -0.10910535044E+02  0.60553919809E+01 -0.38697013481E+02  0.50528850976E+02  0.29999973027E+02 0.  0.
         12    1    3    3    0    0  0.10910535044E+02 -0.60553919809E+01  0.38697013481E+02  0.40659149024E+02  0.00000000000E+00 0. -1.
         11    1    4    4    0    0  0.75800944387E+01 -0.64205310991E+00 -0.18773194250E+01  0.78354573817E+01  0.51100000000E-03 0. -1.
        -11    1    4    4    0    0 -0.27708925481E+01  0.11260684312E+01 -0.95362215506E+00  0.31393106091E+01  0.51100000000E-03 0.  1.
        -12    1    4    4    0    0 -0.15719736935E+02  0.55713766596E+01 -0.35866071901E+02  0.39554082985E+02  0.00000000000E+00 0.  1.
</event>
<event>
 8    1  0.5829710E-012  0.9118800E+02  0.7816164E-02  0.1184000E+00
        -11   -1    0    0    0    0  0.00000000000E+00  0.00000000000E+00  0.45593999997E+02  0.45594000000E+02  0.51100000000E-03 0. -1.
         11   -1    0    0    0    0 -0.00000000000E+00 -0.00000000000E+00 -0.45593999997E+02  0.45594000000E+02  0.51100000000E-03 0.  1.
         23    2    1    2    0    0  0.00000000000E+00  0.00000000000E+00  0.71054273576E-14  0.91188000000E+02  0.91188000000E+02 0.  0.
    9900012    2    3    3    0    0  0.44208837515E+01 -0.39329811871E+01 -0.40226274482E+02  0.50528859418E+02  0.29999998688E+02 0.  0.
         12    1    3    3    0    0 -0.44208837515E+01  0.39329811871E+01  0.40226274482E+02  0.40659140582E+02  0.00000000000E+00 0. -1.
         11    1    4    4    0    0  0.37331569055E+01 -0.70373992136E+01 -0.36854258057E+02  0.37705407906E+02  0.51100000000E-03 0.  1.
        -11    1    4    4    0    0  0.31211711909E+01 -0.28874367964E+01 -0.45745654025E+01  0.62454503231E+01  0.51100000000E-03 0. -1.
         12    1    4    4    0    0 -0.24334443449E+01  0.59918548229E+01  0.12025489779E+01  0.65780011890E+01  0.00000000000E+00 0. -1.
</event>
<event>
 8    1  0.5829710E-012  0.9118800E+02  0.7816164E-02  0.1184000E+00
        -11   -1    0    0    0    0  0.00000000000E+00  0.00000000000E+00  0.45593999997E+02  0.45594000000E+02  0.51100000000E-03 0. -1.
         11   -1    0    0    0    0 -0.00000000000E+00 -0.00000000000E+00 -0.45593999997E+02  0.45594000000E+02  0.51100000000E-03 0.  1.
         23    2    1    2    0    0 -0.44408920985E-15 -0.35527136788E-14  0.00000000000E+00  0.91188000000E+02  0.91188000000E+02 0.  0.
    9900012    2    3    3    0    0 -0.36979646994E+01  0.27442587754E+02  0.29772377813E+02  0.50528867617E+02  0.30000023608E+02 0.  0.
        -12    1    3    3    0    0  0.36979646994E+01 -0.27442587754E+02 -0.29772377813E+02  0.40659132383E+02  0.00000000000E+00 0.  1.
         11    1    4    4    0    0  0.17693459709E+01  0.56774937564E+00 -0.96755744034E+00  0.20950160333E+01  0.51100000000E-03 0. -1.
        -11    1    4    4    0    0 -0.71023570051E+01 -0.95903979460E+00  0.32685587696E+00  0.71742642397E+01  0.51100000000E-03 0.  1.
         12    1    4    4    0    0  0.16350463348E+01  0.27833878173E+02  0.30413079376E+02  0.41259587344E+02  0.00000000000E+00 0. -1.
</event>
<event>
 8    1  0.5829710E-012  0.9118800E+02  0.7816164E-02  0.1184000E+00
        -11   -1    0    0    0    0  0.00000000000E+00  0.00000000000E+00  0.45593999997E+02  0.45594000000E+02  0.51100000000E-03 0.  1.
         11   -1    0    0    0    0 -0.00000000000E+00 -0.00000000000E+00 -0.45593999997E+02  0.45594000000E+02  0.51100000000E-03 0. -1.
         23    2    1    2    0    0 -0.35527136788E-14  0.00000000000E+00  0.00000000000E+00  0.91188000000E+02  0.91188000000E+02 0.  0.
    9900012    2    3    3    0    0  0.29994174427E+02  0.26916468910E+02 -0.53869153690E+01  0.50528860126E+02  0.30000000838E+02 0.  0.
         12    1    3    3    0    0 -0.29994174427E+02 -0.26916468910E+02  0.53869153690E+01  0.40659139874E+02  0.00000000000E+00 0. -1.
         11    1    4    4    0    0  0.10591054940E+01  0.56020277005E+01 -0.55976120419E+01  0.79898485366E+01  0.51100000000E-03 0. -1.
        -11    1    4    4    0    0 -0.24833442283E+01 -0.20613939777E+01 -0.94016127833E+00  0.33615840281E+01  0.51100000000E-03 0.  1.
        -12    1    4    4    0    0  0.31418413161E+02  0.23375835187E+02  0.11508579513E+01  0.39177427561E+02  0.00000000000E+00 0.  1.
</event>
<event>
 8    1  0.5829710E-012  0.9118800E+02  0.7816164E-02  0.1184000E+00
        -11   -1    0    0    0    0  0.00000000000E+00  0.00000000000E+00  0.45593999997E+02  0.45594000000E+02  0.51100000000E-03 0. -1.
         11   -1    0    0    0    0 -0.00000000000E+00 -0.00000000000E+00 -0.45593999997E+02  0.45594000000E+02  0.51100000000E-03 0.  1.
         23    2    1    2    0    0  0.17763568394E-14  0.00000000000E+00  0.00000000000E+00  0.91188000000E+02  0.91188000000E+02 0.  0.
    9900012    2    3    3    0    0 -0.14689981014E+02 -0.19318714105E+02 -0.32621424776E+02  0.50528860667E+02  0.30000002485E+02 0.  0.
         12    1    3    3    0    0  0.14689981014E+02  0.19318714105E+02  0.32621424776E+02  0.40659139333E+02  0.00000000000E+00 0. -1.
         11    1    4    4    0    0 -0.11190611005E+01 -0.62096901933E+00  0.31301778491E+01  0.33817028104E+01  0.51100000000E-03 0. -1.
        -11    1    4    4    0    0 -0.15463298162E+02 -0.66513023263E+01 -0.28084764458E+02  0.32743051287E+02  0.51100000000E-03 0.  1.
         12    1    4    4    0    0  0.18923782485E+01 -0.12046442760E+02 -0.76668381668E+01  0.14404106570E+02  0.00000000000E+00 0. -1.
</event>
<event>
 8    1  0.5829710E-012  0.9118800E+02  0.7816164E-02  0.1184000E+00
        -11   -1    0    0    0    0  0.00000000000E+00  0.00000000000E+00  0.45593999997E+02  0.45594000000E+02  0.51100000000E-03 0. -1.
         11   -1    0    0    0    0 -0.00000000000E+00 -0.00000000000E+00 -0.45593999997E+02  0.45594000000E+02  0.51100000000E-03 0.  1.
         23    2    1    2    0    0 -0.35527136788E-14  0.00000000000E+00  0.35527136788E-14  0.91188000000E+02  0.91188000000E+02 0.  0.
    9900012    2    3    3    0    0 -0.23228739480E+02  0.18282902326E+02  0.27916413131E+02  0.50528868463E+02  0.30000026180E+02 0.  0.
        -12    1    3    3    0    0  0.23228739480E+02 -0.18282902326E+02 -0.27916413131E+02  0.40659131537E+02  0.00000000000E+00 0.  1.
         11    1    4    4    0    0 -0.10344573307E+02  0.71709319567E+01  0.19243629712E+02  0.22994559069E+02  0.51100000000E-03 0. -1.
        -11    1    4    4    0    0 -0.16643276452E+02  0.63494147620E+01  0.11111988954E+02  0.20994999825E+02  0.51100000000E-03 0.  1.
        -12    1    4    4    0    0  0.37591102790E+01  0.47625556069E+01 -0.24392055350E+01  0.65393095691E+01  0.00000000000E+00 0.  1.
</event>
<event>
 8    1  0.5829710E-012  0.9118800E+02  0.7816164E-02  0.1184000E+00
        -11   -1    0    0    0    0  0.00000000000E+00  0.00000000000E+00  0.45593999997E+02  0.45594000000E+02  0.51100000000E-03 0. -1.
         11   -1    0    0    0    0 -0.00000000000E+00 -0.00000000000E+00 -0.45593999997E+02  0.45594000000E+02  0.51100000000E-03 0.  1.
         23    2    1    2    0    0  0.00000000000E+00  0.00000000000E+00  0.71054273576E-14  0.91188000000E+02  0.91188000000E+02 0.  0.
    9900012    2    3    3    0    0  0.18222827055E+02  0.44663758142E+01 -0.36071353746E+02  0.50528898929E+02  0.30000118786E+02 0.  0.
         12    1    3    3    0    0 -0.18222827055E+02 -0.44663758142E+01  0.36071353746E+02  0.40659101071E+02  0.00000000000E+00 0. -1.
         11    1    4    4    0    0 -0.64011591725E+00  0.25113172484E+01 -0.60808666769E+01  0.66100985252E+01  0.51100000000E-03 0. -1.
        -11    1    4    4    0    0  0.13714405200E+01  0.15421923688E+01 -0.25859034876E+02  0.25941258477E+02  0.51100000000E-03 0.  1.
         12    1    4    4    0    0  0.17491502452E+02  0.41286619709E+00 -0.41314521937E+01  0.17977541927E+02  0.00000000000E+00 0. -1.
</event>
<event>
 8    1  0.5829710E-012  0.9118800E+02  0.7816164E-02  0.1184000E+00
        -11   -1    0    0    0    0  0.00000000000E+00  0.00000000000E+00  0.45593999997E+02  0.45594000000E+02  0.51100000000E-03 0. -1.
         11   -1    0    0    0    0 -0.00000000000E+00 -0.00000000000E+00 -0.45593999997E+02  0.45594000000E+02  0.51100000000E-03 0.  1.
         23    2    1    2    0    0  0.00000000000E+00 -0.35527136788E-14  0.00000000000E+00  0.91188000000E+02  0.91188000000E+02 0.  0.
    9900012    2    3    3    0    0  0.23686921913E+02 -0.18398019026E+02 -0.27451927322E+02  0.50528859730E+02  0.29999999635E+02 0.  0.
         12    1    3    3    0    0 -0.23686921913E+02  0.18398019026E+02  0.27451927322E+02  0.40659140270E+02  0.00000000000E+00 0. -1.
         11    1    4    4    0    0  0.82534221461E+01  0.24807609631E+01 -0.68913500832E+01  0.11034666207E+02  0.51100000000E-03 0. -1.
        -11    1    4    4    0    0  0.11897274921E+02 -0.24871419215E+02 -0.13649140327E+02  0.30764129700E+02  0.51100000000E-03 0.  1.
         12    1    4    4    0    0  0.35362248456E+01  0.39926392252E+01 -0.69114369124E+01  0.87300638220E+01  0.00000000000E+00 0. -1.
</event>
<event>
 8    1  0.5829710E-012  0.9118800E+02  0.7816164E-02  0.1184000E+00
        -11   -1    0    0    0    0  0.00000000000E+00  0.00000000000E+00  0.45593999997E+02  0.45594000000E+02  0.51100000000E-03 0. -1.
         11   -1    0    0    0    0 -0.00000000000E+00 -0.00000000000E+00 -0.45593999997E+02  0.45594000000E+02  0.51100000000E-03 0.  1.
         23    2    1    2    0    0  0.00000000000E+00  0.17763568394E-14  0.00000000000E+00  0.91188000000E+02  0.91188000000E+02 0.  0.
    9900012    2    3    3    0    0  0.91676612941E+01  0.75300775858E+01  0.38889853294E+02  0.50528821808E+02  0.29999884366E+02 0.  0.
        -12    1    3    3    0    0 -0.91676612941E+01 -0.75300775858E+01 -0.38889853294E+02  0.40659178192E+02  0.00000000000E+00 0.  1.
         11    1    4    4    0    0  0.60627741386E+01  0.50740176266E+01  0.38816784430E+02  0.39613705190E+02  0.51100000000E-03 0. -1.
        -11    1    4    4    0    0  0.22356986863E+01  0.61355630702E+01  0.17776782582E+01  0.67678373987E+01  0.51100000000E-03 0.  1.
        -12    1    4    4    0    0  0.86918846925E+00 -0.36795031109E+01 -0.17046093939E+01  0.41472792194E+01  0.00000000000E+00 0.  1.
</event>
<event>
 8    1  0.5829710E-012  0.9118800E+02  0.7816164E-02  0.1184000E+00
        -11   -1    0    0    0    0  0.00000000000E+00  0.00000000000E+00  0.45593999997E+02  0.45594000000E+02  0.51100000000E-03 0. -1.
         11   -1    0    0    0    0 -0.00000000000E+00 -0.00000000000E+00 -0.45593999997E+02  0.45594000000E+02  0.51100000000E-03 0.  1.
         23    2    1    2    0    0 -0.22204460493E-15  0.00000000000E+00  0.00000000000E+00  0.91188000000E+02  0.91188000000E+02 0.  0.
    9900012    2    3    3    0    0 -0.12111968422E+01  0.13452455780E+02  0.38350091216E+02  0.50528867440E+02  0.30000023070E+02 0.  0.
        -12    1    3    3    0    0  0.12111968422E+01 -0.13452455780E+02 -0.38350091216E+02  0.40659132560E+02  0.00000000000E+00 0.  1.
         11    1    4    4    0    0 -0.12775478483E+01 -0.65294590465E+00 -0.22111189972E+00  0.14516740655E+01  0.51100000000E-03 0.  1.
        -11    1    4    4    0    0  0.29035046460E+01 -0.73165463593E+01  0.15989491766E+02  0.17822066015E+02  0.51100000000E-03 0. -1.
        -12    1    4    4    0    0 -0.28371536399E+01  0.21421948044E+02  0.22581711350E+02  0.31255127359E+02  0.00000000000E+00 0.  1.
</event>
<event>
 8    1  0.5829710E-012  0.9118800E+02  0.7816164E-02  0.1184000E+00
        -11   -1    0    0    0    0  0.00000000000E+00  0.00000000000E+00  0.45593999997E+02  0.45594000000E+02  0.51100000000E-03 0. -1.
         11   -1    0    0    0    0 -0.00000000000E+00 -0.00000000000E+00 -0.45593999997E+02  0.45594000000E+02  0.51100000000E-03 0.  1.
         23    2    1    2    0    0  0.44408920985E-15  0.00000000000E+00  0.00000000000E+00  0.91188000000E+02  0.91188000000E+02 0.  0.
    9900012    2    3    3    0    0  0.27161059128E+01  0.20959634345E+02  0.34734451961E+02  0.50528860114E+02  0.30000000802E+02 0.  0.
        -12    1    3    3    0    0 -0.27161059128E+01 -0.20959634345E+02 -0.34734451961E+02  0.40659139886E+02  0.00000000000E+00 0.  1.
         11    1    4    4    0    0  0.81470276071E+01  0.79541322557E+01  0.63661987589E+01  0.13044951731E+02  0.51100000000E-03 0. -1.
        -11    1    4    4    0    0 -0.11580471482E+02  0.12947630493E+02  0.15755528455E+02  0.23451761816E+02  0.51100000000E-03 0.  1.
         12    1    4    4    0    0  0.61495497876E+01  0.57871596618E-01  0.12612724747E+02  0.14032146566E+02  0.00000000000E+00 0. -1.
</event>
<event>
 8    1  0.5829710E-012  0.9118800E+02  0.7816164E-02  0.1184000E+00
        -11   -1    0    0    0    0  0.00000000000E+00  0.00000000000E+00  0.45593999997E+02  0.45594000000E+02  0.51100000000E-03 0. -1.
         11   -1    0    0    0    0 -0.00000000000E+00 -0.00000000000E+00 -0.45593999997E+02  0.45594000000E+02  0.51100000000E-03 0.  1.
         23    2    1    2    0    0  0.13322676296E-14  0.00000000000E+00  0.71054273576E-14  0.91188000000E+02  0.91188000000E+02 0.  0.
    9900012    2    3    3    0    0 -0.37473436304E+01  0.21956879334E+02 -0.34014929322E+02  0.50528898299E+02  0.30000116870E+02 0.  0.
         12    1    3    3    0    0  0.37473436304E+01 -0.21956879334E+02  0.34014929322E+02  0.40659101701E+02  0.00000000000E+00 0. -1.
         11    1    4    4    0    0 -0.15244412545E+01 -0.39030993938E+01  0.24190692790E+00  0.41972163679E+01  0.51100000000E-03 0. -1.
        -11    1    4    4    0    0 -0.33810329758E+01 -0.34424161178E+00 -0.28261870419E+00  0.34102433731E+01  0.51100000000E-03 0.  1.
        -12    1    4    4    0    0  0.11581305999E+01  0.26204220340E+02 -0.33974217545E+02  0.42921438558E+02  0.00000000000E+00 0.  1.
</event>
<event>
 8    1  0.5829710E-012  0.9118800E+02  0.7816164E-02  0.1184000E+00
        -11   -1    0    0    0    0  0.00000000000E+00  0.00000000000E+00  0.45593999997E+02  0.45594000000E+02  0.51100000000E-03 0. -1.
         11   -1    0    0    0    0 -0.00000000000E+00 -0.00000000000E+00 -0.45593999997E+02  0.45594000000E+02  0.51100000000E-03 0.  1.
         23    2    1    2    0    0  0.35527136788E-14  0.17763568394E-14 -0.71054273576E-14  0.91188000000E+02  0.91188000000E+02 0.  0.
    9900012    2    3    3    0    0 -0.22866583546E+02 -0.99115440087E+01  0.32125466871E+02  0.50528868561E+02  0.30000026477E+02 0.  0.
        -12    1    3    3    0    0  0.22866583546E+02  0.99115440087E+01 -0.32125466871E+02  0.40659131439E+02  0.00000000000E+00 0.  1.
         11    1    4    4    0    0 -0.18444195775E+01  0.34858801726E+01  0.84188444827E+01  0.92967836826E+01  0.51100000000E-03 0. -1.
        -11    1    4    4    0    0 -0.11944958610E+02  0.51820974946E+01  0.82319217645E+01  0.15404567726E+02  0.51100000000E-03 0.  1.
        -12    1    4    4    0    0 -0.90772053585E+01 -0.18579521676E+02  0.15474700624E+02  0.25827517152E+02  0.00000000000E+00 0.  1.
</event>
<event>
 8    1  0.5829710E-012  0.9118800E+02  0.7816164E-02  0.1184000E+00
        -11   -1    0    0    0    0  0.00000000000E+00  0.00000000000E+00  0.45593999997E+02  0.45594000000E+02  0.51100000000E-03 0. -1.
         11   -1    0    0    0    0 -0.00000000000E+00 -0.00000000000E+00 -0.45593999997E+02  0.45594000000E+02  0.51100000000E-03 0.  1.
         23    2    1    2    0    0 -0.17763568394E-14  0.00000000000E+00  0.00000000000E+00  0.91188000000E+02  0.91188000000E+02 0.  0.
    9900012    2    3    3    0    0  0.64951832884E+01 -0.64568580916E+01 -0.39614230880E+02  0.50528859446E+02  0.29999998772E+02 0.  0.
         12    1    3    3    0    0 -0.64951832884E+01  0.64568580916E+01  0.39614230880E+02  0.40659140554E+02  0.00000000000E+00 0. -1.
         11    1    4    4    0    0 -0.65554671143E+01  0.17432829551E+00 -0.70282455270E+01  0.96125321789E+01  0.51100000000E-03 0. -1.
        -11    1    4    4    0    0 -0.45023017126E+01 -0.60524953147E+00 -0.13719156119E+02  0.14451722825E+02  0.51100000000E-03 0.  1.
        -12    1    4    4    0    0  0.17552952115E+02 -0.60259368556E+01 -0.18866829234E+02  0.26464604442E+02  0.00000000000E+00 0.  1.
</event>
<event>
 8    1  0.5829710E-012  0.9118800E+02  0.7816164E-02  0.1184000E+00
        -11   -1    0    0    0    0  0.00000000000E+00  0.00000000000E+00  0.45593999997E+02  0.45594000000E+02  0.51100000000E-03 0. -1.
         11   -1    0    0    0    0 -0.00000000000E+00 -0.00000000000E+00 -0.45593999997E+02  0.45594000000E+02  0.51100000000E-03 0.  1.
         23    2    1    2    0    0 -0.88817841970E-15  0.17763568394E-14  0.00000000000E+00  0.91188000000E+02  0.91188000000E+02 0.  0.
    9900012    2    3    3    0    0 -0.78696532865E+01  0.15650993552E+02  0.36691697908E+02  0.50528859116E+02  0.29999997770E+02 0.  0.
        -12    1    3    3    0    0  0.78696532865E+01 -0.15650993552E+02 -0.36691697908E+02  0.40659140884E+02  0.00000000000E+00 0.  1.
         11    1    4    4    0    0  0.22287761591E+01 -0.14076020732E+01  0.12494218430E+02  0.12769270973E+02  0.51100000000E-03 0. -1.
        -11    1    4    4    0    0 -0.59037095763E+01  0.58814836172E+01  0.24437023360E+02  0.25818864174E+02  0.51100000000E-03 0.  1.
        -12    1    4    4    0    0 -0.41947198693E+01  0.11177112008E+02 -0.23954388143E+00  0.11940723969E+02  0.00000000000E+00 0.  1.
</event>
<event>
 8    1  0.5829710E-012  0.9118800E+02  0.7816164E-02  0.1184000E+00
        -11   -1    0    0    0    0  0.00000000000E+00  0.00000000000E+00  0.45593999997E+02  0.45594000000E+02  0.51100000000E-03 0. -1.
         11   -1    0    0    0    0 -0.00000000000E+00 -0.00000000000E+00 -0.45593999997E+02  0.45594000000E+02  0.51100000000E-03 0.  1.
         23    2    1    2    0    0 -0.17763568394E-14 -0.71054273576E-14  0.17763568394E-14  0.91188000000E+02  0.91188000000E+02 0.  0.
    9900012    2    3    3    0    0  0.95953238668E+01  0.37510998548E+02 -0.12410481623E+02  0.50528864418E+02  0.30000013884E+02 0.  0.
        -12    1    3    3    0    0 -0.95953238668E+01 -0.37510998548E+02  0.12410481623E+02  0.40659135582E+02  0.00000000000E+00 0.  1.
         11    1    4    4    0    0  0.50600133564E+01  0.16183129665E+02  0.26013218610E+01  0.17154133514E+02  0.51100000000E-03 0. -1.
        -11    1    4    4    0    0 -0.77866170328E+01  0.10369227962E+02 -0.40952092754E+01  0.13598640837E+02  0.51100000000E-03 0.  1.
        -12    1    4    4    0    0  0.12321927543E+02  0.10958640920E+02 -0.10916594209E+02  0.19776090066E+02  0.00000000000E+00 0.  1.
</event>
<event>
 8    1  0.5829710E-012  0.9118800E+02  0.7816164E-02  0.1184000E+00
        -11   -1    0    0    0    0  0.00000000000E+00  0.00000000000E+00  0.45593999997E+02  0.45594000000E+02  0.51100000000E-03 0. -1.
         11   -1    0    0    0    0 -0.00000000000E+00 -0.00000000000E+00 -0.45593999997E+02  0.45594000000E+02  0.51100000000E-03 0.  1.
         23    2    1    2    0    0 -0.17763568394E-14  0.00000000000E+00  0.00000000000E+00  0.91188000000E+02  0.91188000000E+02 0.  0.
    9900012    2    3    3    0    0  0.79338697530E+01  0.18791954956E+02 -0.35172171097E+02  0.50528862282E+02  0.30000007391E+02 0.  0.
         12    1    3    3    0    0 -0.79338697530E+01 -0.18791954956E+02  0.35172171097E+02  0.40659137718E+02  0.00000000000E+00 0. -1.
         11    1    4    4    0    0  0.32979487973E+01  0.12137628164E+01 -0.21805517158E+01  0.41357577892E+01  0.51100000000E-03 0. -1.
        -11    1    4    4    0    0  0.10287617927E+02  0.22731601170E+02 -0.24599295706E+02  0.35038352185E+02  0.51100000000E-03 0.  1.
         12    1    4    4    0    0 -0.56516969718E+01 -0.51534090301E+01 -0.83923236749E+01  0.11354752307E+02  0.00000000000E+00 0. -1.
</event>
<event>
 8    1  0.5829710E-012  0.9118800E+02  0.7816164E-02  0.1184000E+00
        -11   -1    0    0    0    0  0.00000000000E+00  0.00000000000E+00  0.45593999997E+02  0.45594000000E+02  0.51100000000E-03 0. -1.
         11   -1    0    0    0    0 -0.00000000000E+00 -0.00000000000E+00 -0.45593999997E+02  0.45594000000E+02  0.51100000000E-03 0.  1.
         23    2    1    2    0    0  0.00000000000E+00  0.00000000000E+00 -0.35527136788E-14  0.91188000000E+02  0.91188000000E+02 0.  0.
    9900012    2    3    3    0    0  0.20972284917E+01  0.26918650331E+02 -0.30399904627E+02  0.50528852145E+02  0.29999976581E+02 0.  0.
         12    1    3    3    0    0 -0.20972284917E+01 -0.26918650331E+02  0.30399904627E+02  0.40659147855E+02  0.00000000000E+00 0. -1.
         11    1    4    4    0    0  0.59803945714E+01  0.92902208456E+00 -0.41037827566E+01  0.73122660261E+01  0.51100000000E-03 0. -1.
        -11    1    4    4    0    0 -0.27458909671E+01 -0.97473484324E+00  0.24353234692E+01  0.37974762512E+01  0.51100000000E-03 0.  1.
        -12    1    4    4    0    0 -0.11372751126E+01  0.26964363089E+02 -0.28731445339E+02  0.39419109868E+02  0.00000000000E+00 0.  1.
</event>
<event>
 8    1  0.6906647E-012  0.9118800E+02  0.7816164E-02  0.1184000E+00
        -11   -1    0    0    0    0  0.00000000000E+00  0.00000000000E+00  0.45593999997E+02  0.45594000000E+02  0.51100000000E-03 0. -1.
         11   -1    0    0    0    0 -0.00000000000E+00 -0.00000000000E+00 -0.45593999997E+02  0.45594000000E+02  0.51100000000E-03 0.  1.
         23    2    1    2    0    0  0.00000000000E+00  0.00000000000E+00  0.00000000000E+00  0.91188000000E+02  0.91188000000E+02 0.  0.
    9900012    2    3    3    0    0  0.16214901763E+02 -0.20688435989E+02 -0.31019873948E+02  0.50528843558E+02  0.29999950479E+02 0.  0.
         12    1    3    3    0    0 -0.16214901763E+02  0.20688435989E+02  0.31019873948E+02  0.40659156442E+02  0.00000000000E+00 0. -1.
         11    1    4    4    0    0 -0.28747821751E+01  0.28949889171E+01 -0.36375033158E+01  0.54659641435E+01  0.51100000000E-03 0. -1.
        -11    1    4    4    0    0 -0.13859990261E+01 -0.68578058139E+01  0.47068546216E-02  0.69964645570E+01  0.51100000000E-03 0.  1.
        -12    1    4    4    0    0  0.20475682964E+02 -0.16725619092E+02 -0.27387077487E+02  0.38066414858E+02  0.00000000000E+00 0.  1.
</event>
<event>
 8    1  0.5829710E-012  0.9118800E+02  0.7816164E-02  0.1184000E+00
        -11   -1    0    0    0    0  0.00000000000E+00  0.00000000000E+00  0.45593999997E+02  0.45594000000E+02  0.51100000000E-03 0. -1.
         11   -1    0    0    0    0 -0.00000000000E+00 -0.00000000000E+00 -0.45593999997E+02  0.45594000000E+02  0.51100000000E-03 0.  1.
         23    2    1    2    0    0 -0.17763568394E-14 -0.88817841970E-15  0.00000000000E+00  0.91188000000E+02  0.91188000000E+02 0.  0.
    9900012    2    3    3    0    0  0.13707277909E+02 -0.52316267182E+01  0.37919739621E+02  0.50528855410E+02  0.29999986505E+02 0.  0.
        -12    1    3    3    0    0 -0.13707277909E+02  0.52316267182E+01 -0.37919739621E+02  0.40659144590E+02  0.00000000000E+00 0.  1.
         11    1    4    4    0    0 -0.51778409470E+00 -0.89956892928E+01  0.17935461821E+02  0.20071654571E+02  0.51100000000E-03 0. -1.
        -11    1    4    4    0    0  0.64953186846E+01 -0.67553059339E+01  0.11724406840E+02  0.15009498296E+02  0.51100000000E-03 0.  1.
        -12    1    4    4    0    0  0.77297433193E+01  0.10519368509E+02  0.82598709608E+01  0.15447702544E+02  0.00000000000E+00 0.  1.
</event>
<event>
 8    1  0.5829710E-012  0.9118800E+02  0.7816164E-02  0.1184000E+00
        -11   -1    0    0    0    0  0.00000000000E+00  0.00000000000E+00  0.45593999997E+02  0.45594000000E+02  0.51100000000E-03 0. -1.
         11   -1    0    0    0    0 -0.00000000000E+00 -0.00000000000E+00 -0.45593999997E+02  0.45594000000E+02  0.51100000000E-03 0.  1.
         23    2    1    2    0    0  0.17763568394E-14  0.00000000000E+00  0.00000000000E+00  0.91188000000E+02  0.91188000000E+02 0.  0.
    9900012    2    3    3    0    0 -0.89278398431E+01  0.17072647034E+02  0.35804809264E+02  0.50528856287E+02  0.29999989169E+02 0.  0.
        -12    1    3    3    0    0  0.89278398431E+01 -0.17072647034E+02 -0.35804809264E+02  0.40659143713E+02  0.00000000000E+00 0.  1.
         11    1    4    4    0    0 -0.84412527736E+01  0.46999345039E+01  0.69904080265E+01  0.11925180811E+02  0.51100000000E-03 0. -1.
        -11    1    4    4    0    0 -0.42496267051E+01 -0.22422751559E+01 -0.12492833347E+01  0.49646585098E+01  0.51100000000E-03 0.  1.
         12    1    4    4    0    0  0.37630396357E+01  0.14614987686E+02  0.30063684573E+02  0.33639016966E+02  0.00000000000E+00 0. -1.
</event>
<event>
 8    1  0.5829710E-012  0.9118800E+02  0.7816164E-02  0.1184000E+00
        -11   -1    0    0    0    0  0.00000000000E+00  0.00000000000E+00  0.45593999997E+02  0.45594000000E+02  0.51100000000E-03 0. -1.
         11   -1    0    0    0    0 -0.00000000000E+00 -0.00000000000E+00 -0.45593999997E+02  0.45594000000E+02  0.51100000000E-03 0.  1.
         23    2    1    2    0    0  0.00000000000E+00  0.00000000000E+00  0.00000000000E+00  0.91188000000E+02  0.91188000000E+02 0.  0.
    9900012    2    3    3    0    0  0.87159471635E+01 -0.28988778628E+02 -0.27144952017E+02  0.50528862757E+02  0.30000008838E+02 0.  0.
         12    1    3    3    0    0 -0.87159471635E+01  0.28988778628E+02  0.27144952017E+02  0.40659137243E+02  0.00000000000E+00 0. -1.
         11    1    4    4    0    0 -0.25956600713E+01 -0.22178613364E+02 -0.18690754718E+02  0.29119970023E+02  0.51100000000E-03 0. -1.
        -11    1    4    4    0    0 -0.17197527023E+01 -0.62683685976E+01 -0.16877690730E+01  0.67155460640E+01  0.51100000000E-03 0.  1.
        -12    1    4    4    0    0  0.13031359937E+02 -0.54179666667E+00 -0.67664282254E+01  0.14693346670E+02  0.00000000000E+00 0.  1.
</event>
<event>
 8    1  0.5829710E-012  0.9118800E+02  0.7816164E-02  0.1184000E+00
        -11   -1    0    0    0    0  0.00000000000E+00  0.00000000000E+00  0.45593999997E+02  0.45594000000E+02  0.51100000000E-03 0.  1.
         11   -1    0    0    0    0 -0.00000000000E+00 -0.00000000000E+00 -0.45593999997E+02  0.45594000000E+02  0.51100000000E-03 0. -1.
         23    2    1    2    0    0  0.71054273576E-14 -0.35527136788E-14 -0.44408920985E-15  0.91188000000E+02  0.91188000000E+02 0.  0.
    9900012    2    3    3    0    0 -0.38521214693E+02  0.12670400308E+02  0.29568231721E+01  0.50528857994E+02  0.29999994358E+02 0.  0.
         12    1    3    3    0    0  0.38521214693E+02 -0.12670400308E+02 -0.29568231721E+01  0.40659142006E+02  0.00000000000E+00 0. -1.
         11    1    4    4    0    0  0.32310607650E+01  0.17456082798E+01  0.55209989732E+00  0.37137200341E+01  0.51100000000E-03 0. -1.
        -11    1    4    4    0    0 -0.16488142872E+02  0.13548971747E+02  0.56107040247E+00  0.21348262014E+02  0.51100000000E-03 0.  1.
         12    1    4    4    0    0 -0.25264132586E+02 -0.26241797190E+01  0.18436528723E+01  0.25466875946E+02  0.00000000000E+00 0. -1.
</event>
<event>
 8    1  0.5829710E-012  0.9118800E+02  0.7816164E-02  0.1184000E+00
        -11   -1    0    0    0    0  0.00000000000E+00  0.00000000000E+00  0.45593999997E+02  0.45594000000E+02  0.51100000000E-03 0. -1.
         11   -1    0    0    0    0 -0.00000000000E+00 -0.00000000000E+00 -0.45593999997E+02  0.45594000000E+02  0.51100000000E-03 0.  1.
         23    2    1    2    0    0  0.88817841970E-15  0.88817841970E-15 -0.71054273576E-14  0.91188000000E+02  0.91188000000E+02 0.  0.
    9900012    2    3    3    0    0  0.71396780499E+01 -0.42187936369E+01 -0.39804426262E+02  0.50528861144E+02  0.30000003934E+02 0.  0.
         12    1    3    3    0    0 -0.71396780499E+01  0.42187936369E+01  0.39804426262E+02  0.40659138856E+02  0.00000000000E+00 0. -1.
         11    1    4    4    0    0  0.54379919054E+01  0.62488228832E+01 -0.24660457271E+02  0.26014567005E+02  0.51100000000E-03 0.  1.
        -11    1    4    4    0    0 -0.39215093579E+01  0.20321369987E+01 -0.78018669588E+01  0.89653189976E+01  0.51100000000E-03 0. -1.
         12    1    4    4    0    0  0.56231955023E+01 -0.12499753519E+02 -0.73421020326E+01  0.15548975141E+02  0.00000000000E+00 0. -1.
</event>
<event>
 8    1  0.5829710E-012  0.9118800E+02  0.7816164E-02  0.1184000E+00
        -11   -1    0    0    0    0  0.00000000000E+00  0.00000000000E+00  0.45593999997E+02  0.45594000000E+02  0.51100000000E-03 0. -1.
         11   -1    0    0    0    0 -0.00000000000E+00 -0.00000000000E+00 -0.45593999997E+02  0.45594000000E+02  0.51100000000E-03 0.  1.
         23    2    1    2    0    0  0.00000000000E+00  0.00000000000E+00  0.00000000000E+00  0.91188000000E+02  0.91188000000E+02 0.  0.
    9900012    2    3    3    0    0  0.19857867029E+02  0.10601113228E+02 -0.33859229981E+02  0.50528856631E+02  0.29999990215E+02 0.  0.
         12    1    3    3    0    0 -0.19857867029E+02 -0.10601113228E+02  0.33859229981E+02  0.40659143369E+02  0.00000000000E+00 0. -1.
         11    1    4    4    0    0 -0.15051979319E+01  0.97426629971E+01 -0.54345019308E+01  0.11256949613E+02  0.51100000000E-03 0. -1.
        -11    1    4    4    0    0  0.64661142403E+01  0.75779175575E+01 -0.63773235467E+01  0.11828174997E+02  0.51100000000E-03 0.  1.
        -12    1    4    4    0    0  0.14896950720E+02 -0.67194673262E+01 -0.22047404503E+02  0.27443732021E+02  0.00000000000E+00 0.  1.
</event>
<event>
 8    1  0.5829710E-012  0.9118800E+02  0.7816164E-02  0.1184000E+00
        -11   -1    0    0    0    0  0.00000000000E+00  0.00000000000E+00  0.45593999997E+02  0.45594000000E+02  0.51100000000E-03 0. -1.
         11   -1    0    0    0    0 -0.00000000000E+00 -0.00000000000E+00 -0.45593999997E+02  0.45594000000E+02  0.51100000000E-03 0.  1.
         23    2    1    2    0    0  0.35527136788E-14  0.00000000000E+00  0.00000000000E+00  0.91188000000E+02  0.91188000000E+02 0.  0.
    9900012    2    3    3    0    0 -0.16722894646E+02  0.15395187821E+02 -0.33712004348E+02  0.50528852806E+02  0.29999978589E+02 0.  0.
         12    1    3    3    0    0  0.16722894646E+02 -0.15395187821E+02  0.33712004348E+02  0.40659147194E+02  0.00000000000E+00 0. -1.
         11    1    4    4    0    0  0.89387127532E+00  0.12436112062E+02 -0.96141129240E+01  0.15744429385E+02  0.51100000000E-03 0. -1.
        -11    1    4    4    0    0 -0.57764921578E+01  0.57204034212E+01 -0.20580275822E+02  0.22127779602E+02  0.51100000000E-03 0.  1.
         12    1    4    4    0    0 -0.11840273763E+02 -0.27613276620E+01 -0.35176156019E+01  0.12656643819E+02  0.00000000000E+00 0. -1.
</event>
<event>
 8    1  0.6075090E-012  0.9118800E+02  0.7816164E-02  0.1184000E+00
        -11   -1    0    0    0    0  0.00000000000E+00  0.00000000000E+00  0.45593999997E+02  0.45594000000E+02  0.51100000000E-03 0. -1.
         11   -1    0    0    0    0 -0.00000000000E+00 -0.00000000000E+00 -0.45593999997E+02  0.45594000000E+02  0.51100000000E-03 0.  1.
         23    2    1    2    0    0  0.13322676296E-14  0.88817841970E-15  0.71054273576E-14  0.91188000000E+02  0.91188000000E+02 0.  0.
    9900012    2    3    3    0    0 -0.34287536123E+01 -0.68547234637E+01 -0.39930208886E+02  0.50528866133E+02  0.30000019099E+02 0.  0.
         12    1    3    3    0    0  0.34287536123E+01  0.68547234637E+01  0.39930208886E+02  0.40659133867E+02  0.00000000000E+00 0. -1.
         11    1    4    4    0    0  0.33345926964E+01 -0.96118052833E+01 -0.86261542810E+01  0.13338547417E+02  0.51100000000E-03 0. -1.
        -11    1    4    4    0    0  0.56002254386E+01  0.10433459407E+01 -0.18296507020E+02  0.19162809427E+02  0.51100000000E-03 0.  1.
         12    1    4    4    0    0 -0.12363571747E+02  0.17137358789E+01 -0.13007547585E+02  0.18027509290E+02  0.00000000000E+00 0. -1.
</event>
<event>
 8    1  0.5829710E-012  0.9118800E+02  0.7816164E-02  0.1184000E+00
        -11   -1    0    0    0    0  0.00000000000E+00  0.00000000000E+00  0.45593999997E+02  0.45594000000E+02  0.51100000000E-03 0. -1.
         11   -1    0    0    0    0 -0.00000000000E+00 -0.00000000000E+00 -0.45593999997E+02  0.45594000000E+02  0.51100000000E-03 0.  1.
         23    2    1    2    0    0 -0.17763568394E-14  0.35527136788E-14  0.00000000000E+00  0.91188000000E+02  0.91188000000E+02 0.  0.
    9900012    2    3    3    0    0  0.12357593072E+02 -0.23189247294E+02  0.31027651472E+02  0.50528850323E+02  0.29999971041E+02 0.  0.
        -12    1    3    3    0    0 -0.12357593072E+02  0.23189247294E+02 -0.31027651472E+02  0.40659149677E+02  0.00000000000E+00 0.  1.
         11    1    4    4    0    0  0.11217647240E+02 -0.63612066986E+01  0.60167359895E+01  0.14230308236E+02  0.51100000000E-03 0. -1.
        -11    1    4    4    0    0  0.62163509331E+01 -0.45875175132E+01  0.21118432540E+02  0.22487252590E+02  0.51100000000E-03 0.  1.
         12    1    4    4    0    0 -0.50764051011E+01 -0.12240523083E+02  0.38924829422E+01  0.13811289496E+02  0.00000000000E+00 0. -1.
</event>
<event>
 8    1  0.5829710E-012  0.9118800E+02  0.7816164E-02  0.1184000E+00
        -11   -1    0    0    0    0  0.00000000000E+00  0.00000000000E+00  0.45593999997E+02  0.45594000000E+02  0.51100000000E-03 0. -1.
         11   -1    0    0    0    0 -0.00000000000E+00 -0.00000000000E+00 -0.45593999997E+02  0.45594000000E+02  0.51100000000E-03 0.  1.
         23    2    1    2    0    0  0.17763568394E-14  0.35527136788E-14  0.14210854715E-13  0.91188000000E+02  0.91188000000E+02 0.  0.
    9900012    2    3    3    0    0  0.85683874704E+01  0.16652882502E+02  0.36089198649E+02  0.50528855658E+02  0.29999987258E+02 0.  0.
        -12    1    3    3    0    0 -0.85683874704E+01 -0.16652882502E+02 -0.36089198649E+02  0.40659144342E+02  0.00000000000E+00 0.  1.
         11    1    4    4    0    0  0.10125330224E+02  0.17995083562E+02  0.36249035540E+02  0.41717357567E+02  0.51100000000E-03 0. -1.
        -11    1    4    4    0    0  0.11743575368E+01  0.31679809700E+01 -0.87597675584E+00  0.34903516425E+01  0.51100000000E-03 0.  1.
        -12    1    4    4    0    0 -0.27313002909E+01 -0.45101820297E+01  0.71613986536E+00  0.53211464485E+01  0.00000000000E+00 0.  1.
</event>
<event>
 8    1  0.7263992E-012  0.9118800E+02  0.7816164E-02  0.1184000E+00
        -11   -1    0    0    0    0  0.00000000000E+00  0.00000000000E+00  0.45593999997E+02  0.45594000000E+02  0.51100000000E-03 0. -1.
         11   -1    0    0    0    0 -0.00000000000E+00 -0.00000000000E+00 -0.45593999997E+02  0.45594000000E+02  0.51100000000E-03 0.  1.
         23    2    1    2    0    0 -0.35527136788E-14 -0.22204460493E-15 -0.35527136788E-14  0.91188000000E+02  0.91188000000E+02 0.  0.
    9900012    2    3    3    0    0 -0.26742825599E+02 -0.10425053130E+01 -0.30608815669E+02  0.50528866525E+02  0.30000020288E+02 0.  0.
         12    1    3    3    0    0  0.26742825599E+02  0.10425053130E+01  0.30608815669E+02  0.40659133475E+02  0.00000000000E+00 0. -1.
         11    1    4    4    0    0 -0.13768218648E+01  0.30184034579E+01  0.28194594635E+01  0.43538201398E+01  0.51100000000E-03 0. -1.
        -11    1    4    4    0    0 -0.47997828565E+01 -0.92906502482E+01 -0.88157041063E+01  0.13677380475E+02  0.51100000000E-03 0.  1.
        -12    1    4    4    0    0 -0.20566220877E+02  0.52297414773E+01 -0.24612571026E+02  0.32497665910E+02  0.00000000000E+00 0.  1.
</event>
<event>
 8    1  0.5829710E-012  0.9118800E+02  0.7816164E-02  0.1184000E+00
        -11   -1    0    0    0    0  0.00000000000E+00  0.00000000000E+00  0.45593999997E+02  0.45594000000E+02  0.51100000000E-03 0.  1.
         11   -1    0    0    0    0 -0.00000000000E+00 -0.00000000000E+00 -0.45593999997E+02  0.45594000000E+02  0.51100000000E-03 0. -1.
         23    2    1    2    0    0  0.00000000000E+00  0.00000000000E+00  0.00000000000E+00  0.91188000000E+02  0.91188000000E+02 0.  0.
    9900012    2    3    3    0    0 -0.33972389696E+02  0.21919257529E+02 -0.43113676364E+01  0.50528868145E+02  0.30000025214E+02 0.  0.
         12    1    3    3    0    0  0.33972389696E+02 -0.21919257529E+02  0.43113676364E+01  0.40659131855E+02  0.00000000000E+00 0. -1.
         11    1    4    4    0    0 -0.87512827544E+01 -0.33238049265E+01 -0.58525658999E+01  0.11040161091E+02  0.51100000000E-03 0. -1.
        -11    1    4    4    0    0 -0.95140324441E+01  0.24123084745E+01 -0.49998498789E+01  0.11015196076E+02  0.51100000000E-03 0.  1.
        -12    1    4    4    0    0 -0.15707074498E+02  0.22830753981E+02  0.65410481425E+01  0.28473510978E+02  0.00000000000E+00 0.  1.
</event>
<event>
 8    1  0.5829710E-012  0.9118800E+02  0.7816164E-02  0.1184000E+00
        -11   -1    0    0    0    0  0.00000000000E+00  0.00000000000E+00  0.45593999997E+02  0.45594000000E+02  0.51100000000E-03 0. -1.
         11   -1    0    0    0    0 -0.00000000000E+00 -0.00000000000E+00 -0.45593999997E+02  0.45594000000E+02  0.51100000000E-03 0.  1.
         23    2    1    2    0    0  0.00000000000E+00  0.35527136788E-14 -0.13322676296E-14  0.91188000000E+02  0.91188000000E+02 0.  0.
    9900012    2    3    3    0    0 -0.35803719728E+02 -0.19002647493E+02  0.31872844960E+01  0.50528859078E+02  0.29999997652E+02 0.  0.
        -12    1    3    3    0    0  0.35803719728E+02  0.19002647493E+02 -0.31872844960E+01  0.40659140922E+02  0.00000000000E+00 0.  1.
         11    1    4    4    0    0 -0.14451982313E+02 -0.14656768113E+02 -0.82851108676E+01  0.22188368724E+02  0.51100000000E-03 0. -1.
        -11    1    4    4    0    0  0.34911298940E+00 -0.26939846650E+01 -0.13989522971E+01  0.30555688579E+01  0.51100000000E-03 0.  1.
        -12    1    4    4    0    0 -0.21700850405E+02 -0.16518947143E+01  0.12871347661E+02  0.25284921496E+02  0.00000000000E+00 0.  1.
</event>
<event>
 8    1  0.5829710E-012  0.9118800E+02  0.7816164E-02  0.1184000E+00
        -11   -1    0    0    0    0  0.00000000000E+00  0.00000000000E+00  0.45593999997E+02  0.45594000000E+02  0.51100000000E-03 0. -1.
         11   -1    0    0    0    0 -0.00000000000E+00 -0.00000000000E+00 -0.45593999997E+02  0.45594000000E+02  0.51100000000E-03 0.  1.
         23    2    1    2    0    0  0.35527136788E-14 -0.35527136788E-14  0.00000000000E+00  0.91188000000E+02  0.91188000000E+02 0.  0.
    9900012    2    3    3    0    0  0.27425966783E+02  0.22632105311E+02  0.19717208401E+02  0.50528878614E+02  0.30000057035E+02 0.  0.
        -12    1    3    3    0    0 -0.27425966783E+02 -0.22632105311E+02 -0.19717208401E+02  0.40659121386E+02  0.00000000000E+00 0.  1.
         11    1    4    4    0    0  0.11527159979E+02  0.19133637884E+02  0.90673722155E+01  0.24107856707E+02  0.51100000000E-03 0. -1.
        -11    1    4    4    0    0  0.71958375236E+00  0.82094926364E+01  0.44080026410E+01  0.93458042815E+01  0.51100000000E-03 0.  1.
         12    1    4    4    0    0  0.15179223051E+02 -0.47110252095E+01  0.62418335440E+01  0.17075217625E+02  0.00000000000E+00 0. -1.
</event>
<event>
 8    1  0.5829710E-012  0.9118800E+02  0.7816164E-02  0.1184000E+00
        -11   -1    0    0    0    0  0.00000000000E+00  0.00000000000E+00  0.45593999997E+02  0.45594000000E+02  0.51100000000E-03 0.  1.
         11   -1    0    0    0    0 -0.00000000000E+00 -0.00000000000E+00 -0.45593999997E+02  0.45594000000E+02  0.51100000000E-03 0. -1.
         23    2    1    2    0    0  0.00000000000E+00  0.00000000000E+00 -0.35527136788E-14  0.91188000000E+02  0.91188000000E+02 0.  0.
    9900012    2    3    3    0    0  0.26649652695E+02 -0.18235003844E+02 -0.24707211764E+02  0.50528859981E+02  0.30000000397E+02 0.  0.
         12    1    3    3    0    0 -0.26649652695E+02  0.18235003844E+02  0.24707211764E+02  0.40659140019E+02  0.00000000000E+00 0. -1.
         11    1    4    4    0    0  0.86666394112E+01  0.20496587018E+01 -0.21503208264E+01  0.91616384667E+01  0.51100000000E-03 0.  1.
        -11    1    4    4    0    0  0.12233572413E+02 -0.17764565018E+02 -0.42104504336E+01  0.21976531969E+02  0.51100000000E-03 0. -1.
         12    1    4    4    0    0  0.57494408707E+01 -0.25200975281E+01 -0.18346440504E+02  0.19390689545E+02  0.00000000000E+00 0. -1.
</event>
<event>
 8    1  0.5829710E-012  0.9118800E+02  0.7816164E-02  0.1184000E+00
        -11   -1    0    0    0    0  0.00000000000E+00  0.00000000000E+00  0.45593999997E+02  0.45594000000E+02  0.51100000000E-03 0. -1.
         11   -1    0    0    0    0 -0.00000000000E+00 -0.00000000000E+00 -0.45593999997E+02  0.45594000000E+02  0.51100000000E-03 0.  1.
         23    2    1    2    0    0 -0.17763568394E-14  0.00000000000E+00  0.00000000000E+00  0.91188000000E+02  0.91188000000E+02 0.  0.
    9900012    2    3    3    0    0  0.15182521801E+02  0.77542038924E+01 -0.36912449339E+02  0.50528861267E+02  0.30000004308E+02 0.  0.
         12    1    3    3    0    0 -0.15182521801E+02 -0.77542038924E+01  0.36912449339E+02  0.40659138733E+02  0.00000000000E+00 0. -1.
         11    1    4    4    0    0 -0.13225138201E+00 -0.66614007171E+00 -0.19166206480E+01  0.20333883035E+01  0.51100000000E-03 0. -1.
        -11    1    4    4    0    0  0.23398817834E+01  0.60148672849E+01  0.38187232700E+01  0.74990881372E+01  0.51100000000E-03 0.  1.
        -12    1    4    4    0    0  0.12974891400E+02  0.24054766792E+01 -0.38814551961E+02  0.40996384827E+02  0.00000000000E+00 0.  1.
</event>
<event>
 8    1  0.5829710E-012  0.9118800E+02  0.7816164E-02  0.1184000E+00
        -11   -1    0    0    0    0  0.00000000000E+00  0.00000000000E+00  0.45593999997E+02  0.45594000000E+02  0.51100000000E-03 0.  1.
         11   -1    0    0    0    0 -0.00000000000E+00 -0.00000000000E+00 -0.45593999997E+02  0.45594000000E+02  0.51100000000E-03 0. -1.
         23    2    1    2    0    0  0.00000000000E+00 -0.71054273576E-14  0.88817841970E-15  0.91188000000E+02  0.91188000000E+02 0.  0.
    9900012    2    3    3    0    0  0.20214423561E+02 -0.34620785913E+02  0.67782282566E+01  0.50528854467E+02  0.29999983639E+02 0.  0.
        -12    1    3    3    0    0 -0.20214423561E+02  0.34620785913E+02 -0.67782282566E+01  0.40659145533E+02  0.00000000000E+00 0.  1.
         11    1    4    4    0    0  0.15582538343E+01 -0.18516881569E+02  0.85324780497E+01  0.20447646319E+02  0.51100000000E-03 0. -1.
        -11    1    4    4    0    0 -0.79226871006E+00  0.27438604486E+01  0.52055485246E+00  0.29030049063E+01  0.51100000000E-03 0.  1.
         12    1    4    4    0    0  0.19448438437E+02 -0.18847764793E+02 -0.22748046456E+01  0.27178203243E+02  0.00000000000E+00 0. -1.
</event>
<event>
 8    1  0.5829710E-012  0.9118800E+02  0.7816164E-02  0.1184000E+00
        -11   -1    0    0    0    0  0.00000000000E+00  0.00000000000E+00  0.45593999997E+02  0.45594000000E+02  0.51100000000E-03 0. -1.
         11   -1    0    0    0    0 -0.00000000000E+00 -0.00000000000E+00 -0.45593999997E+02  0.45594000000E+02  0.51100000000E-03 0.  1.
         23    2    1    2    0    0  0.00000000000E+00  0.00000000000E+00  0.00000000000E+00  0.91188000000E+02  0.91188000000E+02 0.  0.
    9900012    2    3    3    0    0  0.12834683086E+02  0.12250108250E+02 -0.36583760445E+02  0.50528858711E+02  0.29999996538E+02 0.  0.
         12    1    3    3    0    0 -0.12834683086E+02 -0.12250108250E+02  0.36583760445E+02  0.40659141289E+02  0.00000000000E+00 0. -1.
         11    1    4    4    0    0  0.10013979619E+02  0.58849446936E+01 -0.29727915560E+02  0.31916474205E+02  0.51100000000E-03 0. -1.
        -11    1    4    4    0    0  0.94432917715E+01  0.42070300381E+01 -0.40407074276E+01  0.11099647652E+02  0.51100000000E-03 0.  1.
         12    1    4    4    0    0 -0.66225883050E+01  0.21581335185E+01 -0.28151374576E+01  0.75127368546E+01  0.00000000000E+00 0. -1.
</event>
<event>
 8    1  0.5829710E-012  0.9118800E+02  0.7816164E-02  0.1184000E+00
        -11   -1    0    0    0    0  0.00000000000E+00  0.00000000000E+00  0.45593999997E+02  0.45594000000E+02  0.51100000000E-03 0. -1.
         11   -1    0    0    0    0 -0.00000000000E+00 -0.00000000000E+00 -0.45593999997E+02  0.45594000000E+02  0.51100000000E-03 0.  1.
         23    2    1    2    0    0  0.00000000000E+00  0.00000000000E+00  0.00000000000E+00  0.91188000000E+02  0.91188000000E+02 0.  0.
    9900012    2    3    3    0    0  0.24452645067E+02  0.28111879950E+02 -0.16277451555E+02  0.50528867272E+02  0.30000022559E+02 0.  0.
         12    1    3    3    0    0 -0.24452645067E+02 -0.28111879950E+02  0.16277451555E+02  0.40659132728E+02  0.00000000000E+00 0. -1.
         11    1    4    4    0    0 -0.64714540795E+01  0.26758287597E+01 -0.28681409449E+00  0.70087117248E+01  0.51100000000E-03 0. -1.
        -11    1    4    4    0    0 -0.89083977722E-01 -0.20594955154E+00 -0.16792015948E+00  0.28026525640E+00  0.51100000000E-03 0.  1.
        -12    1    4    4    0    0  0.31013183124E+02  0.25642000742E+02 -0.15822717302E+02  0.43239890290E+02  0.00000000000E+00 0.  1.
</event>
<event>
 8    1  0.5829710E-012  0.9118800E+02  0.7816164E-02  0.1184000E+00
        -11   -1    0    0    0    0  0.00000000000E+00  0.00000000000E+00  0.45593999997E+02  0.45594000000E+02  0.51100000000E-03 0. -1.
         11   -1    0    0    0    0 -0.00000000000E+00 -0.00000000000E+00 -0.45593999997E+02  0.45594000000E+02  0.51100000000E-03 0.  1.
         23    2    1    2    0    0  0.00000000000E+00  0.88817841970E-15  0.35527136788E-14  0.91188000000E+02  0.91188000000E+02 0.  0.
    9900012    2    3    3    0    0  0.29788765998E+02  0.24490199136E+01 -0.27564395931E+02  0.50528878007E+02  0.30000055189E+02 0.  0.
         12    1    3    3    0    0 -0.29788765998E+02 -0.24490199136E+01  0.27564395931E+02  0.40659121993E+02  0.00000000000E+00 0. -1.
         11    1    4    4    0    0  0.17238425100E+02  0.63124940989E+01 -0.11035256526E+02  0.21419331655E+02  0.51100000000E-03 0. -1.
        -11    1    4    4    0    0  0.12211939759E+02  0.51566000984E+01 -0.14889570290E+02  0.19935428286E+02  0.51100000000E-03 0.  1.
        -12    1    4    4    0    0  0.33840113952E+00 -0.90200742838E+01 -0.16395691149E+01  0.91741180665E+01  0.00000000000E+00 0.  1.
</event>
<event>
 8    1  0.5829710E-012  0.9118800E+02  0.7816164E-02  0.1184000E+00
        -11   -1    0    0    0    0  0.00000000000E+00  0.00000000000E+00  0.45593999997E+02  0.45594000000E+02  0.51100000000E-03 0. -1.
         11   -1    0    0    0    0 -0.00000000000E+00 -0.00000000000E+00 -0.45593999997E+02  0.45594000000E+02  0.51100000000E-03 0.  1.
         23    2    1    2    0    0 -0.35527136788E-14  0.71054273576E-14  0.00000000000E+00  0.91188000000E+02  0.91188000000E+02 0.  0.
    9900012    2    3    3    0    0 -0.16974495457E+02 -0.32021534049E+02  0.18429690482E+02  0.50528860436E+02  0.30000001781E+02 0.  0.
        -12    1    3    3    0    0  0.16974495457E+02  0.32021534049E+02 -0.18429690482E+02  0.40659139564E+02  0.00000000000E+00 0.  1.
         11    1    4    4    0    0 -0.12431964342E+02 -0.19990668761E+02 -0.41994829002E+00  0.23544785659E+02  0.51100000000E-03 0. -1.
        -11    1    4    4    0    0 -0.21316896298E+01 -0.55647247978E+01 -0.93361564471E+00  0.60317411406E+01  0.51100000000E-03 0.  1.
         12    1    4    4    0    0 -0.24108414853E+01 -0.64661404900E+01  0.19783254417E+02  0.20952333636E+02  0.00000000000E+00 0. -1.
</event>
<event>
 8    1  0.5829710E-012  0.9118800E+02  0.7816164E-02  0.1184000E+00
        -11   -1    0    0    0    0  0.00000000000E+00  0.00000000000E+00  0.45593999997E+02  0.45594000000E+02  0.51100000000E-03 0. -1.
         11   -1    0    0    0    0 -0.00000000000E+00 -0.00000000000E+00 -0.45593999997E+02  0.45594000000E+02  0.51100000000E-03 0.  1.
         23    2    1    2    0    0  0.35527136788E-14  0.27755575616E-15  0.00000000000E+00  0.91188000000E+02  0.91188000000E+02 0.  0.
    9900012    2    3    3    0    0  0.26837390893E+02 -0.21985944601E+00 -0.30542949726E+02  0.50528859993E+02  0.30000000434E+02 0.  0.
         12    1    3    3    0    0 -0.26837390893E+02  0.21985944601E+00  0.30542949726E+02  0.40659140007E+02  0.00000000000E+00 0. -1.
         11    1    4    4    0    0 -0.18496705159E+01  0.16769844602E+01 -0.76428893322E+00  0.26110717592E+01  0.51100000000E-03 0. -1.
        -11    1    4    4    0    0 -0.38715456330E+01  0.12381626668E+01 -0.68759663223E+01  0.79875418937E+01  0.51100000000E-03 0.  1.
        -12    1    4    4    0    0  0.32558607042E+02 -0.31350065730E+01 -0.22902694471E+02  0.39930246340E+02  0.00000000000E+00 0.  1.
</event>
<event>
 8    1  0.5829710E-012  0.9118800E+02  0.7816164E-02  0.1184000E+00
        -11   -1    0    0    0    0  0.00000000000E+00  0.00000000000E+00  0.45593999997E+02  0.45594000000E+02  0.51100000000E-03 0. -1.
         11   -1    0    0    0    0 -0.00000000000E+00 -0.00000000000E+00 -0.45593999997E+02  0.45594000000E+02  0.51100000000E-03 0.  1.
         23    2    1    2    0    0  0.00000000000E+00  0.00000000000E+00  0.00000000000E+00  0.91188000000E+02  0.91188000000E+02 0.  0.
    9900012    2    3    3    0    0 -0.10876282810E+02  0.21499936805E+02  0.32750951087E+02  0.50528860713E+02  0.30000002624E+02 0.  0.
        -12    1    3    3    0    0  0.10876282810E+02 -0.21499936805E+02 -0.32750951087E+02  0.40659139287E+02  0.00000000000E+00 0.  1.
         11    1    4    4    0    0 -0.25978183049E+01  0.84240535412E+01  0.65456402015E+01  0.10979924586E+02  0.51100000000E-03 0. -1.
        -11    1    4    4    0    0 -0.61029700040E+01 -0.53264869782E+01  0.85139158304E+00  0.81450951061E+01  0.51100000000E-03 0.  1.
         12    1    4    4    0    0 -0.21754945015E+01  0.18402370242E+02  0.25353919303E+02  0.31403841021E+02  0.00000000000E+00 0. -1.
</event>
<event>
 8    1  0.5829710E-012  0.9118800E+02  0.7816164E-02  0.1184000E+00
        -11   -1    0    0    0    0  0.00000000000E+00  0.00000000000E+00  0.45593999997E+02  0.45594000000E+02  0.51100000000E-03 0. -1.
         11   -1    0    0    0    0 -0.00000000000E+00 -0.00000000000E+00 -0.45593999997E+02  0.45594000000E+02  0.51100000000E-03 0.  1.
         23    2    1    2    0    0 -0.35527136788E-14  0.00000000000E+00  0.00000000000E+00  0.91188000000E+02  0.91188000000E+02 0.  0.
    9900012    2    3    3    0    0 -0.25879988183E+02 -0.29621188116E+02  0.10294520114E+02  0.50528859354E+02  0.29999998491E+02 0.  0.
        -12    1    3    3    0    0  0.25879988183E+02  0.29621188116E+02 -0.10294520114E+02  0.40659140646E+02  0.00000000000E+00 0.  1.
         11    1    4    4    0    0  0.87193297846E+00 -0.12016840262E+02 -0.40434287497E+01  0.12708817148E+02  0.51100000000E-03 0. -1.
        -11    1    4    4    0    0  0.22023389487E+00 -0.53203246774E+01  0.27949795525E+01  0.60138397552E+01  0.51100000000E-03 0.  1.
        -12    1    4    4    0    0 -0.26972155056E+02 -0.12284023176E+02  0.11542969311E+02  0.31806202450E+02  0.00000000000E+00 0.  1.
</event>
<event>
 8    1  0.5829710E-012  0.9118800E+02  0.7816164E-02  0.1184000E+00
        -11   -1    0    0    0    0  0.00000000000E+00  0.00000000000E+00  0.45593999997E+02  0.45594000000E+02  0.51100000000E-03 0. -1.
         11   -1    0    0    0    0 -0.00000000000E+00 -0.00000000000E+00 -0.45593999997E+02  0.45594000000E+02  0.51100000000E-03 0.  1.
         23    2    1    2    0    0  0.17763568394E-14 -0.16098233857E-14  0.00000000000E+00  0.91188000000E+02  0.91188000000E+02 0.  0.
    9900012    2    3    3    0    0 -0.14744859760E+02 -0.49604812983E+00  0.37888120094E+02  0.50528848541E+02  0.29999965627E+02 0.  0.
        -12    1    3    3    0    0  0.14744859760E+02  0.49604812983E+00 -0.37888120094E+02  0.40659151459E+02  0.00000000000E+00 0.  1.
         11    1    4    4    0    0 -0.14188774020E+01  0.20849775459E+01  0.29547448870E+01  0.38846958771E+01  0.51100000000E-03 0. -1.
        -11    1    4    4    0    0 -0.10104861321E+00  0.11550097165E+02  0.12707523967E+02  0.17172539736E+02  0.51100000000E-03 0.  1.
         12    1    4    4    0    0 -0.13224933745E+02 -0.14131122841E+02  0.22225851239E+02  0.29471612928E+02  0.00000000000E+00 0. -1.
</event>
<event>
 8    1  0.5829710E-012  0.9118800E+02  0.7816164E-02  0.1184000E+00
        -11   -1    0    0    0    0  0.00000000000E+00  0.00000000000E+00  0.45593999997E+02  0.45594000000E+02  0.51100000000E-03 0. -1.
         11   -1    0    0    0    0 -0.00000000000E+00 -0.00000000000E+00 -0.45593999997E+02  0.45594000000E+02  0.51100000000E-03 0.  1.
         23    2    1    2    0    0  0.00000000000E+00 -0.17763568394E-14  0.71054273576E-14  0.91188000000E+02  0.91188000000E+02 0.  0.
    9900012    2    3    3    0    0 -0.11918535333E+02  0.11330797626E+02 -0.37185037608E+02  0.50528862266E+02  0.30000007345E+02 0.  0.
         12    1    3    3    0    0  0.11918535333E+02 -0.11330797626E+02  0.37185037608E+02  0.40659137734E+02  0.00000000000E+00 0. -1.
         11    1    4    4    0    0 -0.47002133390E+00  0.16997717980E+01  0.38479993610E+01  0.42328765117E+01  0.51100000000E-03 0. -1.
        -11    1    4    4    0    0  0.15847914988E+01 -0.21206640142E+01 -0.14998437702E+01  0.30427473691E+01  0.51100000000E-03 0.  1.
        -12    1    4    4    0    0 -0.13033305498E+02  0.11751689842E+02 -0.39533193199E+02  0.43253238386E+02  0.00000000000E+00 0.  1.
</event>
<event>
 8    1  0.5829710E-012  0.9118800E+02  0.7816164E-02  0.1184000E+00
        -11   -1    0    0    0    0  0.00000000000E+00  0.00000000000E+00  0.45593999997E+02  0.45594000000E+02  0.51100000000E-03 0. -1.
         11   -1    0    0    0    0 -0.00000000000E+00 -0.00000000000E+00 -0.45593999997E+02  0.45594000000E+02  0.51100000000E-03 0.  1.
         23    2    1    2    0    0 -0.35527136788E-14  0.00000000000E+00  0.00000000000E+00  0.91188000000E+02  0.91188000000E+02 0.  0.
    9900012    2    3    3    0    0  0.19901677601E+02  0.33319600952E+02  0.12119947553E+02  0.50528859482E+02  0.29999998883E+02 0.  0.
        -12    1    3    3    0    0 -0.19901677601E+02 -0.33319600952E+02 -0.12119947553E+02  0.40659140518E+02  0.00000000000E+00 0.  1.
         11    1    4    4    0    0  0.15023601776E+02  0.15119473346E+02  0.17501885827E+01  0.21386216237E+02  0.51100000000E-03 0. -1.
        -11    1    4    4    0    0  0.89328160855E+01  0.11503575687E+01  0.47980381812E+00  0.90193535089E+01  0.51100000000E-03 0.  1.
         12    1    4    4    0    0 -0.40547402609E+01  0.17049770038E+02  0.98899551526E+01  0.20123289737E+02  0.00000000000E+00 0. -1.
</event>
<event>
 8    1  0.5829710E-012  0.9118800E+02  0.7816164E-02  0.1184000E+00
        -11   -1    0    0    0    0  0.00000000000E+00  0.00000000000E+00  0.45593999997E+02  0.45594000000E+02  0.51100000000E-03 0. -1.
         11   -1    0    0    0    0 -0.00000000000E+00 -0.00000000000E+00 -0.45593999997E+02  0.45594000000E+02  0.51100000000E-03 0.  1.
         23    2    1    2    0    0 -0.19984014443E-14  0.00000000000E+00  0.00000000000E+00  0.91188000000E+02  0.91188000000E+02 0.  0.
    9900012    2    3    3    0    0 -0.17080725058E+01 -0.34009086513E+02  0.22217753276E+02  0.50528880018E+02  0.30000061302E+02 0.  0.
        -12    1    3    3    0    0  0.17080725058E+01  0.34009086513E+02 -0.22217753276E+02  0.40659119982E+02  0.00000000000E+00 0.  1.
         11    1    4    4    0    0  0.75818376693E+01 -0.12577794056E+02 -0.58027561825E+00  0.14697683008E+02  0.51100000000E-03 0. -1.
        -11    1    4    4    0    0  0.38299808911E+01 -0.42667074780E+01  0.27543687899E+01  0.63608249482E+01  0.51100000000E-03 0.  1.
        -12    1    4    4    0    0 -0.13119891066E+02 -0.17164584979E+02  0.20043660104E+02  0.29470372062E+02  0.00000000000E+00 0.  1.
</event>
<event>
 8    1  0.5829710E-012  0.9118800E+02  0.7816164E-02  0.1184000E+00
        -11   -1    0    0    0    0  0.00000000000E+00  0.00000000000E+00  0.45593999997E+02  0.45594000000E+02  0.51100000000E-03 0. -1.
         11   -1    0    0    0    0 -0.00000000000E+00 -0.00000000000E+00 -0.45593999997E+02  0.45594000000E+02  0.51100000000E-03 0.  1.
         23    2    1    2    0    0  0.00000000000E+00  0.00000000000E+00  0.00000000000E+00  0.91188000000E+02  0.91188000000E+02 0.  0.
    9900012    2    3    3    0    0 -0.16113063357E+02  0.46655704197E+01 -0.37037408476E+02  0.50528831480E+02  0.29999913767E+02 0.  0.
         12    1    3    3    0    0  0.16113063357E+02 -0.46655704197E+01  0.37037408476E+02  0.40659168520E+02  0.00000000000E+00 0. -1.
         11    1    4    4    0    0 -0.15479191047E+01 -0.12506673949E+01 -0.11391707203E+02  0.11564221364E+02  0.51100000000E-03 0. -1.
        -11    1    4    4    0    0  0.87406800975E+00  0.10010693641E+02 -0.19334761598E+02  0.21790158062E+02  0.51100000000E-03 0.  1.
         12    1    4    4    0    0 -0.15439212262E+02 -0.40944558262E+01 -0.63109396748E+01  0.17174452054E+02  0.00000000000E+00 0. -1.
</event>
<event>
 8    1  0.5829710E-012  0.9118800E+02  0.7816164E-02  0.1184000E+00
        -11   -1    0    0    0    0  0.00000000000E+00  0.00000000000E+00  0.45593999997E+02  0.45594000000E+02  0.51100000000E-03 0. -1.
         11   -1    0    0    0    0 -0.00000000000E+00 -0.00000000000E+00 -0.45593999997E+02  0.45594000000E+02  0.51100000000E-03 0.  1.
         23    2    1    2    0    0 -0.17763568394E-14 -0.71054273576E-14 -0.35527136788E-14  0.91188000000E+02  0.91188000000E+02 0.  0.
    9900012    2    3    3    0    0  0.10388653557E+02  0.29921503247E+02  0.25494020155E+02  0.50528861507E+02  0.30000005038E+02 0.  0.
        -12    1    3    3    0    0 -0.10388653557E+02 -0.29921503247E+02 -0.25494020155E+02  0.40659138493E+02  0.00000000000E+00 0.  1.
         11    1    4    4    0    0 -0.48750166393E+00  0.15875545396E+02  0.11324354573E+02  0.19506706699E+02  0.51100000000E-03 0. -1.
        -11    1    4    4    0    0 -0.27480753608E+01  0.79255857254E+00  0.11473637481E+02  0.11824737823E+02  0.51100000000E-03 0.  1.
        -12    1    4    4    0    0  0.13624230582E+02  0.13253399279E+02  0.26960281013E+01  0.19197416985E+02  0.00000000000E+00 0.  1.
</event>
<event>
 8    1  0.5829710E-012  0.9118800E+02  0.7816164E-02  0.1184000E+00
        -11   -1    0    0    0    0  0.00000000000E+00  0.00000000000E+00  0.45593999997E+02  0.45594000000E+02  0.51100000000E-03 0.  1.
         11   -1    0    0    0    0 -0.00000000000E+00 -0.00000000000E+00 -0.45593999997E+02  0.45594000000E+02  0.51100000000E-03 0. -1.
         23    2    1    2    0    0  0.35527136788E-14  0.35527136788E-14 -0.35527136788E-14  0.91188000000E+02  0.91188000000E+02 0.  0.
    9900012    2    3    3    0    0 -0.29236807434E+02 -0.19491674550E+02  0.20456015491E+02  0.50528869962E+02  0.30000030735E+02 0.  0.
         12    1    3    3    0    0  0.29236807434E+02  0.19491674550E+02 -0.20456015491E+02  0.40659130038E+02  0.00000000000E+00 0. -1.
         11    1    4    4    0    0 -0.11951374166E+02 -0.59620452951E+01 -0.11909691230E+01  0.13408942400E+02  0.51100000000E-03 0. -1.
        -11    1    4    4    0    0 -0.58845636549E+01 -0.91335700818E+00 -0.33915841812E+01  0.68531127199E+01  0.51100000000E-03 0.  1.
        -12    1    4    4    0    0 -0.11400869612E+02 -0.12616272247E+02  0.25038568796E+02  0.30266814842E+02  0.00000000000E+00 0.  1.
</event>
<event>
 8    1  0.5829710E-012  0.9118800E+02  0.7816164E-02  0.1184000E+00
        -11   -1    0    0    0    0  0.00000000000E+00  0.00000000000E+00  0.45593999997E+02  0.45594000000E+02  0.51100000000E-03 0. -1.
         11   -1    0    0    0    0 -0.00000000000E+00 -0.00000000000E+00 -0.45593999997E+02  0.45594000000E+02  0.51100000000E-03 0.  1.
         23    2    1    2    0    0  0.35527136788E-14 -0.17763568394E-14  0.35527136788E-14  0.91188000000E+02  0.91188000000E+02 0.  0.
    9900012    2    3    3    0    0  0.26187989997E+02  0.72898995940E+01 -0.30235935765E+02  0.50528864892E+02  0.30000015324E+02 0.  0.
         12    1    3    3    0    0 -0.26187989997E+02 -0.72898995940E+01  0.30235935765E+02  0.40659135108E+02  0.00000000000E+00 0. -1.
         11    1    4    4    0    0 -0.35212656107E+01  0.16668117254E+01  0.43557112863E+00  0.39201141946E+01  0.51100000000E-03 0. -1.
        -11    1    4    4    0    0  0.22504707544E+02  0.80527210614E+01 -0.30822206529E+02  0.39004058682E+02  0.51100000000E-03 0.  1.
         12    1    4    4    0    0  0.72045480641E+01 -0.24296331928E+01  0.15069963516E+00  0.76046920148E+01  0.00000000000E+00 0. -1.
</event>
<event>
 8    1  0.5829710E-012  0.9118800E+02  0.7816164E-02  0.1184000E+00
        -11   -1    0    0    0    0  0.00000000000E+00  0.00000000000E+00  0.45593999997E+02  0.45594000000E+02  0.51100000000E-03 0. -1.
         11   -1    0    0    0    0 -0.00000000000E+00 -0.00000000000E+00 -0.45593999997E+02  0.45594000000E+02  0.51100000000E-03 0.  1.
         23    2    1    2    0    0  0.17763568394E-14  0.71054273576E-14  0.17763568394E-14  0.91188000000E+02  0.91188000000E+02 0.  0.
    9900012    2    3    3    0    0  0.11497252097E+02  0.36993408721E+02  0.12347755298E+02  0.50528853975E+02  0.29999982142E+02 0.  0.
        -12    1    3    3    0    0 -0.11497252097E+02 -0.36993408721E+02 -0.12347755298E+02  0.40659146025E+02  0.00000000000E+00 0.  1.
         11    1    4    4    0    0 -0.51415584733E+00  0.83705669817E+01  0.72931701458E+01  0.11114003728E+02  0.51100000000E-03 0. -1.
        -11    1    4    4    0    0 -0.64593003130E+01  0.13022771803E+02  0.45515121680E+01  0.15232577236E+02  0.51100000000E-03 0.  1.
         12    1    4    4    0    0  0.18470708257E+02  0.15600069937E+02  0.50307298379E+00  0.24182273011E+02  0.00000000000E+00 0. -1.
</event>
<event>
 8    1  0.5829710E-012  0.9118800E+02  0.7816164E-02  0.1184000E+00
        -11   -1    0    0    0    0  0.00000000000E+00  0.00000000000E+00  0.45593999997E+02  0.45594000000E+02  0.51100000000E-03 0. -1.
         11   -1    0    0    0    0 -0.00000000000E+00 -0.00000000000E+00 -0.45593999997E+02  0.45594000000E+02  0.51100000000E-03 0.  1.
         23    2    1    2    0    0  0.17763568394E-14 -0.17763568394E-14  0.00000000000E+00  0.91188000000E+02  0.91188000000E+02 0.  0.
    9900012    2    3    3    0    0  0.75013306603E+01  0.98752905711E+01  0.38721753630E+02  0.50528861670E+02  0.30000005533E+02 0.  0.
        -12    1    3    3    0    0 -0.75013306603E+01 -0.98752905711E+01 -0.38721753630E+02  0.40659138330E+02  0.00000000000E+00 0.  1.
         11    1    4    4    0    0 -0.10656477094E+02  0.52289296070E+01  0.16757824165E+02  0.20535989869E+02  0.51100000000E-03 0. -1.
        -11    1    4    4    0    0 -0.40827490374E+00 -0.75356131774E-02  0.30730330368E+01  0.31000447559E+01  0.51100000000E-03 0.  1.
         12    1    4    4    0    0  0.18566082658E+02  0.46538965773E+01  0.18890896429E+02  0.26892827046E+02  0.00000000000E+00 0. -1.
</event>
<event>
 8    1  0.5829710E-012  0.9118800E+02  0.7816164E-02  0.1184000E+00
        -11   -1    0    0    0    0  0.00000000000E+00  0.00000000000E+00  0.45593999997E+02  0.45594000000E+02  0.51100000000E-03 0. -1.
         11   -1    0    0    0    0 -0.00000000000E+00 -0.00000000000E+00 -0.45593999997E+02  0.45594000000E+02  0.51100000000E-03 0.  1.
         23    2    1    2    0    0  0.00000000000E+00 -0.33306690739E-15  0.00000000000E+00  0.91188000000E+02  0.91188000000E+02 0.  0.
    9900012    2    3    3    0    0  0.98435550099E+01 -0.69599709529E+00  0.39443444788E+02  0.50528864201E+02  0.30000013226E+02 0.  0.
        -12    1    3    3    0    0 -0.98435550099E+01  0.69599709529E+00 -0.39443444788E+02  0.40659135799E+02  0.00000000000E+00 0.  1.
         11    1    4    4    0    0  0.10735769188E+00  0.16036853416E+01  0.43598787757E+01  0.46467058814E+01  0.51100000000E-03 0. -1.
        -11    1    4    4    0    0  0.11956634453E+02  0.54123738535E+01  0.39136546759E+01  0.13695677835E+02  0.51100000000E-03 0.  1.
         12    1    4    4    0    0 -0.22204371350E+01 -0.77120562904E+01  0.31169911336E+02  0.32186480485E+02  0.00000000000E+00 0. -1.
</event>
<event>
 8    1  0.5829710E-012  0.9118800E+02  0.7816164E-02  0.1184000E+00
        -11   -1    0    0    0    0  0.00000000000E+00  0.00000000000E+00  0.45593999997E+02  0.45594000000E+02  0.51100000000E-03 0. -1.
         11   -1    0    0    0    0 -0.00000000000E+00 -0.00000000000E+00 -0.45593999997E+02  0.45594000000E+02  0.51100000000E-03 0.  1.
         23    2    1    2    0    0 -0.26645352591E-14  0.00000000000E+00 -0.71054273576E-14  0.91188000000E+02  0.91188000000E+02 0.  0.
    9900012    2    3    3    0    0  0.76421762813E+01 -0.90880168533E+01  0.38886637928E+02  0.50528861815E+02  0.30000005972E+02 0.  0.
        -12    1    3    3    0    0 -0.76421762813E+01  0.90880168533E+01 -0.38886637928E+02  0.40659138185E+02  0.00000000000E+00 0.  1.
         11    1    4    4    0    0 -0.92634166264E+01 -0.54824791067E+01  0.12935434201E+02  0.16828366617E+02  0.51100000000E-03 0. -1.
        -11    1    4    4    0    0  0.16377166112E+01 -0.53580583801E+01  0.10537687840E+02  0.11934562018E+02  0.51100000000E-03 0.  1.
        -12    1    4    4    0    0  0.15267876297E+02  0.17525206336E+01  0.15413515887E+02  0.21765933180E+02  0.00000000000E+00 0.  1.
</event>
<event>
 8    1  0.5829710E-012  0.9118800E+02  0.7816164E-02  0.1184000E+00
        -11   -1    0    0    0    0  0.00000000000E+00  0.00000000000E+00  0.45593999997E+02  0.45594000000E+02  0.51100000000E-03 0. -1.
         11   -1    0    0    0    0 -0.00000000000E+00 -0.00000000000E+00 -0.45593999997E+02  0.45594000000E+02  0.51100000000E-03 0.  1.
         23    2    1    2    0    0  0.17763568394E-14 -0.17763568394E-14  0.00000000000E+00  0.91188000000E+02  0.91188000000E+02 0.  0.
    9900012    2    3    3    0    0 -0.13368793211E+02 -0.15439186929E+02  0.35157824531E+02  0.50528858952E+02  0.29999997272E+02 0.  0.
        -12    1    3    3    0    0  0.13368793211E+02  0.15439186929E+02 -0.35157824531E+02  0.40659141048E+02  0.00000000000E+00 0.  1.
         11    1    4    4    0    0 -0.96401535108E+00  0.73334581684E+00 -0.72031680681E+00  0.14092474046E+01  0.51100000000E-03 0. -1.
        -11    1    4    4    0    0 -0.10090543367E+02  0.36464163604E+01  0.38787548773E+01  0.11408775455E+02  0.51100000000E-03 0.  1.
         12    1    4    4    0    0 -0.23142344925E+01 -0.19818949106E+02  0.31999386461E+02  0.37710836093E+02  0.00000000000E+00 0. -1.
</event>
<event>
 8    1  0.5829710E-012  0.9118800E+02  0.7816164E-02  0.1184000E+00
        -11   -1    0    0    0    0  0.00000000000E+00  0.00000000000E+00  0.45593999997E+02  0.45594000000E+02  0.51100000000E-03 0. -1.
         11   -1    0    0    0    0 -0.00000000000E+00 -0.00000000000E+00 -0.45593999997E+02  0.45594000000E+02  0.51100000000E-03 0.  1.
         23    2    1    2    0    0  0.88817841970E-15 -0.17763568394E-14  0.00000000000E+00  0.91188000000E+02  0.91188000000E+02 0.  0.
    9900012    2    3    3    0    0  0.54003938500E+01  0.12467871312E+02  0.38321712059E+02  0.50528859774E+02  0.29999999769E+02 0.  0.
        -12    1    3    3    0    0 -0.54003938500E+01 -0.12467871312E+02 -0.38321712059E+02  0.40659140226E+02  0.00000000000E+00 0.  1.
         11    1    4    4    0    0  0.52485150349E+01 -0.45019162348E+01  0.68826854779E+00  0.69489476694E+01  0.51100000000E-03 0.  1.
        -11    1    4    4    0    0  0.50396144120E+01  0.28985468814E+01  0.48505402760E+01  0.75714614623E+01  0.51100000000E-03 0. -1.
        -12    1    4    4    0    0 -0.48877355969E+01  0.14071240665E+02  0.32782903235E+02  0.36008450642E+02  0.00000000000E+00 0.  1.
</event>
<event>
 8    1  0.5829710E-012  0.9118800E+02  0.7816164E-02  0.1184000E+00
        -11   -1    0    0    0    0  0.00000000000E+00  0.00000000000E+00  0.45593999997E+02  0.45594000000E+02  0.51100000000E-03 0. -1.
         11   -1    0    0    0    0 -0.00000000000E+00 -0.00000000000E+00 -0.45593999997E+02  0.45594000000E+02  0.51100000000E-03 0.  1.
         23    2    1    2    0    0  0.88817841970E-15  0.35527136788E-14  0.00000000000E+00  0.91188000000E+02  0.91188000000E+02 0.  0.
    9900012    2    3    3    0    0 -0.51718821013E+01  0.18449051967E+02  0.35861537825E+02  0.50528858615E+02  0.29999996247E+02 0.  0.
        -12    1    3    3    0    0  0.51718821013E+01 -0.18449051967E+02 -0.35861537825E+02  0.40659141385E+02  0.00000000000E+00 0.  1.
         11    1    4    4    0    0 -0.23070707438E+01  0.68319641682E+01  0.12237126884E+02  0.14203717276E+02  0.51100000000E-03 0. -1.
        -11    1    4    4    0    0  0.34211952445E+01  0.17318074722E+02  0.10040712715E+02  0.20308525330E+02  0.51100000000E-03 0.  1.
        -12    1    4    4    0    0 -0.62860066020E+01 -0.57009869233E+01  0.13583698226E+02  0.16016616010E+02  0.00000000000E+00 0.  1.
</event>
<event>
 8    1  0.5829710E-012  0.9118800E+02  0.7816164E-02  0.1184000E+00
        -11   -1    0    0    0    0  0.00000000000E+00  0.00000000000E+00  0.45593999997E+02  0.45594000000E+02  0.51100000000E-03 0. -1.
         11   -1    0    0    0    0 -0.00000000000E+00 -0.00000000000E+00 -0.45593999997E+02  0.45594000000E+02  0.51100000000E-03 0.  1.
         23    2    1    2    0    0  0.88817841970E-15 -0.26645352591E-14 -0.71054273576E-14  0.91188000000E+02  0.91188000000E+02 0.  0.
    9900012    2    3    3    0    0 -0.33789426813E+01  0.73940647662E+01  0.39838124262E+02  0.50528860903E+02  0.30000003200E+02 0.  0.
        -12    1    3    3    0    0  0.33789426813E+01 -0.73940647662E+01 -0.39838124262E+02  0.40659139097E+02  0.00000000000E+00 0.  1.
         11    1    4    4    0    0  0.72894637285E+01 -0.31204569857E+01  0.47674449950E+01  0.92521384171E+01  0.51100000000E-03 0. -1.
        -11    1    4    4    0    0  0.32755924296E+01  0.20539036979E+01  0.18886894862E+01  0.43029262603E+01  0.51100000000E-03 0.  1.
         12    1    4    4    0    0 -0.13943998839E+02  0.84606180540E+01  0.33181989781E+02  0.36973796225E+02  0.00000000000E+00 0. -1.
</event>
<event>
 8    1  0.5829710E-012  0.9118800E+02  0.7816164E-02  0.1184000E+00
        -11   -1    0    0    0    0  0.00000000000E+00  0.00000000000E+00  0.45593999997E+02  0.45594000000E+02  0.51100000000E-03 0. -1.
         11   -1    0    0    0    0 -0.00000000000E+00 -0.00000000000E+00 -0.45593999997E+02  0.45594000000E+02  0.51100000000E-03 0.  1.
         23    2    1    2    0    0  0.00000000000E+00  0.00000000000E+00 -0.71054273576E-14  0.91188000000E+02  0.91188000000E+02 0.  0.
    9900012    2    3    3    0    0  0.10839049888E+02 -0.25193760424E+01  0.39106700492E+02  0.50528852426E+02  0.29999977433E+02 0.  0.
        -12    1    3    3    0    0 -0.10839049888E+02  0.25193760424E+01 -0.39106700492E+02  0.40659147574E+02  0.00000000000E+00 0.  1.
         11    1    4    4    0    0  0.76681377344E+01 -0.63620098755E+01  0.24220436646E+02  0.26189789185E+02  0.51100000000E-03 0. -1.
        -11    1    4    4    0    0  0.10390641937E+02 -0.62776986454E+00  0.10483946053E+02  0.14774053606E+02  0.51100000000E-03 0.  1.
         12    1    4    4    0    0 -0.72197297829E+01  0.44704036976E+01  0.44023177926E+01  0.95650096343E+01  0.00000000000E+00 0. -1.
</event>
<event>
 8    1  0.5829710E-012  0.9118800E+02  0.7816164E-02  0.1184000E+00
        -11   -1    0    0    0    0  0.00000000000E+00  0.00000000000E+00  0.45593999997E+02  0.45594000000E+02  0.51100000000E-03 0. -1.
         11   -1    0    0    0    0 -0.00000000000E+00 -0.00000000000E+00 -0.45593999997E+02  0.45594000000E+02  0.51100000000E-03 0.  1.
         23    2    1    2    0    0 -0.44408920985E-15  0.00000000000E+00  0.00000000000E+00  0.91188000000E+02  0.91188000000E+02 0.  0.
    9900012    2    3    3    0    0 -0.25031889311E+01 -0.26077081805E+02  0.31094781536E+02  0.50528860940E+02  0.30000003314E+02 0.  0.
        -12    1    3    3    0    0  0.25031889311E+01  0.26077081805E+02 -0.31094781536E+02  0.40659139060E+02  0.00000000000E+00 0.  1.
         11    1    4    4    0    0 -0.31259766274E+01  0.13160888759E+01 -0.14572672378E+00  0.33948573377E+01  0.51100000000E-03 0. -1.
        -11    1    4    4    0    0  0.40019190164E+01  0.28073866762E+01  0.48337556099E+01  0.68747341273E+01  0.51100000000E-03 0.  1.
         12    1    4    4    0    0 -0.33791313201E+01 -0.30200557357E+02  0.26406752650E+02  0.40259269475E+02  0.00000000000E+00 0. -1.
</event>
<event>
 8    1  0.5829710E-012  0.9118800E+02  0.7816164E-02  0.1184000E+00
        -11   -1    0    0    0    0  0.00000000000E+00  0.00000000000E+00  0.45593999997E+02  0.45594000000E+02  0.51100000000E-03 0.  1.
         11   -1    0    0    0    0 -0.00000000000E+00 -0.00000000000E+00 -0.45593999997E+02  0.45594000000E+02  0.51100000000E-03 0. -1.
         23    2    1    2    0    0 -0.13322676296E-14  0.00000000000E+00 -0.35527136788E-14  0.91188000000E+02  0.91188000000E+02 0.  0.
    9900012    2    3    3    0    0 -0.27475032451E+01  0.26541373555E+02 -0.30678537058E+02  0.50528856867E+02  0.29999990932E+02 0.  0.
         12    1    3    3    0    0  0.27475032451E+01 -0.26541373555E+02  0.30678537058E+02  0.40659143133E+02  0.00000000000E+00 0. -1.
         11    1    4    4    0    0  0.74442678342E+00  0.48733586340E+01 -0.26443484707E+01  0.55943162859E+01  0.51100000000E-03 0. -1.
        -11    1    4    4    0    0 -0.86006900255E+01  0.26562440103E+02 -0.20804049854E+02  0.34818724614E+02  0.51100000000E-03 0.  1.
         12    1    4    4    0    0  0.51087599970E+01 -0.48944251820E+01 -0.72301387336E+01  0.10115815967E+02  0.00000000000E+00 0. -1.
</event>
<event>
 8    1  0.5829710E-012  0.9118800E+02  0.7816164E-02  0.1184000E+00
        -11   -1    0    0    0    0  0.00000000000E+00  0.00000000000E+00  0.45593999997E+02  0.45594000000E+02  0.51100000000E-03 0. -1.
         11   -1    0    0    0    0 -0.00000000000E+00 -0.00000000000E+00 -0.45593999997E+02  0.45594000000E+02  0.51100000000E-03 0.  1.
         23    2    1    2    0    0  0.35527136788E-14  0.35527136788E-14  0.35527136788E-14  0.91188000000E+02  0.91188000000E+02 0.  0.
    9900012    2    3    3    0    0  0.20746158215E+02  0.27027787917E+02  0.22186970691E+02  0.50528855041E+02  0.29999985383E+02 0.  0.
        -12    1    3    3    0    0 -0.20746158215E+02 -0.27027787917E+02 -0.22186970691E+02  0.40659144959E+02  0.00000000000E+00 0.  1.
         11    1    4    4    0    0  0.10740482267E+02  0.15386264571E+02  0.43701191680E+01  0.19266370665E+02  0.51100000000E-03 0.  1.
        -11    1    4    4    0    0  0.21258963829E+01  0.97359571618E+01 -0.17178969942E+01  0.10112342341E+02  0.51100000000E-03 0. -1.
         12    1    4    4    0    0  0.78797795643E+01  0.19055661842E+01  0.19534748517E+02  0.21150142035E+02  0.00000000000E+00 0. -1.
</event>
<event>
 8    1  0.5829710E-012  0.9118800E+02  0.7816164E-02  0.1184000E+00
        -11   -1    0    0    0    0  0.00000000000E+00  0.00000000000E+00  0.45593999997E+02  0.45594000000E+02  0.51100000000E-03 0.  1.
         11   -1    0    0    0    0 -0.00000000000E+00 -0.00000000000E+00 -0.45593999997E+02  0.45594000000E+02  0.51100000000E-03 0. -1.
         23    2    1    2    0    0  0.00000000000E+00  0.00000000000E+00 -0.17763568394E-14  0.91188000000E+02  0.91188000000E+02 0.  0.
    9900012    2    3    3    0    0 -0.27224333184E+02  0.28935100503E+02 -0.86466464081E+01  0.50528820808E+02  0.29999881327E+02 0.  0.
         12    1    3    3    0    0  0.27224333184E+02 -0.28935100503E+02  0.86466464081E+01  0.40659179192E+02  0.00000000000E+00 0. -1.
         11    1    4    4    0    0 -0.65351986758E+01 -0.10621605290E+01 -0.81329408376E+01  0.10487217632E+02  0.51100000000E-03 0. -1.
        -11    1    4    4    0    0 -0.14181101479E+01 -0.10956202851E+01  0.27858991399E+01  0.33124997328E+01  0.51100000000E-03 0.  1.
        -12    1    4    4    0    0 -0.19271024361E+02  0.31092881317E+02 -0.32996047104E+01  0.36729103444E+02  0.00000000000E+00 0.  1.
</event>
<event>
 8    1  0.5829710E-012  0.9118800E+02  0.7816164E-02  0.1184000E+00
        -11   -1    0    0    0    0  0.00000000000E+00  0.00000000000E+00  0.45593999997E+02  0.45594000000E+02  0.51100000000E-03 0.  1.
         11   -1    0    0    0    0 -0.00000000000E+00 -0.00000000000E+00 -0.45593999997E+02  0.45594000000E+02  0.51100000000E-03 0. -1.
         23    2    1    2    0    0 -0.88817841970E-15  0.00000000000E+00  0.23314683517E-14  0.91188000000E+02  0.91188000000E+02 0.  0.
    9900012    2    3    3    0    0  0.76052011553E+01  0.39939655967E+02 -0.38768403440E+00  0.50528862008E+02  0.30000006559E+02 0.  0.
        -12    1    3    3    0    0 -0.76052011553E+01 -0.39939655967E+02  0.38768403440E+00  0.40659137992E+02  0.00000000000E+00 0.  1.
         11    1    4    4    0    0  0.10501793994E+02  0.65246749093E+01 -0.17457292974E+01  0.12486257678E+02  0.51100000000E-03 0. -1.
        -11    1    4    4    0    0 -0.15526147282E+01  0.11679516453E+02 -0.81025471448E+01  0.14299405148E+02  0.51100000000E-03 0.  1.
        -12    1    4    4    0    0 -0.13439781102E+01  0.21735464604E+02  0.94605924078E+01  0.23743199182E+02  0.00000000000E+00 0.  1.
</event>
<event>
 8    1  0.5829710E-012  0.9118800E+02  0.7816164E-02  0.1184000E+00
        -11   -1    0    0    0    0  0.00000000000E+00  0.00000000000E+00  0.45593999997E+02  0.45594000000E+02  0.51100000000E-03 0. -1.
         11   -1    0    0    0    0 -0.00000000000E+00 -0.00000000000E+00 -0.45593999997E+02  0.45594000000E+02  0.51100000000E-03 0.  1.
         23    2    1    2    0    0  0.17763568394E-14  0.44408920985E-15  0.00000000000E+00  0.91188000000E+02  0.91188000000E+02 0.  0.
    9900012    2    3    3    0    0 -0.24749397134E+01  0.66542317768E+00  0.40578287182E+02  0.50528861972E+02  0.30000006449E+02 0.  0.
        -12    1    3    3    0    0  0.24749397134E+01 -0.66542317768E+00 -0.40578287182E+02  0.40659138028E+02  0.00000000000E+00 0.  1.
         11    1    4    4    0    0 -0.45771426671E+01  0.48941441631E+01  0.60252325233E+01  0.90114543391E+01  0.51100000000E-03 0. -1.
        -11    1    4    4    0    0 -0.97061592517E+01  0.10360087343E+01  0.18385519164E+02  0.20816103303E+02  0.51100000000E-03 0.  1.
         12    1    4    4    0    0  0.11808362205E+02 -0.52647297197E+01  0.16167535494E+02  0.20701304330E+02  0.00000000000E+00 0. -1.
</event>
<event>
 8    1  0.5829710E-012  0.9118800E+02  0.7816164E-02  0.1184000E+00
        -11   -1    0    0    0    0  0.00000000000E+00  0.00000000000E+00  0.45593999997E+02  0.45594000000E+02  0.51100000000E-03 0. -1.
         11   -1    0    0    0    0 -0.00000000000E+00 -0.00000000000E+00 -0.45593999997E+02  0.45594000000E+02  0.51100000000E-03 0.  1.
         23    2    1    2    0    0 -0.35527136788E-14  0.00000000000E+00  0.35527136788E-14  0.91188000000E+02  0.91188000000E+02 0.  0.
    9900012    2    3    3    0    0 -0.19662906614E+02 -0.19690789406E+02 -0.29644751513E+02  0.50528826666E+02  0.29999899134E+02 0.  0.
         12    1    3    3    0    0  0.19662906614E+02  0.19690789406E+02  0.29644751513E+02  0.40659173334E+02  0.00000000000E+00 0. -1.
         11    1    4    4    0    0 -0.46347479207E+01 -0.10974539367E+02 -0.85604417448E+00  0.11943793974E+02  0.51100000000E-03 0. -1.
        -11    1    4    4    0    0 -0.79791717041E+01 -0.18505962161E+01 -0.31616113029E-01  0.81910248003E+01  0.51100000000E-03 0.  1.
        -12    1    4    4    0    0 -0.70489869895E+01 -0.68656538222E+01 -0.28757091225E+02  0.30394007892E+02  0.00000000000E+00 0.  1.
</event>
<event>
 8    1  0.5829710E-012  0.9118800E+02  0.7816164E-02  0.1184000E+00
        -11   -1    0    0    0    0  0.00000000000E+00  0.00000000000E+00  0.45593999997E+02  0.45594000000E+02  0.51100000000E-03 0. -1.
         11   -1    0    0    0    0 -0.00000000000E+00 -0.00000000000E+00 -0.45593999997E+02  0.45594000000E+02  0.51100000000E-03 0.  1.
         23    2    1    2    0    0 -0.35527136788E-14  0.00000000000E+00  0.00000000000E+00  0.91188000000E+02  0.91188000000E+02 0.  0.
    9900012    2    3    3    0    0  0.27764048068E+02 -0.24648780393E+02 -0.16575910053E+02  0.50528861617E+02  0.30000005370E+02 0.  0.
         12    1    3    3    0    0 -0.27764048068E+02  0.24648780393E+02  0.16575910053E+02  0.40659138383E+02  0.00000000000E+00 0. -1.
         11    1    4    4    0    0 -0.19531351271E+01 -0.48723836933E+01 -0.83865139967E+00  0.53158438757E+01  0.51100000000E-03 0. -1.
        -11    1    4    4    0    0  0.10749242016E+02 -0.17794951152E+02 -0.48881853261E+00  0.20795322412E+02  0.51100000000E-03 0.  1.
         12    1    4    4    0    0  0.18967941180E+02 -0.19814455475E+01 -0.15248440121E+02  0.24417695329E+02  0.00000000000E+00 0. -1.
</event>
<event>
 8    1  0.5829710E-012  0.9118800E+02  0.7816164E-02  0.1184000E+00
        -11   -1    0    0    0    0  0.00000000000E+00  0.00000000000E+00  0.45593999997E+02  0.45594000000E+02  0.51100000000E-03 0. -1.
         11   -1    0    0    0    0 -0.00000000000E+00 -0.00000000000E+00 -0.45593999997E+02  0.45594000000E+02  0.51100000000E-03 0.  1.
         23    2    1    2    0    0 -0.99920072216E-15  0.22204460493E-15  0.00000000000E+00  0.91188000000E+02  0.91188000000E+02 0.  0.
    9900012    2    3    3    0    0  0.73425070735E+00  0.10174416855E+01 -0.40639778741E+02  0.50528856775E+02  0.29999990654E+02 0.  0.
         12    1    3    3    0    0 -0.73425070735E+00 -0.10174416855E+01  0.40639778741E+02  0.40659143225E+02  0.00000000000E+00 0. -1.
         11    1    4    4    0    0 -0.68159059539E+01 -0.49404597764E+01 -0.85009011793E+01  0.11963696665E+02  0.51100000000E-03 0.  1.
        -11    1    4    4    0    0 -0.40931172783E+01 -0.14139654814E+01 -0.19130414602E+02  0.19614425063E+02  0.51100000000E-03 0. -1.
        -12    1    4    4    0    0  0.11643273940E+02  0.73718669433E+01 -0.13008462960E+02  0.18950735047E+02  0.00000000000E+00 0.  1.
</event>
<event>
 8    1  0.5829710E-012  0.9118800E+02  0.7816164E-02  0.1184000E+00
        -11   -1    0    0    0    0  0.00000000000E+00  0.00000000000E+00  0.45593999997E+02  0.45594000000E+02  0.51100000000E-03 0. -1.
         11   -1    0    0    0    0 -0.00000000000E+00 -0.00000000000E+00 -0.45593999997E+02  0.45594000000E+02  0.51100000000E-03 0.  1.
         23    2    1    2    0    0  0.71054273576E-14  0.44408920985E-15  0.13322676296E-14  0.91188000000E+02  0.91188000000E+02 0.  0.
    9900012    2    3    3    0    0  0.40436884079E+02  0.15385021061E+01  0.39575486801E+01  0.50528797176E+02  0.29999809495E+02 0.  0.
        -12    1    3    3    0    0 -0.40436884079E+02 -0.15385021061E+01 -0.39575486801E+01  0.40659202824E+02  0.00000000000E+00 0.  1.
         11    1    4    4    0    0  0.28269964303E+02  0.22101670995E+00  0.12574768020E+02  0.30941307683E+02  0.51100000000E-03 0. -1.
        -11    1    4    4    0    0  0.74393941839E+01  0.29648401992E+01  0.16391907232E+01  0.81744608213E+01  0.51100000000E-03 0.  1.
        -12    1    4    4    0    0  0.47275255918E+01 -0.16473548031E+01 -0.10256410064E+02  0.11413028672E+02  0.00000000000E+00 0.  1.
</event>
<event>
 8    1  0.5829710E-012  0.9118800E+02  0.7816164E-02  0.1184000E+00
        -11   -1    0    0    0    0  0.00000000000E+00  0.00000000000E+00  0.45593999997E+02  0.45594000000E+02  0.51100000000E-03 0. -1.
         11   -1    0    0    0    0 -0.00000000000E+00 -0.00000000000E+00 -0.45593999997E+02  0.45594000000E+02  0.51100000000E-03 0.  1.
         23    2    1    2    0    0 -0.17763568394E-14  0.35527136788E-14 -0.35527136788E-14  0.91188000000E+02  0.91188000000E+02 0.  0.
    9900012    2    3    3    0    0  0.49993023810E+01 -0.27584968634E+02 -0.29448978242E+02  0.50528857875E+02  0.29999993997E+02 0.  0.
         12    1    3    3    0    0 -0.49993023810E+01  0.27584968634E+02  0.29448978242E+02  0.40659142125E+02  0.00000000000E+00 0. -1.
         11    1    4    4    0    0  0.42346421134E+01 -0.96674754218E+01 -0.80549284793E+00  0.10584946568E+02  0.51100000000E-03 0. -1.
        -11    1    4    4    0    0  0.10735457067E+02 -0.77680711027E+01 -0.10621282990E+02  0.16982479786E+02  0.51100000000E-03 0.  1.
        -12    1    4    4    0    0 -0.99707967990E+01 -0.10149422109E+02 -0.18022202405E+02  0.22961431521E+02  0.00000000000E+00 0.  1.
</event>
<event>
 8    1  0.5829710E-012  0.9118800E+02  0.7816164E-02  0.1184000E+00
        -11   -1    0    0    0    0  0.00000000000E+00  0.00000000000E+00  0.45593999997E+02  0.45594000000E+02  0.51100000000E-03 0. -1.
         11   -1    0    0    0    0 -0.00000000000E+00 -0.00000000000E+00 -0.45593999997E+02  0.45594000000E+02  0.51100000000E-03 0.  1.
         23    2    1    2    0    0 -0.44408920985E-15  0.00000000000E+00  0.00000000000E+00  0.91188000000E+02  0.91188000000E+02 0.  0.
    9900012    2    3    3    0    0  0.27195575122E+01  0.17729580079E+02  0.36488798736E+02  0.50528850525E+02  0.29999971655E+02 0.  0.
        -12    1    3    3    0    0 -0.27195575122E+01 -0.17729580079E+02 -0.36488798736E+02  0.40659149475E+02  0.00000000000E+00 0.  1.
         11    1    4    4    0    0  0.29757484761E+01  0.10351917388E+01  0.20906677724E+02  0.21142749931E+02  0.51100000000E-03 0. -1.
        -11    1    4    4    0    0 -0.57343073087E+01  0.39808114354E+01  0.13751727681E+02  0.15422034706E+02  0.51100000000E-03 0.  1.
         12    1    4    4    0    0  0.54781163448E+01  0.12713576904E+02  0.18303933321E+01  0.13964065889E+02  0.00000000000E+00 0. -1.
</event>
<event>
 8    1  0.5829710E-012  0.9118800E+02  0.7816164E-02  0.1184000E+00
        -11   -1    0    0    0    0  0.00000000000E+00  0.00000000000E+00  0.45593999997E+02  0.45594000000E+02  0.51100000000E-03 0.  1.
         11   -1    0    0    0    0 -0.00000000000E+00 -0.00000000000E+00 -0.45593999997E+02  0.45594000000E+02  0.51100000000E-03 0. -1.
         23    2    1    2    0    0 -0.71054273576E-14  0.44408920985E-15  0.00000000000E+00  0.91188000000E+02  0.91188000000E+02 0.  0.
    9900012    2    3    3    0    0 -0.37789877784E+02 -0.30814975072E+01  0.14683167385E+02  0.50528857188E+02  0.29999991908E+02 0.  0.
        -12    1    3    3    0    0  0.37789877784E+02  0.30814975072E+01 -0.14683167385E+02  0.40659142812E+02  0.00000000000E+00 0.  1.
         11    1    4    4    0    0 -0.17756685259E+02  0.10730918378E+01  0.11098133456E+01  0.17823666385E+02  0.51100000000E-03 0. -1.
        -11    1    4    4    0    0 -0.17789873618E+02 -0.56463723104E+01 -0.20536901259E+00  0.18665564559E+02  0.51100000000E-03 0.  1.
         12    1    4    4    0    0 -0.22433189066E+01  0.14917829654E+01  0.13778723052E+02  0.14039626244E+02  0.00000000000E+00 0. -1.
</event>
<event>
 8    1  0.5829710E-012  0.9118800E+02  0.7816164E-02  0.1184000E+00
        -11   -1    0    0    0    0  0.00000000000E+00  0.00000000000E+00  0.45593999997E+02  0.45594000000E+02  0.51100000000E-03 0. -1.
         11   -1    0    0    0    0 -0.00000000000E+00 -0.00000000000E+00 -0.45593999997E+02  0.45594000000E+02  0.51100000000E-03 0.  1.
         23    2    1    2    0    0 -0.88817841970E-15 -0.35527136788E-14 -0.71054273576E-14  0.91188000000E+02  0.91188000000E+02 0.  0.
    9900012    2    3    3    0    0 -0.59853181638E+01 -0.24668666211E+02 -0.31761589653E+02  0.50528859535E+02  0.29999999041E+02 0.  0.
         12    1    3    3    0    0  0.59853181638E+01  0.24668666211E+02  0.31761589653E+02  0.40659140465E+02  0.00000000000E+00 0. -1.
         11    1    4    4    0    0 -0.35980763492E+00 -0.25889251779E+01 -0.11714199386E+02  0.12002269062E+02  0.51100000000E-03 0. -1.
        -11    1    4    4    0    0 -0.55593466750E+01 -0.23966958248E+02 -0.23859501406E+02  0.34272397504E+02  0.51100000000E-03 0.  1.
         12    1    4    4    0    0 -0.66163853858E-01  0.18872172149E+01  0.38121111395E+01  0.42541929684E+01  0.00000000000E+00 0. -1.
</event>
<event>
 8    1  0.5829710E-012  0.9118800E+02  0.7816164E-02  0.1184000E+00
        -11   -1    0    0    0    0  0.00000000000E+00  0.00000000000E+00  0.45593999997E+02  0.45594000000E+02  0.51100000000E-03 0. -1.
         11   -1    0    0    0    0 -0.00000000000E+00 -0.00000000000E+00 -0.45593999997E+02  0.45594000000E+02  0.51100000000E-03 0.  1.
         23    2    1    2    0    0  0.00000000000E+00  0.00000000000E+00 -0.35527136788E-14  0.91188000000E+02  0.91188000000E+02 0.  0.
    9900012    2    3    3    0    0 -0.15448685691E+02 -0.22396340523E+02  0.30214373134E+02  0.50528852170E+02  0.29999976656E+02 0.  0.
        -12    1    3    3    0    0  0.15448685691E+02  0.22396340523E+02 -0.30214373134E+02  0.40659147830E+02  0.00000000000E+00 0.  1.
         11    1    4    4    0    0 -0.34867211775E+01 -0.17286814591E+02  0.94483003845E+01  0.20006538024E+02  0.51100000000E-03 0. -1.
        -11    1    4    4    0    0 -0.26698575830E+01 -0.99717618823E+01  0.47148834390E+01  0.11348757670E+02  0.51100000000E-03 0.  1.
        -12    1    4    4    0    0 -0.92921069304E+01  0.48622359510E+01  0.16051189311E+02  0.19173556476E+02  0.00000000000E+00 0.  1.
</event>
<event>
 8    1  0.5829710E-012  0.9118800E+02  0.7816164E-02  0.1184000E+00
        -11   -1    0    0    0    0  0.00000000000E+00  0.00000000000E+00  0.45593999997E+02  0.45594000000E+02  0.51100000000E-03 0. -1.
         11   -1    0    0    0    0 -0.00000000000E+00 -0.00000000000E+00 -0.45593999997E+02  0.45594000000E+02  0.51100000000E-03 0.  1.
         23    2    1    2    0    0  0.24424906542E-14  0.17763568394E-14 -0.71054273576E-14  0.91188000000E+02  0.91188000000E+02 0.  0.
    9900012    2    3    3    0    0 -0.18352963675E+01  0.13055092525E+02 -0.38462510828E+02  0.50528825233E+02  0.29999894777E+02 0.  0.
         12    1    3    3    0    0  0.18352963675E+01 -0.13055092525E+02  0.38462510828E+02  0.40659174767E+02  0.00000000000E+00 0. -1.
         11    1    4    4    0    0  0.95127637305E+01  0.10534502295E+02 -0.87548850038E+01  0.16676822962E+02  0.51100000000E-03 0. -1.
        -11    1    4    4    0    0 -0.48230016055E+00 -0.59469730529E+00  0.92476653415E+00  0.12006130657E+01  0.51100000000E-03 0.  1.
        -12    1    4    4    0    0 -0.10865759937E+02  0.31152875346E+01 -0.30632392358E+02  0.32651389205E+02  0.00000000000E+00 0.  1.
</event>
<event>
 8    1  0.5829710E-012  0.9118800E+02  0.7816164E-02  0.1184000E+00
        -11   -1    0    0    0    0  0.00000000000E+00  0.00000000000E+00  0.45593999997E+02  0.45594000000E+02  0.51100000000E-03 0.  1.
         11   -1    0    0    0    0 -0.00000000000E+00 -0.00000000000E+00 -0.45593999997E+02  0.45594000000E+02  0.51100000000E-03 0. -1.
         23    2    1    2    0    0  0.00000000000E+00  0.00000000000E+00  0.00000000000E+00  0.91188000000E+02  0.91188000000E+02 0.  0.
    9900012    2    3    3    0    0 -0.37943031600E+02 -0.12888380880E+02 -0.68834236328E+01  0.50528861672E+02  0.30000005538E+02 0.  0.
         12    1    3    3    0    0  0.37943031600E+02  0.12888380880E+02  0.68834236328E+01  0.40659138328E+02  0.00000000000E+00 0. -1.
         11    1    4    4    0    0 -0.41319352647E+01  0.10510864667E+01  0.28083743368E+01  0.51053539024E+01  0.51100000000E-03 0. -1.
        -11    1    4    4    0    0 -0.16695377954E+02  0.37267939145E+01  0.35755045095E+01  0.17475951209E+02  0.51100000000E-03 0.  1.
        -12    1    4    4    0    0 -0.17115718381E+02 -0.17666261261E+02 -0.13267302479E+02  0.27947556561E+02  0.00000000000E+00 0.  1.
</event>
<event>
 8    1  0.5829710E-012  0.9118800E+02  0.7816164E-02  0.1184000E+00
        -11   -1    0    0    0    0  0.00000000000E+00  0.00000000000E+00  0.45593999997E+02  0.45594000000E+02  0.51100000000E-03 0.  1.
         11   -1    0    0    0    0 -0.00000000000E+00 -0.00000000000E+00 -0.45593999997E+02  0.45594000000E+02  0.51100000000E-03 0. -1.
         23    2    1    2    0    0  0.00000000000E+00  0.00000000000E+00  0.17763568394E-14  0.91188000000E+02  0.91188000000E+02 0.  0.
    9900012    2    3    3    0    0  0.37372832858E+02 -0.48345130213E+01 -0.15266464072E+02  0.50528854938E+02  0.29999985068E+02 0.  0.
        -12    1    3    3    0    0 -0.37372832858E+02  0.48345130213E+01  0.15266464072E+02  0.40659145062E+02  0.00000000000E+00 0.  1.
         11    1    4    4    0    0  0.34164377165E+02 -0.99721641633E+01 -0.38896298033E+01  0.35801926561E+02  0.51100000000E-03 0. -1.
        -11    1    4    4    0    0  0.41132918952E+01  0.10160963686E+01 -0.25546315978E+01  0.49475008748E+01  0.51100000000E-03 0.  1.
         12    1    4    4    0    0 -0.90483620290E+00  0.41215547734E+01 -0.88222026708E+01  0.97794275021E+01  0.00000000000E+00 0. -1.
</event>
<event>
 8    1  0.5829710E-012  0.9118800E+02  0.7816164E-02  0.1184000E+00
        -11   -1    0    0    0    0  0.00000000000E+00  0.00000000000E+00  0.45593999997E+02  0.45594000000E+02  0.51100000000E-03 0. -1.
         11   -1    0    0    0    0 -0.00000000000E+00 -0.00000000000E+00 -0.45593999997E+02  0.45594000000E+02  0.51100000000E-03 0.  1.
         23    2    1    2    0    0 -0.17763568394E-14 -0.17763568394E-14  0.71054273576E-14  0.91188000000E+02  0.91188000000E+02 0.  0.
    9900012    2    3    3    0    0 -0.14993215577E+02 -0.11489941955E+02  0.36004867337E+02  0.50528858944E+02  0.29999997245E+02 0.  0.
        -12    1    3    3    0    0  0.14993215577E+02  0.11489941955E+02 -0.36004867337E+02  0.40659141056E+02  0.00000000000E+00 0.  1.
         11    1    4    4    0    0 -0.77836567741E-01 -0.98903607867E+01  0.18339791184E+02  0.20836824037E+02  0.51100000000E-03 0. -1.
        -11    1    4    4    0    0 -0.13497674469E+02 -0.83100858537E+01  0.77708255918E+01  0.17653058477E+02  0.51100000000E-03 0.  1.
         12    1    4    4    0    0 -0.14177045405E+01  0.67105046852E+01  0.98942505614E+01  0.12038976429E+02  0.00000000000E+00 0. -1.
</event>
<event>
 8    1  0.5829710E-012  0.9118800E+02  0.7816164E-02  0.1184000E+00
        -11   -1    0    0    0    0  0.00000000000E+00  0.00000000000E+00  0.45593999997E+02  0.45594000000E+02  0.51100000000E-03 0. -1.
         11   -1    0    0    0    0 -0.00000000000E+00 -0.00000000000E+00 -0.45593999997E+02  0.45594000000E+02  0.51100000000E-03 0.  1.
         23    2    1    2    0    0  0.00000000000E+00  0.00000000000E+00  0.00000000000E+00  0.91188000000E+02  0.91188000000E+02 0.  0.
    9900012    2    3    3    0    0 -0.89386599539E+01  0.16270903580E+02 -0.36173530120E+02  0.50528853103E+02  0.29999979492E+02 0.  0.
         12    1    3    3    0    0  0.89386599539E+01 -0.16270903580E+02  0.36173530120E+02  0.40659146897E+02  0.00000000000E+00 0. -1.
         11    1    4    4    0    0 -0.44225442050E+01 -0.36174609808E+01  0.70167269480E+00  0.57564977221E+01  0.51100000000E-03 0. -1.
        -11    1    4    4    0    0  0.27660942778E+01  0.28801696155E+01 -0.58225741371E+00  0.40355518240E+01  0.51100000000E-03 0.  1.
         12    1    4    4    0    0 -0.72822100267E+01  0.17008194945E+02 -0.36292945401E+02  0.40736803557E+02  0.00000000000E+00 0. -1.
</event>
<event>
 8    1  0.5829710E-012  0.9118800E+02  0.7816164E-02  0.1184000E+00
        -11   -1    0    0    0    0  0.00000000000E+00  0.00000000000E+00  0.45593999997E+02  0.45594000000E+02  0.51100000000E-03 0. -1.
         11   -1    0    0    0    0 -0.00000000000E+00 -0.00000000000E+00 -0.45593999997E+02  0.45594000000E+02  0.51100000000E-03 0.  1.
         23    2    1    2    0    0  0.44408920985E-15  0.00000000000E+00  0.71054273576E-14  0.91188000000E+02  0.91188000000E+02 0.  0.
    9900012    2    3    3    0    0  0.19816128848E+01  0.97354704786E+01  0.39426631431E+02  0.50528862761E+02  0.30000008848E+02 0.  0.
        -12    1    3    3    0    0 -0.19816128848E+01 -0.97354704786E+01 -0.39426631431E+02  0.40659137239E+02  0.00000000000E+00 0.  1.
         11    1    4    4    0    0  0.24735911329E+01  0.19283124809E+01  0.20611739437E+02  0.20849001055E+02  0.51100000000E-03 0. -1.
        -11    1    4    4    0    0 -0.10912007845E+02  0.24013674332E+01  0.10075744384E+02  0.15045235323E+02  0.51100000000E-03 0.  1.
         12    1    4    4    0    0  0.10420029597E+02  0.54057905645E+01  0.87391476097E+01  0.14634626383E+02  0.00000000000E+00 0. -1.
</event>
<event>
 8    1  0.5829710E-012  0.9118800E+02  0.7816164E-02  0.1184000E+00
        -11   -1    0    0    0    0  0.00000000000E+00  0.00000000000E+00  0.45593999997E+02  0.45594000000E+02  0.51100000000E-03 0. -1.
         11   -1    0    0    0    0 -0.00000000000E+00 -0.00000000000E+00 -0.45593999997E+02  0.45594000000E+02  0.51100000000E-03 0.  1.
         23    2    1    2    0    0  0.00000000000E+00 -0.17763568394E-14  0.00000000000E+00  0.91188000000E+02  0.91188000000E+02 0.  0.
    9900012    2    3    3    0    0 -0.96640545841E+01  0.11141689815E+02 -0.37889764569E+02  0.50528862503E+02  0.30000008063E+02 0.  0.
         12    1    3    3    0    0  0.96640545841E+01 -0.11141689815E+02  0.37889764569E+02  0.40659137497E+02  0.00000000000E+00 0. -1.
         11    1    4    4    0    0  0.36382381882E+01  0.63730155441E+01 -0.59686106900E+01  0.94591975383E+01  0.51100000000E-03 0.  1.
        -11    1    4    4    0    0 -0.41379415054E+01  0.98319750980E+01 -0.42478362746E+01  0.11481916543E+02  0.51100000000E-03 0. -1.
        -12    1    4    4    0    0 -0.91643512669E+01 -0.50633008267E+01 -0.27673317604E+02  0.29587748421E+02  0.00000000000E+00 0.  1.
</event>
<event>
 8    1  0.5829710E-012  0.9118800E+02  0.7816164E-02  0.1184000E+00
        -11   -1    0    0    0    0  0.00000000000E+00  0.00000000000E+00  0.45593999997E+02  0.45594000000E+02  0.51100000000E-03 0. -1.
         11   -1    0    0    0    0 -0.00000000000E+00 -0.00000000000E+00 -0.45593999997E+02  0.45594000000E+02  0.51100000000E-03 0.  1.
         23    2    1    2    0    0  0.35527136788E-14  0.22204460493E-15  0.00000000000E+00  0.91188000000E+02  0.91188000000E+02 0.  0.
    9900012    2    3    3    0    0  0.21432257165E+02  0.19793297162E+01 -0.34495018433E+02  0.50528859699E+02  0.29999999540E+02 0.  0.
         12    1    3    3    0    0 -0.21432257165E+02 -0.19793297162E+01  0.34495018433E+02  0.40659140301E+02  0.00000000000E+00 0. -1.
         11    1    4    4    0    0  0.48380406851E+00  0.36790509486E+01 -0.11625564039E+01  0.38885755634E+01  0.51100000000E-03 0. -1.
        -11    1    4    4    0    0  0.11206932861E+02 -0.40031115701E+01 -0.66235938036E-01  0.11900614852E+02  0.51100000000E-03 0.  1.
        -12    1    4    4    0    0  0.97415202358E+01  0.23033903377E+01 -0.33266226091E+02  0.34739669283E+02  0.00000000000E+00 0.  1.
</event>
<event>
 8    1  0.5829710E-012  0.9118800E+02  0.7816164E-02  0.1184000E+00
        -11   -1    0    0    0    0  0.00000000000E+00  0.00000000000E+00  0.45593999997E+02  0.45594000000E+02  0.51100000000E-03 0. -1.
         11   -1    0    0    0    0 -0.00000000000E+00 -0.00000000000E+00 -0.45593999997E+02  0.45594000000E+02  0.51100000000E-03 0.  1.
         23    2    1    2    0    0  0.35527136788E-14 -0.17763568394E-14  0.71054273576E-14  0.91188000000E+02  0.91188000000E+02 0.  0.
    9900012    2    3    3    0    0  0.93972656073E+01 -0.13876783547E+02  0.37044465540E+02  0.50528854047E+02  0.29999982362E+02 0.  0.
        -12    1    3    3    0    0 -0.93972656073E+01  0.13876783547E+02 -0.37044465540E+02  0.40659145953E+02  0.00000000000E+00 0.  1.
         11    1    4    4    0    0  0.13282987287E+02 -0.12690928109E+02  0.20355854061E+02  0.27420032866E+02  0.51100000000E-03 0. -1.
        -11    1    4    4    0    0  0.39282055072E+01  0.32267183909E+01  0.11893297793E+02  0.12934181178E+02  0.51100000000E-03 0.  1.
        -12    1    4    4    0    0 -0.78139271865E+01 -0.44125738286E+01  0.47953136855E+01  0.10174640004E+02  0.00000000000E+00 0.  1.
</event>
<event>
 8    1  0.5829710E-012  0.9118800E+02  0.7816164E-02  0.1184000E+00
        -11   -1    0    0    0    0  0.00000000000E+00  0.00000000000E+00  0.45593999997E+02  0.45594000000E+02  0.51100000000E-03 0. -1.
         11   -1    0    0    0    0 -0.00000000000E+00 -0.00000000000E+00 -0.45593999997E+02  0.45594000000E+02  0.51100000000E-03 0.  1.
         23    2    1    2    0    0  0.00000000000E+00 -0.44408920985E-15  0.00000000000E+00  0.91188000000E+02  0.91188000000E+02 0.  0.
    9900012    2    3    3    0    0 -0.18235983922E+02  0.16666896467E+01 -0.36302027569E+02  0.50528853801E+02  0.29999981614E+02 0.  0.
         12    1    3    3    0    0  0.18235983922E+02 -0.16666896467E+01  0.36302027569E+02  0.40659146199E+02  0.00000000000E+00 0. -1.
         11    1    4    4    0    0  0.48025027860E+01 -0.60254412147E+01 -0.73721216655E+01  0.10663871387E+02  0.51100000000E-03 0.  1.
        -11    1    4    4    0    0 -0.55162588231E+00 -0.25855151647E+01 -0.36251499945E+01  0.44867463183E+01  0.51100000000E-03 0. -1.
        -12    1    4    4    0    0 -0.22486860826E+02  0.10277646026E+02 -0.25304755909E+02  0.35378236096E+02  0.00000000000E+00 0.  1.
</event>
<event>
 8    1  0.5829710E-012  0.9118800E+02  0.7816164E-02  0.1184000E+00
        -11   -1    0    0    0    0  0.00000000000E+00  0.00000000000E+00  0.45593999997E+02  0.45594000000E+02  0.51100000000E-03 0. -1.
         11   -1    0    0    0    0 -0.00000000000E+00 -0.00000000000E+00 -0.45593999997E+02  0.45594000000E+02  0.51100000000E-03 0.  1.
         23    2    1    2    0    0  0.00000000000E+00 -0.17763568394E-14  0.00000000000E+00  0.91188000000E+02  0.91188000000E+02 0.  0.
    9900012    2    3    3    0    0  0.84763273595E+01  0.10590918844E+02  0.38329487979E+02  0.50528864050E+02  0.30000012766E+02 0.  0.
        -12    1    3    3    0    0 -0.84763273595E+01 -0.10590918844E+02 -0.38329487979E+02  0.40659135950E+02  0.00000000000E+00 0.  1.
         11    1    4    4    0    0  0.11990025261E+02  0.80073227723E+01  0.16242176236E+02  0.21718338171E+02  0.51100000000E-03 0. -1.
        -11    1    4    4    0    0  0.54616878166E+01  0.63078259700E+01  0.13348481275E+02  0.15741685261E+02  0.51100000000E-03 0.  1.
        -12    1    4    4    0    0 -0.89753857184E+01 -0.37242298988E+01  0.87388304686E+01  0.13068840618E+02  0.00000000000E+00 0.  1.
</event>
<event>
 8    1  0.5829710E-012  0.9118800E+02  0.7816164E-02  0.1184000E+00
        -11   -1    0    0    0    0  0.00000000000E+00  0.00000000000E+00  0.45593999997E+02  0.45594000000E+02  0.51100000000E-03 0. -1.
         11   -1    0    0    0    0 -0.00000000000E+00 -0.00000000000E+00 -0.45593999997E+02  0.45594000000E+02  0.51100000000E-03 0.  1.
         23    2    1    2    0    0  0.00000000000E+00  0.00000000000E+00  0.00000000000E+00  0.91188000000E+02  0.91188000000E+02 0.  0.
    9900012    2    3    3    0    0  0.40536894719E+01 -0.16513645549E+02 -0.36932815895E+02  0.50528858622E+02  0.29999996266E+02 0.  0.
         12    1    3    3    0    0 -0.40536894719E+01  0.16513645549E+02  0.36932815895E+02  0.40659141378E+02  0.00000000000E+00 0. -1.
         11    1    4    4    0    0 -0.63534571258E+01 -0.10098447713E+02 -0.13573060756E+02  0.18071332054E+02  0.51100000000E-03 0.  1.
        -11    1    4    4    0    0 -0.49101869582E+01  0.11889618111E+01 -0.30273917403E+01  0.58897085805E+01  0.51100000000E-03 0. -1.
         12    1    4    4    0    0  0.15317333556E+02 -0.76041596473E+01 -0.20332363399E+02  0.26567817987E+02  0.00000000000E+00 0. -1.
</event>
<event>
 8    1  0.5829710E-012  0.9118800E+02  0.7816164E-02  0.1184000E+00
        -11   -1    0    0    0    0  0.00000000000E+00  0.00000000000E+00  0.45593999997E+02  0.45594000000E+02  0.51100000000E-03 0. -1.
         11   -1    0    0    0    0 -0.00000000000E+00 -0.00000000000E+00 -0.45593999997E+02  0.45594000000E+02  0.51100000000E-03 0.  1.
         23    2    1    2    0    0 -0.44408920985E-15  0.00000000000E+00  0.00000000000E+00  0.91188000000E+02  0.91188000000E+02 0.  0.
    9900012    2    3    3    0    0  0.24965902487E+01  0.66621275449E+01  0.40031850758E+02  0.50528856116E+02  0.29999988649E+02 0.  0.
        -12    1    3    3    0    0 -0.24965902487E+01 -0.66621275449E+01 -0.40031850758E+02  0.40659143884E+02  0.00000000000E+00 0.  1.
         11    1    4    4    0    0  0.75145008924E+01  0.24475796994E+01  0.37159352915E+02  0.37990470902E+02  0.51100000000E-03 0. -1.
        -11    1    4    4    0    0  0.23547224860E+01  0.24246697895E+01 -0.15913706530E+01  0.37358001005E+01  0.51100000000E-03 0.  1.
        -12    1    4    4    0    0 -0.73726331298E+01  0.17898780560E+01  0.44638684957E+01  0.88025851128E+01  0.00000000000E+00 0.  1.
</event>
<event>
 8    1  0.5829710E-012  0.9118800E+02  0.7816164E-02  0.1184000E+00
        -11   -1    0    0    0    0  0.00000000000E+00  0.00000000000E+00  0.45593999997E+02  0.45594000000E+02  0.51100000000E-03 0. -1.
         11   -1    0    0    0    0 -0.00000000000E+00 -0.00000000000E+00 -0.45593999997E+02  0.45594000000E+02  0.51100000000E-03 0.  1.
         23    2    1    2    0    0  0.35527136788E-14 -0.17763568394E-14  0.35527136788E-14  0.91188000000E+02  0.91188000000E+02 0.  0.
    9900012    2    3    3    0    0  0.25400782540E+02 -0.40020970460E+01  0.31495224201E+02  0.50528859799E+02  0.29999999844E+02 0.  0.
        -12    1    3    3    0    0 -0.25400782540E+02  0.40020970460E+01 -0.31495224201E+02  0.40659140201E+02  0.00000000000E+00 0.  1.
         11    1    4    4    0    0 -0.64161981368E+00  0.80937579701E+01  0.94314774821E+01  0.12444812647E+02  0.51100000000E-03 0. -1.
        -11    1    4    4    0    0  0.34642622516E+01  0.15691938826E+01  0.19267555071E+00  0.38079661918E+01  0.51100000000E-03 0.  1.
         12    1    4    4    0    0  0.22578140102E+02 -0.13665048899E+02  0.21871071169E+02  0.34276080960E+02  0.00000000000E+00 0. -1.
</event>
