<event>
 7    1  0.3568800E-013  0.7246090E+02  0.7816164E-02  0.1226710E+00
        -11   -1    0    0    0    0  0.00000000000E+00  0.00000000000E+00  0.45593999997E+02  0.45594000000E+02  0.51100000000E-03 0.  1.
         11   -1    0    0    0    0 -0.00000000000E+00 -0.00000000000E+00 -0.45593999997E+02  0.45594000000E+02  0.51100000000E-03 0. -1.
    9900012    2    1    2    0    0  0.53715382398E+01 -0.99874172792E+01 -0.14903096086E+02  0.72460901989E+02  0.69999129403E+02 0.  0.
        -12    1    1    2    0    0 -0.53715382398E+01  0.99874172792E+01  0.14903096086E+02  0.18727098011E+02  0.00000000000E+00 0.  1.
         11    1    3    3    0    0  0.13743898933E+02 -0.31798078555E+02  0.43250998154E+01  0.34910156780E+02  0.51100000000E-03 0. -1.
        -11    1    3    3    0    0 -0.56388336981E+01 -0.34030466403E+01 -0.19707983441E+01  0.68746795042E+01  0.51100000000E-03 0.  1.
         12    1    3    3    0    0 -0.27335269956E+01  0.25213707916E+02 -0.17257397557E+02  0.30676065705E+02  0.00000000000E+00 0. -1.
</event>
<event>
 7    1  0.3568800E-013  0.7246106E+02  0.7816164E-02  0.1226709E+00
        -11   -1    0    0    0    0  0.00000000000E+00  0.00000000000E+00  0.45593999997E+02  0.45594000000E+02  0.51100000000E-03 0. -1.
         11   -1    0    0    0    0 -0.00000000000E+00 -0.00000000000E+00 -0.45593999997E+02  0.45594000000E+02  0.51100000000E-03 0.  1.
    9900012    2    1    2    0    0  0.14514724800E+02  0.11820844137E+02 -0.53714225227E+00  0.72461064481E+02  0.69999341082E+02 0.  0.
        -12    1    1    2    0    0 -0.14514724800E+02 -0.11820844137E+02  0.53714225227E+00  0.18726935519E+02  0.00000000000E+00 0.  1.
         11    1    3    3    0    0  0.54735217690E+01 -0.13002865887E+02 -0.13606568735E-01  0.14107946244E+02  0.51100000000E-03 0. -1.
        -11    1    3    3    0    0 -0.16171870172E+02 -0.29595491980E+01 -0.10529952607E+02  0.19523529867E+02  0.51100000000E-03 0.  1.
         12    1    3    3    0    0  0.25213073203E+02  0.27783259222E+02  0.10006416923E+02  0.38829588370E+02  0.00000000000E+00 0. -1.
</event>
<event>
 7    1  0.4034496E-013  0.7246154E+02  0.7816164E-02  0.1226708E+00
        -11   -1    0    0    0    0  0.00000000000E+00  0.00000000000E+00  0.45593999997E+02  0.45594000000E+02  0.51100000000E-03 0. -1.
         11   -1    0    0    0    0 -0.00000000000E+00 -0.00000000000E+00 -0.45593999997E+02  0.45594000000E+02  0.51100000000E-03 0.  1.
    9900012    2    1    2    0    0 -0.17274643684E+02 -0.47490868355E+01  0.54509867075E+01  0.72461537540E+02  0.69999957331E+02 0.  0.
        -12    1    1    2    0    0  0.17274643684E+02  0.47490868355E+01 -0.54509867075E+01  0.18726462460E+02  0.00000000000E+00 0.  1.
         11    1    3    3    0    0  0.15373810481E+01  0.58596971777E+01 -0.18368019357E+00  0.60608027667E+01  0.51100000000E-03 0. -1.
        -11    1    3    3    0    0  0.71752272283E+01  0.78574631047E+01 -0.21853481845E+02  0.24306342408E+02  0.51100000000E-03 0.  1.
         12    1    3    3    0    0 -0.25987251961E+02 -0.18466247118E+02  0.27488148746E+02  0.42094392365E+02  0.00000000000E+00 0. -1.
</event>
<event>
 7    1  0.3568800E-013  0.7246157E+02  0.7816164E-02  0.1226708E+00
        -11   -1    0    0    0    0  0.00000000000E+00  0.00000000000E+00  0.45593999997E+02  0.45594000000E+02  0.51100000000E-03 0.  1.
         11   -1    0    0    0    0 -0.00000000000E+00 -0.00000000000E+00 -0.45593999997E+02  0.45594000000E+02  0.51100000000E-03 0. -1.
    9900012    2    1    2    0    0 -0.40649889085E+01 -0.92164036657E+00 -0.18256662393E+02  0.72461567411E+02  0.69999996244E+02 0.  0.
        -12    1    1    2    0    0  0.40649889085E+01  0.92164036657E+00  0.18256662393E+02  0.18726432589E+02  0.00000000000E+00 0.  1.
         11    1    3    3    0    0 -0.18537424820E+01  0.19097750888E+02 -0.80639980974E+01  0.20813181298E+02  0.51100000000E-03 0. -1.
        -11    1    3    3    0    0  0.15799420527E+02 -0.16572664138E+00  0.94549226194E+01  0.18413166928E+02  0.51100000000E-03 0.  1.
         12    1    3    3    0    0 -0.18010666954E+02 -0.19853664613E+02 -0.19647586915E+02  0.33235219185E+02  0.00000000000E+00 0. -1.
</event>
<event>
 7    1  0.3568800E-013  0.7246141E+02  0.7816164E-02  0.1226708E+00
        -11   -1    0    0    0    0  0.00000000000E+00  0.00000000000E+00  0.45593999997E+02  0.45594000000E+02  0.51100000000E-03 0. -1.
         11   -1    0    0    0    0 -0.00000000000E+00 -0.00000000000E+00 -0.45593999997E+02  0.45594000000E+02  0.51100000000E-03 0.  1.
    9900012    2    1    2    0    0 -0.86364242124E+01 -0.98290012834E+01  0.13397314809E+02  0.72461411056E+02  0.69999792562E+02 0.  0.
        -12    1    1    2    0    0  0.86364242124E+01  0.98290012834E+01 -0.13397314809E+02  0.18726588944E+02  0.00000000000E+00 0.  1.
         11    1    3    3    0    0 -0.30474374677E+02 -0.70606315239E+01  0.13106265871E+02  0.33916282739E+02  0.51100000000E-03 0. -1.
        -11    1    3    3    0    0 -0.54482711116E+01  0.64400909061E+01  0.43016689222E+01  0.94690434977E+01  0.51100000000E-03 0.  1.
        -12    1    3    3    0    0  0.27286221576E+02 -0.92084606655E+01 -0.40106199838E+01  0.29076084819E+02  0.00000000000E+00 0.  1.
</event>
<event>
 7    1  0.3568800E-013  0.7246139E+02  0.7816164E-02  0.1226708E+00
        -11   -1    0    0    0    0  0.00000000000E+00  0.00000000000E+00  0.45593999997E+02  0.45594000000E+02  0.51100000000E-03 0. -1.
         11   -1    0    0    0    0 -0.00000000000E+00 -0.00000000000E+00 -0.45593999997E+02  0.45594000000E+02  0.51100000000E-03 0.  1.
    9900012    2    1    2    0    0 -0.24273000938E+00 -0.16606992053E+02  0.86507014829E+01  0.72461394887E+02  0.69999771499E+02 0.  0.
        -12    1    1    2    0    0  0.24273000938E+00  0.16606992053E+02 -0.86507014829E+01  0.18726605113E+02  0.00000000000E+00 0.  1.
         11    1    3    3    0    0 -0.19253157350E+02 -0.10300104470E+02  0.33697333689E+01  0.22093694197E+02  0.51100000000E-03 0. -1.
        -11    1    3    3    0    0 -0.68134278349E+01  0.13940087314E+02  0.79692064188E+01  0.17442966617E+02  0.51100000000E-03 0.  1.
        -12    1    3    3    0    0  0.25823855175E+02 -0.20246974898E+02 -0.26882383048E+01  0.32924734074E+02  0.00000000000E+00 0.  1.
</event>
<event>
 7    1  0.3568800E-013  0.7246156E+02  0.7816164E-02  0.1226708E+00
        -11   -1    0    0    0    0  0.00000000000E+00  0.00000000000E+00  0.45593999997E+02  0.45594000000E+02  0.51100000000E-03 0. -1.
         11   -1    0    0    0    0 -0.00000000000E+00 -0.00000000000E+00 -0.45593999997E+02  0.45594000000E+02  0.51100000000E-03 0.  1.
    9900012    2    1    2    0    0  0.10756345641E+02  0.14461710205E+02 -0.50832560333E+01  0.72461560790E+02  0.69999987618E+02 0.  0.
        -12    1    1    2    0    0 -0.10756345641E+02 -0.14461710205E+02  0.50832560333E+01  0.18726439210E+02  0.00000000000E+00 0.  1.
         11    1    3    3    0    0 -0.14473356030E+02  0.29340252295E+01  0.22219928329E+02  0.26679800487E+02  0.51100000000E-03 0. -1.
        -11    1    3    3    0    0  0.12069399540E+01  0.44738716963E+01  0.37011984881E+01  0.59305229548E+01  0.51100000000E-03 0.  1.
        -12    1    3    3    0    0  0.24022761717E+02  0.70538132792E+01 -0.31004382850E+02  0.39851237348E+02  0.00000000000E+00 0.  1.
</event>
<event>
 7    1  0.3568800E-013  0.7246158E+02  0.7816164E-02  0.1226708E+00
        -11   -1    0    0    0    0  0.00000000000E+00  0.00000000000E+00  0.45593999997E+02  0.45594000000E+02  0.51100000000E-03 0.  1.
         11   -1    0    0    0    0 -0.00000000000E+00 -0.00000000000E+00 -0.45593999997E+02  0.45594000000E+02  0.51100000000E-03 0. -1.
    9900012    2    1    2    0    0 -0.96297039025E+00  0.11487323452E+02 -0.14757805294E+02  0.72461582052E+02  0.70000015317E+02 0.  0.
        -12    1    1    2    0    0  0.96297039025E+00 -0.11487323452E+02  0.14757805294E+02  0.18726417948E+02  0.00000000000E+00 0.  1.
         11    1    3    3    0    0 -0.46388429231E+01 -0.64468470923E+01  0.25546493300E+01  0.83430770437E+01  0.51100000000E-03 0. -1.
        -11    1    3    3    0    0 -0.10863811667E+02  0.14634549514E+02  0.18105423738E+02  0.25690442044E+02  0.51100000000E-03 0.  1.
         12    1    3    3    0    0  0.14539684199E+02  0.32996210308E+01 -0.35417878362E+02  0.38428062965E+02  0.00000000000E+00 0. -1.
</event>
<event>
 7    1  0.3568800E-013  0.7246161E+02  0.7816164E-02  0.1226708E+00
        -11   -1    0    0    0    0  0.00000000000E+00  0.00000000000E+00  0.45593999997E+02  0.45594000000E+02  0.51100000000E-03 0. -1.
         11   -1    0    0    0    0 -0.00000000000E+00 -0.00000000000E+00 -0.45593999997E+02  0.45594000000E+02  0.51100000000E-03 0.  1.
    9900012    2    1    2    0    0 -0.17601592931E+02 -0.46105262972E+01  0.44277244963E+01  0.72461607644E+02  0.70000048655E+02 0.  0.
        -12    1    1    2    0    0  0.17601592931E+02  0.46105262972E+01 -0.44277244963E+01  0.18726392356E+02  0.00000000000E+00 0.  1.
         11    1    3    3    0    0  0.48153118752E+01 -0.18951249852E+02  0.14930015738E+02  0.24601676154E+02  0.51100000000E-03 0. -1.
        -11    1    3    3    0    0 -0.15378557511E+01 -0.33507762838E+01  0.11922300620E+02  0.12479341102E+02  0.51100000000E-03 0.  1.
        -12    1    3    3    0    0 -0.20879049055E+02  0.17691499838E+02 -0.22424591862E+02  0.35380590387E+02  0.00000000000E+00 0.  1.
</event>
<event>
 7    1  0.3568800E-013  0.7246156E+02  0.7816164E-02  0.1226708E+00
        -11   -1    0    0    0    0  0.00000000000E+00  0.00000000000E+00  0.45593999997E+02  0.45594000000E+02  0.51100000000E-03 0. -1.
         11   -1    0    0    0    0 -0.00000000000E+00 -0.00000000000E+00 -0.45593999997E+02  0.45594000000E+02  0.51100000000E-03 0.  1.
    9900012    2    1    2    0    0  0.47703359231E+01 -0.16185479050E+02  0.81211891217E+01  0.72461560145E+02  0.69999986779E+02 0.  0.
        -12    1    1    2    0    0 -0.47703359231E+01  0.16185479050E+02 -0.81211891217E+01  0.18726439855E+02  0.00000000000E+00 0.  1.
         11    1    3    3    0    0 -0.28569219082E+01  0.18121646306E+02  0.61646058345E+01  0.19353512162E+02  0.51100000000E-03 0. -1.
        -11    1    3    3    0    0 -0.10970420528E+02 -0.12992067587E+02  0.14325394027E+02  0.22234227242E+02  0.51100000000E-03 0.  1.
        -12    1    3    3    0    0  0.18597678360E+02 -0.21315057769E+02 -0.12368810740E+02  0.30873820741E+02  0.00000000000E+00 0.  1.
</event>
<event>
 7    1  0.3568800E-013  0.7246150E+02  0.7816164E-02  0.1226708E+00
        -11   -1    0    0    0    0  0.00000000000E+00  0.00000000000E+00  0.45593999997E+02  0.45594000000E+02  0.51100000000E-03 0.  1.
         11   -1    0    0    0    0 -0.00000000000E+00 -0.00000000000E+00 -0.45593999997E+02  0.45594000000E+02  0.51100000000E-03 0. -1.
    9900012    2    1    2    0    0  0.83467837412E+01  0.16423634900E+02 -0.33581639238E+01  0.72461498803E+02  0.69999906869E+02 0.  0.
        -12    1    1    2    0    0 -0.83467837412E+01 -0.16423634900E+02  0.33581639238E+01  0.18726501197E+02  0.00000000000E+00 0.  1.
         11    1    3    3    0    0  0.30468528688E+02  0.28128383232E+02 -0.45501992050E+01  0.41716201850E+02  0.51100000000E-03 0. -1.
        -11    1    3    3    0    0 -0.76928011871E+01  0.35830906745E+01 -0.35441292230E+01  0.91966614104E+01  0.51100000000E-03 0.  1.
        -12    1    3    3    0    0 -0.14428943760E+02 -0.15287839007E+02  0.47361645043E+01  0.21548635542E+02  0.00000000000E+00 0.  1.
</event>
<event>
 7    1  0.3568800E-013  0.7246151E+02  0.7816164E-02  0.1226708E+00
        -11   -1    0    0    0    0  0.00000000000E+00  0.00000000000E+00  0.45593999997E+02  0.45594000000E+02  0.51100000000E-03 0. -1.
         11   -1    0    0    0    0 -0.00000000000E+00 -0.00000000000E+00 -0.45593999997E+02  0.45594000000E+02  0.51100000000E-03 0.  1.
    9900012    2    1    2    0    0 -0.10375598943E+02  0.42244944721E+01  0.15006061419E+02  0.72461513777E+02  0.69999926375E+02 0.  0.
        -12    1    1    2    0    0  0.10375598943E+02 -0.42244944721E+01 -0.15006061419E+02  0.18726486223E+02  0.00000000000E+00 0.  1.
         11    1    3    3    0    0  0.47292512327E+01  0.40173885632E+01 -0.10927691399E+01  0.63007438247E+01  0.51100000000E-03 0. -1.
        -11    1    3    3    0    0  0.10932204896E+01 -0.18581088294E+02 -0.16720805634E+02  0.25020737690E+02  0.51100000000E-03 0.  1.
         12    1    3    3    0    0 -0.16198070665E+02  0.18788194203E+02  0.32819636193E+02  0.41140032262E+02  0.00000000000E+00 0. -1.
</event>
<event>
 7    1  0.3568800E-013  0.7246160E+02  0.7816164E-02  0.1226708E+00
        -11   -1    0    0    0    0  0.00000000000E+00  0.00000000000E+00  0.45593999997E+02  0.45594000000E+02  0.51100000000E-03 0.  1.
         11   -1    0    0    0    0 -0.00000000000E+00 -0.00000000000E+00 -0.45593999997E+02  0.45594000000E+02  0.51100000000E-03 0. -1.
    9900012    2    1    2    0    0 -0.11370648512E+02 -0.16258933702E+01 -0.14789959561E+02  0.72461599368E+02  0.70000037874E+02 0.  0.
        -12    1    1    2    0    0  0.11370648512E+02  0.16258933702E+01  0.14789959561E+02  0.18726400632E+02  0.00000000000E+00 0.  1.
         11    1    3    3    0    0  0.17224474576E+02 -0.44673666754E+01 -0.17751504158E+02  0.25134752626E+02  0.51100000000E-03 0. -1.
        -11    1    3    3    0    0 -0.18441944901E+02 -0.12943505307E+02 -0.98632566769E+01  0.24595192496E+02  0.51100000000E-03 0.  1.
        -12    1    3    3    0    0 -0.10153178186E+02  0.15784978612E+02  0.12824801274E+02  0.22731654246E+02  0.00000000000E+00 0.  1.
</event>
<event>
 7    1  0.3568800E-013  0.7246155E+02  0.7816164E-02  0.1226708E+00
        -11   -1    0    0    0    0  0.00000000000E+00  0.00000000000E+00  0.45593999997E+02  0.45594000000E+02  0.51100000000E-03 0.  1.
         11   -1    0    0    0    0 -0.00000000000E+00 -0.00000000000E+00 -0.45593999997E+02  0.45594000000E+02  0.51100000000E-03 0. -1.
    9900012    2    1    2    0    0  0.16099430217E+02  0.16604532325E+01 -0.94197210432E+01  0.72461550716E+02  0.69999974496E+02 0.  0.
        -12    1    1    2    0    0 -0.16099430217E+02 -0.16604532325E+01  0.94197210432E+01  0.18726449284E+02  0.00000000000E+00 0.  1.
         11    1    3    3    0    0 -0.11759439201E+02  0.15875971238E+02 -0.45158257844E+01  0.20266315793E+02  0.51100000000E-03 0. -1.
        -11    1    3    3    0    0  0.11329227021E+02  0.73386959499E+01  0.13730978716E+02  0.19254807709E+02  0.51100000000E-03 0.  1.
         12    1    3    3    0    0  0.16529642397E+02 -0.21554213955E+02 -0.18634873975E+02  0.32940427214E+02  0.00000000000E+00 0. -1.
</event>
<event>
 7    1  0.3568800E-013  0.7246174E+02  0.7816164E-02  0.1226708E+00
        -11   -1    0    0    0    0  0.00000000000E+00  0.00000000000E+00  0.45593999997E+02  0.45594000000E+02  0.51100000000E-03 0. -1.
         11   -1    0    0    0    0 -0.00000000000E+00 -0.00000000000E+00 -0.45593999997E+02  0.45594000000E+02  0.51100000000E-03 0.  1.
    9900012    2    1    2    0    0  0.18441304034E+02  0.31003657827E+01 -0.98932031515E+00  0.72461742575E+02  0.70000224427E+02 0.  0.
        -12    1    1    2    0    0 -0.18441304034E+02 -0.31003657827E+01  0.98932031515E+00  0.18726257425E+02  0.00000000000E+00 0.  1.
         11    1    3    3    0    0 -0.35914789443E-01  0.20051439628E+02  0.36360197088E+01  0.20378472971E+02  0.51100000000E-03 0. -1.
        -11    1    3    3    0    0  0.67791264298E+01  0.14848246343E+02 -0.77263530151E+01  0.18058889938E+02  0.51100000000E-03 0.  1.
        -12    1    3    3    0    0  0.11698092394E+02 -0.31799320189E+02  0.31010129911E+01  0.34024379666E+02  0.00000000000E+00 0.  1.
</event>
<event>
 7    1  0.3568800E-013  0.7246158E+02  0.7816164E-02  0.1226708E+00
        -11   -1    0    0    0    0  0.00000000000E+00  0.00000000000E+00  0.45593999997E+02  0.45594000000E+02  0.51100000000E-03 0. -1.
         11   -1    0    0    0    0 -0.00000000000E+00 -0.00000000000E+00 -0.45593999997E+02  0.45594000000E+02  0.51100000000E-03 0.  1.
    9900012    2    1    2    0    0 -0.82676797290E+01  0.16701744277E+02  0.18374105140E+01  0.72461578361E+02  0.70000010509E+02 0.  0.
        -12    1    1    2    0    0  0.82676797290E+01 -0.16701744277E+02 -0.18374105140E+01  0.18726421639E+02  0.00000000000E+00 0.  1.
         11    1    3    3    0    0  0.35759197213E+01 -0.85837214185E+01  0.12666813993E+02  0.15713549957E+02  0.51100000000E-03 0. -1.
        -11    1    3    3    0    0  0.14688191922E+02 -0.26166797613E+01 -0.10499851017E+02  0.18243817215E+02  0.51100000000E-03 0.  1.
         12    1    3    3    0    0 -0.26531791373E+02  0.27902145457E+02 -0.32955246252E+00  0.38504211190E+02  0.00000000000E+00 0. -1.
</event>
<event>
 7    1  0.3568800E-013  0.7246199E+02  0.7816164E-02  0.1226707E+00
        -11   -1    0    0    0    0  0.00000000000E+00  0.00000000000E+00  0.45593999997E+02  0.45594000000E+02  0.51100000000E-03 0. -1.
         11   -1    0    0    0    0 -0.00000000000E+00 -0.00000000000E+00 -0.45593999997E+02  0.45594000000E+02  0.51100000000E-03 0.  1.
    9900012    2    1    2    0    0 -0.11692641755E+02 -0.67800755639E+01 -0.12960567913E+02  0.72461985568E+02  0.70000540969E+02 0.  0.
        -12    1    1    2    0    0  0.11692641755E+02  0.67800755639E+01  0.12960567913E+02  0.18726014432E+02  0.00000000000E+00 0.  1.
         11    1    3    3    0    0 -0.26670852374E+02  0.14033413865E+01 -0.21396361158E+02  0.34221455323E+02  0.51100000000E-03 0. -1.
        -11    1    3    3    0    0 -0.12564560041E+01  0.97060863629E+01  0.10050908269E+02  0.14028811477E+02  0.51100000000E-03 0.  1.
        -12    1    3    3    0    0  0.16234666623E+02 -0.17889503313E+02 -0.16151150245E+01  0.24211718768E+02  0.00000000000E+00 0.  1.
</event>
<event>
 7    1  0.3568800E-013  0.7246157E+02  0.7816164E-02  0.1226708E+00
        -11   -1    0    0    0    0  0.00000000000E+00  0.00000000000E+00  0.45593999997E+02  0.45594000000E+02  0.51100000000E-03 0. -1.
         11   -1    0    0    0    0 -0.00000000000E+00 -0.00000000000E+00 -0.45593999997E+02  0.45594000000E+02  0.51100000000E-03 0.  1.
    9900012    2    1    2    0    0 -0.45427565175E+01 -0.17522383067E+02 -0.47967411288E+01  0.72461567596E+02  0.69999996485E+02 0.  0.
        -12    1    1    2    0    0  0.45427565175E+01  0.17522383067E+02  0.47967411288E+01  0.18726432404E+02  0.00000000000E+00 0.  1.
         11    1    3    3    0    0 -0.12704789350E+02 -0.44791595614E+01 -0.52625628523E+01  0.14462679933E+02  0.51100000000E-03 0. -1.
        -11    1    3    3    0    0  0.13999666874E+02  0.16906353854E+02 -0.12024708388E+02  0.25028165839E+02  0.51100000000E-03 0.  1.
         12    1    3    3    0    0 -0.58376340414E+01 -0.29949577359E+02  0.12490530111E+02  0.32970721825E+02  0.00000000000E+00 0. -1.
</event>
<event>
 7    1  0.3568800E-013  0.7246150E+02  0.7816164E-02  0.1226708E+00
        -11   -1    0    0    0    0  0.00000000000E+00  0.00000000000E+00  0.45593999997E+02  0.45594000000E+02  0.51100000000E-03 0. -1.
         11   -1    0    0    0    0 -0.00000000000E+00 -0.00000000000E+00 -0.45593999997E+02  0.45594000000E+02  0.51100000000E-03 0.  1.
    9900012    2    1    2    0    0  0.12186314349E+02  0.36149172336E+01  0.13751649444E+02  0.72461501490E+02  0.69999910370E+02 0.  0.
        -12    1    1    2    0    0 -0.12186314349E+02 -0.36149172336E+01 -0.13751649444E+02  0.18726498510E+02  0.00000000000E+00 0.  1.
         11    1    3    3    0    0  0.53983752696E+00  0.68465457541E+01 -0.35819011040E+01  0.77457490986E+01  0.51100000000E-03 0. -1.
        -11    1    3    3    0    0  0.12507565399E+02  0.28179817090E+02  0.10390003837E+02  0.32534496514E+02  0.51100000000E-03 0.  1.
         12    1    3    3    0    0 -0.86108857703E+00 -0.31411445611E+02  0.69435467106E+01  0.32181255877E+02  0.00000000000E+00 0. -1.
</event>
<event>
 7    1  0.3568800E-013  0.7246152E+02  0.7816164E-02  0.1226708E+00
        -11   -1    0    0    0    0  0.00000000000E+00  0.00000000000E+00  0.45593999997E+02  0.45594000000E+02  0.51100000000E-03 0. -1.
         11   -1    0    0    0    0 -0.00000000000E+00 -0.00000000000E+00 -0.45593999997E+02  0.45594000000E+02  0.51100000000E-03 0.  1.
    9900012    2    1    2    0    0  0.64746860620E+01 -0.17478544256E+02  0.18055603990E+01  0.72461518289E+02  0.69999932254E+02 0.  0.
        -12    1    1    2    0    0 -0.64746860620E+01  0.17478544256E+02 -0.18055603990E+01  0.18726481711E+02  0.00000000000E+00 0.  1.
         11    1    3    3    0    0  0.18828798712E+02  0.48153573561E+01  0.73908138276E+01  0.20792677959E+02  0.51100000000E-03 0. -1.
        -11    1    3    3    0    0  0.34118731112E+01  0.76626431201E+01 -0.14420722261E+02  0.16682751827E+02  0.51100000000E-03 0.  1.
        -12    1    3    3    0    0 -0.15765985761E+02 -0.29956544732E+02  0.88354688324E+01  0.34986088504E+02  0.00000000000E+00 0.  1.
</event>
<event>
 7    1  0.3568800E-013  0.7246151E+02  0.7816164E-02  0.1226708E+00
        -11   -1    0    0    0    0  0.00000000000E+00  0.00000000000E+00  0.45593999997E+02  0.45594000000E+02  0.51100000000E-03 0.  1.
         11   -1    0    0    0    0 -0.00000000000E+00 -0.00000000000E+00 -0.45593999997E+02  0.45594000000E+02  0.51100000000E-03 0. -1.
    9900012    2    1    2    0    0  0.77711773816E+00 -0.18423747516E+02  0.32623395624E+01  0.72461514907E+02  0.69999927848E+02 0.  0.
        -12    1    1    2    0    0 -0.77711773816E+00  0.18423747516E+02 -0.32623395624E+01  0.18726485093E+02  0.00000000000E+00 0.  1.
         11    1    3    3    0    0 -0.37177702566E+01 -0.17168320359E+02 -0.19894946323E+02  0.26540194594E+02  0.51100000000E-03 0. -1.
        -11    1    3    3    0    0  0.44955787567E+01  0.86433595742E+01 -0.83901190656E+01  0.12857371088E+02  0.51100000000E-03 0.  1.
        -12    1    3    3    0    0 -0.69076188597E-03 -0.98987867319E+01  0.31547404951E+02  0.33063949226E+02  0.00000000000E+00 0.  1.
</event>
<event>
 7    1  0.3568800E-013  0.7246143E+02  0.7816164E-02  0.1226708E+00
        -11   -1    0    0    0    0  0.00000000000E+00  0.00000000000E+00  0.45593999997E+02  0.45594000000E+02  0.51100000000E-03 0.  1.
         11   -1    0    0    0    0 -0.00000000000E+00 -0.00000000000E+00 -0.45593999997E+02  0.45594000000E+02  0.51100000000E-03 0. -1.
    9900012    2    1    2    0    0  0.12764866774E+02  0.11906505663E+02 -0.67806797971E+01  0.72461432792E+02  0.69999820878E+02 0.  0.
        -12    1    1    2    0    0 -0.12764866774E+02 -0.11906505663E+02  0.67806797971E+01  0.18726567208E+02  0.00000000000E+00 0.  1.
         11    1    3    3    0    0  0.30971601346E+02  0.19578745796E+02 -0.73305614145E+01  0.37367158144E+02  0.51100000000E-03 0. -1.
        -11    1    3    3    0    0  0.18094168991E+01  0.40849662348E+01  0.92749874739E+01  0.10294966321E+02  0.51100000000E-03 0.  1.
        -12    1    3    3    0    0 -0.20016151471E+02 -0.11757206368E+02 -0.87251058565E+01  0.24799308327E+02  0.00000000000E+00 0.  1.
</event>
<event>
 7    1  0.3568800E-013  0.7246156E+02  0.7816164E-02  0.1226708E+00
        -11   -1    0    0    0    0  0.00000000000E+00  0.00000000000E+00  0.45593999997E+02  0.45594000000E+02  0.51100000000E-03 0.  1.
         11   -1    0    0    0    0 -0.00000000000E+00 -0.00000000000E+00 -0.45593999997E+02  0.45594000000E+02  0.51100000000E-03 0. -1.
    9900012    2    1    2    0    0 -0.55216285950E+01  0.24799050619E+01 -0.17721207090E+02  0.72461561680E+02  0.69999988778E+02 0.  0.
        -12    1    1    2    0    0  0.55216285950E+01 -0.24799050619E+01  0.17721207090E+02  0.18726438320E+02  0.00000000000E+00 0.  1.
         11    1    3    3    0    0 -0.17405316191E+02  0.25630563815E+02 -0.15981301247E+02  0.34860763373E+02  0.51100000000E-03 0. -1.
        -11    1    3    3    0    0  0.57654664572E+01  0.40631863688E+01 -0.61539053091E+01  0.93605896049E+01  0.51100000000E-03 0.  1.
        -12    1    3    3    0    0  0.61182211387E+01 -0.27213845122E+02  0.44139994667E+01  0.28240208701E+02  0.00000000000E+00 0.  1.
</event>
<event>
 7    1  0.3568800E-013  0.7246169E+02  0.7816164E-02  0.1226708E+00
        -11   -1    0    0    0    0  0.00000000000E+00  0.00000000000E+00  0.45593999997E+02  0.45594000000E+02  0.51100000000E-03 0. -1.
         11   -1    0    0    0    0 -0.00000000000E+00 -0.00000000000E+00 -0.45593999997E+02  0.45594000000E+02  0.51100000000E-03 0.  1.
    9900012    2    1    2    0    0 -0.58580799216E+01 -0.99973925200E+01  0.14710876886E+02  0.72461685458E+02  0.70000150022E+02 0.  0.
        -12    1    1    2    0    0  0.58580799216E+01  0.99973925200E+01 -0.14710876886E+02  0.18726314542E+02  0.00000000000E+00 0.  1.
         11    1    3    3    0    0  0.10021998138E+01 -0.51819037732E+01 -0.25221191605E+01  0.58495825922E+01  0.51100000000E-03 0. -1.
        -11    1    3    3    0    0 -0.32324376241E+02 -0.69088526933E+01 -0.41251299268E+01  0.33310872731E+02  0.51100000000E-03 0.  1.
         12    1    3    3    0    0  0.25464096506E+02  0.20933639465E+01  0.21358125973E+02  0.33301230135E+02  0.00000000000E+00 0. -1.
</event>
<event>
 7    1  0.3568800E-013  0.7246158E+02  0.7816164E-02  0.1226708E+00
        -11   -1    0    0    0    0  0.00000000000E+00  0.00000000000E+00  0.45593999997E+02  0.45594000000E+02  0.51100000000E-03 0. -1.
         11   -1    0    0    0    0 -0.00000000000E+00 -0.00000000000E+00 -0.45593999997E+02  0.45594000000E+02  0.51100000000E-03 0.  1.
    9900012    2    1    2    0    0 -0.11751377624E+02 -0.11001642724E+02  0.95680674739E+01  0.72461576586E+02  0.70000008197E+02 0.  0.
        -12    1    1    2    0    0  0.11751377624E+02  0.11001642724E+02 -0.95680674739E+01  0.18726423414E+02  0.00000000000E+00 0.  1.
         11    1    3    3    0    0  0.53538283184E+01 -0.35863493040E+01  0.11709220340E+02  0.13365299107E+02  0.51100000000E-03 0. -1.
        -11    1    3    3    0    0  0.16277579039E+02 -0.63443403678E+01  0.13631725630E+02  0.22159291008E+02  0.51100000000E-03 0.  1.
        -12    1    3    3    0    0 -0.33382784981E+02 -0.10709530520E+01 -0.15772878495E+02  0.36936986471E+02  0.00000000000E+00 0.  1.
</event>
<event>
 7    1  0.3568800E-013  0.7246160E+02  0.7816164E-02  0.1226708E+00
        -11   -1    0    0    0    0  0.00000000000E+00  0.00000000000E+00  0.45593999997E+02  0.45594000000E+02  0.51100000000E-03 0.  1.
         11   -1    0    0    0    0 -0.00000000000E+00 -0.00000000000E+00 -0.45593999997E+02  0.45594000000E+02  0.51100000000E-03 0. -1.
    9900012    2    1    2    0    0  0.98973127535E+01  0.12661692319E+02  0.96126452198E+01  0.72461596174E+02  0.70000033713E+02 0.  0.
        -12    1    1    2    0    0 -0.98973127535E+01 -0.12661692319E+02 -0.96126452198E+01  0.18726403826E+02  0.00000000000E+00 0.  1.
         11    1    3    3    0    0  0.89278312974E+01 -0.45789971557E+01 -0.10548614667E+00  0.10034167340E+02  0.51100000000E-03 0. -1.
        -11    1    3    3    0    0  0.25900427817E+02  0.48120382504E+01  0.19636771217E+02  0.32857124909E+02  0.51100000000E-03 0.  1.
         12    1    3    3    0    0 -0.24930946361E+02  0.12428651224E+02 -0.99186398506E+01  0.29570303924E+02  0.00000000000E+00 0. -1.
</event>
<event>
 7    1  0.3568800E-013  0.7246155E+02  0.7816164E-02  0.1226708E+00
        -11   -1    0    0    0    0  0.00000000000E+00  0.00000000000E+00  0.45593999997E+02  0.45594000000E+02  0.51100000000E-03 0. -1.
         11   -1    0    0    0    0 -0.00000000000E+00 -0.00000000000E+00 -0.45593999997E+02  0.45594000000E+02  0.51100000000E-03 0.  1.
    9900012    2    1    2    0    0 -0.52814754002E+01  0.14889464326E+02  0.10054348466E+02  0.72461546695E+02  0.69999969257E+02 0.  0.
        -12    1    1    2    0    0  0.52814754002E+01 -0.14889464326E+02 -0.10054348466E+02  0.18726453305E+02  0.00000000000E+00 0.  1.
         11    1    3    3    0    0 -0.61318405100E+01  0.18271591213E+02  0.20731553199E+02  0.28306321057E+02  0.51100000000E-03 0. -1.
        -11    1    3    3    0    0 -0.96944388228E+01  0.16922609501E+02 -0.81476019197E+01  0.21136231303E+02  0.51100000000E-03 0.  1.
        -12    1    3    3    0    0  0.10544803933E+02 -0.20304736388E+02 -0.25296028134E+01  0.23018994334E+02  0.00000000000E+00 0.  1.
</event>
<event>
 7    1  0.3568800E-013  0.7246157E+02  0.7816164E-02  0.1226708E+00
        -11   -1    0    0    0    0  0.00000000000E+00  0.00000000000E+00  0.45593999997E+02  0.45594000000E+02  0.51100000000E-03 0. -1.
         11   -1    0    0    0    0 -0.00000000000E+00 -0.00000000000E+00 -0.45593999997E+02  0.45594000000E+02  0.51100000000E-03 0.  1.
    9900012    2    1    2    0    0  0.55478806168E+01 -0.17680991382E+02  0.26986584506E+01  0.72461569667E+02  0.69999999183E+02 0.  0.
        -12    1    1    2    0    0 -0.55478806168E+01  0.17680991382E+02 -0.26986584506E+01  0.18726430333E+02  0.00000000000E+00 0.  1.
         11    1    3    3    0    0 -0.11464438653E+02  0.58543207762E+01 -0.10198921502E+01  0.12913040139E+02  0.51100000000E-03 0. -1.
        -11    1    3    3    0    0  0.16859306620E+02  0.11163778327E+02 -0.95965283339E+01  0.22382125069E+02  0.51100000000E-03 0.  1.
        -12    1    3    3    0    0  0.15301264964E+00 -0.34699090485E+02  0.13315078935E+02  0.37166404459E+02  0.00000000000E+00 0.  1.
</event>
<event>
 7    1  0.3568800E-013  0.7246155E+02  0.7816164E-02  0.1226708E+00
        -11   -1    0    0    0    0  0.00000000000E+00  0.00000000000E+00  0.45593999997E+02  0.45594000000E+02  0.51100000000E-03 0. -1.
         11   -1    0    0    0    0 -0.00000000000E+00 -0.00000000000E+00 -0.45593999997E+02  0.45594000000E+02  0.51100000000E-03 0.  1.
    9900012    2    1    2    0    0  0.15626607225E+02 -0.10205203995E+02 -0.15306777942E+01  0.72461547681E+02  0.69999970542E+02 0.  0.
        -12    1    1    2    0    0 -0.15626607225E+02  0.10205203995E+02  0.15306777942E+01  0.18726452319E+02  0.00000000000E+00 0.  1.
         11    1    3    3    0    0  0.16099948279E+02 -0.11898528171E+02 -0.58986842979E+01  0.20870500327E+02  0.51100000000E-03 0. -1.
        -11    1    3    3    0    0  0.88514521977E+01 -0.23190984024E+02  0.25913422720E+01  0.24957664175E+02  0.51100000000E-03 0.  1.
         12    1    3    3    0    0 -0.93247932511E+01  0.24884308200E+02  0.17766642317E+01  0.26633383179E+02  0.00000000000E+00 0. -1.
</event>
<event>
 7    1  0.3568800E-013  0.7246164E+02  0.7816164E-02  0.1226708E+00
        -11   -1    0    0    0    0  0.00000000000E+00  0.00000000000E+00  0.45593999997E+02  0.45594000000E+02  0.51100000000E-03 0. -1.
         11   -1    0    0    0    0 -0.00000000000E+00 -0.00000000000E+00 -0.45593999997E+02  0.45594000000E+02  0.51100000000E-03 0.  1.
    9900012    2    1    2    0    0  0.12492939447E+02 -0.10443314907E+02  0.92487892603E+01  0.72461642504E+02  0.70000094066E+02 0.  0.
        -12    1    1    2    0    0 -0.12492939447E+02  0.10443314907E+02 -0.92487892603E+01  0.18726357496E+02  0.00000000000E+00 0.  1.
         11    1    3    3    0    0 -0.97072710258E+00  0.97348617476E+01  0.41137956518E+01  0.10612877050E+02  0.51100000000E-03 0. -1.
        -11    1    3    3    0    0 -0.15594413842E+02  0.36322456953E+01 -0.12533499594E+02  0.20333901844E+02  0.51100000000E-03 0.  1.
         12    1    3    3    0    0  0.29058080392E+02 -0.23810422350E+02  0.17668493203E+02  0.41514863610E+02  0.00000000000E+00 0. -1.
</event>
<event>
 7    1  0.3568800E-013  0.7246160E+02  0.7816164E-02  0.1226708E+00
        -11   -1    0    0    0    0  0.00000000000E+00  0.00000000000E+00  0.45593999997E+02  0.45594000000E+02  0.51100000000E-03 0. -1.
         11   -1    0    0    0    0 -0.00000000000E+00 -0.00000000000E+00 -0.45593999997E+02  0.45594000000E+02  0.51100000000E-03 0.  1.
    9900012    2    1    2    0    0 -0.40847772708E+01 -0.11083359259E+02  0.14531058247E+02  0.72461603882E+02  0.70000043754E+02 0.  0.
        -12    1    1    2    0    0  0.40847772708E+01  0.11083359259E+02 -0.14531058247E+02  0.18726396118E+02  0.00000000000E+00 0.  1.
         11    1    3    3    0    0 -0.16615123322E+02  0.33379207038E+01  0.19877086676E+02  0.26120922890E+02  0.51100000000E-03 0. -1.
        -11    1    3    3    0    0  0.10441919459E+02  0.30587950935E+01  0.15574437614E+02  0.18998763556E+02  0.51100000000E-03 0.  1.
        -12    1    3    3    0    0  0.20884265925E+01 -0.17480075056E+02 -0.20920466044E+02  0.27341917436E+02  0.00000000000E+00 0.  1.
</event>
<event>
 7    1  0.3568800E-013  0.7246143E+02  0.7816164E-02  0.1226708E+00
        -11   -1    0    0    0    0  0.00000000000E+00  0.00000000000E+00  0.45593999997E+02  0.45594000000E+02  0.51100000000E-03 0. -1.
         11   -1    0    0    0    0 -0.00000000000E+00 -0.00000000000E+00 -0.45593999997E+02  0.45594000000E+02  0.51100000000E-03 0.  1.
    9900012    2    1    2    0    0  0.98974137892E+01 -0.11957983294E+02  0.10475321452E+02  0.72461427338E+02  0.69999813772E+02 0.  0.
        -12    1    1    2    0    0 -0.98974137892E+01  0.11957983294E+02 -0.10475321452E+02  0.18726572662E+02  0.00000000000E+00 0.  1.
         11    1    3    3    0    0  0.63440767655E+00  0.19569789338E+01 -0.32457764021E+01  0.38428250495E+01  0.51100000000E-03 0. -1.
        -11    1    3    3    0    0 -0.21261185030E+02 -0.19628959538E+01 -0.14130220283E+02  0.25603790245E+02  0.51100000000E-03 0.  1.
         12    1    3    3    0    0  0.30524191143E+02 -0.11952066274E+02  0.27851318137E+02  0.43014812043E+02  0.00000000000E+00 0. -1.
</event>
<event>
 7    1  0.3568800E-013  0.7246175E+02  0.7816164E-02  0.1226708E+00
        -11   -1    0    0    0    0  0.00000000000E+00  0.00000000000E+00  0.45593999997E+02  0.45594000000E+02  0.51100000000E-03 0.  1.
         11   -1    0    0    0    0 -0.00000000000E+00 -0.00000000000E+00 -0.45593999997E+02  0.45594000000E+02  0.51100000000E-03 0. -1.
    9900012    2    1    2    0    0  0.13739988679E+01 -0.11817326382E+02 -0.14461511719E+02  0.72461751126E+02  0.70000235566E+02 0.  0.
        -12    1    1    2    0    0 -0.13739988679E+01  0.11817326382E+02  0.14461511719E+02  0.18726248874E+02  0.00000000000E+00 0.  1.
         11    1    3    3    0    0  0.33237752506E-01  0.18371224797E+02  0.55016581028E+01  0.19177362891E+02  0.51100000000E-03 0. -1.
        -11    1    3    3    0    0 -0.61230977272E-01 -0.94047164648E+01  0.11929768199E+02  0.15191175417E+02  0.51100000000E-03 0.  1.
        -12    1    3    3    0    0  0.14019920927E+01 -0.20783834714E+02 -0.31892938020E+02  0.38093212818E+02  0.00000000000E+00 0.  1.
</event>
<event>
 7    1  0.3568800E-013  0.7246159E+02  0.7816164E-02  0.1226708E+00
        -11   -1    0    0    0    0  0.00000000000E+00  0.00000000000E+00  0.45593999997E+02  0.45594000000E+02  0.51100000000E-03 0.  1.
         11   -1    0    0    0    0 -0.00000000000E+00 -0.00000000000E+00 -0.45593999997E+02  0.45594000000E+02  0.51100000000E-03 0. -1.
    9900012    2    1    2    0    0  0.93750633134E+01 -0.80361531613E+01 -0.14078590698E+02  0.72461593890E+02  0.70000030737E+02 0.  0.
        -12    1    1    2    0    0 -0.93750633134E+01  0.80361531613E+01  0.14078590698E+02  0.18726406110E+02  0.00000000000E+00 0.  1.
         11    1    3    3    0    0 -0.67095500887E+01  0.11235862389E+01 -0.17141464095E+02  0.18442079601E+02  0.51100000000E-03 0. -1.
        -11    1    3    3    0    0 -0.13301288008E+02  0.18712339013E+01 -0.13058241039E+02  0.18733484414E+02  0.51100000000E-03 0.  1.
        -12    1    3    3    0    0  0.29385901411E+02 -0.11030973302E+02  0.16121114435E+02  0.35286029875E+02  0.00000000000E+00 0.  1.
</event>
<event>
 7    1  0.3568800E-013  0.7246158E+02  0.7816164E-02  0.1226708E+00
        -11   -1    0    0    0    0  0.00000000000E+00  0.00000000000E+00  0.45593999997E+02  0.45594000000E+02  0.51100000000E-03 0.  1.
         11   -1    0    0    0    0 -0.00000000000E+00 -0.00000000000E+00 -0.45593999997E+02  0.45594000000E+02  0.51100000000E-03 0. -1.
    9900012    2    1    2    0    0 -0.16499788638E+02  0.49595397355E+01  0.73374991093E+01  0.72461576084E+02  0.70000007542E+02 0.  0.
        -12    1    1    2    0    0  0.16499788638E+02 -0.49595397355E+01 -0.73374991093E+01  0.18726423916E+02  0.00000000000E+00 0.  1.
         11    1    3    3    0    0  0.44094184761E+01 -0.70446452253E+01 -0.18459766817E+02  0.20244332265E+02  0.51100000000E-03 0. -1.
        -11    1    3    3    0    0 -0.25579534005E+02 -0.63248618303E+01  0.13018434922E+02  0.29390408047E+02  0.51100000000E-03 0.  1.
        -12    1    3    3    0    0  0.46703268910E+01  0.18329046791E+02  0.12778831004E+02  0.22826835772E+02  0.00000000000E+00 0.  1.
</event>
<event>
 7    1  0.3568800E-013  0.7246156E+02  0.7816164E-02  0.1226708E+00
        -11   -1    0    0    0    0  0.00000000000E+00  0.00000000000E+00  0.45593999997E+02  0.45594000000E+02  0.51100000000E-03 0.  1.
         11   -1    0    0    0    0 -0.00000000000E+00 -0.00000000000E+00 -0.45593999997E+02  0.45594000000E+02  0.51100000000E-03 0. -1.
    9900012    2    1    2    0    0  0.17325339190E+02 -0.54142447656E+01 -0.46041496305E+01  0.72461558313E+02  0.69999984393E+02 0.  0.
        -12    1    1    2    0    0 -0.17325339190E+02  0.54142447656E+01  0.46041496305E+01  0.18726441687E+02  0.00000000000E+00 0.  1.
         11    1    3    3    0    0  0.20740893641E+02 -0.12446077924E+02  0.17877540650E+02  0.30078164583E+02  0.51100000000E-03 0. -1.
        -11    1    3    3    0    0  0.15231965079E+02  0.43035134749E+01 -0.15862444228E+02  0.22408706468E+02  0.51100000000E-03 0.  1.
        -12    1    3    3    0    0 -0.18647519531E+02  0.27283196830E+01 -0.66192460527E+01  0.19974687263E+02  0.00000000000E+00 0.  1.
</event>
<event>
 7    1  0.3568800E-013  0.7246156E+02  0.7816164E-02  0.1226708E+00
        -11   -1    0    0    0    0  0.00000000000E+00  0.00000000000E+00  0.45593999997E+02  0.45594000000E+02  0.51100000000E-03 0. -1.
         11   -1    0    0    0    0 -0.00000000000E+00 -0.00000000000E+00 -0.45593999997E+02  0.45594000000E+02  0.51100000000E-03 0.  1.
    9900012    2    1    2    0    0 -0.17685135170E+01  0.13118073811E+02  0.13246439763E+02  0.72461557013E+02  0.69999982698E+02 0.  0.
        -12    1    1    2    0    0  0.17685135170E+01 -0.13118073811E+02 -0.13246439763E+02  0.18726442987E+02  0.00000000000E+00 0.  1.
         11    1    3    3    0    0  0.89415795821E+00 -0.13225349679E+01  0.37704584868E+02  0.37738366917E+02  0.51100000000E-03 0. -1.
        -11    1    3    3    0    0  0.63680901194E+01  0.15655490671E+00 -0.21215012528E+01  0.67140039495E+01  0.51100000000E-03 0.  1.
        -12    1    3    3    0    0 -0.90307615946E+01  0.14284053872E+02 -0.22336643853E+02  0.28009186147E+02  0.00000000000E+00 0.  1.
</event>
<event>
 7    1  0.3568800E-013  0.7246158E+02  0.7816164E-02  0.1226708E+00
        -11   -1    0    0    0    0  0.00000000000E+00  0.00000000000E+00  0.45593999997E+02  0.45594000000E+02  0.51100000000E-03 0. -1.
         11   -1    0    0    0    0 -0.00000000000E+00 -0.00000000000E+00 -0.45593999997E+02  0.45594000000E+02  0.51100000000E-03 0.  1.
    9900012    2    1    2    0    0 -0.43133744896E+01 -0.50708322876E+01  0.17503150294E+02  0.72461579899E+02  0.70000012512E+02 0.  0.
        -12    1    1    2    0    0  0.43133744896E+01  0.50708322876E+01 -0.17503150294E+02  0.18726420101E+02  0.00000000000E+00 0.  1.
         11    1    3    3    0    0  0.62894666475E+01  0.72342632903E+01 -0.26664924180E+01  0.99499818161E+01  0.51100000000E-03 0. -1.
        -11    1    3    3    0    0  0.71765570754E+01  0.44030577559E+01 -0.16466861392E+02  0.18494523877E+02  0.51100000000E-03 0.  1.
         12    1    3    3    0    0 -0.17779398212E+02 -0.16708153334E+02  0.36636504105E+02  0.44017074206E+02  0.00000000000E+00 0. -1.
</event>
<event>
 7    1  0.3568800E-013  0.7246154E+02  0.7816164E-02  0.1226708E+00
        -11   -1    0    0    0    0  0.00000000000E+00  0.00000000000E+00  0.45593999997E+02  0.45594000000E+02  0.51100000000E-03 0. -1.
         11   -1    0    0    0    0 -0.00000000000E+00 -0.00000000000E+00 -0.45593999997E+02  0.45594000000E+02  0.51100000000E-03 0.  1.
    9900012    2    1    2    0    0  0.15878540732E+02 -0.94277809357E+01 -0.31095460773E+01  0.72461537815E+02  0.69999957690E+02 0.  0.
        -12    1    1    2    0    0 -0.15878540732E+02  0.94277809357E+01  0.31095460773E+01  0.18726462185E+02  0.00000000000E+00 0.  1.
         11    1    3    3    0    0 -0.15313055697E+02 -0.11261833163E+02 -0.40727050530E+01  0.19439791349E+02  0.51100000000E-03 0.  1.
        -11    1    3    3    0    0 -0.66070968406E+01  0.50726333007E+01  0.10982236864E+02  0.13783862451E+02  0.51100000000E-03 0. -1.
         12    1    3    3    0    0  0.37798693270E+02 -0.32385810733E+01 -0.10019077888E+02  0.39237884016E+02  0.00000000000E+00 0. -1.
</event>
<event>
 7    1  0.3568800E-013  0.7246168E+02  0.7816164E-02  0.1226708E+00
        -11   -1    0    0    0    0  0.00000000000E+00  0.00000000000E+00  0.45593999997E+02  0.45594000000E+02  0.51100000000E-03 0.  1.
         11   -1    0    0    0    0 -0.00000000000E+00 -0.00000000000E+00 -0.45593999997E+02  0.45594000000E+02  0.51100000000E-03 0. -1.
    9900012    2    1    2    0    0  0.13011003328E+02 -0.13460593220E+02  0.44848761955E+00  0.72461683796E+02  0.70000147857E+02 0.  0.
        -12    1    1    2    0    0 -0.13011003328E+02  0.13460593220E+02 -0.44848761955E+00  0.18726316204E+02  0.00000000000E+00 0.  1.
         11    1    3    3    0    0  0.10853629072E+02 -0.45658624502E+01 -0.16406378388E+02  0.20194494696E+02  0.51100000000E-03 0. -1.
        -11    1    3    3    0    0 -0.11909919123E+02  0.14351109510E+02 -0.26271861385E+01  0.18833550514E+02  0.51100000000E-03 0.  1.
        -12    1    3    3    0    0  0.14067293379E+02 -0.23245840280E+02  0.19482052146E+02  0.33433638587E+02  0.00000000000E+00 0.  1.
</event>
<event>
 7    1  0.3568800E-013  0.7246157E+02  0.7816164E-02  0.1226708E+00
        -11   -1    0    0    0    0  0.00000000000E+00  0.00000000000E+00  0.45593999997E+02  0.45594000000E+02  0.51100000000E-03 0. -1.
         11   -1    0    0    0    0 -0.00000000000E+00 -0.00000000000E+00 -0.45593999997E+02  0.45594000000E+02  0.51100000000E-03 0.  1.
    9900012    2    1    2    0    0  0.44184628824E+01 -0.21112556046E+01  0.18074814466E+02  0.72461571284E+02  0.70000001289E+02 0.  0.
        -12    1    1    2    0    0 -0.44184628824E+01  0.21112556046E+01 -0.18074814466E+02  0.18726428716E+02  0.00000000000E+00 0.  1.
         11    1    3    3    0    0 -0.88203274307E+01 -0.13830922077E+02  0.66579302939E+01  0.17703689377E+02  0.51100000000E-03 0. -1.
        -11    1    3    3    0    0 -0.11408414821E+02 -0.46612755546E+01 -0.11862011288E+02  0.17105166780E+02  0.51100000000E-03 0.  1.
        -12    1    3    3    0    0  0.24647205134E+02  0.16380942027E+02  0.23278895460E+02  0.37652715127E+02  0.00000000000E+00 0.  1.
</event>
<event>
 7    1  0.3568800E-013  0.7246157E+02  0.7816164E-02  0.1226708E+00
        -11   -1    0    0    0    0  0.00000000000E+00  0.00000000000E+00  0.45593999997E+02  0.45594000000E+02  0.51100000000E-03 0. -1.
         11   -1    0    0    0    0 -0.00000000000E+00 -0.00000000000E+00 -0.45593999997E+02  0.45594000000E+02  0.51100000000E-03 0.  1.
    9900012    2    1    2    0    0  0.76027256710E+01 -0.16023542209E+02  0.60103023327E+01  0.72461572773E+02  0.70000003229E+02 0.  0.
        -12    1    1    2    0    0 -0.76027256710E+01  0.16023542209E+02 -0.60103023327E+01  0.18726427227E+02  0.00000000000E+00 0.  1.
         11    1    3    3    0    0 -0.54758417014E+01  0.85701877541E+01  0.12094842636E+01  0.10241865695E+02  0.51100000000E-03 0. -1.
        -11    1    3    3    0    0  0.87687687312E+01 -0.14095495739E+02 -0.25181834115E+02  0.30161218060E+02  0.51100000000E-03 0.  1.
         12    1    3    3    0    0  0.43097986411E+01 -0.10498234224E+02  0.29982652184E+02  0.32058489018E+02  0.00000000000E+00 0. -1.
</event>
<event>
 7    1  0.3568800E-013  0.7246162E+02  0.7816164E-02  0.1226708E+00
        -11   -1    0    0    0    0  0.00000000000E+00  0.00000000000E+00  0.45593999997E+02  0.45594000000E+02  0.51100000000E-03 0. -1.
         11   -1    0    0    0    0 -0.00000000000E+00 -0.00000000000E+00 -0.45593999997E+02  0.45594000000E+02  0.51100000000E-03 0.  1.
    9900012    2    1    2    0    0 -0.56204326615E+01  0.14613926817E+02  0.10272347546E+02  0.72461621695E+02  0.70000066959E+02 0.  0.
        -12    1    1    2    0    0  0.56204326615E+01 -0.14613926817E+02 -0.10272347546E+02  0.18726378305E+02  0.00000000000E+00 0.  1.
         11    1    3    3    0    0  0.21620111746E+02 -0.12199023106E+02 -0.10545904359E+02  0.26971494131E+02  0.51100000000E-03 0. -1.
        -11    1    3    3    0    0  0.94135074893E+00  0.25995300344E+01  0.36002331158E+01  0.45393145277E+01  0.51100000000E-03 0.  1.
        -12    1    3    3    0    0 -0.28181895157E+02  0.24213419888E+02  0.17218018789E+02  0.40950813036E+02  0.00000000000E+00 0.  1.
</event>
<event>
 7    1  0.3568800E-013  0.7246104E+02  0.7816164E-02  0.1226709E+00
        -11   -1    0    0    0    0  0.00000000000E+00  0.00000000000E+00  0.45593999997E+02  0.45594000000E+02  0.51100000000E-03 0.  1.
         11   -1    0    0    0    0 -0.00000000000E+00 -0.00000000000E+00 -0.45593999997E+02  0.45594000000E+02  0.51100000000E-03 0. -1.
    9900012    2    1    2    0    0  0.19454169968E+01 -0.18625425363E+02  0.89310391085E-01  0.72461038324E+02  0.69999307007E+02 0.  0.
        -12    1    1    2    0    0 -0.19454169968E+01  0.18625425363E+02 -0.89310391085E-01  0.18726961676E+02  0.00000000000E+00 0.  1.
         11    1    3    3    0    0  0.64683785514E+01 -0.63660116961E+01  0.16233799130E+02  0.18598447797E+02  0.51100000000E-03 0. -1.
        -11    1    3    3    0    0 -0.14975288575E+02  0.13026393486E+02  0.35336522284E+01  0.20160180889E+02  0.51100000000E-03 0.  1.
         12    1    3    3    0    0  0.10452327020E+02 -0.25285807153E+02 -0.19678140967E+02  0.33702409638E+02  0.00000000000E+00 0. -1.
</event>
<event>
 7    1  0.3568800E-013  0.7246159E+02  0.7816164E-02  0.1226708E+00
        -11   -1    0    0    0    0  0.00000000000E+00  0.00000000000E+00  0.45593999997E+02  0.45594000000E+02  0.51100000000E-03 0. -1.
         11   -1    0    0    0    0 -0.00000000000E+00 -0.00000000000E+00 -0.45593999997E+02  0.45594000000E+02  0.51100000000E-03 0.  1.
    9900012    2    1    2    0    0 -0.10356848516E+01 -0.44441786169E+01  0.18161916556E+02  0.72461586044E+02  0.70000020516E+02 0.  0.
        -12    1    1    2    0    0  0.10356848516E+01  0.44441786169E+01 -0.18161916556E+02  0.18726413956E+02  0.00000000000E+00 0.  1.
         11    1    3    3    0    0 -0.22996858779E+02  0.82157680773E+01  0.95166146841E+01  0.26209164696E+02  0.51100000000E-03 0. -1.
        -11    1    3    3    0    0  0.53698188674E+01 -0.20429868256E+02 -0.69033077881E+01  0.22223189022E+02  0.51100000000E-03 0.  1.
        -12    1    3    3    0    0  0.16591355060E+02  0.77699215618E+01  0.15548609660E+02  0.24029232325E+02  0.00000000000E+00 0.  1.
</event>
<event>
 7    1  0.3568800E-013  0.7246158E+02  0.7816164E-02  0.1226708E+00
        -11   -1    0    0    0    0  0.00000000000E+00  0.00000000000E+00  0.45593999997E+02  0.45594000000E+02  0.51100000000E-03 0.  1.
         11   -1    0    0    0    0 -0.00000000000E+00 -0.00000000000E+00 -0.45593999997E+02  0.45594000000E+02  0.51100000000E-03 0. -1.
    9900012    2    1    2    0    0  0.39315438283E+01  0.82739547332E+01 -0.16332898412E+02  0.72461576573E+02  0.70000008180E+02 0.  0.
        -12    1    1    2    0    0 -0.39315438283E+01 -0.82739547332E+01  0.16332898412E+02  0.18726423427E+02  0.00000000000E+00 0.  1.
         11    1    3    3    0    0 -0.22757421019E+01  0.59646984282E+01 -0.27164493585E+01  0.69379915561E+01  0.51100000000E-03 0. -1.
        -11    1    3    3    0    0  0.46396611434E+00  0.15417458394E+02  0.22155042032E+02  0.26995539920E+02  0.51100000000E-03 0.  1.
         12    1    3    3    0    0  0.57433198159E+01 -0.13108202089E+02 -0.35771491086E+02  0.38528045097E+02  0.00000000000E+00 0. -1.
</event>
<event>
 7    1  0.3568800E-013  0.7246160E+02  0.7816164E-02  0.1226708E+00
        -11   -1    0    0    0    0  0.00000000000E+00  0.00000000000E+00  0.45593999997E+02  0.45594000000E+02  0.51100000000E-03 0.  1.
         11   -1    0    0    0    0 -0.00000000000E+00 -0.00000000000E+00 -0.45593999997E+02  0.45594000000E+02  0.51100000000E-03 0. -1.
    9900012    2    1    2    0    0  0.12970547561E+02  0.92984856687E+01  0.97969978869E+01  0.72461598654E+02  0.70000036944E+02 0.  0.
        -12    1    1    2    0    0 -0.12970547561E+02 -0.92984856687E+01 -0.97969978869E+01  0.18726401346E+02  0.00000000000E+00 0.  1.
         11    1    3    3    0    0  0.58912307986E+01  0.20731493480E+02 -0.21289396488E+02  0.30294220989E+02  0.51100000000E-03 0. -1.
        -11    1    3    3    0    0 -0.61833348915E+01  0.17671905415E+01  0.68296379552E+00  0.64670729544E+01  0.51100000000E-03 0.  1.
        -12    1    3    3    0    0  0.13262651654E+02 -0.13200198353E+02  0.30403430580E+02  0.35700304711E+02  0.00000000000E+00 0.  1.
</event>
<event>
 7    1  0.3568800E-013  0.7246130E+02  0.7816164E-02  0.1226709E+00
        -11   -1    0    0    0    0  0.00000000000E+00  0.00000000000E+00  0.45593999997E+02  0.45594000000E+02  0.51100000000E-03 0. -1.
         11   -1    0    0    0    0 -0.00000000000E+00 -0.00000000000E+00 -0.45593999997E+02  0.45594000000E+02  0.51100000000E-03 0.  1.
    9900012    2    1    2    0    0 -0.33351975173E+00  0.72844547103E+01  0.17248621148E+02  0.72461295876E+02  0.69999642518E+02 0.  0.
        -12    1    1    2    0    0  0.33351975173E+00 -0.72844547103E+01 -0.17248621148E+02  0.18726704124E+02  0.00000000000E+00 0.  1.
         11    1    3    3    0    0  0.10613949337E+02 -0.19306616074E+02  0.91604847271E+01  0.23860340011E+02  0.51100000000E-03 0. -1.
        -11    1    3    3    0    0 -0.30428672915E+01 -0.35818185746E+01  0.15788672763E+02  0.16473331586E+02  0.51100000000E-03 0.  1.
        -12    1    3    3    0    0 -0.79046017970E+01  0.30172889359E+02 -0.77005363424E+01  0.32127624279E+02  0.00000000000E+00 0.  1.
</event>
<event>
 7    1  0.3568800E-013  0.7246153E+02  0.7816164E-02  0.1226708E+00
        -11   -1    0    0    0    0  0.00000000000E+00  0.00000000000E+00  0.45593999997E+02  0.45594000000E+02  0.51100000000E-03 0.  1.
         11   -1    0    0    0    0 -0.00000000000E+00 -0.00000000000E+00 -0.45593999997E+02  0.45594000000E+02  0.51100000000E-03 0. -1.
    9900012    2    1    2    0    0 -0.35221779114E+01 -0.17573493678E+02 -0.54265279119E+01  0.72461531500E+02  0.69999949463E+02 0.  0.
        -12    1    1    2    0    0  0.35221779114E+01  0.17573493678E+02  0.54265279119E+01  0.18726468500E+02  0.00000000000E+00 0.  1.
         11    1    3    3    0    0 -0.97959570587E+00 -0.18010457772E+02 -0.64972003885E+01  0.19171588615E+02  0.51100000000E-03 0. -1.
        -11    1    3    3    0    0  0.19613314888E+02 -0.11826222332E+02  0.11827649494E+02  0.25776635707E+02  0.51100000000E-03 0.  1.
         12    1    3    3    0    0 -0.22155897094E+02  0.12263186425E+02 -0.10756977017E+02  0.27513307178E+02  0.00000000000E+00 0. -1.
</event>
<event>
 7    1  0.3568800E-013  0.7246159E+02  0.7816164E-02  0.1226708E+00
        -11   -1    0    0    0    0  0.00000000000E+00  0.00000000000E+00  0.45593999997E+02  0.45594000000E+02  0.51100000000E-03 0. -1.
         11   -1    0    0    0    0 -0.00000000000E+00 -0.00000000000E+00 -0.45593999997E+02  0.45594000000E+02  0.51100000000E-03 0.  1.
    9900012    2    1    2    0    0  0.16345729715E+02 -0.49498226137E+01  0.76808185826E+01  0.72461585556E+02  0.70000019881E+02 0.  0.
        -12    1    1    2    0    0 -0.16345729715E+02  0.49498226137E+01 -0.76808185826E+01  0.18726414444E+02  0.00000000000E+00 0.  1.
         11    1    3    3    0    0 -0.58528390235E+01  0.80510007718E+00 -0.12936952024E+02  0.14222117940E+02  0.51100000000E-03 0. -1.
        -11    1    3    3    0    0  0.22610401040E+01 -0.73967595993E+01 -0.15290055378E+02  0.17135056132E+02  0.51100000000E-03 0.  1.
         12    1    3    3    0    0  0.19937528635E+02  0.16418369084E+01  0.35907825985E+02  0.41104411484E+02  0.00000000000E+00 0. -1.
</event>
<event>
 7    1  0.3568800E-013  0.7246155E+02  0.7816164E-02  0.1226708E+00
        -11   -1    0    0    0    0  0.00000000000E+00  0.00000000000E+00  0.45593999997E+02  0.45594000000E+02  0.51100000000E-03 0. -1.
         11   -1    0    0    0    0 -0.00000000000E+00 -0.00000000000E+00 -0.45593999997E+02  0.45594000000E+02  0.51100000000E-03 0.  1.
    9900012    2    1    2    0    0 -0.90934664337E+01 -0.15362089213E+01  0.16298125160E+02  0.72461549365E+02  0.69999972736E+02 0.  0.
        -12    1    1    2    0    0  0.90934664337E+01  0.15362089213E+01 -0.16298125160E+02  0.18726450635E+02  0.00000000000E+00 0.  1.
         11    1    3    3    0    0 -0.45530633160E+01  0.47134869639E+01  0.20110353139E+02  0.21151209152E+02  0.51100000000E-03 0. -1.
        -11    1    3    3    0    0 -0.16321570833E+02  0.12708470094E+02  0.12038907935E+02  0.23933954774E+02  0.51100000000E-03 0.  1.
        -12    1    3    3    0    0  0.11781167716E+02 -0.18958165979E+02 -0.15851135914E+02  0.27376385440E+02  0.00000000000E+00 0.  1.
</event>
<event>
 7    1  0.3568800E-013  0.7246155E+02  0.7816164E-02  0.1226708E+00
        -11   -1    0    0    0    0  0.00000000000E+00  0.00000000000E+00  0.45593999997E+02  0.45594000000E+02  0.51100000000E-03 0. -1.
         11   -1    0    0    0    0 -0.00000000000E+00 -0.00000000000E+00 -0.45593999997E+02  0.45594000000E+02  0.51100000000E-03 0.  1.
    9900012    2    1    2    0    0 -0.95857731303E+01  0.31410177860E+01  0.15777420672E+02  0.72461546991E+02  0.69999969643E+02 0.  0.
        -12    1    1    2    0    0  0.95857731303E+01 -0.31410177860E+01 -0.15777420672E+02  0.18726453009E+02  0.00000000000E+00 0.  1.
         11    1    3    3    0    0 -0.76937799685E+01  0.17254792250E+02  0.17695268857E+02  0.25885220609E+02  0.51100000000E-03 0. -1.
        -11    1    3    3    0    0 -0.21734267401E+02 -0.14968779551E+02  0.14594751675E+01  0.26430527969E+02  0.51100000000E-03 0.  1.
         12    1    3    3    0    0  0.19842274239E+02  0.85500508717E+00 -0.33773233524E+01  0.20145798413E+02  0.00000000000E+00 0. -1.
</event>
<event>
 7    1  0.3568800E-013  0.7246157E+02  0.7816164E-02  0.1226708E+00
        -11   -1    0    0    0    0  0.00000000000E+00  0.00000000000E+00  0.45593999997E+02  0.45594000000E+02  0.51100000000E-03 0.  1.
         11   -1    0    0    0    0 -0.00000000000E+00 -0.00000000000E+00 -0.45593999997E+02  0.45594000000E+02  0.51100000000E-03 0. -1.
    9900012    2    1    2    0    0 -0.11236788395E+02  0.12837087818E+02 -0.77215953018E+01  0.72461567583E+02  0.69999996468E+02 0.  0.
        -12    1    1    2    0    0  0.11236788395E+02 -0.12837087818E+02  0.77215953018E+01  0.18726432417E+02  0.00000000000E+00 0.  1.
         11    1    3    3    0    0  0.16882036173E+01  0.41587046465E+01 -0.24763503921E+00  0.44951283812E+01  0.51100000000E-03 0. -1.
        -11    1    3    3    0    0 -0.33890879197E+02  0.22436960932E+02  0.30743992210E+01  0.40761021079E+02  0.51100000000E-03 0.  1.
         12    1    3    3    0    0  0.20965887184E+02 -0.13758577761E+02 -0.10548359484E+02  0.27205418122E+02  0.00000000000E+00 0. -1.
</event>
<event>
 7    1  0.3568800E-013  0.7246155E+02  0.7816164E-02  0.1226708E+00
        -11   -1    0    0    0    0  0.00000000000E+00  0.00000000000E+00  0.45593999997E+02  0.45594000000E+02  0.51100000000E-03 0.  1.
         11   -1    0    0    0    0 -0.00000000000E+00 -0.00000000000E+00 -0.45593999997E+02  0.45594000000E+02  0.51100000000E-03 0. -1.
    9900012    2    1    2    0    0 -0.17831365007E+02  0.27054374916E+01  0.50401200373E+01  0.72461553993E+02  0.69999978765E+02 0.  0.
        -12    1    1    2    0    0  0.17831365007E+02 -0.27054374916E+01 -0.50401200373E+01  0.18726446007E+02  0.00000000000E+00 0.  1.
         11    1    3    3    0    0 -0.11747324449E+02  0.82936211714E+01  0.14995076547E+02  0.20775853887E+02  0.51100000000E-03 0. -1.
        -11    1    3    3    0    0 -0.27878495448E+02 -0.71262886652E+01 -0.40947604526E+01  0.29064782160E+02  0.51100000000E-03 0.  1.
         12    1    3    3    0    0  0.21794454890E+02  0.15381049854E+01 -0.58601960567E+01  0.22620917946E+02  0.00000000000E+00 0. -1.
</event>
<event>
 7    1  0.3568800E-013  0.7246167E+02  0.7816164E-02  0.1226708E+00
        -11   -1    0    0    0    0  0.00000000000E+00  0.00000000000E+00  0.45593999997E+02  0.45594000000E+02  0.51100000000E-03 0.  1.
         11   -1    0    0    0    0 -0.00000000000E+00 -0.00000000000E+00 -0.45593999997E+02  0.45594000000E+02  0.51100000000E-03 0. -1.
    9900012    2    1    2    0    0  0.45300531387E+01 -0.70697207804E+01 -0.16738369004E+02  0.72461672804E+02  0.70000133537E+02 0.  0.
        -12    1    1    2    0    0 -0.45300531387E+01  0.70697207804E+01  0.16738369004E+02  0.18726327196E+02  0.00000000000E+00 0.  1.
         11    1    3    3    0    0 -0.62281526712E+01 -0.10384177386E+02  0.16408786468E+02  0.20392873738E+02  0.51100000000E-03 0. -1.
        -11    1    3    3    0    0 -0.10434734407E+02  0.12309855414E+01  0.22635120150E+01  0.10748139116E+02  0.51100000000E-03 0.  1.
         12    1    3    3    0    0  0.21192940217E+02  0.20834710644E+01 -0.35410667487E+02  0.41320659949E+02  0.00000000000E+00 0. -1.
</event>
<event>
 7    1  0.3568800E-013  0.7246160E+02  0.7816164E-02  0.1226708E+00
        -11   -1    0    0    0    0  0.00000000000E+00  0.00000000000E+00  0.45593999997E+02  0.45594000000E+02  0.51100000000E-03 0. -1.
         11   -1    0    0    0    0 -0.00000000000E+00 -0.00000000000E+00 -0.45593999997E+02  0.45594000000E+02  0.51100000000E-03 0.  1.
    9900012    2    1    2    0    0 -0.15066826834E+02 -0.93408364296E+01  0.60346994649E+01  0.72461599019E+02  0.70000037420E+02 0.  0.
        -12    1    1    2    0    0  0.15066826834E+02  0.93408364296E+01 -0.60346994649E+01  0.18726400981E+02  0.00000000000E+00 0.  1.
         11    1    3    3    0    0 -0.16481673112E+02 -0.25867522473E+01 -0.27607518602E+00  0.16685714056E+02  0.51100000000E-03 0. -1.
        -11    1    3    3    0    0 -0.78684644993E+01  0.22497140313E+02 -0.21828425842E+01  0.23933216621E+02  0.51100000000E-03 0.  1.
         12    1    3    3    0    0  0.92833107774E+01 -0.29251224495E+02  0.84936172352E+01  0.31842668343E+02  0.00000000000E+00 0. -1.
</event>
<event>
 7    1  0.3568800E-013  0.7246157E+02  0.7816164E-02  0.1226708E+00
        -11   -1    0    0    0    0  0.00000000000E+00  0.00000000000E+00  0.45593999997E+02  0.45594000000E+02  0.51100000000E-03 0.  1.
         11   -1    0    0    0    0 -0.00000000000E+00 -0.00000000000E+00 -0.45593999997E+02  0.45594000000E+02  0.51100000000E-03 0. -1.
    9900012    2    1    2    0    0  0.82886592302E+01  0.53228448137E+01 -0.15926221325E+02  0.72461572833E+02  0.70000003307E+02 0.  0.
        -12    1    1    2    0    0 -0.82886592302E+01 -0.53228448137E+01  0.15926221325E+02  0.18726427167E+02  0.00000000000E+00 0.  1.
         11    1    3    3    0    0 -0.23649453750E+02  0.16003886763E+02 -0.13693917463E+02  0.31669297908E+02  0.51100000000E-03 0. -1.
        -11    1    3    3    0    0  0.11026244712E+02  0.71113742146E+01 -0.23820313173E+01  0.13335058647E+02  0.51100000000E-03 0.  1.
        -12    1    3    3    0    0  0.20911868269E+02 -0.17792416164E+02  0.14972745495E+00  0.27457216278E+02  0.00000000000E+00 0.  1.
</event>
<event>
 7    1  0.3568800E-013  0.7246158E+02  0.7816164E-02  0.1226708E+00
        -11   -1    0    0    0    0  0.00000000000E+00  0.00000000000E+00  0.45593999997E+02  0.45594000000E+02  0.51100000000E-03 0.  1.
         11   -1    0    0    0    0 -0.00000000000E+00 -0.00000000000E+00 -0.45593999997E+02  0.45594000000E+02  0.51100000000E-03 0. -1.
    9900012    2    1    2    0    0  0.32155209615E+01 -0.11946026416E+02 -0.14058150158E+02  0.72461582615E+02  0.70000016050E+02 0.  0.
        -12    1    1    2    0    0 -0.32155209615E+01  0.11946026416E+02  0.14058150158E+02  0.18726417385E+02  0.00000000000E+00 0.  1.
         11    1    3    3    0    0 -0.35611525664E+01  0.20962429466E+01  0.29619027888E+01  0.50841823810E+01  0.51100000000E-03 0. -1.
        -11    1    3    3    0    0 -0.43401112836E+01  0.22772022417E+02 -0.17291103515E+02  0.28920301381E+02  0.51100000000E-03 0.  1.
        -12    1    3    3    0    0  0.11116784811E+02 -0.36814291780E+02  0.27105056791E+00  0.38457098853E+02  0.00000000000E+00 0.  1.
</event>
<event>
 7    1  0.3568800E-013  0.7246156E+02  0.7816164E-02  0.1226708E+00
        -11   -1    0    0    0    0  0.00000000000E+00  0.00000000000E+00  0.45593999997E+02  0.45594000000E+02  0.51100000000E-03 0. -1.
         11   -1    0    0    0    0 -0.00000000000E+00 -0.00000000000E+00 -0.45593999997E+02  0.45594000000E+02  0.51100000000E-03 0.  1.
    9900012    2    1    2    0    0  0.15438195969E+02  0.28481617758E+01  0.10209297109E+02  0.72461556992E+02  0.69999982671E+02 0.  0.
        -12    1    1    2    0    0 -0.15438195969E+02 -0.28481617758E+01 -0.10209297109E+02  0.18726443008E+02  0.00000000000E+00 0.  1.
         11    1    3    3    0    0  0.60388215685E+01 -0.16297924057E+02  0.17539446890E+00  0.17381612640E+02  0.51100000000E-03 0. -1.
        -11    1    3    3    0    0 -0.87432145458E+01 -0.10582961911E+02 -0.79706019410E+01  0.15873669361E+02  0.51100000000E-03 0.  1.
         12    1    3    3    0    0  0.18142588946E+02  0.29729047744E+02  0.18004504581E+02  0.39206274991E+02  0.00000000000E+00 0. -1.
</event>
<event>
 7    1  0.3568800E-013  0.7246158E+02  0.7816164E-02  0.1226708E+00
        -11   -1    0    0    0    0  0.00000000000E+00  0.00000000000E+00  0.45593999997E+02  0.45594000000E+02  0.51100000000E-03 0. -1.
         11   -1    0    0    0    0 -0.00000000000E+00 -0.00000000000E+00 -0.45593999997E+02  0.45594000000E+02  0.51100000000E-03 0.  1.
    9900012    2    1    2    0    0 -0.12572288284E+02 -0.56641383683E+01  0.12670200168E+02  0.72461578333E+02  0.70000010472E+02 0.  0.
        -12    1    1    2    0    0  0.12572288284E+02  0.56641383683E+01 -0.12670200168E+02  0.18726421667E+02  0.00000000000E+00 0.  1.
         11    1    3    3    0    0  0.12276038798E+02  0.12712267765E+02 -0.14474776092E+01  0.17731273840E+02  0.51100000000E-03 0. -1.
        -11    1    3    3    0    0  0.11511062027E+02  0.83234750659E+00  0.10805131420E+01  0.11591585753E+02  0.51100000000E-03 0.  1.
         12    1    3    3    0    0 -0.36359389109E+02 -0.19208753640E+02  0.13037164635E+02  0.43138718740E+02  0.00000000000E+00 0. -1.
</event>
<event>
 7    1  0.3568800E-013  0.7246155E+02  0.7816164E-02  0.1226708E+00
        -11   -1    0    0    0    0  0.00000000000E+00  0.00000000000E+00  0.45593999997E+02  0.45594000000E+02  0.51100000000E-03 0.  1.
         11   -1    0    0    0    0 -0.00000000000E+00 -0.00000000000E+00 -0.45593999997E+02  0.45594000000E+02  0.51100000000E-03 0. -1.
    9900012    2    1    2    0    0 -0.73983659533E+01 -0.32995303287E+01 -0.16883633378E+02  0.72461553588E+02  0.69999978237E+02 0.  0.
        -12    1    1    2    0    0  0.73983659533E+01  0.32995303287E+01  0.16883633378E+02  0.18726446412E+02  0.00000000000E+00 0.  1.
         11    1    3    3    0    0 -0.89848024000E+00 -0.16085056054E+02 -0.67218142251E-01  0.16110270437E+02  0.51100000000E-03 0. -1.
        -11    1    3    3    0    0  0.64330775666E+01 -0.12818842067E+02  0.96782164827E+01  0.17302458596E+02  0.51100000000E-03 0.  1.
        -12    1    3    3    0    0 -0.12932963280E+02  0.25604367792E+02 -0.26494631719E+02  0.39048824555E+02  0.00000000000E+00 0.  1.
</event>
<event>
 7    1  0.3568800E-013  0.7246157E+02  0.7816164E-02  0.1226708E+00
        -11   -1    0    0    0    0  0.00000000000E+00  0.00000000000E+00  0.45593999997E+02  0.45594000000E+02  0.51100000000E-03 0. -1.
         11   -1    0    0    0    0 -0.00000000000E+00 -0.00000000000E+00 -0.45593999997E+02  0.45594000000E+02  0.51100000000E-03 0.  1.
    9900012    2    1    2    0    0 -0.18441943609E+02  0.42981396155E+00  0.32231998314E+01  0.72461573718E+02  0.70000004460E+02 0.  0.
        -12    1    1    2    0    0  0.18441943609E+02 -0.42981396155E+00 -0.32231998314E+01  0.18726426282E+02  0.00000000000E+00 0.  1.
         11    1    3    3    0    0 -0.52257488935E+00 -0.75217068118E+01 -0.59516230911E+01  0.96057782380E+01  0.51100000000E-03 0. -1.
        -11    1    3    3    0    0  0.21847052373E+02  0.40900329862E+01  0.35504288492E+01  0.22508389824E+02  0.51100000000E-03 0.  1.
         12    1    3    3    0    0 -0.39766421093E+02  0.38614877871E+01  0.56243940734E+01  0.40347405656E+02  0.00000000000E+00 0. -1.
</event>
<event>
 7    1  0.3568800E-013  0.7246156E+02  0.7816164E-02  0.1226708E+00
        -11   -1    0    0    0    0  0.00000000000E+00  0.00000000000E+00  0.45593999997E+02  0.45594000000E+02  0.51100000000E-03 0. -1.
         11   -1    0    0    0    0 -0.00000000000E+00 -0.00000000000E+00 -0.45593999997E+02  0.45594000000E+02  0.51100000000E-03 0.  1.
    9900012    2    1    2    0    0  0.34213356043E+01 -0.35645920275E+01  0.18062884999E+02  0.72461556981E+02  0.69999982657E+02 0.  0.
        -12    1    1    2    0    0 -0.34213356043E+01  0.35645920275E+01 -0.18062884999E+02  0.18726443019E+02  0.00000000000E+00 0.  1.
         11    1    3    3    0    0  0.16556980972E+02  0.89765539781E+01 -0.46037452437E+01  0.19388311189E+02  0.51100000000E-03 0. -1.
        -11    1    3    3    0    0  0.14004104828E+02 -0.27077282231E+01 -0.28504958405E+01  0.14545517212E+02  0.51100000000E-03 0.  1.
        -12    1    3    3    0    0 -0.27139750196E+02 -0.98334177824E+01  0.25517126083E+02  0.38527728580E+02  0.00000000000E+00 0.  1.
</event>
<event>
 7    1  0.3568800E-013  0.7246157E+02  0.7816164E-02  0.1226708E+00
        -11   -1    0    0    0    0  0.00000000000E+00  0.00000000000E+00  0.45593999997E+02  0.45594000000E+02  0.51100000000E-03 0. -1.
         11   -1    0    0    0    0 -0.00000000000E+00 -0.00000000000E+00 -0.45593999997E+02  0.45594000000E+02  0.51100000000E-03 0.  1.
    9900012    2    1    2    0    0  0.17183413823E+02  0.74413646195E+01  0.18824299795E+00  0.72461573394E+02  0.70000004037E+02 0.  0.
        -12    1    1    2    0    0 -0.17183413823E+02 -0.74413646195E+01 -0.18824299795E+00  0.18726426606E+02  0.00000000000E+00 0.  1.
         11    1    3    3    0    0  0.57368305210E+01 -0.13256674442E+01  0.79095897883E+01  0.98605390056E+01  0.51100000000E-03 0. -1.
        -11    1    3    3    0    0  0.35767951446E+02 -0.10059293430E+00 -0.82537121842E+01  0.36708040463E+02  0.51100000000E-03 0.  1.
         12    1    3    3    0    0 -0.24321368144E+02  0.88676249980E+01  0.53236539383E+00  0.25892993925E+02  0.00000000000E+00 0. -1.
</event>
<event>
 7    1  0.3568800E-013  0.7246157E+02  0.7816164E-02  0.1226708E+00
        -11   -1    0    0    0    0  0.00000000000E+00  0.00000000000E+00  0.45593999997E+02  0.45594000000E+02  0.51100000000E-03 0.  1.
         11   -1    0    0    0    0 -0.00000000000E+00 -0.00000000000E+00 -0.45593999997E+02  0.45594000000E+02  0.51100000000E-03 0. -1.
    9900012    2    1    2    0    0  0.18319656821E+02  0.35339764847E+01  0.16063392679E+01  0.72461571038E+02  0.70000000969E+02 0.  0.
        -12    1    1    2    0    0 -0.18319656821E+02 -0.35339764847E+01 -0.16063392679E+01  0.18726428962E+02  0.00000000000E+00 0.  1.
         11    1    3    3    0    0  0.63777840681E+00  0.17110132283E+02 -0.12618782763E+02  0.21269627799E+02  0.51100000000E-03 0. -1.
        -11    1    3    3    0    0 -0.57146610742E+01  0.12734002683E+02  0.45057649321E+01  0.14666768336E+02  0.51100000000E-03 0.  1.
        -12    1    3    3    0    0  0.23396539488E+02 -0.26310158481E+02  0.97193570988E+01  0.36525174904E+02  0.00000000000E+00 0.  1.
</event>
<event>
 7    1  0.3568800E-013  0.7246150E+02  0.7816164E-02  0.1226708E+00
        -11   -1    0    0    0    0  0.00000000000E+00  0.00000000000E+00  0.45593999997E+02  0.45594000000E+02  0.51100000000E-03 0.  1.
         11   -1    0    0    0    0 -0.00000000000E+00 -0.00000000000E+00 -0.45593999997E+02  0.45594000000E+02  0.51100000000E-03 0. -1.
    9900012    2    1    2    0    0 -0.10574077156E+02  0.15037055260E+02  0.35718003709E+01  0.72461497484E+02  0.69999905151E+02 0.  0.
        -12    1    1    2    0    0  0.10574077156E+02 -0.15037055260E+02 -0.35718003709E+01  0.18726502516E+02  0.00000000000E+00 0.  1.
         11    1    3    3    0    0  0.55619522156E+01 -0.65621696559E+01 -0.23991884374E+02  0.25487406677E+02  0.51100000000E-03 0. -1.
        -11    1    3    3    0    0  0.47455492613E+01 -0.12769542338E+01 -0.79609169205E+00  0.49784146222E+01  0.51100000000E-03 0.  1.
        -12    1    3    3    0    0 -0.20881578633E+02  0.22876179150E+02  0.28359776437E+02  0.41995676185E+02  0.00000000000E+00 0.  1.
</event>
<event>
 7    1  0.3568800E-013  0.7246159E+02  0.7816164E-02  0.1226708E+00
        -11   -1    0    0    0    0  0.00000000000E+00  0.00000000000E+00  0.45593999997E+02  0.45594000000E+02  0.51100000000E-03 0. -1.
         11   -1    0    0    0    0 -0.00000000000E+00 -0.00000000000E+00 -0.45593999997E+02  0.45594000000E+02  0.51100000000E-03 0.  1.
    9900012    2    1    2    0    0 -0.50738022574E+01  0.13936394380E+02  0.11432932486E+02  0.72461588093E+02  0.70000023187E+02 0.  0.
        -12    1    1    2    0    0  0.50738022574E+01 -0.13936394380E+02 -0.11432932486E+02  0.18726411907E+02  0.00000000000E+00 0.  1.
         11    1    3    3    0    0  0.27566459764E+02  0.12011879974E+02  0.11121328893E+02  0.32060550854E+02  0.51100000000E-03 0. -1.
        -11    1    3    3    0    0  0.36907480320E+01 -0.11862598358E+01  0.67639168788E+00  0.39352686579E+01  0.51100000000E-03 0.  1.
        -12    1    3    3    0    0 -0.36331010054E+02  0.31107742413E+01 -0.36478809433E+00  0.36465768582E+02  0.00000000000E+00 0.  1.
</event>
<event>
 7    1  0.3568800E-013  0.7246185E+02  0.7816164E-02  0.1226707E+00
        -11   -1    0    0    0    0  0.00000000000E+00  0.00000000000E+00  0.45593999997E+02  0.45594000000E+02  0.51100000000E-03 0.  1.
         11   -1    0    0    0    0 -0.00000000000E+00 -0.00000000000E+00 -0.45593999997E+02  0.45594000000E+02  0.51100000000E-03 0. -1.
    9900012    2    1    2    0    0  0.68180081582E+01  0.62302904645E+01 -0.16290084531E+02  0.72461852277E+02  0.70000367334E+02 0.  0.
        -12    1    1    2    0    0 -0.68180081582E+01 -0.62302904645E+01  0.16290084531E+02  0.18726147723E+02  0.00000000000E+00 0.  1.
         11    1    3    3    0    0 -0.15938398703E+02  0.12581833018E+02  0.76734382125E+01  0.21707527026E+02  0.51100000000E-03 0. -1.
        -11    1    3    3    0    0  0.16869908731E+01 -0.17730561779E+02 -0.14211715443E+01  0.17867246235E+02  0.51100000000E-03 0.  1.
        -12    1    3    3    0    0  0.21069415989E+02  0.11379019225E+02 -0.22542351199E+02  0.32887079016E+02  0.00000000000E+00 0.  1.
</event>
<event>
 7    1  0.3568800E-013  0.7246151E+02  0.7816164E-02  0.1226708E+00
        -11   -1    0    0    0    0  0.00000000000E+00  0.00000000000E+00  0.45593999997E+02  0.45594000000E+02  0.51100000000E-03 0. -1.
         11   -1    0    0    0    0 -0.00000000000E+00 -0.00000000000E+00 -0.45593999997E+02  0.45594000000E+02  0.51100000000E-03 0.  1.
    9900012    2    1    2    0    0  0.15347766032E+02  0.10365414569E+02 -0.27722923057E+01  0.72461512182E+02  0.69999924298E+02 0.  0.
        -12    1    1    2    0    0 -0.15347766032E+02 -0.10365414569E+02  0.27722923057E+01  0.18726487818E+02  0.00000000000E+00 0.  1.
         11    1    3    3    0    0 -0.44450573759E+01  0.72033805204E+01 -0.12532346050E+02  0.15123059339E+02  0.51100000000E-03 0. -1.
        -11    1    3    3    0    0  0.24663737435E+01 -0.23861175504E+02  0.76194400299E+00  0.24000401139E+02  0.51100000000E-03 0.  1.
         12    1    3    3    0    0  0.17326449665E+02  0.27023209553E+02  0.89981097411E+01  0.33338051704E+02  0.00000000000E+00 0. -1.
</event>
<event>
 7    1  0.3568800E-013  0.7246156E+02  0.7816164E-02  0.1226708E+00
        -11   -1    0    0    0    0  0.00000000000E+00  0.00000000000E+00  0.45593999997E+02  0.45594000000E+02  0.51100000000E-03 0. -1.
         11   -1    0    0    0    0 -0.00000000000E+00 -0.00000000000E+00 -0.45593999997E+02  0.45594000000E+02  0.51100000000E-03 0.  1.
    9900012    2    1    2    0    0  0.44374637687E+00 -0.18154543790E+02  0.45711114594E+01  0.72461563312E+02  0.69999990904E+02 0.  0.
        -12    1    1    2    0    0 -0.44374637687E+00  0.18154543790E+02 -0.45711114594E+01  0.18726436688E+02  0.00000000000E+00 0.  1.
         11    1    3    3    0    0 -0.32310219564E+01 -0.13315597001E+02  0.63431095746E+01  0.15098995520E+02  0.51100000000E-03 0. -1.
        -11    1    3    3    0    0 -0.25772327241E+02  0.18729395997E+01  0.52180849125E+01  0.26361888487E+02  0.51100000000E-03 0.  1.
         12    1    3    3    0    0  0.29447095574E+02 -0.67118863882E+01 -0.69900830277E+01  0.31000679305E+02  0.00000000000E+00 0. -1.
</event>
<event>
 7    1  0.3568800E-013  0.7246164E+02  0.7816164E-02  0.1226708E+00
        -11   -1    0    0    0    0  0.00000000000E+00  0.00000000000E+00  0.45593999997E+02  0.45594000000E+02  0.51100000000E-03 0.  1.
         11   -1    0    0    0    0 -0.00000000000E+00 -0.00000000000E+00 -0.45593999997E+02  0.45594000000E+02  0.51100000000E-03 0. -1.
    9900012    2    1    2    0    0  0.56161667475E+01  0.37792122287E+01 -0.17460033965E+02  0.72461639968E+02  0.70000090762E+02 0.  0.
        -12    1    1    2    0    0 -0.56161667475E+01 -0.37792122287E+01  0.17460033965E+02  0.18726360032E+02  0.00000000000E+00 0.  1.
         11    1    3    3    0    0 -0.15529544857E+02  0.27047816593E+01 -0.92042556817E+01  0.18253792214E+02  0.51100000000E-03 0. -1.
        -11    1    3    3    0    0  0.14789256430E+02  0.13185073203E+02 -0.25439741318E+02  0.32245134512E+02  0.51100000000E-03 0.  1.
        -12    1    3    3    0    0  0.63564551741E+01 -0.12110642633E+02  0.17183963034E+02  0.21962713242E+02  0.00000000000E+00 0.  1.
</event>
<event>
 7    1  0.3568800E-013  0.7246160E+02  0.7816164E-02  0.1226708E+00
        -11   -1    0    0    0    0  0.00000000000E+00  0.00000000000E+00  0.45593999997E+02  0.45594000000E+02  0.51100000000E-03 0.  1.
         11   -1    0    0    0    0 -0.00000000000E+00 -0.00000000000E+00 -0.45593999997E+02  0.45594000000E+02  0.51100000000E-03 0. -1.
    9900012    2    1    2    0    0  0.83624508417E+01 -0.89235295537E+01 -0.14181607541E+02  0.72461602690E+02  0.70000042201E+02 0.  0.
        -12    1    1    2    0    0 -0.83624508417E+01  0.89235295537E+01  0.14181607541E+02  0.18726397310E+02  0.00000000000E+00 0.  1.
         11    1    3    3    0    0 -0.18807023258E+02 -0.12993925664E+02  0.22907254219E+01  0.22973760058E+02  0.51100000000E-03 0. -1.
        -11    1    3    3    0    0 -0.61708422149E+01 -0.61018721613E+01  0.34498316160E+01  0.93388155542E+01  0.51100000000E-03 0.  1.
        -12    1    3    3    0    0  0.33340316315E+02  0.10172268272E+02 -0.19922164579E+02  0.40149027077E+02  0.00000000000E+00 0.  1.
</event>
<event>
 7    1  0.3568800E-013  0.7246161E+02  0.7816164E-02  0.1226708E+00
        -11   -1    0    0    0    0  0.00000000000E+00  0.00000000000E+00  0.45593999997E+02  0.45594000000E+02  0.51100000000E-03 0. -1.
         11   -1    0    0    0    0 -0.00000000000E+00 -0.00000000000E+00 -0.45593999997E+02  0.45594000000E+02  0.51100000000E-03 0.  1.
    9900012    2    1    2    0    0  0.14389120599E+02 -0.10614622634E+01 -0.11937512988E+02  0.72461609261E+02  0.70000050761E+02 0.  0.
        -12    1    1    2    0    0 -0.14389120599E+02  0.10614622634E+01  0.11937512988E+02  0.18726390739E+02  0.00000000000E+00 0.  1.
         11    1    3    3    0    0 -0.72747197659E+01 -0.95251071334E+00 -0.63415478083E+01  0.96976313189E+01  0.51100000000E-03 0. -1.
        -11    1    3    3    0    0 -0.98203276729E+01 -0.21920053668E+02 -0.45631151205E+01  0.24448918345E+02  0.51100000000E-03 0.  1.
        -12    1    3    3    0    0  0.31484168038E+02  0.21811102118E+02 -0.10328500594E+01  0.38315059597E+02  0.00000000000E+00 0.  1.
</event>
<event>
 7    1  0.3568800E-013  0.7246155E+02  0.7816164E-02  0.1226708E+00
        -11   -1    0    0    0    0  0.00000000000E+00  0.00000000000E+00  0.45593999997E+02  0.45594000000E+02  0.51100000000E-03 0.  1.
         11   -1    0    0    0    0 -0.00000000000E+00 -0.00000000000E+00 -0.45593999997E+02  0.45594000000E+02  0.51100000000E-03 0. -1.
    9900012    2    1    2    0    0  0.28896219923E+01  0.14440376080E+02 -0.11567431430E+02  0.72461552219E+02  0.69999976454E+02 0.  0.
        -12    1    1    2    0    0 -0.28896219923E+01 -0.14440376080E+02  0.11567431430E+02  0.18726447781E+02  0.00000000000E+00 0.  1.
         11    1    3    3    0    0  0.39853004864E-01  0.10438470094E+02 -0.21082519328E+02  0.23525217696E+02  0.51100000000E-03 0. -1.
        -11    1    3    3    0    0  0.73798794881E+00 -0.21747732376E+02  0.75212850587E+01  0.23023427610E+02  0.51100000000E-03 0.  1.
         12    1    3    3    0    0  0.21117810386E+01  0.25749638362E+02  0.19938028388E+01  0.25912906913E+02  0.00000000000E+00 0. -1.
</event>
<event>
 7    1  0.3568800E-013  0.7246188E+02  0.7816164E-02  0.1226707E+00
        -11   -1    0    0    0    0  0.00000000000E+00  0.00000000000E+00  0.45593999997E+02  0.45594000000E+02  0.51100000000E-03 0.  1.
         11   -1    0    0    0    0 -0.00000000000E+00 -0.00000000000E+00 -0.45593999997E+02  0.45594000000E+02  0.51100000000E-03 0. -1.
    9900012    2    1    2    0    0 -0.85396488346E+01  0.47001298470E+00 -0.16658963959E+02  0.72461879350E+02  0.70000402601E+02 0.  0.
        -12    1    1    2    0    0  0.85396488346E+01 -0.47001298470E+00  0.16658963959E+02  0.18726120650E+02  0.00000000000E+00 0.  1.
         11    1    3    3    0    0  0.32835201434E-02 -0.42823318061E+01  0.20422641243E+02  0.20866783463E+02  0.51100000000E-03 0. -1.
        -11    1    3    3    0    0  0.98948916705E+01 -0.70796564138E+01 -0.59925385572E+01  0.13562482617E+02  0.51100000000E-03 0.  1.
         12    1    3    3    0    0 -0.18437824025E+02  0.11832001205E+02 -0.31089066645E+02  0.38032613270E+02  0.00000000000E+00 0. -1.
</event>
<event>
 7    1  0.3568800E-013  0.7246156E+02  0.7816164E-02  0.1226708E+00
        -11   -1    0    0    0    0  0.00000000000E+00  0.00000000000E+00  0.45593999997E+02  0.45594000000E+02  0.51100000000E-03 0.  1.
         11   -1    0    0    0    0 -0.00000000000E+00 -0.00000000000E+00 -0.45593999997E+02  0.45594000000E+02  0.51100000000E-03 0. -1.
    9900012    2    1    2    0    0 -0.10721852251E+02  0.62750478497E+01 -0.14012329725E+02  0.72461555449E+02  0.69999980661E+02 0.  0.
        -12    1    1    2    0    0  0.10721852251E+02 -0.62750478497E+01  0.14012329725E+02  0.18726444551E+02  0.00000000000E+00 0.  1.
         11    1    3    3    0    0 -0.87285569437E+01  0.55317045316E+01 -0.24135800074E+02  0.26254986323E+02  0.51100000000E-03 0. -1.
        -11    1    3    3    0    0 -0.21927017401E+02  0.50721770757E+00 -0.32908585662E+01  0.22178392914E+02  0.51100000000E-03 0.  1.
         12    1    3    3    0    0  0.19933722094E+02  0.23612561049E+00  0.13414328915E+02  0.24028176212E+02  0.00000000000E+00 0. -1.
</event>
<event>
 7    1  0.3568800E-013  0.7246144E+02  0.7816164E-02  0.1226708E+00
        -11   -1    0    0    0    0  0.00000000000E+00  0.00000000000E+00  0.45593999997E+02  0.45594000000E+02  0.51100000000E-03 0.  1.
         11   -1    0    0    0    0 -0.00000000000E+00 -0.00000000000E+00 -0.45593999997E+02  0.45594000000E+02  0.51100000000E-03 0. -1.
    9900012    2    1    2    0    0 -0.11669792958E+02  0.78075704855E+01 -0.12391198062E+02  0.72461440946E+02  0.69999831500E+02 0.  0.
        -12    1    1    2    0    0  0.11669792958E+02 -0.78075704855E+01  0.12391198062E+02  0.18726559054E+02  0.00000000000E+00 0.  1.
         11    1    3    3    0    0 -0.62024856273E+00 -0.26441322489E+01  0.90791535888E+00  0.28636435165E+01  0.51100000000E-03 0. -1.
        -11    1    3    3    0    0  0.23053358266E+01  0.29579824214E+01  0.26598841324E+02  0.26861917156E+02  0.51100000000E-03 0.  1.
         12    1    3    3    0    0 -0.13354880222E+02  0.74937203130E+01 -0.39897954745E+02  0.42735880273E+02  0.00000000000E+00 0. -1.
</event>
<event>
 7    1  0.3568800E-013  0.7246157E+02  0.7816164E-02  0.1226708E+00
        -11   -1    0    0    0    0  0.00000000000E+00  0.00000000000E+00  0.45593999997E+02  0.45594000000E+02  0.51100000000E-03 0. -1.
         11   -1    0    0    0    0 -0.00000000000E+00 -0.00000000000E+00 -0.45593999997E+02  0.45594000000E+02  0.51100000000E-03 0.  1.
    9900012    2    1    2    0    0 -0.11334428877E+02 -0.14530727205E+02 -0.33268519930E+01  0.72461568006E+02  0.69999997019E+02 0.  0.
        -12    1    1    2    0    0  0.11334428877E+02  0.14530727205E+02  0.33268519930E+01  0.18726431994E+02  0.00000000000E+00 0.  1.
         11    1    3    3    0    0 -0.18356176188E+02 -0.17226041984E+02 -0.21129028639E+01  0.25261632676E+02  0.51100000000E-03 0. -1.
        -11    1    3    3    0    0 -0.13043866818E+01  0.99966254622E+01 -0.21691531676E+02  0.23919792892E+02  0.51100000000E-03 0.  1.
         12    1    3    3    0    0  0.83261339933E+01 -0.73013106824E+01  0.20477582547E+02  0.23280142438E+02  0.00000000000E+00 0. -1.
</event>
<event>
 7    1  0.3568800E-013  0.7246158E+02  0.7816164E-02  0.1226708E+00
        -11   -1    0    0    0    0  0.00000000000E+00  0.00000000000E+00  0.45593999997E+02  0.45594000000E+02  0.51100000000E-03 0. -1.
         11   -1    0    0    0    0 -0.00000000000E+00 -0.00000000000E+00 -0.45593999997E+02  0.45594000000E+02  0.51100000000E-03 0.  1.
    9900012    2    1    2    0    0  0.37600552370E+01 -0.57107312552E+01  0.17433544309E+02  0.72461576582E+02  0.70000008191E+02 0.  0.
        -12    1    1    2    0    0 -0.37600552370E+01  0.57107312552E+01 -0.17433544309E+02  0.18726423418E+02  0.00000000000E+00 0.  1.
         11    1    3    3    0    0 -0.13962985391E+02 -0.15862261928E+02  0.62920719430E+01  0.22049183297E+02  0.51100000000E-03 0. -1.
        -11    1    3    3    0    0 -0.16001397721E+01 -0.16036459181E+02  0.33393848030E+00  0.16119552895E+02  0.51100000000E-03 0.  1.
         12    1    3    3    0    0  0.19323180400E+02  0.26187989854E+02  0.10807533885E+02  0.34292840390E+02  0.00000000000E+00 0. -1.
</event>
<event>
 7    1  0.3568800E-013  0.7246163E+02  0.7816164E-02  0.1226708E+00
        -11   -1    0    0    0    0  0.00000000000E+00  0.00000000000E+00  0.45593999997E+02  0.45594000000E+02  0.51100000000E-03 0.  1.
         11   -1    0    0    0    0 -0.00000000000E+00 -0.00000000000E+00 -0.45593999997E+02  0.45594000000E+02  0.51100000000E-03 0. -1.
    9900012    2    1    2    0    0 -0.87839022908E+01  0.12678422259E+02 -0.10619677172E+02  0.72461631595E+02  0.70000079855E+02 0.  0.
        -12    1    1    2    0    0  0.87839022908E+01 -0.12678422259E+02  0.10619677172E+02  0.18726368405E+02  0.00000000000E+00 0.  1.
         11    1    3    3    0    0 -0.77063241237E+01 -0.82999799341E+01  0.14661456907E+02  0.18526613757E+02  0.51100000000E-03 0. -1.
        -11    1    3    3    0    0  0.17414752281E+01  0.16253087479E+02  0.93757204410E+01  0.18844089859E+02  0.51100000000E-03 0.  1.
         12    1    3    3    0    0 -0.28190533952E+01  0.47253147141E+01 -0.34656854520E+02  0.35090927979E+02  0.00000000000E+00 0. -1.
</event>
<event>
 7    1  0.3568800E-013  0.7246155E+02  0.7816164E-02  0.1226708E+00
        -11   -1    0    0    0    0  0.00000000000E+00  0.00000000000E+00  0.45593999997E+02  0.45594000000E+02  0.51100000000E-03 0. -1.
         11   -1    0    0    0    0 -0.00000000000E+00 -0.00000000000E+00 -0.45593999997E+02  0.45594000000E+02  0.51100000000E-03 0.  1.
    9900012    2    1    2    0    0 -0.77154682539E+01  0.82988637027E+01  0.14909072313E+02  0.72461547416E+02  0.69999970197E+02 0.  0.
        -12    1    1    2    0    0  0.77154682539E+01 -0.82988637027E+01 -0.14909072313E+02  0.18726452584E+02  0.00000000000E+00 0.  1.
         11    1    3    3    0    0  0.34130691989E+01  0.10771475551E+01  0.20195480556E+02  0.20510161466E+02  0.51100000000E-03 0. -1.
        -11    1    3    3    0    0  0.68690314548E+01 -0.15099790865E+02  0.10088935161E+02  0.19415815466E+02  0.51100000000E-03 0.  1.
         12    1    3    3    0    0 -0.17997568908E+02  0.22321507012E+02 -0.15375343404E+02  0.32535570483E+02  0.00000000000E+00 0. -1.
</event>
<event>
 7    1  0.3568800E-013  0.7246212E+02  0.7816164E-02  0.1226707E+00
        -11   -1    0    0    0    0  0.00000000000E+00  0.00000000000E+00  0.45593999997E+02  0.45594000000E+02  0.51100000000E-03 0.  1.
         11   -1    0    0    0    0 -0.00000000000E+00 -0.00000000000E+00 -0.45593999997E+02  0.45594000000E+02  0.51100000000E-03 0. -1.
    9900012    2    1    2    0    0 -0.96510542282E+01 -0.94863816852E+01 -0.12943118585E+02  0.72462119409E+02  0.70000715320E+02 0.  0.
        -12    1    1    2    0    0  0.96510542282E+01  0.94863816852E+01  0.12943118585E+02  0.18725880591E+02  0.00000000000E+00 0.  1.
         11    1    3    3    0    0  0.62081675851E+01 -0.16166546947E+02 -0.18985736980E+02  0.25697408311E+02  0.51100000000E-03 0. -1.
        -11    1    3    3    0    0 -0.76307574629E+01 -0.64402280060E+01 -0.16576505272E+02  0.19351628446E+02  0.51100000000E-03 0.  1.
        -12    1    3    3    0    0 -0.82284643504E+01  0.13120393268E+02  0.22619123666E+02  0.27413082652E+02  0.00000000000E+00 0.  1.
</event>
<event>
 7    1  0.3568800E-013  0.7246147E+02  0.7816164E-02  0.1226708E+00
        -11   -1    0    0    0    0  0.00000000000E+00  0.00000000000E+00  0.45593999997E+02  0.45594000000E+02  0.51100000000E-03 0.  1.
         11   -1    0    0    0    0 -0.00000000000E+00 -0.00000000000E+00 -0.45593999997E+02  0.45594000000E+02  0.51100000000E-03 0. -1.
    9900012    2    1    2    0    0  0.15169914703E+02 -0.10525242312E+02  0.31266241824E+01  0.72461472917E+02  0.69999873147E+02 0.  0.
        -12    1    1    2    0    0 -0.15169914703E+02  0.10525242312E+02 -0.31266241824E+01  0.18726527083E+02  0.00000000000E+00 0.  1.
         11    1    3    3    0    0 -0.62977697200E+01  0.31919722088E+00  0.37793960257E+01  0.73517089776E+01  0.51100000000E-03 0. -1.
        -11    1    3    3    0    0 -0.61218892699E+01  0.69173335341E+00  0.24976680712E+02  0.25725291114E+02  0.51100000000E-03 0.  1.
        -12    1    3    3    0    0  0.27589573693E+02 -0.11536172887E+02 -0.25629452555E+02  0.39384472825E+02  0.00000000000E+00 0.  1.
</event>
<event>
 7    1  0.3568800E-013  0.7246156E+02  0.7816164E-02  0.1226708E+00
        -11   -1    0    0    0    0  0.00000000000E+00  0.00000000000E+00  0.45593999997E+02  0.45594000000E+02  0.51100000000E-03 0. -1.
         11   -1    0    0    0    0 -0.00000000000E+00 -0.00000000000E+00 -0.45593999997E+02  0.45594000000E+02  0.51100000000E-03 0.  1.
    9900012    2    1    2    0    0 -0.11030479452E+01  0.93169298134E+01  0.16206719293E+02  0.72461557568E+02  0.69999983421E+02 0.  0.
        -12    1    1    2    0    0  0.11030479452E+01 -0.93169298134E+01 -0.16206719293E+02  0.18726442432E+02  0.00000000000E+00 0.  1.
         11    1    3    3    0    0  0.12752020747E+02 -0.10576877816E+02  0.28942324880E+02  0.33348801285E+02  0.51100000000E-03 0. -1.
        -11    1    3    3    0    0 -0.14993426118E+02  0.11945135618E+02  0.48557360908E+01  0.19775420727E+02  0.51100000000E-03 0.  1.
        -12    1    3    3    0    0  0.11383574258E+01  0.79486720114E+01 -0.17591341677E+02  0.19337335555E+02  0.00000000000E+00 0.  1.
</event>
<event>
 7    1  0.3568800E-013  0.7246158E+02  0.7816164E-02  0.1226708E+00
        -11   -1    0    0    0    0  0.00000000000E+00  0.00000000000E+00  0.45593999997E+02  0.45594000000E+02  0.51100000000E-03 0. -1.
         11   -1    0    0    0    0 -0.00000000000E+00 -0.00000000000E+00 -0.45593999997E+02  0.45594000000E+02  0.51100000000E-03 0.  1.
    9900012    2    1    2    0    0  0.18970718605E+01 -0.52923059527E+01  0.17862568378E+02  0.72461581949E+02  0.70000015183E+02 0.  0.
        -12    1    1    2    0    0 -0.18970718605E+01  0.52923059527E+01 -0.17862568378E+02  0.18726418051E+02  0.00000000000E+00 0.  1.
         11    1    3    3    0    0  0.14219244089E+02 -0.11892752023E+02  0.36887384868E+02  0.41283212276E+02  0.51100000000E-03 0. -1.
        -11    1    3    3    0    0 -0.10967935612E+01  0.10286856046E+01  0.43792503196E+01  0.46302250282E+01  0.51100000000E-03 0.  1.
        -12    1    3    3    0    0 -0.11225378667E+02  0.55717604652E+01 -0.23404066810E+02  0.26548144646E+02  0.00000000000E+00 0.  1.
</event>
<event>
 7    1  0.3568800E-013  0.7246155E+02  0.7816164E-02  0.1226708E+00
        -11   -1    0    0    0    0  0.00000000000E+00  0.00000000000E+00  0.45593999997E+02  0.45594000000E+02  0.51100000000E-03 0.  1.
         11   -1    0    0    0    0 -0.00000000000E+00 -0.00000000000E+00 -0.45593999997E+02  0.45594000000E+02  0.51100000000E-03 0. -1.
    9900012    2    1    2    0    0  0.96208457792E+01 -0.13390091434E+02 -0.88783250359E+01  0.72461551389E+02  0.69999975373E+02 0.  0.
        -12    1    1    2    0    0 -0.96208457792E+01  0.13390091434E+02  0.88783250359E+01  0.18726448611E+02  0.00000000000E+00 0.  1.
         11    1    3    3    0    0 -0.13978917452E+01 -0.12063861150E+02  0.37711029941E+00  0.12150434544E+02  0.51100000000E-03 0. -1.
        -11    1    3    3    0    0  0.20738900133E+02 -0.25327619655E+02 -0.10523645426E+02  0.34385133553E+02  0.51100000000E-03 0.  1.
         12    1    3    3    0    0 -0.97201626084E+01  0.24001389371E+02  0.12682100910E+01  0.25925983293E+02  0.00000000000E+00 0. -1.
</event>
<event>
 7    1  0.3568800E-013  0.7246141E+02  0.7816164E-02  0.1226708E+00
        -11   -1    0    0    0    0  0.00000000000E+00  0.00000000000E+00  0.45593999997E+02  0.45594000000E+02  0.51100000000E-03 0. -1.
         11   -1    0    0    0    0 -0.00000000000E+00 -0.00000000000E+00 -0.45593999997E+02  0.45594000000E+02  0.51100000000E-03 0.  1.
    9900012    2    1    2    0    0 -0.86820788080E+01 -0.16214343249E+02  0.35216036735E+01  0.72461411633E+02  0.69999793314E+02 0.  0.
        -12    1    1    2    0    0  0.86820788080E+01  0.16214343249E+02 -0.35216036735E+01  0.18726588367E+02  0.00000000000E+00 0.  1.
         11    1    3    3    0    0  0.88584302901E+01  0.41654514116E+01 -0.19378040298E+02  0.21710163949E+02  0.51100000000E-03 0. -1.
        -11    1    3    3    0    0 -0.11676198687E+02 -0.77770346943E+01 -0.85063928363E+01  0.16406541493E+02  0.51100000000E-03 0.  1.
         12    1    3    3    0    0 -0.58643104109E+01 -0.12602759967E+02  0.31406036807E+02  0.34344706191E+02  0.00000000000E+00 0. -1.
</event>
<event>
 7    1  0.3568800E-013  0.7246142E+02  0.7816164E-02  0.1226708E+00
        -11   -1    0    0    0    0  0.00000000000E+00  0.00000000000E+00  0.45593999997E+02  0.45594000000E+02  0.51100000000E-03 0.  1.
         11   -1    0    0    0    0 -0.00000000000E+00 -0.00000000000E+00 -0.45593999997E+02  0.45594000000E+02  0.51100000000E-03 0. -1.
    9900012    2    1    2    0    0 -0.97795913522E+01 -0.12858912208E+02 -0.94706311727E+01  0.72461417690E+02  0.69999801205E+02 0.  0.
        -12    1    1    2    0    0  0.97795913522E+01  0.12858912208E+02  0.94706311727E+01  0.18726582310E+02  0.00000000000E+00 0.  1.
         11    1    3    3    0    0  0.14406611876E+02 -0.20412599661E+02 -0.72806959788E+01  0.26023705056E+02  0.51100000000E-03 0. -1.
        -11    1    3    3    0    0  0.24421420200E+01 -0.77730886118E+01  0.10419257955E+02  0.13226711640E+02  0.51100000000E-03 0.  1.
        -12    1    3    3    0    0 -0.26628345248E+02  0.15326776064E+02 -0.12609193149E+02  0.33211000994E+02  0.00000000000E+00 0.  1.
</event>
<event>
 7    1  0.3568800E-013  0.7246148E+02  0.7816164E-02  0.1226708E+00
        -11   -1    0    0    0    0  0.00000000000E+00  0.00000000000E+00  0.45593999997E+02  0.45594000000E+02  0.51100000000E-03 0.  1.
         11   -1    0    0    0    0 -0.00000000000E+00 -0.00000000000E+00 -0.45593999997E+02  0.45594000000E+02  0.51100000000E-03 0. -1.
    9900012    2    1    2    0    0  0.76853856098E+01  0.19879116714E+01 -0.16960708440E+02  0.72461479353E+02  0.69999881531E+02 0.  0.
        -12    1    1    2    0    0 -0.76853856098E+01 -0.19879116714E+01  0.16960708440E+02  0.18726520647E+02  0.00000000000E+00 0.  1.
         11    1    3    3    0    0  0.52439461642E+01 -0.14731019537E+02  0.44686853951E+01  0.16262566138E+02  0.51100000000E-03 0. -1.
        -11    1    3    3    0    0 -0.17887100606E+02 -0.17154337652E-02  0.53293342548E+01  0.18664141419E+02  0.51100000000E-03 0.  1.
         12    1    3    3    0    0  0.20328540052E+02  0.16720646642E+02 -0.26758728089E+02  0.37534771796E+02  0.00000000000E+00 0. -1.
</event>
<event>
 7    1  0.3568800E-013  0.7246172E+02  0.7816164E-02  0.1226708E+00
        -11   -1    0    0    0    0  0.00000000000E+00  0.00000000000E+00  0.45593999997E+02  0.45594000000E+02  0.51100000000E-03 0. -1.
         11   -1    0    0    0    0 -0.00000000000E+00 -0.00000000000E+00 -0.45593999997E+02  0.45594000000E+02  0.51100000000E-03 0.  1.
    9900012    2    1    2    0    0  0.69825910878E+01 -0.95394243320E+01  0.14522956966E+02  0.72461722369E+02  0.70000198105E+02 0.  0.
        -12    1    1    2    0    0 -0.69825910878E+01  0.95394243320E+01 -0.14522956966E+02  0.18726277631E+02  0.00000000000E+00 0.  1.
         11    1    3    3    0    0 -0.37267172566E+01 -0.31902506412E+02  0.18332696926E+02  0.36983051709E+02  0.51100000000E-03 0. -1.
        -11    1    3    3    0    0  0.21380582307E+01 -0.56113728776E+01 -0.97544385191E+00  0.60836082663E+01  0.51100000000E-03 0.  1.
        -12    1    3    3    0    0  0.85712501137E+01  0.27974454958E+02 -0.28342961079E+01  0.29395062394E+02  0.00000000000E+00 0.  1.
</event>
<event>
 7    1  0.3568800E-013  0.7246144E+02  0.7816164E-02  0.1226708E+00
        -11   -1    0    0    0    0  0.00000000000E+00  0.00000000000E+00  0.45593999997E+02  0.45594000000E+02  0.51100000000E-03 0.  1.
         11   -1    0    0    0    0 -0.00000000000E+00 -0.00000000000E+00 -0.45593999997E+02  0.45594000000E+02  0.51100000000E-03 0. -1.
    9900012    2    1    2    0    0  0.18448497774E+02  0.30026365314E+01  0.11493429085E+01  0.72461444380E+02  0.69999835973E+02 0.  0.
        -12    1    1    2    0    0 -0.18448497774E+02 -0.30026365314E+01 -0.11493429085E+01  0.18726555620E+02  0.00000000000E+00 0.  1.
         11    1    3    3    0    0  0.79539978978E+01 -0.16698003660E+02 -0.15378224989E+02  0.24053673584E+02  0.51100000000E-03 0. -1.
        -11    1    3    3    0    0 -0.14406988465E+02  0.30760138504E+01  0.12240204100E+01  0.14782469485E+02  0.51100000000E-03 0.  1.
        -12    1    3    3    0    0  0.24901488341E+02  0.16624626341E+02  0.15303547488E+02  0.33625301312E+02  0.00000000000E+00 0.  1.
</event>
<event>
 7    1  0.3568800E-013  0.7246158E+02  0.7816164E-02  0.1226708E+00
        -11   -1    0    0    0    0  0.00000000000E+00  0.00000000000E+00  0.45593999997E+02  0.45594000000E+02  0.51100000000E-03 0. -1.
         11   -1    0    0    0    0 -0.00000000000E+00 -0.00000000000E+00 -0.45593999997E+02  0.45594000000E+02  0.51100000000E-03 0.  1.
    9900012    2    1    2    0    0 -0.16699100323E+02 -0.46990300137E+01  0.70525278936E+01  0.72461575239E+02  0.70000006441E+02 0.  0.
        -12    1    1    2    0    0  0.16699100323E+02  0.46990300137E+01 -0.70525278936E+01  0.18726424761E+02  0.00000000000E+00 0.  1.
         11    1    3    3    0    0 -0.10474460266E+02  0.23965145921E+02  0.35504335599E+01  0.26394092438E+02  0.51100000000E-03 0. -1.
        -11    1    3    3    0    0 -0.55406347210E+01  0.58810484123E+01 -0.61938607948E+01  0.10180828814E+02  0.51100000000E-03 0.  1.
         12    1    3    3    0    0 -0.68400533591E+00 -0.34545224347E+02  0.96959551286E+01  0.35886653987E+02  0.00000000000E+00 0. -1.
</event>
<event>
 7    1  0.3568800E-013  0.7246150E+02  0.7816164E-02  0.1226708E+00
        -11   -1    0    0    0    0  0.00000000000E+00  0.00000000000E+00  0.45593999997E+02  0.45594000000E+02  0.51100000000E-03 0.  1.
         11   -1    0    0    0    0 -0.00000000000E+00 -0.00000000000E+00 -0.45593999997E+02  0.45594000000E+02  0.51100000000E-03 0. -1.
    9900012    2    1    2    0    0 -0.13998233336E+02  0.55181234583E+01 -0.11148166878E+02  0.72461498784E+02  0.69999906845E+02 0.  0.
        -12    1    1    2    0    0  0.13998233336E+02 -0.55181234583E+01  0.11148166878E+02  0.18726501216E+02  0.00000000000E+00 0.  1.
         11    1    3    3    0    0 -0.30928450112E+02 -0.84091034144E+01 -0.11957233703E+01  0.32073537398E+02  0.51100000000E-03 0. -1.
        -11    1    3    3    0    0 -0.42889703760E+01  0.73065129068E+01 -0.15332915971E+02  0.17517953938E+02  0.51100000000E-03 0.  1.
        -12    1    3    3    0    0  0.21219187151E+02  0.66207139659E+01  0.53804724632E+01  0.22870007449E+02  0.00000000000E+00 0.  1.
</event>
<event>
 7    1  0.3568800E-013  0.7246155E+02  0.7816164E-02  0.1226708E+00
        -11   -1    0    0    0    0  0.00000000000E+00  0.00000000000E+00  0.45593999997E+02  0.45594000000E+02  0.51100000000E-03 0.  1.
         11   -1    0    0    0    0 -0.00000000000E+00 -0.00000000000E+00 -0.45593999997E+02  0.45594000000E+02  0.51100000000E-03 0. -1.
    9900012    2    1    2    0    0  0.53907742004E+01  0.17744321942E+02  0.25996852186E+01  0.72461554237E+02  0.69999979083E+02 0.  0.
        -12    1    1    2    0    0 -0.53907742004E+01 -0.17744321942E+02 -0.25996852186E+01  0.18726445763E+02  0.00000000000E+00 0.  1.
         11    1    3    3    0    0  0.63716204106E+01  0.83754910595E+00 -0.11220901013E+02  0.12930879899E+02  0.51100000000E-03 0. -1.
        -11    1    3    3    0    0  0.40798711583E+01 -0.15059713704E+02  0.21212481757E+02  0.26332673774E+02  0.51100000000E-03 0.  1.
         12    1    3    3    0    0 -0.50607173685E+01  0.31966486540E+02 -0.73918955253E+01  0.33198000564E+02  0.00000000000E+00 0. -1.
</event>
<event>
 7    1  0.3568800E-013  0.7246197E+02  0.7816164E-02  0.1226707E+00
        -11   -1    0    0    0    0  0.00000000000E+00  0.00000000000E+00  0.45593999997E+02  0.45594000000E+02  0.51100000000E-03 0.  1.
         11   -1    0    0    0    0 -0.00000000000E+00 -0.00000000000E+00 -0.45593999997E+02  0.45594000000E+02  0.51100000000E-03 0. -1.
    9900012    2    1    2    0    0  0.16787217832E+02 -0.16870073386E+01 -0.81244934903E+01  0.72461973439E+02  0.70000525169E+02 0.  0.
        -12    1    1    2    0    0 -0.16787217832E+02  0.16870073386E+01  0.81244934903E+01  0.18726026561E+02  0.00000000000E+00 0.  1.
         11    1    3    3    0    0  0.77447912946E+01  0.12670590284E+02 -0.28252259759E+02  0.31917328085E+02  0.51100000000E-03 0. -1.
        -11    1    3    3    0    0  0.17723296191E+01  0.36093440381E+01 -0.64798676943E+01  0.76260869561E+01  0.51100000000E-03 0.  1.
        -12    1    3    3    0    0  0.72700969182E+01 -0.17966941661E+02  0.26607633963E+02  0.32918558397E+02  0.00000000000E+00 0.  1.
</event>
<event>
 7    1  0.3568800E-013  0.7246155E+02  0.7816164E-02  0.1226708E+00
        -11   -1    0    0    0    0  0.00000000000E+00  0.00000000000E+00  0.45593999997E+02  0.45594000000E+02  0.51100000000E-03 0.  1.
         11   -1    0    0    0    0 -0.00000000000E+00 -0.00000000000E+00 -0.45593999997E+02  0.45594000000E+02  0.51100000000E-03 0. -1.
    9900012    2    1    2    0    0 -0.87142721761E+01  0.16565498654E+02  0.57071299062E+00  0.72461548160E+02  0.69999971165E+02 0.  0.
        -12    1    1    2    0    0  0.87142721761E+01 -0.16565498654E+02 -0.57071299062E+00  0.18726451840E+02  0.00000000000E+00 0.  1.
         11    1    3    3    0    0  0.15793823584E+02  0.62538113349E+01 -0.19288634132E+01  0.17096067792E+02  0.51100000000E-03 0. -1.
        -11    1    3    3    0    0  0.40093320082E+01  0.11061113923E+02  0.19045972915E+02  0.22386872692E+02  0.51100000000E-03 0.  1.
        -12    1    3    3    0    0 -0.28517427768E+02 -0.74942660397E+00 -0.16546396512E+02  0.32978607676E+02  0.00000000000E+00 0.  1.
</event>
<event>
 7    1  0.3568800E-013  0.7246164E+02  0.7816164E-02  0.1226708E+00
        -11   -1    0    0    0    0  0.00000000000E+00  0.00000000000E+00  0.45593999997E+02  0.45594000000E+02  0.51100000000E-03 0. -1.
         11   -1    0    0    0    0 -0.00000000000E+00 -0.00000000000E+00 -0.45593999997E+02  0.45594000000E+02  0.51100000000E-03 0.  1.
    9900012    2    1    2    0    0 -0.10211182208E+01 -0.11301046263E+02  0.14896988175E+02  0.72461639282E+02  0.70000089869E+02 0.  0.
        -12    1    1    2    0    0  0.10211182208E+01  0.11301046263E+02 -0.14896988175E+02  0.18726360718E+02  0.00000000000E+00 0.  1.
         11    1    3    3    0    0  0.19100114895E+01 -0.31432295836E+02  0.18358588305E+02  0.36450996286E+02  0.51100000000E-03 0. -1.
        -11    1    3    3    0    0 -0.45401820329E+01  0.94443693277E+01  0.12764489213E+02  0.16514888737E+02  0.51100000000E-03 0.  1.
        -12    1    3    3    0    0  0.16090523226E+01  0.10686880245E+02 -0.16226089343E+02  0.19495754259E+02  0.00000000000E+00 0.  1.
</event>
<event>
 7    1  0.3568800E-013  0.7246155E+02  0.7816164E-02  0.1226708E+00
        -11   -1    0    0    0    0  0.00000000000E+00  0.00000000000E+00  0.45593999997E+02  0.45594000000E+02  0.51100000000E-03 0. -1.
         11   -1    0    0    0    0 -0.00000000000E+00 -0.00000000000E+00 -0.45593999997E+02  0.45594000000E+02  0.51100000000E-03 0.  1.
    9900012    2    1    2    0    0 -0.17124268415E+02  0.37699476509E+01  0.65747159586E+01  0.72461549082E+02  0.69999972367E+02 0.  0.
        -12    1    1    2    0    0  0.17124268415E+02 -0.37699476509E+01 -0.65747159586E+01  0.18726450918E+02  0.00000000000E+00 0.  1.
         11    1    3    3    0    0 -0.17111711687E+02 -0.86445418295E+01 -0.15240575500E+02  0.24491098835E+02  0.51100000000E-03 0. -1.
        -11    1    3    3    0    0 -0.79519544817E+01  0.17331267445E+02 -0.48849244739E+01  0.19684229695E+02  0.51100000000E-03 0.  1.
         12    1    3    3    0    0  0.79393977534E+01 -0.49167779641E+01  0.26700215933E+02  0.28286220552E+02  0.00000000000E+00 0. -1.
</event>
<event>
 7    1  0.3568800E-013  0.7246159E+02  0.7816164E-02  0.1226708E+00
        -11   -1    0    0    0    0  0.00000000000E+00  0.00000000000E+00  0.45593999997E+02  0.45594000000E+02  0.51100000000E-03 0. -1.
         11   -1    0    0    0    0 -0.00000000000E+00 -0.00000000000E+00 -0.45593999997E+02  0.45594000000E+02  0.51100000000E-03 0.  1.
    9900012    2    1    2    0    0  0.11773907783E+01  0.11968811084E+02  0.14354088533E+02  0.72461586958E+02  0.70000021708E+02 0.  0.
        -12    1    1    2    0    0 -0.11773907783E+01 -0.11968811084E+02 -0.14354088533E+02  0.18726413042E+02  0.00000000000E+00 0.  1.
         11    1    3    3    0    0 -0.72985603945E+01 -0.21882665419E+02  0.16473641144E+02  0.28346091132E+02  0.51100000000E-03 0. -1.
        -11    1    3    3    0    0 -0.60389186787E+01 -0.10925175513E+01  0.67403399414E+00  0.61738525650E+01  0.51100000000E-03 0.  1.
        -12    1    3    3    0    0  0.14514869851E+02  0.34943994054E+02 -0.27935866051E+01  0.37941643261E+02  0.00000000000E+00 0.  1.
</event>
<event>
 7    1  0.3568800E-013  0.7246157E+02  0.7816164E-02  0.1226708E+00
        -11   -1    0    0    0    0  0.00000000000E+00  0.00000000000E+00  0.45593999997E+02  0.45594000000E+02  0.51100000000E-03 0.  1.
         11   -1    0    0    0    0 -0.00000000000E+00 -0.00000000000E+00 -0.45593999997E+02  0.45594000000E+02  0.51100000000E-03 0. -1.
    9900012    2    1    2    0    0  0.38175076405E+01 -0.12074203548E+01 -0.18293382802E+02  0.72461572609E+02  0.70000003015E+02 0.  0.
        -12    1    1    2    0    0 -0.38175076405E+01  0.12074203548E+01  0.18293382802E+02  0.18726427391E+02  0.00000000000E+00 0.  1.
         11    1    3    3    0    0  0.25508350904E+02 -0.32701886776E+01 -0.10838755749E+02  0.27907861370E+02  0.51100000000E-03 0. -1.
        -11    1    3    3    0    0  0.73329892132E+01 -0.52914955144E+01 -0.11182703230E+02  0.14381429253E+02  0.51100000000E-03 0.  1.
        -12    1    3    3    0    0 -0.29023832476E+02  0.73542638372E+01  0.37280761768E+01  0.30172281985E+02  0.00000000000E+00 0.  1.
</event>
<event>
 7    1  0.3568800E-013  0.7246156E+02  0.7816164E-02  0.1226708E+00
        -11   -1    0    0    0    0  0.00000000000E+00  0.00000000000E+00  0.45593999997E+02  0.45594000000E+02  0.51100000000E-03 0. -1.
         11   -1    0    0    0    0 -0.00000000000E+00 -0.00000000000E+00 -0.45593999997E+02  0.45594000000E+02  0.51100000000E-03 0.  1.
    9900012    2    1    2    0    0 -0.43564565385E+01 -0.17826629852E+02 -0.37298751350E+01  0.72461563768E+02  0.69999991498E+02 0.  0.
        -12    1    1    2    0    0  0.43564565385E+01  0.17826629852E+02  0.37298751350E+01  0.18726436232E+02  0.00000000000E+00 0.  1.
         11    1    3    3    0    0  0.23080900535E+01 -0.17841215705E+01 -0.85592578206E+00  0.30402267479E+01  0.51100000000E-03 0. -1.
        -11    1    3    3    0    0 -0.10241424225E+02 -0.97238692531E+01 -0.34338898116E+02  0.37129507504E+02  0.51100000000E-03 0.  1.
         12    1    3    3    0    0  0.35768776332E+01 -0.63186390280E+01  0.31464948763E+02  0.32291829515E+02  0.00000000000E+00 0. -1.
</event>
<event>
 7    1  0.3568800E-013  0.7246158E+02  0.7816164E-02  0.1226708E+00
        -11   -1    0    0    0    0  0.00000000000E+00  0.00000000000E+00  0.45593999997E+02  0.45594000000E+02  0.51100000000E-03 0.  1.
         11   -1    0    0    0    0 -0.00000000000E+00 -0.00000000000E+00 -0.45593999997E+02  0.45594000000E+02  0.51100000000E-03 0. -1.
    9900012    2    1    2    0    0 -0.10983506642E+02  0.11979099320E+02 -0.93028284688E+01  0.72461578660E+02  0.70000010898E+02 0.  0.
        -12    1    1    2    0    0  0.10983506642E+02 -0.11979099320E+02  0.93028284688E+01  0.18726421340E+02  0.00000000000E+00 0.  1.
         11    1    3    3    0    0  0.38398343980E+01  0.11880788851E+02 -0.12752927983E+02  0.17847538887E+02  0.51100000000E-03 0. -1.
        -11    1    3    3    0    0  0.70896416358E+01  0.22245764770E+02  0.13217927941E+01  0.23385555481E+02  0.51100000000E-03 0.  1.
         12    1    3    3    0    0 -0.21912982675E+02 -0.22147454300E+02  0.21283067198E+01  0.31228484292E+02  0.00000000000E+00 0. -1.
</event>
<event>
 7    1  0.3568800E-013  0.7246190E+02  0.7816164E-02  0.1226707E+00
        -11   -1    0    0    0    0  0.00000000000E+00  0.00000000000E+00  0.45593999997E+02  0.45594000000E+02  0.51100000000E-03 0.  1.
         11   -1    0    0    0    0 -0.00000000000E+00 -0.00000000000E+00 -0.45593999997E+02  0.45594000000E+02  0.51100000000E-03 0. -1.
    9900012    2    1    2    0    0 -0.12537890435E+02  0.11313974814E+02  0.80908588957E+01  0.72461902694E+02  0.70000433011E+02 0.  0.
        -12    1    1    2    0    0  0.12537890435E+02 -0.11313974814E+02 -0.80908588957E+01  0.18726097306E+02  0.00000000000E+00 0.  1.
         11    1    3    3    0    0  0.78970078910E-01 -0.12980565659E+02 -0.69939154294E+00  0.12999633453E+02  0.51100000000E-03 0. -1.
        -11    1    3    3    0    0 -0.13874868057E+02 -0.11666956094E+02 -0.79264700962E+01  0.19785316690E+02  0.51100000000E-03 0.  1.
        -12    1    3    3    0    0  0.12580075431E+01  0.35961496567E+02  0.16716720535E+02  0.39676952551E+02  0.00000000000E+00 0.  1.
</event>
<event>
 7    1  0.3568800E-013  0.7246161E+02  0.7816164E-02  0.1226708E+00
        -11   -1    0    0    0    0  0.00000000000E+00  0.00000000000E+00  0.45593999997E+02  0.45594000000E+02  0.51100000000E-03 0.  1.
         11   -1    0    0    0    0 -0.00000000000E+00 -0.00000000000E+00 -0.45593999997E+02  0.45594000000E+02  0.51100000000E-03 0. -1.
    9900012    2    1    2    0    0 -0.17109221154E+02  0.61642989049E+01  0.44669464719E+01  0.72461611126E+02  0.70000053190E+02 0.  0.
        -12    1    1    2    0    0  0.17109221154E+02 -0.61642989049E+01 -0.44669464719E+01  0.18726388874E+02  0.00000000000E+00 0.  1.
         11    1    3    3    0    0 -0.13239267377E+02  0.40173443681E+01  0.29020446783E+02  0.32149705880E+02  0.51100000000E-03 0. -1.
        -11    1    3    3    0    0 -0.17057848442E+02  0.19985633564E+01 -0.74673541344E+01  0.18727675429E+02  0.51100000000E-03 0.  1.
        -12    1    3    3    0    0  0.13187894664E+02  0.14839118048E+00 -0.17086146176E+02  0.21584229817E+02  0.00000000000E+00 0.  1.
</event>
<event>
 7    1  0.3568800E-013  0.7246158E+02  0.7816164E-02  0.1226708E+00
        -11   -1    0    0    0    0  0.00000000000E+00  0.00000000000E+00  0.45593999997E+02  0.45594000000E+02  0.51100000000E-03 0.  1.
         11   -1    0    0    0    0 -0.00000000000E+00 -0.00000000000E+00 -0.45593999997E+02  0.45594000000E+02  0.51100000000E-03 0. -1.
    9900012    2    1    2    0    0 -0.11405300985E+02  0.17658827292E+01 -0.14747189973E+02  0.72461578973E+02  0.70000011305E+02 0.  0.
        -12    1    1    2    0    0  0.11405300985E+02 -0.17658827292E+01  0.14747189973E+02  0.18726421027E+02  0.00000000000E+00 0.  1.
         11    1    3    3    0    0  0.16794043662E+02  0.75371285052E+01 -0.10588780755E+02  0.21236065708E+02  0.51100000000E-03 0. -1.
        -11    1    3    3    0    0 -0.15939415500E+00  0.76749888439E+01 -0.16161577018E+02  0.17892105304E+02  0.51100000000E-03 0.  1.
        -12    1    3    3    0    0 -0.28039950492E+02 -0.13446234620E+02  0.12003167800E+02  0.33333407961E+02  0.00000000000E+00 0.  1.
</event>
<event>
 7    1  0.3568800E-013  0.7246154E+02  0.7816164E-02  0.1226708E+00
        -11   -1    0    0    0    0  0.00000000000E+00  0.00000000000E+00  0.45593999997E+02  0.45594000000E+02  0.51100000000E-03 0.  1.
         11   -1    0    0    0    0 -0.00000000000E+00 -0.00000000000E+00 -0.45593999997E+02  0.45594000000E+02  0.51100000000E-03 0. -1.
    9900012    2    1    2    0    0 -0.43336973483E+01 -0.12445853129E+02 -0.13304141822E+02  0.72461537909E+02  0.69999957812E+02 0.  0.
        -12    1    1    2    0    0  0.43336973483E+01  0.12445853129E+02  0.13304141822E+02  0.18726462091E+02  0.00000000000E+00 0.  1.
         11    1    3    3    0    0 -0.15943450787E+02 -0.22067797601E+02 -0.10690951295E+02  0.29248551311E+02  0.51100000000E-03 0. -1.
        -11    1    3    3    0    0  0.10968115865E+01 -0.11462982086E+02 -0.13084747355E+02  0.17430248638E+02  0.51100000000E-03 0.  1.
        -12    1    3    3    0    0  0.10512941852E+02  0.21084926557E+02  0.10471556828E+02  0.25782737960E+02  0.00000000000E+00 0.  1.
</event>
<event>
 7    1  0.3568800E-013  0.7246163E+02  0.7816164E-02  0.1226708E+00
        -11   -1    0    0    0    0  0.00000000000E+00  0.00000000000E+00  0.45593999997E+02  0.45594000000E+02  0.51100000000E-03 0. -1.
         11   -1    0    0    0    0 -0.00000000000E+00 -0.00000000000E+00 -0.45593999997E+02  0.45594000000E+02  0.51100000000E-03 0.  1.
    9900012    2    1    2    0    0 -0.17079063255E+01 -0.13676529522E+02  0.12677251657E+02  0.72461625195E+02  0.70000071518E+02 0.  0.
        -12    1    1    2    0    0  0.17079063255E+01  0.13676529522E+02 -0.12677251657E+02  0.18726374805E+02  0.00000000000E+00 0.  1.
         11    1    3    3    0    0 -0.29710552380E+01  0.13437854479E+02  0.67167926489E+01  0.15313993796E+02  0.51100000000E-03 0. -1.
        -11    1    3    3    0    0  0.34870243729E+01 -0.60662571360E+01 -0.21423763891E+02  0.22537446043E+02  0.51100000000E-03 0.  1.
         12    1    3    3    0    0 -0.22238754604E+01 -0.21048126865E+02  0.27384222899E+02  0.34610185356E+02  0.00000000000E+00 0. -1.
</event>
<event>
 7    1  0.3568800E-013  0.7246150E+02  0.7816164E-02  0.1226708E+00
        -11   -1    0    0    0    0  0.00000000000E+00  0.00000000000E+00  0.45593999997E+02  0.45594000000E+02  0.51100000000E-03 0.  1.
         11   -1    0    0    0    0 -0.00000000000E+00 -0.00000000000E+00 -0.45593999997E+02  0.45594000000E+02  0.51100000000E-03 0. -1.
    9900012    2    1    2    0    0  0.45044798398E+01  0.14807355213E+01 -0.18116264450E+02  0.72461495950E+02  0.69999903153E+02 0.  0.
        -12    1    1    2    0    0 -0.45044798398E+01 -0.14807355213E+01  0.18116264450E+02  0.18726504050E+02  0.00000000000E+00 0.  1.
         11    1    3    3    0    0 -0.38837748296E+01 -0.74161723009E+01 -0.24513597291E+02  0.25903663273E+02  0.51100000000E-03 0. -1.
        -11    1    3    3    0    0  0.21197234497E+02 -0.32309519851E+01  0.15737935745E+02  0.26597827408E+02  0.51100000000E-03 0.  1.
         12    1    3    3    0    0 -0.12808979828E+02  0.12127859807E+02 -0.93406029039E+01  0.19960005269E+02  0.00000000000E+00 0. -1.
</event>
<event>
 7    1  0.3568800E-013  0.7246156E+02  0.7816164E-02  0.1226708E+00
        -11   -1    0    0    0    0  0.00000000000E+00  0.00000000000E+00  0.45593999997E+02  0.45594000000E+02  0.51100000000E-03 0.  1.
         11   -1    0    0    0    0 -0.00000000000E+00 -0.00000000000E+00 -0.45593999997E+02  0.45594000000E+02  0.51100000000E-03 0. -1.
    9900012    2    1    2    0    0  0.84069377310E+01 -0.11778474523E+02 -0.11885731340E+02  0.72461556836E+02  0.69999982468E+02 0.  0.
        -12    1    1    2    0    0 -0.84069377310E+01  0.11778474523E+02  0.11885731340E+02  0.18726443164E+02  0.00000000000E+00 0.  1.
         11    1    3    3    0    0  0.20821185320E+02  0.15708115644E+00 -0.21179367481E+02  0.29700371038E+02  0.51100000000E-03 0. -1.
        -11    1    3    3    0    0  0.69187022031E+01  0.16561151356E+01  0.16570985160E+02  0.18033543938E+02  0.51100000000E-03 0.  1.
         12    1    3    3    0    0 -0.19332949792E+02 -0.13591670815E+02 -0.72773490194E+01  0.24727641860E+02  0.00000000000E+00 0. -1.
</event>
<event>
 7    1  0.3568800E-013  0.7246155E+02  0.7816164E-02  0.1226708E+00
        -11   -1    0    0    0    0  0.00000000000E+00  0.00000000000E+00  0.45593999997E+02  0.45594000000E+02  0.51100000000E-03 0. -1.
         11   -1    0    0    0    0 -0.00000000000E+00 -0.00000000000E+00 -0.45593999997E+02  0.45594000000E+02  0.51100000000E-03 0.  1.
    9900012    2    1    2    0    0  0.15695441364E+02  0.91467881079E+01  0.45463388142E+01  0.72461553222E+02  0.69999977760E+02 0.  0.
        -12    1    1    2    0    0 -0.15695441364E+02 -0.91467881079E+01 -0.45463388142E+01  0.18726446778E+02  0.00000000000E+00 0.  1.
         11    1    3    3    0    0 -0.34003698072E+01  0.31828427787E+01  0.11758844835E+02  0.12647665204E+02  0.51100000000E-03 0. -1.
        -11    1    3    3    0    0  0.30268320179E+02 -0.15571335717E+02  0.14054556707E+01  0.34067770816E+02  0.51100000000E-03 0.  1.
         12    1    3    3    0    0 -0.11172509008E+02  0.21535281046E+02 -0.86179616918E+01  0.25746117202E+02  0.00000000000E+00 0. -1.
</event>
<event>
 7    1  0.3568800E-013  0.7246155E+02  0.7816164E-02  0.1226708E+00
        -11   -1    0    0    0    0  0.00000000000E+00  0.00000000000E+00  0.45593999997E+02  0.45594000000E+02  0.51100000000E-03 0.  1.
         11   -1    0    0    0    0 -0.00000000000E+00 -0.00000000000E+00 -0.45593999997E+02  0.45594000000E+02  0.51100000000E-03 0. -1.
    9900012    2    1    2    0    0 -0.10227636532E+02 -0.15674833307E+02 -0.61250395741E+00  0.72461545201E+02  0.69999967312E+02 0.  0.
        -12    1    1    2    0    0  0.10227636532E+02  0.15674833307E+02  0.61250395741E+00  0.18726454799E+02  0.00000000000E+00 0.  1.
         11    1    3    3    0    0  0.50931541213E+01  0.13585681101E+02 -0.79050352385E+01  0.16522727749E+02  0.51100000000E-03 0. -1.
        -11    1    3    3    0    0  0.90826127357E+00  0.11306893049E+02  0.43425610850E+01  0.12146135435E+02  0.51100000000E-03 0.  1.
         12    1    3    3    0    0 -0.16229051926E+02 -0.40567407457E+02  0.29499701961E+01  0.43792682018E+02  0.00000000000E+00 0. -1.
</event>
<event>
 7    1  0.3568800E-013  0.7246156E+02  0.7816164E-02  0.1226708E+00
        -11   -1    0    0    0    0  0.00000000000E+00  0.00000000000E+00  0.45593999997E+02  0.45594000000E+02  0.51100000000E-03 0.  1.
         11   -1    0    0    0    0 -0.00000000000E+00 -0.00000000000E+00 -0.45593999997E+02  0.45594000000E+02  0.51100000000E-03 0. -1.
    9900012    2    1    2    0    0  0.38116538214E+01 -0.18050323375E+02 -0.32150877752E+01  0.72461556980E+02  0.69999982655E+02 0.  0.
        -12    1    1    2    0    0 -0.38116538214E+01  0.18050323375E+02  0.32150877752E+01  0.18726443020E+02  0.00000000000E+00 0.  1.
         11    1    3    3    0    0  0.33570771507E+01  0.12805713876E+02 -0.14628475819E+01  0.13319016412E+02  0.51100000000E-03 0. -1.
        -11    1    3    3    0    0  0.13537869020E+02 -0.36765662343E+01 -0.19592834026E+02  0.24097099043E+02  0.51100000000E-03 0.  1.
        -12    1    3    3    0    0 -0.13083292349E+02 -0.27179471016E+02  0.17840593832E+02  0.35045441525E+02  0.00000000000E+00 0.  1.
</event>
<event>
 7    1  0.3568800E-013  0.7246157E+02  0.7816164E-02  0.1226708E+00
        -11   -1    0    0    0    0  0.00000000000E+00  0.00000000000E+00  0.45593999997E+02  0.45594000000E+02  0.51100000000E-03 0.  1.
         11   -1    0    0    0    0 -0.00000000000E+00 -0.00000000000E+00 -0.45593999997E+02  0.45594000000E+02  0.51100000000E-03 0. -1.
    9900012    2    1    2    0    0  0.30302925817E+01 -0.12565961915E+02  0.13549648286E+02  0.72461573735E+02  0.70000004482E+02 0.  0.
        -12    1    1    2    0    0 -0.30302925817E+01  0.12565961915E+02 -0.13549648286E+02  0.18726426265E+02  0.00000000000E+00 0.  1.
         11    1    3    3    0    0 -0.17585614678E+02 -0.82804177565E+01 -0.12369243872E+02  0.23039473867E+02  0.51100000000E-03 0. -1.
        -11    1    3    3    0    0 -0.27694604888E+00 -0.11808959832E+02 -0.37228736128E+01  0.12384991709E+02  0.51100000000E-03 0.  1.
        -12    1    3    3    0    0  0.20892853309E+02  0.75234156737E+01  0.29641765771E+02  0.37037108159E+02  0.00000000000E+00 0.  1.
</event>
<event>
 7    1  0.3568800E-013  0.7246166E+02  0.7816164E-02  0.1226708E+00
        -11   -1    0    0    0    0  0.00000000000E+00  0.00000000000E+00  0.45593999997E+02  0.45594000000E+02  0.51100000000E-03 0.  1.
         11   -1    0    0    0    0 -0.00000000000E+00 -0.00000000000E+00 -0.45593999997E+02  0.45594000000E+02  0.51100000000E-03 0. -1.
    9900012    2    1    2    0    0 -0.16434997540E+02  0.38083451829E+01 -0.81279341467E+01  0.72461656239E+02  0.70000111959E+02 0.  0.
        -12    1    1    2    0    0  0.16434997540E+02 -0.38083451829E+01  0.81279341467E+01  0.18726343761E+02  0.00000000000E+00 0.  1.
         11    1    3    3    0    0  0.65910212626E+00  0.35998419394E+01  0.68660721416E+01  0.77805028447E+01  0.51100000000E-03 0. -1.
        -11    1    3    3    0    0  0.14973683303E+02 -0.77443295939E+01  0.13070538010E+02  0.21331310242E+02  0.51100000000E-03 0.  1.
         12    1    3    3    0    0 -0.32067782969E+02  0.79528328374E+01 -0.28064544298E+02  0.43349843152E+02  0.00000000000E+00 0. -1.
</event>
<event>
 7    1  0.3568800E-013  0.7246157E+02  0.7816164E-02  0.1226708E+00
        -11   -1    0    0    0    0  0.00000000000E+00  0.00000000000E+00  0.45593999997E+02  0.45594000000E+02  0.51100000000E-03 0. -1.
         11   -1    0    0    0    0 -0.00000000000E+00 -0.00000000000E+00 -0.45593999997E+02  0.45594000000E+02  0.51100000000E-03 0.  1.
    9900012    2    1    2    0    0  0.16558225754E+02  0.78626938895E+01  0.38317597583E+01  0.72461570064E+02  0.69999999700E+02 0.  0.
        -12    1    1    2    0    0 -0.16558225754E+02 -0.78626938895E+01 -0.38317597583E+01  0.18726429936E+02  0.00000000000E+00 0.  1.
         11    1    3    3    0    0 -0.16558664161E+02  0.13510466421E+02  0.23311171185E+02  0.31624875715E+02  0.51100000000E-03 0. -1.
        -11    1    3    3    0    0 -0.55163930145E+00  0.93805822453E+00  0.43159598688E+00  0.11706982995E+01  0.51100000000E-03 0.  1.
        -12    1    3    3    0    0  0.33668529216E+02 -0.65858307564E+01 -0.19911007413E+02  0.39665996049E+02  0.00000000000E+00 0.  1.
</event>
<event>
 7    1  0.3568800E-013  0.7246163E+02  0.7816164E-02  0.1226708E+00
        -11   -1    0    0    0    0  0.00000000000E+00  0.00000000000E+00  0.45593999997E+02  0.45594000000E+02  0.51100000000E-03 0.  1.
         11   -1    0    0    0    0 -0.00000000000E+00 -0.00000000000E+00 -0.45593999997E+02  0.45594000000E+02  0.51100000000E-03 0. -1.
    9900012    2    1    2    0    0 -0.14962263355E+02 -0.10648169336E+02 -0.36638719379E+01  0.72461633762E+02  0.70000082678E+02 0.  0.
        -12    1    1    2    0    0  0.14962263355E+02  0.10648169336E+02  0.36638719379E+01  0.18726366238E+02  0.00000000000E+00 0.  1.
         11    1    3    3    0    0  0.21188241034E+01 -0.22020049391E+02  0.10600139126E+02  0.24530286189E+02  0.51100000000E-03 0. -1.
        -11    1    3    3    0    0  0.10395537373E+02  0.12411306751E+02  0.14619726150E+01  0.16255617390E+02  0.51100000000E-03 0.  1.
         12    1    3    3    0    0 -0.27476624831E+02 -0.10394266960E+01 -0.15725983679E+02  0.31675730183E+02  0.00000000000E+00 0. -1.
</event>
<event>
 7    1  0.3568800E-013  0.7246172E+02  0.7816164E-02  0.1226708E+00
        -11   -1    0    0    0    0  0.00000000000E+00  0.00000000000E+00  0.45593999997E+02  0.45594000000E+02  0.51100000000E-03 0.  1.
         11   -1    0    0    0    0 -0.00000000000E+00 -0.00000000000E+00 -0.45593999997E+02  0.45594000000E+02  0.51100000000E-03 0. -1.
    9900012    2    1    2    0    0  0.62903004454E+01 -0.16781858022E+02 -0.54290921917E+01  0.72461716856E+02  0.70000190924E+02 0.  0.
        -12    1    1    2    0    0 -0.62903004454E+01  0.16781858022E+02  0.54290921917E+01  0.18726283144E+02  0.00000000000E+00 0.  1.
         11    1    3    3    0    0  0.79077687404E+01 -0.40098437365E+01 -0.14967198828E+02  0.17396226437E+02  0.51100000000E-03 0. -1.
        -11    1    3    3    0    0  0.23210540214E+02 -0.14379827268E+01  0.14386726400E+02  0.27345472534E+02  0.51100000000E-03 0.  1.
         12    1    3    3    0    0 -0.24828008509E+02 -0.11334031559E+02 -0.48486197643E+01  0.27720017884E+02  0.00000000000E+00 0. -1.
</event>
<event>
 7    1  0.3568800E-013  0.7246155E+02  0.7816164E-02  0.1226708E+00
        -11   -1    0    0    0    0  0.00000000000E+00  0.00000000000E+00  0.45593999997E+02  0.45594000000E+02  0.51100000000E-03 0. -1.
         11   -1    0    0    0    0 -0.00000000000E+00 -0.00000000000E+00 -0.45593999997E+02  0.45594000000E+02  0.51100000000E-03 0.  1.
    9900012    2    1    2    0    0  0.65278122896E+01 -0.52935821907E+01  0.16734565995E+02  0.72461546926E+02  0.69999969558E+02 0.  0.
        -12    1    1    2    0    0 -0.65278122896E+01  0.52935821907E+01 -0.16734565995E+02  0.18726453074E+02  0.00000000000E+00 0.  1.
         11    1    3    3    0    0 -0.19313430993E+01 -0.41330549037E+01 -0.20680691627E+01  0.50089060010E+01  0.51100000000E-03 0. -1.
        -11    1    3    3    0    0 -0.10091553591E+02 -0.15598418147E+02  0.34501441632E+02  0.39185451095E+02  0.51100000000E-03 0.  1.
         12    1    3    3    0    0  0.18550708980E+02  0.14437890860E+02 -0.15698806474E+02  0.28267189830E+02  0.00000000000E+00 0. -1.
</event>
<event>
 7    1  0.3568800E-013  0.7246153E+02  0.7816164E-02  0.1226708E+00
        -11   -1    0    0    0    0  0.00000000000E+00  0.00000000000E+00  0.45593999997E+02  0.45594000000E+02  0.51100000000E-03 0.  1.
         11   -1    0    0    0    0 -0.00000000000E+00 -0.00000000000E+00 -0.45593999997E+02  0.45594000000E+02  0.51100000000E-03 0. -1.
    9900012    2    1    2    0    0  0.16261975697E+02 -0.73223227542E+00 -0.92570295548E+01  0.72461531731E+02  0.69999949764E+02 0.  0.
        -12    1    1    2    0    0 -0.16261975697E+02  0.73223227542E+00  0.92570295548E+01  0.18726468269E+02  0.00000000000E+00 0.  1.
         11    1    3    3    0    0  0.29898019683E+02 -0.89006952474E+00 -0.81014266852E+01  0.30988980611E+02  0.51100000000E-03 0. -1.
        -11    1    3    3    0    0  0.55498866156E+01 -0.53249600204E+01  0.14297168660E+02  0.16234699647E+02  0.51100000000E-03 0.  1.
        -12    1    3    3    0    0 -0.19185930602E+02  0.54827972697E+01 -0.15452771530E+02  0.25237851472E+02  0.00000000000E+00 0.  1.
</event>
<event>
 7    1  0.3568800E-013  0.7246176E+02  0.7816164E-02  0.1226708E+00
        -11   -1    0    0    0    0  0.00000000000E+00  0.00000000000E+00  0.45593999997E+02  0.45594000000E+02  0.51100000000E-03 0.  1.
         11   -1    0    0    0    0 -0.00000000000E+00 -0.00000000000E+00 -0.45593999997E+02  0.45594000000E+02  0.51100000000E-03 0. -1.
    9900012    2    1    2    0    0 -0.10356784978E+02 -0.10601115359E+02 -0.11446639837E+02  0.72461756236E+02  0.70000242223E+02 0.  0.
        -12    1    1    2    0    0  0.10356784978E+02  0.10601115359E+02  0.11446639837E+02  0.18726243764E+02  0.00000000000E+00 0.  1.
         11    1    3    3    0    0  0.26973748340E+01  0.63734123485E+01 -0.15155894893E+02  0.16661253441E+02  0.51100000000E-03 0. -1.
        -11    1    3    3    0    0  0.12442024315E+02 -0.20401579211E+01  0.18788703925E+02  0.22627010603E+02  0.51100000000E-03 0.  1.
         12    1    3    3    0    0 -0.25496184128E+02 -0.14934369787E+02 -0.15079448869E+02  0.33173492192E+02  0.00000000000E+00 0. -1.
</event>
<event>
 7    1  0.3568800E-013  0.7246158E+02  0.7816164E-02  0.1226708E+00
        -11   -1    0    0    0    0  0.00000000000E+00  0.00000000000E+00  0.45593999997E+02  0.45594000000E+02  0.51100000000E-03 0. -1.
         11   -1    0    0    0    0 -0.00000000000E+00 -0.00000000000E+00 -0.45593999997E+02  0.45594000000E+02  0.51100000000E-03 0.  1.
    9900012    2    1    2    0    0 -0.14422989250E+02  0.75876587651E+00 -0.11919747443E+02  0.72461582198E+02  0.70000015507E+02 0.  0.
        -12    1    1    2    0    0  0.14422989250E+02 -0.75876587651E+00  0.11919747443E+02  0.18726417802E+02  0.00000000000E+00 0.  1.
         11    1    3    3    0    0  0.59444687315E+01 -0.45496300763E+01  0.58260274136E+01  0.94856964961E+01  0.51100000000E-03 0. -1.
        -11    1    3    3    0    0 -0.25368830483E+02 -0.21228267122E+02 -0.13084110270E+02  0.35572613439E+02  0.51100000000E-03 0.  1.
         12    1    3    3    0    0  0.50013725010E+01  0.26536663075E+02 -0.46616645871E+01  0.27403272263E+02  0.00000000000E+00 0. -1.
</event>
<event>
 7    1  0.3568800E-013  0.7246158E+02  0.7816164E-02  0.1226708E+00
        -11   -1    0    0    0    0  0.00000000000E+00  0.00000000000E+00  0.45593999997E+02  0.45594000000E+02  0.51100000000E-03 0.  1.
         11   -1    0    0    0    0 -0.00000000000E+00 -0.00000000000E+00 -0.45593999997E+02  0.45594000000E+02  0.51100000000E-03 0. -1.
    9900012    2    1    2    0    0  0.35487514984E+01 -0.10478580844E+02 -0.15109088439E+02  0.72461578902E+02  0.70000011212E+02 0.  0.
        -12    1    1    2    0    0 -0.35487514984E+01  0.10478580844E+02  0.15109088439E+02  0.18726421098E+02  0.00000000000E+00 0.  1.
         11    1    3    3    0    0 -0.66988199287E+01 -0.20282922051E+01  0.15491195644E+02  0.16998979394E+02  0.51100000000E-03 0. -1.
        -11    1    3    3    0    0 -0.90451828085E+00  0.81203960706E+01  0.83543648879E+01  0.11685649259E+02  0.51100000000E-03 0.  1.
         12    1    3    3    0    0  0.11152089708E+02 -0.16570684709E+02 -0.38954648971E+02  0.43776950248E+02  0.00000000000E+00 0. -1.
</event>
<event>
 7    1  0.3568800E-013  0.7246153E+02  0.7816164E-02  0.1226708E+00
        -11   -1    0    0    0    0  0.00000000000E+00  0.00000000000E+00  0.45593999997E+02  0.45594000000E+02  0.51100000000E-03 0.  1.
         11   -1    0    0    0    0 -0.00000000000E+00 -0.00000000000E+00 -0.45593999997E+02  0.45594000000E+02  0.51100000000E-03 0. -1.
    9900012    2    1    2    0    0 -0.10476538236E+02 -0.14868059229E+02 -0.44568457651E+01  0.72461534428E+02  0.69999953277E+02 0.  0.
        -12    1    1    2    0    0  0.10476538236E+02  0.14868059229E+02  0.44568457651E+01  0.18726465572E+02  0.00000000000E+00 0.  1.
         11    1    3    3    0    0  0.38020396171E+01 -0.14585538355E+02 -0.11706725451E+02  0.19085095112E+02  0.51100000000E-03 0.  1.
        -11    1    3    3    0    0 -0.14912648413E+02 -0.72101409723E+01 -0.19587352913E+02  0.25652243760E+02  0.51100000000E-03 0. -1.
        -12    1    3    3    0    0  0.63407055914E+00  0.69276200991E+01  0.26837232599E+02  0.27724195557E+02  0.00000000000E+00 0.  1.
</event>
<event>
 7    1  0.3568800E-013  0.7246155E+02  0.7816164E-02  0.1226708E+00
        -11   -1    0    0    0    0  0.00000000000E+00  0.00000000000E+00  0.45593999997E+02  0.45594000000E+02  0.51100000000E-03 0. -1.
         11   -1    0    0    0    0 -0.00000000000E+00 -0.00000000000E+00 -0.45593999997E+02  0.45594000000E+02  0.51100000000E-03 0.  1.
    9900012    2    1    2    0    0  0.12239730616E+02 -0.40219365587E+00  0.14167121537E+02  0.72461545505E+02  0.69999967708E+02 0.  0.
        -12    1    1    2    0    0 -0.12239730616E+02  0.40219365587E+00 -0.14167121537E+02  0.18726454495E+02  0.00000000000E+00 0.  1.
         11    1    3    3    0    0  0.27386177132E+02  0.14193393222E+02  0.16914582245E+00  0.30846129735E+02  0.51100000000E-03 0. -1.
        -11    1    3    3    0    0 -0.38520592762E+01  0.81817959697E+01  0.13422966326E+02  0.16185060124E+02  0.51100000000E-03 0.  1.
        -12    1    3    3    0    0 -0.11294387239E+02 -0.22777382848E+02  0.57500938818E+00  0.25430355646E+02  0.00000000000E+00 0.  1.
</event>
<event>
 7    1  0.3568800E-013  0.7246159E+02  0.7816164E-02  0.1226708E+00
        -11   -1    0    0    0    0  0.00000000000E+00  0.00000000000E+00  0.45593999997E+02  0.45594000000E+02  0.51100000000E-03 0.  1.
         11   -1    0    0    0    0 -0.00000000000E+00 -0.00000000000E+00 -0.45593999997E+02  0.45594000000E+02  0.51100000000E-03 0. -1.
    9900012    2    1    2    0    0 -0.15623858833E+02  0.74113251938E+01 -0.71865085357E+01  0.72461585210E+02  0.70000019430E+02 0.  0.
        -12    1    1    2    0    0  0.15623858833E+02 -0.74113251938E+01  0.71865085357E+01  0.18726414790E+02  0.00000000000E+00 0.  1.
         11    1    3    3    0    0 -0.29011847421E+01 -0.47879531603E+00  0.84308474402E+01  0.89289028824E+01  0.51100000000E-03 0. -1.
        -11    1    3    3    0    0 -0.12533491232E+02  0.29454318541E+02  0.64767519238E+01  0.32658744601E+02  0.51100000000E-03 0.  1.
         12    1    3    3    0    0 -0.18918285919E+00 -0.21564198031E+02 -0.22094107900E+02  0.30873937727E+02  0.00000000000E+00 0. -1.
</event>
<event>
 7    1  0.3568800E-013  0.7246160E+02  0.7816164E-02  0.1226708E+00
        -11   -1    0    0    0    0  0.00000000000E+00  0.00000000000E+00  0.45593999997E+02  0.45594000000E+02  0.51100000000E-03 0. -1.
         11   -1    0    0    0    0 -0.00000000000E+00 -0.00000000000E+00 -0.45593999997E+02  0.45594000000E+02  0.51100000000E-03 0.  1.
    9900012    2    1    2    0    0 -0.56128718692E+01 -0.12638487025E+02  0.12627054449E+02  0.72461596476E+02  0.70000034106E+02 0.  0.
        -12    1    1    2    0    0  0.56128718692E+01  0.12638487025E+02 -0.12627054449E+02  0.18726403524E+02  0.00000000000E+00 0.  1.
         11    1    3    3    0    0  0.34151573321E+01 -0.32789935300E+01  0.10450420778E+02  0.11472854608E+02  0.51100000000E-03 0. -1.
        -11    1    3    3    0    0 -0.18790556065E+02  0.49037513183E+01  0.25441308274E+02  0.32006123495E+02  0.51100000000E-03 0.  1.
         12    1    3    3    0    0  0.97625268637E+01 -0.14263244813E+02 -0.23264674603E+02  0.28982618373E+02  0.00000000000E+00 0. -1.
</event>
<event>
 7    1  0.3568800E-013  0.7246177E+02  0.7816164E-02  0.1226707E+00
        -11   -1    0    0    0    0  0.00000000000E+00  0.00000000000E+00  0.45593999997E+02  0.45594000000E+02  0.51100000000E-03 0. -1.
         11   -1    0    0    0    0 -0.00000000000E+00 -0.00000000000E+00 -0.45593999997E+02  0.45594000000E+02  0.51100000000E-03 0.  1.
    9900012    2    1    2    0    0 -0.18685047387E+02 -0.44578089218E-01 -0.12404468756E+01  0.72461769960E+02  0.70000260102E+02 0.  0.
        -12    1    1    2    0    0  0.18685047387E+02  0.44578089218E-01  0.12404468756E+01  0.18726230040E+02  0.00000000000E+00 0.  1.
         11    1    3    3    0    0 -0.17506270085E+02 -0.21195206742E+02  0.68837151419E+01  0.28338874635E+02  0.51100000000E-03 0. -1.
        -11    1    3    3    0    0 -0.17467814779E+02  0.19829321987E+02 -0.14363306854E+01  0.26464875018E+02  0.51100000000E-03 0.  1.
        -12    1    3    3    0    0  0.16289037478E+02  0.13213066658E+01 -0.66878313321E+01  0.17658020307E+02  0.00000000000E+00 0.  1.
</event>
<event>
 7    1  0.3568800E-013  0.7246154E+02  0.7816164E-02  0.1226708E+00
        -11   -1    0    0    0    0  0.00000000000E+00  0.00000000000E+00  0.45593999997E+02  0.45594000000E+02  0.51100000000E-03 0.  1.
         11   -1    0    0    0    0 -0.00000000000E+00 -0.00000000000E+00 -0.45593999997E+02  0.45594000000E+02  0.51100000000E-03 0. -1.
    9900012    2    1    2    0    0  0.17167976629E+02 -0.74761457072E+01  0.21960591213E+00  0.72461537363E+02  0.69999957100E+02 0.  0.
        -12    1    1    2    0    0 -0.17167976629E+02  0.74761457072E+01 -0.21960591213E+00  0.18726462637E+02  0.00000000000E+00 0.  1.
         11    1    3    3    0    0  0.14661962428E+01 -0.92967985191E+01 -0.68182503283E+01  0.11621907413E+02  0.51100000000E-03 0. -1.
        -11    1    3    3    0    0  0.20914917730E+02 -0.36683877826E+01  0.29947527555E+02  0.36711650188E+02  0.51100000000E-03 0.  1.
         12    1    3    3    0    0 -0.52131373442E+01  0.54890405944E+01 -0.22909671315E+02  0.24127979761E+02  0.00000000000E+00 0. -1.
</event>
<event>
 7    1  0.3568800E-013  0.7246136E+02  0.7816164E-02  0.1226709E+00
        -11   -1    0    0    0    0  0.00000000000E+00  0.00000000000E+00  0.45593999997E+02  0.45594000000E+02  0.51100000000E-03 0.  1.
         11   -1    0    0    0    0 -0.00000000000E+00 -0.00000000000E+00 -0.45593999997E+02  0.45594000000E+02  0.51100000000E-03 0. -1.
    9900012    2    1    2    0    0  0.10300217412E+02 -0.15409252225E+02  0.26734681635E+01  0.72461362157E+02  0.69999728862E+02 0.  0.
        -12    1    1    2    0    0 -0.10300217412E+02  0.15409252225E+02 -0.26734681635E+01  0.18726637843E+02  0.00000000000E+00 0.  1.
         11    1    3    3    0    0  0.17866483025E+01 -0.16792758627E+02  0.25685257726E+02  0.30739572528E+02  0.51100000000E-03 0. -1.
        -11    1    3    3    0    0 -0.38156588988E+01  0.44945723477E+01  0.69853426290E+01  0.91408667711E+01  0.51100000000E-03 0.  1.
        -12    1    3    3    0    0  0.12329228008E+02 -0.31110659465E+01 -0.29997132192E+02  0.32580922859E+02  0.00000000000E+00 0.  1.
</event>
<event>
 7    1  0.3568800E-013  0.7246157E+02  0.7816164E-02  0.1226708E+00
        -11   -1    0    0    0    0  0.00000000000E+00  0.00000000000E+00  0.45593999997E+02  0.45594000000E+02  0.51100000000E-03 0. -1.
         11   -1    0    0    0    0 -0.00000000000E+00 -0.00000000000E+00 -0.45593999997E+02  0.45594000000E+02  0.51100000000E-03 0.  1.
    9900012    2    1    2    0    0 -0.13653771681E+02 -0.94541679762E+01  0.86528915396E+01  0.72461566671E+02  0.69999995280E+02 0.  0.
        -12    1    1    2    0    0  0.13653771681E+02  0.94541679762E+01 -0.86528915396E+01  0.18726433329E+02  0.00000000000E+00 0.  1.
         11    1    3    3    0    0 -0.67862030786E+01  0.15436514054E+02 -0.45656941047E+01  0.17469518634E+02  0.51100000000E-03 0. -1.
        -11    1    3    3    0    0 -0.84262722870E+01  0.83672350300E+01  0.17785951119E+02  0.21385807073E+02  0.51100000000E-03 0.  1.
        -12    1    3    3    0    0  0.15587036850E+01 -0.33257917061E+02 -0.45673654743E+01  0.33606240965E+02  0.00000000000E+00 0.  1.
</event>
<event>
 7    1  0.3568800E-013  0.7246156E+02  0.7816164E-02  0.1226708E+00
        -11   -1    0    0    0    0  0.00000000000E+00  0.00000000000E+00  0.45593999997E+02  0.45594000000E+02  0.51100000000E-03 0.  1.
         11   -1    0    0    0    0 -0.00000000000E+00 -0.00000000000E+00 -0.45593999997E+02  0.45594000000E+02  0.51100000000E-03 0. -1.
    9900012    2    1    2    0    0 -0.13874176198E+02 -0.11728596860E+02  0.45416891099E+01  0.72461556412E+02  0.69999981915E+02 0.  0.
        -12    1    1    2    0    0  0.13874176198E+02  0.11728596860E+02 -0.45416891099E+01  0.18726443588E+02  0.00000000000E+00 0.  1.
         11    1    3    3    0    0  0.17810042046E+02 -0.30605185728E+00  0.12670205176E+01  0.17857676407E+02  0.51100000000E-03 0. -1.
        -11    1    3    3    0    0 -0.36677250392E+01 -0.14564524742E+02  0.17470808050E+02  0.23039243088E+02  0.51100000000E-03 0.  1.
        -12    1    3    3    0    0 -0.28016493205E+02  0.31419797384E+01 -0.14196139457E+02  0.31564636916E+02  0.00000000000E+00 0.  1.
</event>
<event>
 7    1  0.3568800E-013  0.7246175E+02  0.7816164E-02  0.1226708E+00
        -11   -1    0    0    0    0  0.00000000000E+00  0.00000000000E+00  0.45593999997E+02  0.45594000000E+02  0.51100000000E-03 0.  1.
         11   -1    0    0    0    0 -0.00000000000E+00 -0.00000000000E+00 -0.45593999997E+02  0.45594000000E+02  0.51100000000E-03 0. -1.
    9900012    2    1    2    0    0  0.48741132624E+01 -0.16624447675E+02 -0.71093830515E+01  0.72461746558E+02  0.70000229616E+02 0.  0.
        -12    1    1    2    0    0 -0.48741132624E+01  0.16624447675E+02  0.71093830515E+01  0.18726253442E+02  0.00000000000E+00 0.  1.
         11    1    3    3    0    0  0.32621966778E+00  0.10932877239E+02 -0.19805177797E+02  0.22624749542E+02  0.51100000000E-03 0. -1.
        -11    1    3    3    0    0 -0.13246879492E+02  0.44560548323E+00  0.98947562406E+01  0.16540392433E+02  0.51100000000E-03 0.  1.
         12    1    3    3    0    0  0.17794773087E+02 -0.28002930397E+02  0.28010385050E+01  0.33296604583E+02  0.00000000000E+00 0. -1.
</event>
<event>
 7    1  0.3568800E-013  0.7246154E+02  0.7816164E-02  0.1226708E+00
        -11   -1    0    0    0    0  0.00000000000E+00  0.00000000000E+00  0.45593999997E+02  0.45594000000E+02  0.51100000000E-03 0.  1.
         11   -1    0    0    0    0 -0.00000000000E+00 -0.00000000000E+00 -0.45593999997E+02  0.45594000000E+02  0.51100000000E-03 0. -1.
    9900012    2    1    2    0    0  0.43689552737E+01 -0.12452158338E+02 -0.13286692729E+02  0.72461542216E+02  0.69999963423E+02 0.  0.
        -12    1    1    2    0    0 -0.43689552737E+01  0.12452158338E+02  0.13286692729E+02  0.18726457784E+02  0.00000000000E+00 0.  1.
         11    1    3    3    0    0  0.69771928092E+01  0.12720666508E+02 -0.43323056410E+01  0.15141514070E+02  0.51100000000E-03 0. -1.
        -11    1    3    3    0    0  0.17698586514E+02 -0.25975898384E+02  0.61128362727E+01  0.32021149714E+02  0.51100000000E-03 0.  1.
         12    1    3    3    0    0 -0.20306824050E+02  0.80307353845E+00 -0.15067223361E+02  0.25298878432E+02  0.00000000000E+00 0. -1.
</event>
<event>
 7    1  0.3568800E-013  0.7246150E+02  0.7816164E-02  0.1226708E+00
        -11   -1    0    0    0    0  0.00000000000E+00  0.00000000000E+00  0.45593999997E+02  0.45594000000E+02  0.51100000000E-03 0. -1.
         11   -1    0    0    0    0 -0.00000000000E+00 -0.00000000000E+00 -0.45593999997E+02  0.45594000000E+02  0.51100000000E-03 0.  1.
    9900012    2    1    2    0    0  0.11409588595E+02  0.88366299360E+01  0.11933857971E+02  0.72461502554E+02  0.69999911755E+02 0.  0.
        -12    1    1    2    0    0 -0.11409588595E+02 -0.88366299360E+01 -0.11933857971E+02  0.18726497446E+02  0.00000000000E+00 0.  1.
         11    1    3    3    0    0  0.12355032996E+02 -0.61486838272E+01 -0.60734396402E+01  0.15077792361E+02  0.51100000000E-03 0. -1.
        -11    1    3    3    0    0 -0.31598051860E+01 -0.92892831854E+01 -0.14034363461E+02  0.17124208271E+02  0.51100000000E-03 0.  1.
         12    1    3    3    0    0  0.22143607847E+01  0.24274596948E+02  0.32041661072E+02  0.40259501921E+02  0.00000000000E+00 0. -1.
</event>
<event>
 7    1  0.3568800E-013  0.7246194E+02  0.7816164E-02  0.1226707E+00
        -11   -1    0    0    0    0  0.00000000000E+00  0.00000000000E+00  0.45593999997E+02  0.45594000000E+02  0.51100000000E-03 0.  1.
         11   -1    0    0    0    0 -0.00000000000E+00 -0.00000000000E+00 -0.45593999997E+02  0.45594000000E+02  0.51100000000E-03 0. -1.
    9900012    2    1    2    0    0 -0.16361558220E+02 -0.54439455107E+01 -0.73026218596E+01  0.72461937517E+02  0.70000478374E+02 0.  0.
        -12    1    1    2    0    0  0.16361558220E+02  0.54439455107E+01  0.73026218596E+01  0.18726062483E+02  0.00000000000E+00 0.  1.
         11    1    3    3    0    0 -0.44458641256E+01 -0.70181681504E+01  0.28026888754E+02  0.29232291828E+02  0.51100000000E-03 0.  1.
        -11    1    3    3    0    0  0.52507647315E+01 -0.37180955005E+00 -0.18022372930E+02  0.18775374800E+02  0.51100000000E-03 0. -1.
        -12    1    3    3    0    0 -0.17166458826E+02  0.19460321898E+01 -0.17307137684E+02  0.24454270889E+02  0.00000000000E+00 0.  1.
</event>
<event>
 7    1  0.3568800E-013  0.7246155E+02  0.7816164E-02  0.1226708E+00
        -11   -1    0    0    0    0  0.00000000000E+00  0.00000000000E+00  0.45593999997E+02  0.45594000000E+02  0.51100000000E-03 0.  1.
         11   -1    0    0    0    0 -0.00000000000E+00 -0.00000000000E+00 -0.45593999997E+02  0.45594000000E+02  0.51100000000E-03 0. -1.
    9900012    2    1    2    0    0 -0.13769102922E+02  0.34776080024E+01 -0.12206467377E+02  0.72461553500E+02  0.69999978122E+02 0.  0.
        -12    1    1    2    0    0  0.13769102922E+02 -0.34776080024E+01  0.12206467377E+02  0.18726446500E+02  0.00000000000E+00 0.  1.
         11    1    3    3    0    0 -0.26263610254E+02  0.18486039956E+02  0.62653353817E-01  0.32117204463E+02  0.51100000000E-03 0. -1.
        -11    1    3    3    0    0  0.14703272303E+01  0.19292326950E+01  0.99896455352E+01  0.10279923109E+02  0.51100000000E-03 0.  1.
         12    1    3    3    0    0  0.11024180102E+02 -0.16937664648E+02 -0.22258766266E+02  0.30064425927E+02  0.00000000000E+00 0. -1.
</event>
<event>
 7    1  0.3568800E-013  0.7246129E+02  0.7816164E-02  0.1226709E+00
        -11   -1    0    0    0    0  0.00000000000E+00  0.00000000000E+00  0.45593999997E+02  0.45594000000E+02  0.51100000000E-03 0.  1.
         11   -1    0    0    0    0 -0.00000000000E+00 -0.00000000000E+00 -0.45593999997E+02  0.45594000000E+02  0.51100000000E-03 0. -1.
    9900012    2    1    2    0    0 -0.80937049812E+01  0.11986634395E+02 -0.11895470235E+02  0.72461289756E+02  0.69999634546E+02 0.  0.
        -12    1    1    2    0    0  0.80937049812E+01 -0.11986634395E+02  0.11895470235E+02  0.18726710244E+02  0.00000000000E+00 0.  1.
         11    1    3    3    0    0 -0.88381074815E+01 -0.71838241215E+01  0.55347968157E+01  0.12663074228E+02  0.51100000000E-03 0. -1.
        -11    1    3    3    0    0 -0.16502381599E+01  0.33934464145E+01  0.19345193877E+02  0.19709776532E+02  0.51100000000E-03 0.  1.
         12    1    3    3    0    0  0.23946406602E+01  0.15777012102E+02 -0.36775460927E+02  0.40088438996E+02  0.00000000000E+00 0. -1.
</event>
<event>
 7    1  0.3568800E-013  0.7246154E+02  0.7816164E-02  0.1226708E+00
        -11   -1    0    0    0    0  0.00000000000E+00  0.00000000000E+00  0.45593999997E+02  0.45594000000E+02  0.51100000000E-03 0. -1.
         11   -1    0    0    0    0 -0.00000000000E+00 -0.00000000000E+00 -0.45593999997E+02  0.45594000000E+02  0.51100000000E-03 0.  1.
    9900012    2    1    2    0    0  0.17367811090E+02  0.11890806820E+01  0.69011255884E+01  0.72461539862E+02  0.69999960356E+02 0.  0.
        -12    1    1    2    0    0 -0.17367811090E+02 -0.11890806820E+01 -0.69011255884E+01  0.18726460138E+02  0.00000000000E+00 0.  1.
         11    1    3    3    0    0  0.41869611140E+01 -0.23359589072E+01 -0.25527052412E+01  0.54317264011E+01  0.51100000000E-03 0. -1.
        -11    1    3    3    0    0  0.28695697873E+02  0.14582046222E+02 -0.15425710692E+02  0.35693580642E+02  0.51100000000E-03 0.  1.
         12    1    3    3    0    0 -0.15514847897E+02 -0.11057006633E+02  0.24879541522E+02  0.31336232819E+02  0.00000000000E+00 0. -1.
</event>
<event>
 7    1  0.3568800E-013  0.7246154E+02  0.7816164E-02  0.1226708E+00
        -11   -1    0    0    0    0  0.00000000000E+00  0.00000000000E+00  0.45593999997E+02  0.45594000000E+02  0.51100000000E-03 0.  1.
         11   -1    0    0    0    0 -0.00000000000E+00 -0.00000000000E+00 -0.45593999997E+02  0.45594000000E+02  0.51100000000E-03 0. -1.
    9900012    2    1    2    0    0  0.35462788492E+01  0.88996555632E+00 -0.18366062216E+02  0.72461538143E+02  0.69999958116E+02 0.  0.
        -12    1    1    2    0    0 -0.35462788492E+01 -0.88996555632E+00  0.18366062216E+02  0.18726461857E+02  0.00000000000E+00 0.  1.
         11    1    3    3    0    0 -0.11125566102E+02  0.31123019650E+01 -0.24863904467E+02  0.27416753824E+02  0.51100000000E-03 0. -1.
        -11    1    3    3    0    0 -0.49962155675E+01 -0.96839312385E+01 -0.12582173273E+02  0.16644872447E+02  0.51100000000E-03 0.  1.
        -12    1    3    3    0    0  0.19668060519E+02  0.74615948298E+01  0.19080015524E+02  0.28399911872E+02  0.00000000000E+00 0.  1.
</event>
<event>
 7    1  0.3568800E-013  0.7246159E+02  0.7816164E-02  0.1226708E+00
        -11   -1    0    0    0    0  0.00000000000E+00  0.00000000000E+00  0.45593999997E+02  0.45594000000E+02  0.51100000000E-03 0.  1.
         11   -1    0    0    0    0 -0.00000000000E+00 -0.00000000000E+00 -0.45593999997E+02  0.45594000000E+02  0.51100000000E-03 0. -1.
    9900012    2    1    2    0    0  0.10671949981E+02 -0.13339343708E+02 -0.76713741247E+01  0.72461585824E+02  0.70000020230E+02 0.  0.
        -12    1    1    2    0    0 -0.10671949981E+02  0.13339343708E+02  0.76713741247E+01  0.18726414176E+02  0.00000000000E+00 0.  1.
         11    1    3    3    0    0  0.88818567182E+01  0.53051425394E+01  0.11264669207E+02  0.15294596717E+02  0.51100000000E-03 0. -1.
        -11    1    3    3    0    0  0.11730038611E+02 -0.25156222623E+02  0.70109788009E+01  0.28628362972E+02  0.51100000000E-03 0.  1.
         12    1    3    3    0    0 -0.99399453481E+01  0.65117363757E+01 -0.25947022132E+02  0.28538626135E+02  0.00000000000E+00 0. -1.
</event>
<event>
 7    1  0.3568800E-013  0.7246156E+02  0.7816164E-02  0.1226708E+00
        -11   -1    0    0    0    0  0.00000000000E+00  0.00000000000E+00  0.45593999997E+02  0.45594000000E+02  0.51100000000E-03 0.  1.
         11   -1    0    0    0    0 -0.00000000000E+00 -0.00000000000E+00 -0.45593999997E+02  0.45594000000E+02  0.51100000000E-03 0. -1.
    9900012    2    1    2    0    0 -0.14460139017E+02 -0.11783744450E+02  0.16515020041E+01  0.72461555796E+02  0.69999981113E+02 0.  0.
        -12    1    1    2    0    0  0.14460139017E+02  0.11783744450E+02 -0.16515020041E+01  0.18726444204E+02  0.00000000000E+00 0.  1.
         11    1    3    3    0    0 -0.29981741876E+02 -0.19182499230E+02 -0.12243419497E+02  0.37640064345E+02  0.51100000000E-03 0. -1.
        -11    1    3    3    0    0  0.94654367731E+01  0.15414993994E+02  0.52402512868E+00  0.18096716159E+02  0.51100000000E-03 0.  1.
        -12    1    3    3    0    0  0.60561660854E+01 -0.80162392135E+01  0.13370896372E+02  0.16724775292E+02  0.00000000000E+00 0.  1.
</event>
<event>
 7    1  0.3568800E-013  0.7246155E+02  0.7816164E-02  0.1226708E+00
        -11   -1    0    0    0    0  0.00000000000E+00  0.00000000000E+00  0.45593999997E+02  0.45594000000E+02  0.51100000000E-03 0. -1.
         11   -1    0    0    0    0 -0.00000000000E+00 -0.00000000000E+00 -0.45593999997E+02  0.45594000000E+02  0.51100000000E-03 0.  1.
    9900012    2    1    2    0    0 -0.46029206160E+01  0.23675981165E+01  0.17996873336E+02  0.72461552154E+02  0.69999976369E+02 0.  0.
        -12    1    1    2    0    0  0.46029206160E+01 -0.23675981165E+01 -0.17996873336E+02  0.18726447846E+02  0.00000000000E+00 0.  1.
         11    1    3    3    0    0 -0.26794319198E+02  0.13563664616E+02  0.25010074333E+02  0.39082123247E+02  0.51100000000E-03 0. -1.
        -11    1    3    3    0    0 -0.16959901918E+01  0.23892205800E+01  0.29413810217E+01  0.41516840302E+01  0.51100000000E-03 0.  1.
        -12    1    3    3    0    0  0.23887388774E+02 -0.13585287079E+02 -0.99545820181E+01  0.29227744877E+02  0.00000000000E+00 0.  1.
</event>
<event>
 7    1  0.3568800E-013  0.7246156E+02  0.7816164E-02  0.1226708E+00
        -11   -1    0    0    0    0  0.00000000000E+00  0.00000000000E+00  0.45593999997E+02  0.45594000000E+02  0.51100000000E-03 0. -1.
         11   -1    0    0    0    0 -0.00000000000E+00 -0.00000000000E+00 -0.45593999997E+02  0.45594000000E+02  0.51100000000E-03 0.  1.
    9900012    2    1    2    0    0 -0.38621027903E+00  0.83087362176E+01  0.16777820073E+02  0.72461561409E+02  0.69999988425E+02 0.  0.
        -12    1    1    2    0    0  0.38621027903E+00 -0.83087362176E+01 -0.16777820073E+02  0.18726438591E+02  0.00000000000E+00 0.  1.
         11    1    3    3    0    0  0.11775856688E+02 -0.59275350986E+01  0.32680796943E+02  0.35239763934E+02  0.51100000000E-03 0. -1.
        -11    1    3    3    0    0  0.31660105029E+01 -0.68621367500E+01 -0.30748967118E+01  0.81588928985E+01  0.51100000000E-03 0.  1.
         12    1    3    3    0    0 -0.15328077470E+02  0.21098408066E+02 -0.12828080158E+02  0.29062904576E+02  0.00000000000E+00 0. -1.
</event>
<event>
 7    1  0.3568800E-013  0.7246159E+02  0.7816164E-02  0.1226708E+00
        -11   -1    0    0    0    0  0.00000000000E+00  0.00000000000E+00  0.45593999997E+02  0.45594000000E+02  0.51100000000E-03 0.  1.
         11   -1    0    0    0    0 -0.00000000000E+00 -0.00000000000E+00 -0.45593999997E+02  0.45594000000E+02  0.51100000000E-03 0. -1.
    9900012    2    1    2    0    0  0.12208218858E+01  0.34811243950E+01 -0.18359462766E+02  0.72461588005E+02  0.70000023072E+02 0.  0.
        -12    1    1    2    0    0 -0.12208218858E+01 -0.34811243950E+01  0.18359462766E+02  0.18726411995E+02  0.00000000000E+00 0.  1.
         11    1    3    3    0    0 -0.23560223476E+01  0.61487626934E+01 -0.32878985266E+01  0.73599185419E+01  0.51100000000E-03 0. -1.
        -11    1    3    3    0    0 -0.12868007618E+02  0.19639719401E+02  0.11992482350E+02  0.26365201145E+02  0.51100000000E-03 0.  1.
         12    1    3    3    0    0  0.16444851851E+02 -0.22307357700E+02 -0.27064046590E+02  0.38736468318E+02  0.00000000000E+00 0. -1.
</event>
<event>
 7    1  0.3568800E-013  0.7246152E+02  0.7816164E-02  0.1226708E+00
        -11   -1    0    0    0    0  0.00000000000E+00  0.00000000000E+00  0.45593999997E+02  0.45594000000E+02  0.51100000000E-03 0.  1.
         11   -1    0    0    0    0 -0.00000000000E+00 -0.00000000000E+00 -0.45593999997E+02  0.45594000000E+02  0.51100000000E-03 0. -1.
    9900012    2    1    2    0    0 -0.31715589271E+01  0.13250012075E+02  0.12847540238E+02  0.72461524192E+02  0.69999939943E+02 0.  0.
        -12    1    1    2    0    0  0.31715589271E+01 -0.13250012075E+02 -0.12847540238E+02  0.18726475808E+02  0.00000000000E+00 0.  1.
         11    1    3    3    0    0  0.19190595430E+02  0.55729846171E+01 -0.15920420083E+02  0.25549890144E+02  0.51100000000E-03 0.  1.
        -11    1    3    3    0    0 -0.22810208011E+01 -0.87460739765E+01  0.13029696131E+01  0.91320641682E+01  0.51100000000E-03 0. -1.
         12    1    3    3    0    0 -0.20081133556E+02  0.16423101435E+02  0.27464990709E+02  0.37779569879E+02  0.00000000000E+00 0. -1.
</event>
<event>
 7    1  0.3568800E-013  0.7246161E+02  0.7816164E-02  0.1226708E+00
        -11   -1    0    0    0    0  0.00000000000E+00  0.00000000000E+00  0.45593999997E+02  0.45594000000E+02  0.51100000000E-03 0. -1.
         11   -1    0    0    0    0 -0.00000000000E+00 -0.00000000000E+00 -0.45593999997E+02  0.45594000000E+02  0.51100000000E-03 0.  1.
    9900012    2    1    2    0    0  0.32079030874E+01 -0.77387714709E+01  0.16748090165E+02  0.72461608189E+02  0.70000049365E+02 0.  0.
        -12    1    1    2    0    0 -0.32079030874E+01  0.77387714709E+01 -0.16748090165E+02  0.18726391811E+02  0.00000000000E+00 0.  1.
         11    1    3    3    0    0  0.11304595191E+02  0.10996234246E+02 -0.93807319071E+00  0.15798449974E+02  0.51100000000E-03 0. -1.
        -11    1    3    3    0    0  0.14748177737E+02 -0.22418282430E+01 -0.93565498573E+01  0.17609076237E+02  0.51100000000E-03 0.  1.
         12    1    3    3    0    0 -0.22844869841E+02 -0.16493177474E+02  0.27042713213E+02  0.39054081978E+02  0.00000000000E+00 0. -1.
</event>
<event>
 7    1  0.3568800E-013  0.7246156E+02  0.7816164E-02  0.1226708E+00
        -11   -1    0    0    0    0  0.00000000000E+00  0.00000000000E+00  0.45593999997E+02  0.45594000000E+02  0.51100000000E-03 0.  1.
         11   -1    0    0    0    0 -0.00000000000E+00 -0.00000000000E+00 -0.45593999997E+02  0.45594000000E+02  0.51100000000E-03 0. -1.
    9900012    2    1    2    0    0  0.98623300416E+01 -0.20661881606E+01 -0.15784327675E+02  0.72461556464E+02  0.69999981983E+02 0.  0.
        -12    1    1    2    0    0 -0.98623300416E+01  0.20661881606E+01  0.15784327675E+02  0.18726443536E+02  0.00000000000E+00 0.  1.
         11    1    3    3    0    0  0.42760941692E+01 -0.20257720250E+00 -0.21380712763E+01  0.47851194249E+01  0.51100000000E-03 0. -1.
        -11    1    3    3    0    0  0.24278999967E+02 -0.16373719566E+02  0.12999541093E+02  0.32039921983E+02  0.51100000000E-03 0.  1.
         12    1    3    3    0    0 -0.18692764095E+02  0.14510108607E+02 -0.26645797492E+02  0.35636515055E+02  0.00000000000E+00 0. -1.
</event>
<event>
 7    1  0.3568800E-013  0.7246160E+02  0.7816164E-02  0.1226708E+00
        -11   -1    0    0    0    0  0.00000000000E+00  0.00000000000E+00  0.45593999997E+02  0.45594000000E+02  0.51100000000E-03 0.  1.
         11   -1    0    0    0    0 -0.00000000000E+00 -0.00000000000E+00 -0.45593999997E+02  0.45594000000E+02  0.51100000000E-03 0. -1.
    9900012    2    1    2    0    0  0.17785122870E+02 -0.47389449414E+01 -0.34510479063E+01  0.72461603489E+02  0.70000043242E+02 0.  0.
        -12    1    1    2    0    0 -0.17785122870E+02  0.47389449414E+01  0.34510479063E+01  0.18726396511E+02  0.00000000000E+00 0.  1.
         11    1    3    3    0    0 -0.11853241865E+02 -0.21948267196E+01 -0.29083622671E+02  0.31482911476E+02  0.51100000000E-03 0. -1.
        -11    1    3    3    0    0  0.48967115176E+01 -0.33772768470E+01  0.95598572287E+00  0.60247565554E+01  0.51100000000E-03 0.  1.
        -12    1    3    3    0    0  0.24741653218E+02  0.83315862526E+00  0.24676589042E+02  0.34953935458E+02  0.00000000000E+00 0.  1.
</event>
<event>
 7    1  0.3568800E-013  0.7246157E+02  0.7816164E-02  0.1226708E+00
        -11   -1    0    0    0    0  0.00000000000E+00  0.00000000000E+00  0.45593999997E+02  0.45594000000E+02  0.51100000000E-03 0.  1.
         11   -1    0    0    0    0 -0.00000000000E+00 -0.00000000000E+00 -0.45593999997E+02  0.45594000000E+02  0.51100000000E-03 0. -1.
    9900012    2    1    2    0    0  0.43958828463E+01 -0.17621744753E+02 -0.45639343193E+01  0.72461570265E+02  0.69999999962E+02 0.  0.
        -12    1    1    2    0    0 -0.43958828463E+01  0.17621744753E+02  0.45639343193E+01  0.18726429735E+02  0.00000000000E+00 0.  1.
         11    1    3    3    0    0  0.44175634464E+01  0.16239543531E+02 -0.45683716447E+00  0.16835864734E+02  0.51100000000E-03 0. -1.
        -11    1    3    3    0    0  0.20211113754E+02 -0.20464402210E+02 -0.10352431552E+02  0.30568835703E+02  0.51100000000E-03 0.  1.
         12    1    3    3    0    0 -0.20232794354E+02 -0.13396886074E+02  0.62453343974E+01  0.25056869828E+02  0.00000000000E+00 0. -1.
</event>
<event>
 7    1  0.3568800E-013  0.7246163E+02  0.7816164E-02  0.1226708E+00
        -11   -1    0    0    0    0  0.00000000000E+00  0.00000000000E+00  0.45593999997E+02  0.45594000000E+02  0.51100000000E-03 0.  1.
         11   -1    0    0    0    0 -0.00000000000E+00 -0.00000000000E+00 -0.45593999997E+02  0.45594000000E+02  0.51100000000E-03 0. -1.
    9900012    2    1    2    0    0  0.15127524312E+02  0.88598987891E+01 -0.65830883496E+01  0.72461632211E+02  0.70000080658E+02 0.  0.
        -12    1    1    2    0    0 -0.15127524312E+02 -0.88598987891E+01  0.65830883496E+01  0.18726367789E+02  0.00000000000E+00 0.  1.
         11    1    3    3    0    0 -0.10647639299E+02 -0.44484181716E+01  0.85637348837E+01  0.14370045313E+02  0.51100000000E-03 0. -1.
        -11    1    3    3    0    0  0.84551114679E+01  0.81615759502E+01  0.17323039406E+02  0.20932938792E+02  0.51100000000E-03 0.  1.
         12    1    3    3    0    0  0.17320052143E+02  0.51467410104E+01 -0.32469862639E+02  0.37158648106E+02  0.00000000000E+00 0. -1.
</event>
<event>
 7    1  0.3568800E-013  0.7246157E+02  0.7816164E-02  0.1226708E+00
        -11   -1    0    0    0    0  0.00000000000E+00  0.00000000000E+00  0.45593999997E+02  0.45594000000E+02  0.51100000000E-03 0.  1.
         11   -1    0    0    0    0 -0.00000000000E+00 -0.00000000000E+00 -0.45593999997E+02  0.45594000000E+02  0.51100000000E-03 0. -1.
    9900012    2    1    2    0    0 -0.27246668648E+01  0.18483625969E+02 -0.12693025839E+01  0.72461565007E+02  0.69999993113E+02 0.  0.
        -12    1    1    2    0    0  0.27246668648E+01 -0.18483625969E+02  0.12693025839E+01  0.18726434993E+02  0.00000000000E+00 0.  1.
         11    1    3    3    0    0 -0.74228865253E+01  0.12496052090E+02 -0.31581443733E+01  0.14873615511E+02  0.51100000000E-03 0. -1.
        -11    1    3    3    0    0 -0.96544113868E+01  0.27383713015E+02  0.97861908602E+01  0.30640576521E+02  0.51100000000E-03 0.  1.
        -12    1    3    3    0    0  0.14352631047E+02 -0.21396139137E+02 -0.78973490709E+01  0.26947372975E+02  0.00000000000E+00 0.  1.
</event>
<event>
 7    1  0.3568800E-013  0.7246149E+02  0.7816164E-02  0.1226708E+00
        -11   -1    0    0    0    0  0.00000000000E+00  0.00000000000E+00  0.45593999997E+02  0.45594000000E+02  0.51100000000E-03 0.  1.
         11   -1    0    0    0    0 -0.00000000000E+00 -0.00000000000E+00 -0.45593999997E+02  0.45594000000E+02  0.51100000000E-03 0. -1.
    9900012    2    1    2    0    0 -0.98708576285E+01  0.12296411839E+02  0.10101810823E+02  0.72461490546E+02  0.69999896113E+02 0.  0.
        -12    1    1    2    0    0  0.98708576285E+01 -0.12296411839E+02 -0.10101810823E+02  0.18726509454E+02  0.00000000000E+00 0.  1.
         11    1    3    3    0    0  0.95936158641E+01  0.11222145461E+01 -0.22362352248E+01  0.99145135572E+01  0.51100000000E-03 0. -1.
        -11    1    3    3    0    0  0.79529898423E+01 -0.17787513810E+02 -0.32007907794E+01  0.19745651593E+02  0.51100000000E-03 0.  1.
        -12    1    3    3    0    0 -0.27417463335E+02  0.28961711102E+02  0.15538836827E+02  0.42801325396E+02  0.00000000000E+00 0.  1.
</event>
<event>
 7    1  0.3568800E-013  0.7246173E+02  0.7816164E-02  0.1226708E+00
        -11   -1    0    0    0    0  0.00000000000E+00  0.00000000000E+00  0.45593999997E+02  0.45594000000E+02  0.51100000000E-03 0.  1.
         11   -1    0    0    0    0 -0.00000000000E+00 -0.00000000000E+00 -0.45593999997E+02  0.45594000000E+02  0.51100000000E-03 0. -1.
    9900012    2    1    2    0    0  0.14051688767E+02  0.98551730378E+01  0.74899232479E+01  0.72461725863E+02  0.70000202657E+02 0.  0.
        -12    1    1    2    0    0 -0.14051688767E+02 -0.98551730378E+01 -0.74899232479E+01  0.18726274137E+02  0.00000000000E+00 0.  1.
         11    1    3    3    0    0 -0.75857213724E-01  0.50790856314E+01  0.42196964509E+01  0.66036886334E+01  0.51100000000E-03 0. -1.
        -11    1    3    3    0    0  0.15464951467E+02 -0.27232259275E+02  0.10473298817E+02  0.33021972343E+02  0.51100000000E-03 0.  1.
         12    1    3    3    0    0 -0.13374054862E+01  0.32008346681E+02 -0.72030720204E+01  0.32836064886E+02  0.00000000000E+00 0. -1.
</event>
<event>
 7    1  0.3568800E-013  0.7246156E+02  0.7816164E-02  0.1226708E+00
        -11   -1    0    0    0    0  0.00000000000E+00  0.00000000000E+00  0.45593999997E+02  0.45594000000E+02  0.51100000000E-03 0.  1.
         11   -1    0    0    0    0 -0.00000000000E+00 -0.00000000000E+00 -0.45593999997E+02  0.45594000000E+02  0.51100000000E-03 0. -1.
    9900012    2    1    2    0    0  0.13793004812E+02 -0.71734204833E+01 -0.10439093421E+02  0.72461558410E+02  0.69999984518E+02 0.  0.
        -12    1    1    2    0    0 -0.13793004812E+02  0.71734204833E+01  0.10439093421E+02  0.18726441590E+02  0.00000000000E+00 0.  1.
         11    1    3    3    0    0 -0.21198822730E+01  0.80728330316E+01  0.47500089748E+01  0.96034951726E+01  0.51100000000E-03 0. -1.
        -11    1    3    3    0    0  0.30679102505E+02 -0.19935057242E+02  0.55136413165E+01  0.37000190250E+02  0.51100000000E-03 0.  1.
         12    1    3    3    0    0 -0.14766215420E+02  0.46888037267E+01 -0.20702743712E+02  0.25857872987E+02  0.00000000000E+00 0. -1.
</event>
<event>
 7    1  0.3568800E-013  0.7246155E+02  0.7816164E-02  0.1226708E+00
        -11   -1    0    0    0    0  0.00000000000E+00  0.00000000000E+00  0.45593999997E+02  0.45594000000E+02  0.51100000000E-03 0.  1.
         11   -1    0    0    0    0 -0.00000000000E+00 -0.00000000000E+00 -0.45593999997E+02  0.45594000000E+02  0.51100000000E-03 0. -1.
    9900012    2    1    2    0    0 -0.43824760833E+01 -0.13842181207E+02 -0.11826570009E+02  0.72461552516E+02  0.69999976840E+02 0.  0.
        -12    1    1    2    0    0  0.43824760833E+01  0.13842181207E+02  0.11826570009E+02  0.18726447484E+02  0.00000000000E+00 0.  1.
         11    1    3    3    0    0 -0.15350947121E+02 -0.24987148639E+02 -0.13297609419E+01  0.29356046039E+02  0.51100000000E-03 0. -1.
        -11    1    3    3    0    0 -0.38990458623E+01  0.31312103868E+01 -0.22071059551E+02  0.22630481813E+02  0.51100000000E-03 0.  1.
        -12    1    3    3    0    0  0.14867516900E+02  0.80137570453E+01  0.11574250483E+02  0.20475024664E+02  0.00000000000E+00 0.  1.
</event>
<event>
 7    1  0.3568800E-013  0.7246188E+02  0.7816164E-02  0.1226707E+00
        -11   -1    0    0    0    0  0.00000000000E+00  0.00000000000E+00  0.45593999997E+02  0.45594000000E+02  0.51100000000E-03 0. -1.
         11   -1    0    0    0    0 -0.00000000000E+00 -0.00000000000E+00 -0.45593999997E+02  0.45594000000E+02  0.51100000000E-03 0.  1.
    9900012    2    1    2    0    0  0.18685614166E+02  0.84332287047E+00  0.89684542960E+00  0.72461876484E+02  0.70000398867E+02 0.  0.
        -12    1    1    2    0    0 -0.18685614166E+02 -0.84332287047E+00 -0.89684542960E+00  0.18726123516E+02  0.00000000000E+00 0.  1.
         11    1    3    3    0    0  0.12060296531E+02  0.15360091525E+02 -0.38147365775E+00  0.19532759315E+02  0.51100000000E-03 0. -1.
        -11    1    3    3    0    0  0.26268412868E+02 -0.17833369382E+02 -0.47786611075E+01  0.32107540864E+02  0.51100000000E-03 0.  1.
         12    1    3    3    0    0 -0.19643095232E+02  0.33166007282E+01  0.60569801949E+01  0.20821576304E+02  0.00000000000E+00 0. -1.
</event>
<event>
 7    1  0.3568800E-013  0.7246155E+02  0.7816164E-02  0.1226708E+00
        -11   -1    0    0    0    0  0.00000000000E+00  0.00000000000E+00  0.45593999997E+02  0.45594000000E+02  0.51100000000E-03 0.  1.
         11   -1    0    0    0    0 -0.00000000000E+00 -0.00000000000E+00 -0.45593999997E+02  0.45594000000E+02  0.51100000000E-03 0. -1.
    9900012    2    1    2    0    0  0.13684057239E+02 -0.10283979400E+02 -0.75938350401E+01  0.72461548510E+02  0.69999971621E+02 0.  0.
        -12    1    1    2    0    0 -0.13684057239E+02  0.10283979400E+02  0.75938350401E+01  0.18726451490E+02  0.00000000000E+00 0.  1.
         11    1    3    3    0    0 -0.29954678179E+01  0.65186659676E+01  0.64612276211E+00  0.72030068951E+01  0.51100000000E-03 0. -1.
        -11    1    3    3    0    0  0.15955137569E+02  0.18571558513E+02 -0.15718268469E+02  0.29095242985E+02  0.51100000000E-03 0.  1.
         12    1    3    3    0    0  0.72438748746E+00 -0.35374203880E+02  0.74783106663E+01  0.36163298630E+02  0.00000000000E+00 0. -1.
</event>
<event>
 7    1  0.3568800E-013  0.7246151E+02  0.7816164E-02  0.1226708E+00
        -11   -1    0    0    0    0  0.00000000000E+00  0.00000000000E+00  0.45593999997E+02  0.45594000000E+02  0.51100000000E-03 0.  1.
         11   -1    0    0    0    0 -0.00000000000E+00 -0.00000000000E+00 -0.45593999997E+02  0.45594000000E+02  0.51100000000E-03 0. -1.
    9900012    2    1    2    0    0 -0.81735852953E+01  0.71417610748E+01 -0.15260049836E+02  0.72461511572E+02  0.69999923504E+02 0.  0.
        -12    1    1    2    0    0  0.81735852953E+01 -0.71417610748E+01  0.15260049836E+02  0.18726488428E+02  0.00000000000E+00 0.  1.
         11    1    3    3    0    0  0.38882873097E+01  0.13031704439E+02  0.29996916505E+01  0.13926314984E+02  0.51100000000E-03 0. -1.
        -11    1    3    3    0    0  0.39532496708E+01  0.21316517458E+02  0.73283168097E+00  0.21692375205E+02  0.51100000000E-03 0.  1.
        -12    1    3    3    0    0 -0.16015122276E+02 -0.27206460822E+02 -0.18992573167E+02  0.36842821383E+02  0.00000000000E+00 0.  1.
</event>
<event>
 7    1  0.3568800E-013  0.7246163E+02  0.7816164E-02  0.1226708E+00
        -11   -1    0    0    0    0  0.00000000000E+00  0.00000000000E+00  0.45593999997E+02  0.45594000000E+02  0.51100000000E-03 0. -1.
         11   -1    0    0    0    0 -0.00000000000E+00 -0.00000000000E+00 -0.45593999997E+02  0.45594000000E+02  0.51100000000E-03 0.  1.
    9900012    2    1    2    0    0  0.52520631373E+01  0.15685264373E+02 -0.87786914457E+01  0.72461625307E+02  0.70000071664E+02 0.  0.
        -12    1    1    2    0    0 -0.52520631373E+01 -0.15685264373E+02  0.87786914457E+01  0.18726374693E+02  0.00000000000E+00 0.  1.
         11    1    3    3    0    0 -0.89921734517E+01 -0.17467600742E+02 -0.39386883125E+01  0.20037203521E+02  0.51100000000E-03 0. -1.
        -11    1    3    3    0    0 -0.55124959430E+01  0.11710404183E+02 -0.16544910030E+02  0.21006075926E+02  0.51100000000E-03 0.  1.
         12    1    3    3    0    0  0.19756732532E+02  0.21442460931E+02  0.11704906897E+02  0.31418345860E+02  0.00000000000E+00 0. -1.
</event>
<event>
 7    1  0.3568800E-013  0.7246151E+02  0.7816164E-02  0.1226708E+00
        -11   -1    0    0    0    0  0.00000000000E+00  0.00000000000E+00  0.45593999997E+02  0.45594000000E+02  0.51100000000E-03 0.  1.
         11   -1    0    0    0    0 -0.00000000000E+00 -0.00000000000E+00 -0.45593999997E+02  0.45594000000E+02  0.51100000000E-03 0. -1.
    9900012    2    1    2    0    0 -0.10362613998E+02 -0.90735823488E+01 -0.12687301361E+02  0.72461513908E+02  0.69999926547E+02 0.  0.
        -12    1    1    2    0    0  0.10362613998E+02  0.90735823488E+01  0.12687301361E+02  0.18726486092E+02  0.00000000000E+00 0.  1.
         11    1    3    3    0    0 -0.44487419539E+00  0.29409175616E+01 -0.48632175483E+01  0.57006836727E+01  0.51100000000E-03 0. -1.
        -11    1    3    3    0    0 -0.12654562335E+02  0.25604402827E+02 -0.25285664789E+01  0.28672583432E+02  0.51100000000E-03 0.  1.
         12    1    3    3    0    0  0.27368225324E+01 -0.37618902737E+02 -0.52955173340E+01  0.38088246803E+02  0.00000000000E+00 0. -1.
</event>
<event>
 7    1  0.3568800E-013  0.7246170E+02  0.7816164E-02  0.1226708E+00
        -11   -1    0    0    0    0  0.00000000000E+00  0.00000000000E+00  0.45593999997E+02  0.45594000000E+02  0.51100000000E-03 0. -1.
         11   -1    0    0    0    0 -0.00000000000E+00 -0.00000000000E+00 -0.45593999997E+02  0.45594000000E+02  0.51100000000E-03 0.  1.
    9900012    2    1    2    0    0 -0.17619834054E+02 -0.62223757871E+01 -0.12237919533E+01  0.72461703535E+02  0.70000173571E+02 0.  0.
        -12    1    1    2    0    0  0.17619834054E+02  0.62223757871E+01  0.12237919533E+01  0.18726296465E+02  0.00000000000E+00 0.  1.
         11    1    3    3    0    0  0.86635001031E+01 -0.22092458570E+02  0.14030744475E+02  0.27568002294E+02  0.51100000000E-03 0. -1.
        -11    1    3    3    0    0 -0.11731391768E+02 -0.22228200825E+01 -0.17908253853E+02  0.21523755208E+02  0.51100000000E-03 0.  1.
        -12    1    3    3    0    0 -0.14551942390E+02  0.18092902866E+02  0.26537174245E+01  0.23369946033E+02  0.00000000000E+00 0.  1.
</event>
<event>
 7    1  0.3568800E-013  0.7246151E+02  0.7816164E-02  0.1226708E+00
        -11   -1    0    0    0    0  0.00000000000E+00  0.00000000000E+00  0.45593999997E+02  0.45594000000E+02  0.51100000000E-03 0.  1.
         11   -1    0    0    0    0 -0.00000000000E+00 -0.00000000000E+00 -0.45593999997E+02  0.45594000000E+02  0.51100000000E-03 0. -1.
    9900012    2    1    2    0    0  0.12214513988E+02  0.81826581610E+01 -0.11598754272E+02  0.72461512150E+02  0.69999924256E+02 0.  0.
        -12    1    1    2    0    0 -0.12214513988E+02 -0.81826581610E+01  0.11598754272E+02  0.18726487850E+02  0.00000000000E+00 0.  1.
         11    1    3    3    0    0  0.16137624854E+02 -0.29725332410E+01 -0.31026857972E+02  0.35098786384E+02  0.51100000000E-03 0. -1.
        -11    1    3    3    0    0 -0.63031485471E+01  0.14795157107E+02 -0.13461704982E+01  0.16138108027E+02  0.51100000000E-03 0.  1.
        -12    1    3    3    0    0  0.23800376810E+01 -0.36399657048E+01  0.20774274198E+02  0.21224617739E+02  0.00000000000E+00 0.  1.
</event>
<event>
 7    1  0.3568800E-013  0.7246211E+02  0.7816164E-02  0.1226707E+00
        -11   -1    0    0    0    0  0.00000000000E+00  0.00000000000E+00  0.45593999997E+02  0.45594000000E+02  0.51100000000E-03 0.  1.
         11   -1    0    0    0    0 -0.00000000000E+00 -0.00000000000E+00 -0.45593999997E+02  0.45594000000E+02  0.51100000000E-03 0. -1.
    9900012    2    1    2    0    0  0.14570826595E+02 -0.10151595735E+02 -0.59409792543E+01  0.72462105678E+02  0.70000697434E+02 0.  0.
        -12    1    1    2    0    0 -0.14570826595E+02  0.10151595735E+02  0.59409792543E+01  0.18725894322E+02  0.00000000000E+00 0.  1.
         11    1    3    3    0    0  0.13443368690E+02 -0.13503793269E+02 -0.16722456071E+02  0.25351866435E+02  0.51100000000E-03 0. -1.
        -11    1    3    3    0    0  0.23208746566E+02  0.29543042123E+00  0.25632304306E+01  0.23351731130E+02  0.51100000000E-03 0.  1.
        -12    1    3    3    0    0 -0.22081288661E+02  0.30567671125E+01  0.82182463866E+01  0.23758508113E+02  0.00000000000E+00 0.  1.
</event>
<event>
 7    1  0.3568800E-013  0.7246162E+02  0.7816164E-02  0.1226708E+00
        -11   -1    0    0    0    0  0.00000000000E+00  0.00000000000E+00  0.45593999997E+02  0.45594000000E+02  0.51100000000E-03 0.  1.
         11   -1    0    0    0    0 -0.00000000000E+00 -0.00000000000E+00 -0.45593999997E+02  0.45594000000E+02  0.51100000000E-03 0. -1.
    9900012    2    1    2    0    0  0.34782257769E+01 -0.18207530309E+02 -0.26580171754E+01  0.72461621017E+02  0.70000066076E+02 0.  0.
        -12    1    1    2    0    0 -0.34782257769E+01  0.18207530309E+02  0.26580171754E+01  0.18726378983E+02  0.00000000000E+00 0.  1.
         11    1    3    3    0    0 -0.21634489408E+01  0.61878879288E+01 -0.23705255632E+02  0.24594910310E+02  0.51100000000E-03 0. -1.
        -11    1    3    3    0    0 -0.74645053172E+01  0.61090447555E+01  0.31362774921E+01  0.10142756244E+02  0.51100000000E-03 0.  1.
        -12    1    3    3    0    0  0.13106180035E+02 -0.30504462993E+02  0.17910960965E+02  0.37723954463E+02  0.00000000000E+00 0.  1.
</event>
<event>
 7    1  0.3568800E-013  0.7246151E+02  0.7816164E-02  0.1226708E+00
        -11   -1    0    0    0    0  0.00000000000E+00  0.00000000000E+00  0.45593999997E+02  0.45594000000E+02  0.51100000000E-03 0. -1.
         11   -1    0    0    0    0 -0.00000000000E+00 -0.00000000000E+00 -0.45593999997E+02  0.45594000000E+02  0.51100000000E-03 0.  1.
    9900012    2    1    2    0    0  0.10239186472E+02  0.20987614051E+01  0.15538205303E+02  0.72461506386E+02  0.69999916748E+02 0.  0.
        -12    1    1    2    0    0 -0.10239186472E+02 -0.20987614051E+01 -0.15538205303E+02  0.18726493614E+02  0.00000000000E+00 0.  1.
         11    1    3    3    0    0  0.32211097098E+01 -0.17820709339E+01 -0.55130543377E+01  0.66291095154E+01  0.51100000000E-03 0. -1.
        -11    1    3    3    0    0 -0.14824389474E+02 -0.35524358407E+01 -0.16054068394E+02  0.22138550900E+02  0.51100000000E-03 0.  1.
         12    1    3    3    0    0  0.21842466237E+02  0.74332681796E+01  0.37105328035E+02  0.43693845970E+02  0.00000000000E+00 0. -1.
</event>
<event>
 7    1  0.3568800E-013  0.7246102E+02  0.7816164E-02  0.1226709E+00
        -11   -1    0    0    0    0  0.00000000000E+00  0.00000000000E+00  0.45593999997E+02  0.45594000000E+02  0.51100000000E-03 0.  1.
         11   -1    0    0    0    0 -0.00000000000E+00 -0.00000000000E+00 -0.45593999997E+02  0.45594000000E+02  0.51100000000E-03 0. -1.
    9900012    2    1    2    0    0  0.37435050744E+01  0.16823915462E+02 -0.73240652251E+01  0.72461016977E+02  0.69999279198E+02 0.  0.
        -12    1    1    2    0    0 -0.37435050744E+01 -0.16823915462E+02  0.73240652251E+01  0.18726983023E+02  0.00000000000E+00 0.  1.
         11    1    3    3    0    0  0.35017082085E+01 -0.46983325569E+00  0.78228272372E+01  0.85836664608E+01  0.51100000000E-03 0. -1.
        -11    1    3    3    0    0  0.95181717338E+01 -0.10662678102E+02  0.15696164077E+02  0.21228703786E+02  0.51100000000E-03 0.  1.
         12    1    3    3    0    0 -0.92763748678E+01  0.27956426820E+02 -0.30843056539E+02  0.42648646730E+02  0.00000000000E+00 0. -1.
</event>
<event>
 7    1  0.3568800E-013  0.7246149E+02  0.7816164E-02  0.1226708E+00
        -11   -1    0    0    0    0  0.00000000000E+00  0.00000000000E+00  0.45593999997E+02  0.45594000000E+02  0.51100000000E-03 0.  1.
         11   -1    0    0    0    0 -0.00000000000E+00 -0.00000000000E+00 -0.45593999997E+02  0.45594000000E+02  0.51100000000E-03 0. -1.
    9900012    2    1    2    0    0 -0.54530824692E+01  0.15320297048E+02 -0.92862517648E+01  0.72461492533E+02  0.69999898701E+02 0.  0.
        -12    1    1    2    0    0  0.54530824692E+01 -0.15320297048E+02  0.92862517648E+01  0.18726507467E+02  0.00000000000E+00 0.  1.
         11    1    3    3    0    0 -0.14214660897E+01 -0.70178926642E+01 -0.12025693032E+02  0.13996023595E+02  0.51100000000E-03 0. -1.
        -11    1    3    3    0    0 -0.43176896689E+01 -0.80821987065E+01  0.21050259301E+02  0.22958174948E+02  0.51100000000E-03 0.  1.
         12    1    3    3    0    0  0.28607328944E+00  0.30420388419E+02 -0.18310818034E+02  0.35507293991E+02  0.00000000000E+00 0. -1.
</event>
<event>
 7    1  0.3568800E-013  0.7246157E+02  0.7816164E-02  0.1226708E+00
        -11   -1    0    0    0    0  0.00000000000E+00  0.00000000000E+00  0.45593999997E+02  0.45594000000E+02  0.51100000000E-03 0.  1.
         11   -1    0    0    0    0 -0.00000000000E+00 -0.00000000000E+00 -0.45593999997E+02  0.45594000000E+02  0.51100000000E-03 0. -1.
    9900012    2    1    2    0    0  0.75517037035E+01 -0.46179265236E+01 -0.16502296031E+02  0.72461568186E+02  0.69999997253E+02 0.  0.
        -12    1    1    2    0    0 -0.75517037035E+01  0.46179265236E+01  0.16502296031E+02  0.18726431814E+02  0.00000000000E+00 0.  1.
         11    1    3    3    0    0 -0.91228287906E+01  0.35375800185E+01 -0.17753975241E+01  0.99444715375E+01  0.51100000000E-03 0. -1.
        -11    1    3    3    0    0  0.12418184662E+02 -0.22967607484E+02  0.14214310135E+02  0.29728251155E+02  0.51100000000E-03 0.  1.
         12    1    3    3    0    0  0.42563478317E+01  0.14812100942E+02 -0.28941208642E+02  0.32788845494E+02  0.00000000000E+00 0. -1.
</event>
<event>
 7    1  0.3568800E-013  0.7246160E+02  0.7816164E-02  0.1226708E+00
        -11   -1    0    0    0    0  0.00000000000E+00  0.00000000000E+00  0.45593999997E+02  0.45594000000E+02  0.51100000000E-03 0. -1.
         11   -1    0    0    0    0 -0.00000000000E+00 -0.00000000000E+00 -0.45593999997E+02  0.45594000000E+02  0.51100000000E-03 0.  1.
    9900012    2    1    2    0    0 -0.61837933864E+01  0.14348133188E+02 -0.10323266098E+02  0.72461600198E+02  0.70000038955E+02 0.  0.
        -12    1    1    2    0    0  0.61837933864E+01 -0.14348133188E+02  0.10323266098E+02  0.18726399802E+02  0.00000000000E+00 0.  1.
         11    1    3    3    0    0  0.16073546814E+02  0.43459018610E+01  0.52885480856E+01  0.17470389557E+02  0.51100000000E-03 0. -1.
        -11    1    3    3    0    0  0.11598134451E+02  0.61341393650E+01 -0.16280018433E+02  0.20908930842E+02  0.51100000000E-03 0.  1.
         12    1    3    3    0    0 -0.33855474652E+02  0.38680919622E+01  0.66820424986E+00  0.34082279798E+02  0.00000000000E+00 0. -1.
</event>
<event>
 7    1  0.3568800E-013  0.7246165E+02  0.7816164E-02  0.1226708E+00
        -11   -1    0    0    0    0  0.00000000000E+00  0.00000000000E+00  0.45593999997E+02  0.45594000000E+02  0.51100000000E-03 0. -1.
         11   -1    0    0    0    0 -0.00000000000E+00 -0.00000000000E+00 -0.45593999997E+02  0.45594000000E+02  0.51100000000E-03 0.  1.
    9900012    2    1    2    0    0  0.11966048067E+02  0.19008534311E+01  0.14278536162E+02  0.72461651049E+02  0.70000105198E+02 0.  0.
        -12    1    1    2    0    0 -0.11966048067E+02 -0.19008534311E+01 -0.14278536162E+02  0.18726348951E+02  0.00000000000E+00 0.  1.
         11    1    3    3    0    0 -0.23993740484E+02 -0.64694362579E+01 -0.15579925125E+01  0.24899408202E+02  0.51100000000E-03 0. -1.
        -11    1    3    3    0    0  0.51058171223E+00 -0.60065808142E+01 -0.31984043556E+00  0.60367213724E+01  0.51100000000E-03 0.  1.
        -12    1    3    3    0    0  0.35449206838E+02  0.14376870503E+02  0.16156369110E+02  0.41525521475E+02  0.00000000000E+00 0.  1.
</event>
<event>
 7    1  0.3568800E-013  0.7246156E+02  0.7816164E-02  0.1226708E+00
        -11   -1    0    0    0    0  0.00000000000E+00  0.00000000000E+00  0.45593999997E+02  0.45594000000E+02  0.51100000000E-03 0. -1.
         11   -1    0    0    0    0 -0.00000000000E+00 -0.00000000000E+00 -0.45593999997E+02  0.45594000000E+02  0.51100000000E-03 0.  1.
    9900012    2    1    2    0    0 -0.34957579422E+01 -0.14248200741E+02  0.11638207028E+02  0.72461563853E+02  0.69999991609E+02 0.  0.
        -12    1    1    2    0    0  0.34957579422E+01  0.14248200741E+02 -0.11638207028E+02  0.18726436147E+02  0.00000000000E+00 0.  1.
         11    1    3    3    0    0  0.10531277011E+02  0.49884463204E+01 -0.17030872901E+02  0.20635964339E+02  0.51100000000E-03 0. -1.
        -11    1    3    3    0    0 -0.96754908823E+01 -0.19370136541E+02 -0.11573607033E+01  0.21683099351E+02  0.51100000000E-03 0.  1.
         12    1    3    3    0    0 -0.43515440706E+01  0.13348947923E+00  0.29826440633E+02  0.30142500163E+02  0.00000000000E+00 0. -1.
</event>
<event>
 7    1  0.3568800E-013  0.7246150E+02  0.7816164E-02  0.1226708E+00
        -11   -1    0    0    0    0  0.00000000000E+00  0.00000000000E+00  0.45593999997E+02  0.45594000000E+02  0.51100000000E-03 0.  1.
         11   -1    0    0    0    0 -0.00000000000E+00 -0.00000000000E+00 -0.45593999997E+02  0.45594000000E+02  0.51100000000E-03 0. -1.
    9900012    2    1    2    0    0 -0.11673714318E+02  0.12704996260E+02 -0.72793687101E+01  0.72461501535E+02  0.69999910428E+02 0.  0.
        -12    1    1    2    0    0  0.11673714318E+02 -0.12704996260E+02  0.72793687101E+01  0.18726498465E+02  0.00000000000E+00 0.  1.
         11    1    3    3    0    0 -0.13548787147E+02 -0.27460951257E+01  0.43240959605E+01  0.14484767093E+02  0.51100000000E-03 0.  1.
        -11    1    3    3    0    0  0.14354456391E+02  0.31026896691E+02  0.12985057638E+01  0.34211180249E+02  0.51100000000E-03 0. -1.
         12    1    3    3    0    0 -0.12479383563E+02 -0.15575805305E+02 -0.12901970434E+02  0.23765554193E+02  0.00000000000E+00 0. -1.
</event>
<event>
 7    1  0.3568800E-013  0.7246160E+02  0.7816164E-02  0.1226708E+00
        -11   -1    0    0    0    0  0.00000000000E+00  0.00000000000E+00  0.45593999997E+02  0.45594000000E+02  0.51100000000E-03 0.  1.
         11   -1    0    0    0    0 -0.00000000000E+00 -0.00000000000E+00 -0.45593999997E+02  0.45594000000E+02  0.51100000000E-03 0. -1.
    9900012    2    1    2    0    0 -0.15327750944E+02 -0.71648052733E+01 -0.80251935559E+01  0.72461598445E+02  0.70000036671E+02 0.  0.
        -12    1    1    2    0    0  0.15327750944E+02  0.71648052733E+01  0.80251935559E+01  0.18726401555E+02  0.00000000000E+00 0.  1.
         11    1    3    3    0    0  0.69669615544E+01 -0.13147294836E+02 -0.13160467405E+02  0.19864234629E+02  0.51100000000E-03 0. -1.
        -11    1    3    3    0    0  0.40634496364E+01 -0.95502328023E+00 -0.16987765798E+02  0.17493080903E+02  0.51100000000E-03 0.  1.
        -12    1    3    3    0    0 -0.26358162135E+02  0.69375128432E+01  0.22123039647E+02  0.35104282913E+02  0.00000000000E+00 0.  1.
</event>
<event>
 7    1  0.3568800E-013  0.7246155E+02  0.7816164E-02  0.1226708E+00
        -11   -1    0    0    0    0  0.00000000000E+00  0.00000000000E+00  0.45593999997E+02  0.45594000000E+02  0.51100000000E-03 0.  1.
         11   -1    0    0    0    0 -0.00000000000E+00 -0.00000000000E+00 -0.45593999997E+02  0.45594000000E+02  0.51100000000E-03 0. -1.
    9900012    2    1    2    0    0 -0.15877858875E+02  0.50024031315E+01 -0.85761080172E+01  0.72461546297E+02  0.69999968739E+02 0.  0.
        -12    1    1    2    0    0  0.15877858875E+02 -0.50024031315E+01  0.85761080172E+01  0.18726453703E+02  0.00000000000E+00 0.  1.
         11    1    3    3    0    0 -0.18541332833E+02  0.15850977381E+02 -0.23855718582E+02  0.34119346660E+02  0.51100000000E-03 0. -1.
        -11    1    3    3    0    0  0.37423574116E+01  0.94375605562E+01  0.14892317824E+02  0.18023704355E+02  0.51100000000E-03 0.  1.
         12    1    3    3    0    0 -0.10788834535E+01 -0.20286134806E+02  0.38729274016E+00  0.20318495282E+02  0.00000000000E+00 0. -1.
</event>
<event>
 7    1  0.3568800E-013  0.7246174E+02  0.7816164E-02  0.1226708E+00
        -11   -1    0    0    0    0  0.00000000000E+00  0.00000000000E+00  0.45593999997E+02  0.45594000000E+02  0.51100000000E-03 0.  1.
         11   -1    0    0    0    0 -0.00000000000E+00 -0.00000000000E+00 -0.45593999997E+02  0.45594000000E+02  0.51100000000E-03 0. -1.
    9900012    2    1    2    0    0 -0.51723050758E+01 -0.99755330844E+01 -0.14980283195E+02  0.72461738101E+02  0.70000218599E+02 0.  0.
        -12    1    1    2    0    0  0.51723050758E+01  0.99755330844E+01  0.14980283195E+02  0.18726261899E+02  0.00000000000E+00 0.  1.
         11    1    3    3    0    0 -0.15985175678E+02 -0.14149071947E+02 -0.19054896511E+02  0.28614876546E+02  0.51100000000E-03 0. -1.
        -11    1    3    3    0    0  0.20239994674E+02  0.49319397055E+01 -0.12837422931E+02  0.24469998803E+02  0.51100000000E-03 0.  1.
         12    1    3    3    0    0 -0.94271240712E+01 -0.75840084314E+00  0.16912036247E+02  0.19376862752E+02  0.00000000000E+00 0. -1.
</event>
<event>
 7    1  0.3568800E-013  0.7246157E+02  0.7816164E-02  0.1226708E+00
        -11   -1    0    0    0    0  0.00000000000E+00  0.00000000000E+00  0.45593999997E+02  0.45594000000E+02  0.51100000000E-03 0.  1.
         11   -1    0    0    0    0 -0.00000000000E+00 -0.00000000000E+00 -0.45593999997E+02  0.45594000000E+02  0.51100000000E-03 0. -1.
    9900012    2    1    2    0    0  0.97273433062E+00  0.16876729703E+02 -0.80566022202E+01  0.72461573302E+02  0.70000003918E+02 0.  0.
        -12    1    1    2    0    0 -0.97273433062E+00 -0.16876729703E+02  0.80566022202E+01  0.18726426698E+02  0.00000000000E+00 0.  1.
         11    1    3    3    0    0  0.19529443349E+02 -0.20357310031E+00 -0.12088313811E+02  0.22968846958E+02  0.51100000000E-03 0. -1.
        -11    1    3    3    0    0 -0.98699172702E+01  0.42669485661E+01 -0.18947245338E+02  0.21785780297E+02  0.51100000000E-03 0.  1.
        -12    1    3    3    0    0 -0.86867917480E+01  0.12813354237E+02  0.22978956930E+02  0.27706946047E+02  0.00000000000E+00 0.  1.
</event>
<event>
 7    1  0.3568800E-013  0.7246159E+02  0.7816164E-02  0.1226708E+00
        -11   -1    0    0    0    0  0.00000000000E+00  0.00000000000E+00  0.45593999997E+02  0.45594000000E+02  0.51100000000E-03 0. -1.
         11   -1    0    0    0    0 -0.00000000000E+00 -0.00000000000E+00 -0.45593999997E+02  0.45594000000E+02  0.51100000000E-03 0.  1.
    9900012    2    1    2    0    0 -0.42191378444E+01 -0.17351571823E+02 -0.56391607486E+01  0.72461593435E+02  0.70000030145E+02 0.  0.
        -12    1    1    2    0    0  0.42191378444E+01  0.17351571823E+02  0.56391607486E+01  0.18726406565E+02  0.00000000000E+00 0.  1.
         11    1    3    3    0    0  0.20824365033E+02 -0.25371952750E+01 -0.49349205514E+01  0.21550985592E+02  0.51100000000E-03 0. -1.
        -11    1    3    3    0    0 -0.42498156482E+01 -0.18412849306E+02 -0.16070251897E+02  0.24806187714E+02  0.51100000000E-03 0.  1.
        -12    1    3    3    0    0 -0.20793687229E+02  0.35984727576E+01  0.15366011700E+02  0.26104420130E+02  0.00000000000E+00 0.  1.
</event>
<event>
 7    1  0.3568800E-013  0.7246162E+02  0.7816164E-02  0.1226708E+00
        -11   -1    0    0    0    0  0.00000000000E+00  0.00000000000E+00  0.45593999997E+02  0.45594000000E+02  0.51100000000E-03 0. -1.
         11   -1    0    0    0    0 -0.00000000000E+00 -0.00000000000E+00 -0.45593999997E+02  0.45594000000E+02  0.51100000000E-03 0.  1.
    9900012    2    1    2    0    0 -0.11697769648E+02  0.51090034209E+01  0.13701730843E+02  0.72461623981E+02  0.70000069937E+02 0.  0.
        -12    1    1    2    0    0  0.11697769648E+02 -0.51090034209E+01 -0.13701730843E+02  0.18726376019E+02  0.00000000000E+00 0.  1.
         11    1    3    3    0    0 -0.88697270386E+01  0.52826231441E+01 -0.10513137201E+02  0.14734456865E+02  0.51100000000E-03 0. -1.
        -11    1    3    3    0    0 -0.19290216174E+02 -0.67840680692E+01 -0.71755554614E+01  0.21670824074E+02  0.51100000000E-03 0.  1.
         12    1    3    3    0    0  0.16462173564E+02  0.66104483460E+01  0.31390423505E+02  0.36056343043E+02  0.00000000000E+00 0. -1.
</event>
<event>
 7    1  0.3568800E-013  0.7246175E+02  0.7816164E-02  0.1226708E+00
        -11   -1    0    0    0    0  0.00000000000E+00  0.00000000000E+00  0.45593999997E+02  0.45594000000E+02  0.51100000000E-03 0. -1.
         11   -1    0    0    0    0 -0.00000000000E+00 -0.00000000000E+00 -0.45593999997E+02  0.45594000000E+02  0.51100000000E-03 0.  1.
    9900012    2    1    2    0    0 -0.14379436055E+02 -0.36322935434E+01  0.11432874790E+02  0.72461752014E+02  0.70000236724E+02 0.  0.
        -12    1    1    2    0    0  0.14379436055E+02  0.36322935434E+01 -0.11432874790E+02  0.18726247986E+02  0.00000000000E+00 0.  1.
         11    1    3    3    0    0 -0.21135754420E+02 -0.46282872973E+01 -0.33168080853E+01  0.21889321012E+02  0.51100000000E-03 0. -1.
        -11    1    3    3    0    0 -0.14518630715E+02  0.70056471388E+01 -0.87219457121E+01  0.18328722458E+02  0.51100000000E-03 0.  1.
         12    1    3    3    0    0  0.21274949080E+02 -0.60096533848E+01  0.23471628588E+02  0.32243708545E+02  0.00000000000E+00 0. -1.
</event>
<event>
 7    1  0.3568800E-013  0.7246161E+02  0.7816164E-02  0.1226708E+00
        -11   -1    0    0    0    0  0.00000000000E+00  0.00000000000E+00  0.45593999997E+02  0.45594000000E+02  0.51100000000E-03 0.  1.
         11   -1    0    0    0    0 -0.00000000000E+00 -0.00000000000E+00 -0.45593999997E+02  0.45594000000E+02  0.51100000000E-03 0. -1.
    9900012    2    1    2    0    0 -0.10632859864E+02  0.13579733801E+02  0.72945672312E+01  0.72461612465E+02  0.70000054936E+02 0.  0.
        -12    1    1    2    0    0  0.10632859864E+02 -0.13579733801E+02 -0.72945672312E+01  0.18726387535E+02  0.00000000000E+00 0.  1.
         11    1    3    3    0    0  0.35429881883E+01  0.45979240996E+01  0.18221744641E+01  0.60839125049E+01  0.51100000000E-03 0. -1.
        -11    1    3    3    0    0 -0.37269964958E+02  0.14497056291E+02 -0.52352264524E+01  0.40331408671E+02  0.51100000000E-03 0.  1.
         12    1    3    3    0    0  0.23094116906E+02 -0.55152465896E+01  0.10707619219E+02  0.26046291290E+02  0.00000000000E+00 0. -1.
</event>
<event>
 7    1  0.3568800E-013  0.7246156E+02  0.7816164E-02  0.1226708E+00
        -11   -1    0    0    0    0  0.00000000000E+00  0.00000000000E+00  0.45593999997E+02  0.45594000000E+02  0.51100000000E-03 0. -1.
         11   -1    0    0    0    0 -0.00000000000E+00 -0.00000000000E+00 -0.45593999997E+02  0.45594000000E+02  0.51100000000E-03 0.  1.
    9900012    2    1    2    0    0 -0.71888518443E+01 -0.67708890936E+01  0.15910841958E+02  0.72461563559E+02  0.69999991226E+02 0.  0.
        -12    1    1    2    0    0  0.71888518443E+01  0.67708890936E+01 -0.15910841958E+02  0.18726436441E+02  0.00000000000E+00 0.  1.
         11    1    3    3    0    0  0.60156608875E+01  0.12015875763E+02  0.17125706217E+02  0.21768308614E+02  0.51100000000E-03 0. -1.
        -11    1    3    3    0    0  0.33299147807E+01  0.84958394864E+01 -0.13678704572E+02  0.16443070883E+02  0.51100000000E-03 0.  1.
         12    1    3    3    0    0 -0.16534427512E+02 -0.27282604343E+02  0.12463840314E+02  0.34250184062E+02  0.00000000000E+00 0. -1.
</event>
<event>
 7    1  0.3568800E-013  0.7246161E+02  0.7816164E-02  0.1226708E+00
        -11   -1    0    0    0    0  0.00000000000E+00  0.00000000000E+00  0.45593999997E+02  0.45594000000E+02  0.51100000000E-03 0. -1.
         11   -1    0    0    0    0 -0.00000000000E+00 -0.00000000000E+00 -0.45593999997E+02  0.45594000000E+02  0.51100000000E-03 0.  1.
    9900012    2    1    2    0    0  0.81678153199E+00  0.14552278966E+02  0.11757618781E+02  0.72461613414E+02  0.70000056172E+02 0.  0.
        -12    1    1    2    0    0 -0.81678153199E+00 -0.14552278966E+02 -0.11757618781E+02  0.18726386586E+02  0.00000000000E+00 0.  1.
         11    1    3    3    0    0  0.16289538210E+02  0.45885235978E+01 -0.17826796489E+01  0.17017095842E+02  0.51100000000E-03 0. -1.
        -11    1    3    3    0    0 -0.84940082833E+01  0.22418616621E+02 -0.11523690786E+02  0.26599586416E+02  0.51100000000E-03 0.  1.
        -12    1    3    3    0    0 -0.69787483947E+01 -0.12454861253E+02  0.25063989216E+02  0.28844931156E+02  0.00000000000E+00 0.  1.
</event>
<event>
 7    1  0.3568800E-013  0.7246158E+02  0.7816164E-02  0.1226708E+00
        -11   -1    0    0    0    0  0.00000000000E+00  0.00000000000E+00  0.45593999997E+02  0.45594000000E+02  0.51100000000E-03 0.  1.
         11   -1    0    0    0    0 -0.00000000000E+00 -0.00000000000E+00 -0.45593999997E+02  0.45594000000E+02  0.51100000000E-03 0. -1.
    9900012    2    1    2    0    0 -0.54295737823E+01  0.87744041183E+01 -0.15627162479E+02  0.72461584266E+02  0.70000018201E+02 0.  0.
        -12    1    1    2    0    0  0.54295737823E+01 -0.87744041183E+01  0.15627162479E+02  0.18726415734E+02  0.00000000000E+00 0.  1.
         11    1    3    3    0    0  0.91552403531E+01  0.18237524832E+02 -0.16088818912E+02  0.25986069964E+02  0.51100000000E-03 0. -1.
        -11    1    3    3    0    0  0.90372767574E+01  0.78289484231E+01  0.10103264562E+02  0.15653777809E+02  0.51100000000E-03 0.  1.
        -12    1    3    3    0    0 -0.23622090893E+02 -0.17292069137E+02 -0.96416081293E+01  0.30821736494E+02  0.00000000000E+00 0.  1.
</event>
<event>
 7    1  0.3568800E-013  0.7246153E+02  0.7816164E-02  0.1226708E+00
        -11   -1    0    0    0    0  0.00000000000E+00  0.00000000000E+00  0.45593999997E+02  0.45594000000E+02  0.51100000000E-03 0. -1.
         11   -1    0    0    0    0 -0.00000000000E+00 -0.00000000000E+00 -0.45593999997E+02  0.45594000000E+02  0.51100000000E-03 0.  1.
    9900012    2    1    2    0    0 -0.98129950029E+01 -0.51626763265E+01  0.15090807095E+02  0.72461533260E+02  0.69999951756E+02 0.  0.
        -12    1    1    2    0    0  0.98129950029E+01  0.51626763265E+01 -0.15090807095E+02  0.18726466740E+02  0.00000000000E+00 0.  1.
         11    1    3    3    0    0  0.19816700098E+01  0.16174427488E+02  0.14597103988E+01  0.16360619649E+02  0.51100000000E-03 0. -1.
        -11    1    3    3    0    0  0.43792736630E+01  0.80297478400E-01 -0.15726126136E+02  0.16324690778E+02  0.51100000000E-03 0.  1.
         12    1    3    3    0    0 -0.16173938676E+02 -0.21417401293E+02  0.29357222833E+02  0.39776222833E+02  0.00000000000E+00 0. -1.
</event>
<event>
 7    1  0.3568800E-013  0.7246167E+02  0.7816164E-02  0.1226708E+00
        -11   -1    0    0    0    0  0.00000000000E+00  0.00000000000E+00  0.45593999997E+02  0.45594000000E+02  0.51100000000E-03 0. -1.
         11   -1    0    0    0    0 -0.00000000000E+00 -0.00000000000E+00 -0.45593999997E+02  0.45594000000E+02  0.51100000000E-03 0.  1.
    9900012    2    1    2    0    0  0.18544033483E+02  0.24309764742E+01  0.94047098901E+00  0.72461673342E+02  0.70000134239E+02 0.  0.
        -12    1    1    2    0    0 -0.18544033483E+02 -0.24309764742E+01 -0.94047098901E+00  0.18726326658E+02  0.00000000000E+00 0.  1.
         11    1    3    3    0    0 -0.68671737350E+01 -0.28677944126E+01 -0.49921960592E+01  0.89612689757E+01  0.51100000000E-03 0. -1.
        -11    1    3    3    0    0 -0.46946818939E+01  0.27752928868E+01 -0.21811195225E+02  0.22482671685E+02  0.51100000000E-03 0.  1.
         12    1    3    3    0    0  0.30105889112E+02  0.25234780001E+01  0.27743862274E+02  0.41017732681E+02  0.00000000000E+00 0. -1.
</event>
<event>
 7    1  0.3568800E-013  0.7246158E+02  0.7816164E-02  0.1226708E+00
        -11   -1    0    0    0    0  0.00000000000E+00  0.00000000000E+00  0.45593999997E+02  0.45594000000E+02  0.51100000000E-03 0.  1.
         11   -1    0    0    0    0 -0.00000000000E+00 -0.00000000000E+00 -0.45593999997E+02  0.45594000000E+02  0.51100000000E-03 0. -1.
    9900012    2    1    2    0    0  0.96176059722E+01  0.15252109831E+02 -0.50550595887E+01  0.72461579457E+02  0.70000011936E+02 0.  0.
        -12    1    1    2    0    0 -0.96176059722E+01 -0.15252109831E+02  0.50550595887E+01  0.18726420543E+02  0.00000000000E+00 0.  1.
         11    1    3    3    0    0  0.59256339207E+01  0.92412520206E+00  0.15058127672E+02  0.16208465504E+02  0.51100000000E-03 0.  1.
        -11    1    3    3    0    0  0.14271231332E+02  0.18901307965E+02  0.86913726099E+01  0.25228306416E+02  0.51100000000E-03 0. -1.
         12    1    3    3    0    0 -0.10579259281E+02 -0.45733233368E+01 -0.28804559871E+02  0.31024807536E+02  0.00000000000E+00 0. -1.
</event>
<event>
 7    1  0.3568800E-013  0.7246157E+02  0.7816164E-02  0.1226708E+00
        -11   -1    0    0    0    0  0.00000000000E+00  0.00000000000E+00  0.45593999997E+02  0.45594000000E+02  0.51100000000E-03 0.  1.
         11   -1    0    0    0    0 -0.00000000000E+00 -0.00000000000E+00 -0.45593999997E+02  0.45594000000E+02  0.51100000000E-03 0. -1.
    9900012    2    1    2    0    0  0.13088240583E+02  0.26298361480E+01 -0.13132448852E+02  0.72461567009E+02  0.69999995720E+02 0.  0.
        -12    1    1    2    0    0 -0.13088240583E+02 -0.26298361480E+01  0.13132448852E+02  0.18726432991E+02  0.00000000000E+00 0.  1.
         11    1    3    3    0    0  0.29236372970E+01 -0.11886355106E+02  0.10465960361E+02  0.16104950149E+02  0.51100000000E-03 0. -1.
        -11    1    3    3    0    0  0.27208243869E+02  0.11570729768E+02 -0.33948185954E+01  0.29760630292E+02  0.51100000000E-03 0.  1.
        -12    1    3    3    0    0 -0.17043640583E+02  0.29454614864E+01 -0.20203590618E+02  0.26595986568E+02  0.00000000000E+00 0.  1.
</event>
<event>
 7    1  0.3568800E-013  0.7246159E+02  0.7816164E-02  0.1226708E+00
        -11   -1    0    0    0    0  0.00000000000E+00  0.00000000000E+00  0.45593999997E+02  0.45594000000E+02  0.51100000000E-03 0.  1.
         11   -1    0    0    0    0 -0.00000000000E+00 -0.00000000000E+00 -0.45593999997E+02  0.45594000000E+02  0.51100000000E-03 0. -1.
    9900012    2    1    2    0    0  0.17717074484E+02 -0.10103726856E+01 -0.59802128613E+01  0.72461587447E+02  0.70000022344E+02 0.  0.
        -12    1    1    2    0    0 -0.17717074484E+02  0.10103726856E+01  0.59802128613E+01  0.18726412553E+02  0.00000000000E+00 0.  1.
         11    1    3    3    0    0  0.45719468078E+01 -0.29523727918E+02 -0.14495424196E+02  0.33206483263E+02  0.51100000000E-03 0. -1.
        -11    1    3    3    0    0  0.14692988181E+02  0.70125017382E+01  0.60103555656E+00  0.16291725701E+02  0.51100000000E-03 0.  1.
        -12    1    3    3    0    0 -0.15478605044E+01  0.21500853494E+02  0.79141757778E+01  0.22963378483E+02  0.00000000000E+00 0.  1.
</event>
<event>
 7    1  0.3568800E-013  0.7246154E+02  0.7816164E-02  0.1226708E+00
        -11   -1    0    0    0    0  0.00000000000E+00  0.00000000000E+00  0.45593999997E+02  0.45594000000E+02  0.51100000000E-03 0. -1.
         11   -1    0    0    0    0 -0.00000000000E+00 -0.00000000000E+00 -0.45593999997E+02  0.45594000000E+02  0.51100000000E-03 0.  1.
    9900012    2    1    2    0    0 -0.27252750150E+01  0.18526066551E+02  0.19547214672E+00  0.72461535434E+02  0.69999954588E+02 0.  0.
        -12    1    1    2    0    0  0.27252750150E+01 -0.18526066551E+02 -0.19547214672E+00  0.18726464566E+02  0.00000000000E+00 0.  1.
         11    1    3    3    0    0 -0.11374890215E+02  0.20150814250E+02 -0.11452336654E+02  0.25818587441E+02  0.51100000000E-03 0. -1.
        -11    1    3    3    0    0  0.35691192485E+00 -0.21232129095E+02 -0.20407597775E+01  0.21332964932E+02  0.51100000000E-03 0.  1.
         12    1    3    3    0    0  0.82927032757E+01  0.19607381397E+02  0.13688568579E+02  0.25309983062E+02  0.00000000000E+00 0. -1.
</event>
<event>
 7    1  0.3568800E-013  0.7246164E+02  0.7816164E-02  0.1226708E+00
        -11   -1    0    0    0    0  0.00000000000E+00  0.00000000000E+00  0.45593999997E+02  0.45594000000E+02  0.51100000000E-03 0. -1.
         11   -1    0    0    0    0 -0.00000000000E+00 -0.00000000000E+00 -0.45593999997E+02  0.45594000000E+02  0.51100000000E-03 0.  1.
    9900012    2    1    2    0    0  0.10773864560E+02 -0.14933927497E+02  0.34026693608E+01  0.72461641389E+02  0.70000092613E+02 0.  0.
        -12    1    1    2    0    0 -0.10773864560E+02  0.14933927497E+02 -0.34026693608E+01  0.18726358611E+02  0.00000000000E+00 0.  1.
         11    1    3    3    0    0  0.22931872193E+01  0.12836486895E+01 -0.77054309196E+01  0.81412608052E+01  0.51100000000E-03 0. -1.
        -11    1    3    3    0    0 -0.49568769188E+01 -0.36656490267E+02 -0.10497108185E+01  0.37005010479E+02  0.51100000000E-03 0.  1.
         12    1    3    3    0    0  0.13437554260E+02  0.20438914080E+02  0.12157811099E+02  0.27315370105E+02  0.00000000000E+00 0. -1.
</event>
<event>
 7    1  0.3568800E-013  0.7246105E+02  0.7816164E-02  0.1226709E+00
        -11   -1    0    0    0    0  0.00000000000E+00  0.00000000000E+00  0.45593999997E+02  0.45594000000E+02  0.51100000000E-03 0. -1.
         11   -1    0    0    0    0 -0.00000000000E+00 -0.00000000000E+00 -0.45593999997E+02  0.45594000000E+02  0.51100000000E-03 0.  1.
    9900012    2    1    2    0    0 -0.13792584016E+02  0.36377704197E+01  0.12133839744E+02  0.72461045779E+02  0.69999316718E+02 0.  0.
        -12    1    1    2    0    0  0.13792584016E+02 -0.36377704197E+01 -0.12133839744E+02  0.18726954221E+02  0.00000000000E+00 0.  1.
         11    1    3    3    0    0 -0.10773294162E+02 -0.57812250349E+01  0.17880133785E+02  0.21660692843E+02  0.51100000000E-03 0. -1.
        -11    1    3    3    0    0 -0.31244325989E+01 -0.19487539646E+02 -0.90368662508E+01  0.21706939729E+02  0.51100000000E-03 0.  1.
        -12    1    3    3    0    0  0.10514274474E+00  0.28906535101E+02  0.32905722097E+01  0.29093413206E+02  0.00000000000E+00 0.  1.
</event>
<event>
 7    1  0.3568800E-013  0.7246158E+02  0.7816164E-02  0.1226708E+00
        -11   -1    0    0    0    0  0.00000000000E+00  0.00000000000E+00  0.45593999997E+02  0.45594000000E+02  0.51100000000E-03 0.  1.
         11   -1    0    0    0    0 -0.00000000000E+00 -0.00000000000E+00 -0.45593999997E+02  0.45594000000E+02  0.51100000000E-03 0. -1.
    9900012    2    1    2    0    0  0.76195683736E+01  0.44476204913E+01 -0.16517858198E+02  0.72461580436E+02  0.70000013212E+02 0.  0.
        -12    1    1    2    0    0 -0.76195683736E+01 -0.44476204913E+01  0.16517858198E+02  0.18726419564E+02  0.00000000000E+00 0.  1.
         11    1    3    3    0    0 -0.66688791043E+01  0.14097680339E+02 -0.12577738031E+02  0.20035419478E+02  0.51100000000E-03 0. -1.
        -11    1    3    3    0    0 -0.12932529408E+02 -0.17620264794E+02 -0.89589493782E+01  0.23621744697E+02  0.51100000000E-03 0.  1.
         12    1    3    3    0    0  0.27220976886E+02  0.79702049461E+01  0.50188292111E+01  0.28804416262E+02  0.00000000000E+00 0. -1.
</event>
<event>
 7    1  0.3568800E-013  0.7246154E+02  0.7816164E-02  0.1226708E+00
        -11   -1    0    0    0    0  0.00000000000E+00  0.00000000000E+00  0.45593999997E+02  0.45594000000E+02  0.51100000000E-03 0. -1.
         11   -1    0    0    0    0 -0.00000000000E+00 -0.00000000000E+00 -0.45593999997E+02  0.45594000000E+02  0.51100000000E-03 0.  1.
    9900012    2    1    2    0    0  0.76939017687E+00  0.12051228268E+02  0.14312799346E+02  0.72461540400E+02  0.69999961057E+02 0.  0.
        -12    1    1    2    0    0 -0.76939017687E+00 -0.12051228268E+02 -0.14312799346E+02  0.18726459600E+02  0.00000000000E+00 0.  1.
         11    1    3    3    0    0  0.16263869410E+01 -0.12121905337E+02 -0.15160928592E+01  0.12324133288E+02  0.51100000000E-03 0. -1.
        -11    1    3    3    0    0  0.24002135286E+02  0.67594313254E+01  0.16285076799E+02  0.29782480366E+02  0.51100000000E-03 0.  1.
        -12    1    3    3    0    0 -0.24859132051E+02  0.17413702279E+02 -0.45618459414E+00  0.30354926746E+02  0.00000000000E+00 0.  1.
</event>
<event>
 7    1  0.3568800E-013  0.7246156E+02  0.7816164E-02  0.1226708E+00
        -11   -1    0    0    0    0  0.00000000000E+00  0.00000000000E+00  0.45593999997E+02  0.45594000000E+02  0.51100000000E-03 0.  1.
         11   -1    0    0    0    0 -0.00000000000E+00 -0.00000000000E+00 -0.45593999997E+02  0.45594000000E+02  0.51100000000E-03 0. -1.
    9900012    2    1    2    0    0 -0.76704532280E+01 -0.32944577998E+01 -0.16762763228E+02  0.72461560510E+02  0.69999987254E+02 0.  0.
        -12    1    1    2    0    0  0.76704532280E+01  0.32944577998E+01  0.16762763228E+02  0.18726439490E+02  0.00000000000E+00 0.  1.
         11    1    3    3    0    0  0.19665890135E+02  0.21606936174E+01  0.36446676832E+01  0.20117142801E+02  0.51100000000E-03 0. -1.
        -11    1    3    3    0    0  0.93014301578E+01 -0.69483892671E+00 -0.10599311246E+02  0.14118951918E+02  0.51100000000E-03 0.  1.
        -12    1    3    3    0    0 -0.36637773521E+02 -0.47603124904E+01 -0.98081196651E+01  0.38225465791E+02  0.00000000000E+00 0.  1.
</event>
<event>
 7    1  0.3568800E-013  0.7246157E+02  0.7816164E-02  0.1226708E+00
        -11   -1    0    0    0    0  0.00000000000E+00  0.00000000000E+00  0.45593999997E+02  0.45594000000E+02  0.51100000000E-03 0. -1.
         11   -1    0    0    0    0 -0.00000000000E+00 -0.00000000000E+00 -0.45593999997E+02  0.45594000000E+02  0.51100000000E-03 0.  1.
    9900012    2    1    2    0    0 -0.14059186799E+01 -0.18392664434E+02 -0.32268250706E+01  0.72461571821E+02  0.70000001988E+02 0.  0.
        -12    1    1    2    0    0  0.14059186799E+01  0.18392664434E+02  0.32268250706E+01  0.18726428179E+02  0.00000000000E+00 0.  1.
         11    1    3    3    0    0  0.93810400878E+01  0.13102610366E+02 -0.60797404493E+01  0.17223401398E+02  0.51100000000E-03 0. -1.
        -11    1    3    3    0    0  0.10704078246E+02 -0.26849518011E+02 -0.89819421544E+01  0.30267956549E+02  0.51100000000E-03 0.  1.
         12    1    3    3    0    0 -0.21491037013E+02 -0.46457567894E+01  0.11834857533E+02  0.24970213873E+02  0.00000000000E+00 0. -1.
</event>
<event>
 7    1  0.3568800E-013  0.7246157E+02  0.7816164E-02  0.1226708E+00
        -11   -1    0    0    0    0  0.00000000000E+00  0.00000000000E+00  0.45593999997E+02  0.45594000000E+02  0.51100000000E-03 0.  1.
         11   -1    0    0    0    0 -0.00000000000E+00 -0.00000000000E+00 -0.45593999997E+02  0.45594000000E+02  0.51100000000E-03 0. -1.
    9900012    2    1    2    0    0  0.69767194903E+01  0.61355745358E+01 -0.16259132052E+02  0.72461567750E+02  0.69999996686E+02 0.  0.
        -12    1    1    2    0    0 -0.69767194903E+01 -0.61355745358E+01  0.16259132052E+02  0.18726432250E+02  0.00000000000E+00 0.  1.
         11    1    3    3    0    0  0.17718637478E+02 -0.87905852390E+01 -0.66850356500E+00  0.19790689735E+02  0.51100000000E-03 0. -1.
        -11    1    3    3    0    0  0.12394759945E+02  0.86115561027E+01  0.96018484077E+01  0.17888109618E+02  0.51100000000E-03 0.  1.
         12    1    3    3    0    0 -0.23136677932E+02  0.63146036721E+01 -0.25192476894E+02  0.34782768397E+02  0.00000000000E+00 0. -1.
</event>
<event>
 7    1  0.3568800E-013  0.7246159E+02  0.7816164E-02  0.1226708E+00
        -11   -1    0    0    0    0  0.00000000000E+00  0.00000000000E+00  0.45593999997E+02  0.45594000000E+02  0.51100000000E-03 0. -1.
         11   -1    0    0    0    0 -0.00000000000E+00 -0.00000000000E+00 -0.45593999997E+02  0.45594000000E+02  0.51100000000E-03 0.  1.
    9900012    2    1    2    0    0  0.31283333097E+01  0.14842300732E+02  0.10981714360E+02  0.72461590558E+02  0.70000026397E+02 0.  0.
        -12    1    1    2    0    0 -0.31283333097E+01 -0.14842300732E+02 -0.10981714360E+02  0.18726409442E+02  0.00000000000E+00 0.  1.
         11    1    3    3    0    0 -0.11759708217E+02  0.15566146222E+02 -0.49230686433E+00  0.19515071403E+02  0.51100000000E-03 0. -1.
        -11    1    3    3    0    0 -0.16185336173E+02 -0.10200679461E+02  0.29233995770E+01  0.19353687861E+02  0.51100000000E-03 0.  1.
         12    1    3    3    0    0  0.31073377699E+02  0.94768339713E+01  0.85506216473E+01  0.33592831293E+02  0.00000000000E+00 0. -1.
</event>
<event>
 7    1  0.3568800E-013  0.7246156E+02  0.7816164E-02  0.1226708E+00
        -11   -1    0    0    0    0  0.00000000000E+00  0.00000000000E+00  0.45593999997E+02  0.45594000000E+02  0.51100000000E-03 0. -1.
         11   -1    0    0    0    0 -0.00000000000E+00 -0.00000000000E+00 -0.45593999997E+02  0.45594000000E+02  0.51100000000E-03 0.  1.
    9900012    2    1    2    0    0 -0.14765814108E+02 -0.54191272902E+01  0.10162833742E+02  0.72461564233E+02  0.69999992104E+02 0.  0.
        -12    1    1    2    0    0  0.14765814108E+02  0.54191272902E+01 -0.10162833742E+02  0.18726435767E+02  0.00000000000E+00 0.  1.
         11    1    3    3    0    0 -0.12807547054E+02 -0.18025817898E+02  0.16525384902E+02  0.27605284256E+02  0.51100000000E-03 0. -1.
        -11    1    3    3    0    0  0.13680532318E+02 -0.46211426538E+01  0.89626637121E+01  0.16995330683E+02  0.51100000000E-03 0.  1.
        -12    1    3    3    0    0 -0.15638799372E+02  0.17227833262E+02 -0.15325214872E+02  0.27860949294E+02  0.00000000000E+00 0.  1.
</event>
<event>
 7    1  0.3568800E-013  0.7246203E+02  0.7816164E-02  0.1226707E+00
        -11   -1    0    0    0    0  0.00000000000E+00  0.00000000000E+00  0.45593999997E+02  0.45594000000E+02  0.51100000000E-03 0.  1.
         11   -1    0    0    0    0 -0.00000000000E+00 -0.00000000000E+00 -0.45593999997E+02  0.45594000000E+02  0.51100000000E-03 0. -1.
    9900012    2    1    2    0    0  0.73682520335E+01  0.17117367245E+02  0.18347855129E+01  0.72462033074E+02  0.70000602854E+02 0.  0.
        -12    1    1    2    0    0 -0.73682520335E+01 -0.17117367245E+02 -0.18347855129E+01  0.18725966926E+02  0.00000000000E+00 0.  1.
         11    1    3    3    0    0  0.75736854198E+01  0.13799645199E+01  0.85895743557E-02  0.76983820999E+01  0.51100000000E-03 0. -1.
        -11    1    3    3    0    0 -0.14765770119E+02 -0.14035909772E+02  0.18628115971E+02  0.27605097993E+02  0.51100000000E-03 0.  1.
         12    1    3    3    0    0  0.14560336732E+02  0.29773312498E+02 -0.16801920032E+02  0.37158552981E+02  0.00000000000E+00 0. -1.
</event>
<event>
 7    1  0.3568800E-013  0.7246152E+02  0.7816164E-02  0.1226708E+00
        -11   -1    0    0    0    0  0.00000000000E+00  0.00000000000E+00  0.45593999997E+02  0.45594000000E+02  0.51100000000E-03 0.  1.
         11   -1    0    0    0    0 -0.00000000000E+00 -0.00000000000E+00 -0.45593999997E+02  0.45594000000E+02  0.51100000000E-03 0. -1.
    9900012    2    1    2    0    0  0.41488698232E+01 -0.64143193419E+01 -0.17097499399E+02  0.72461518773E+02  0.69999932884E+02 0.  0.
        -12    1    1    2    0    0 -0.41488698232E+01  0.64143193419E+01  0.17097499399E+02  0.18726481227E+02  0.00000000000E+00 0.  1.
         11    1    3    3    0    0 -0.23806752581E+01 -0.60529888350E+00 -0.31362235711E+00  0.24763603669E+01  0.51100000000E-03 0. -1.
        -11    1    3    3    0    0 -0.12017075958E+02  0.27298231754E+02 -0.49470191966E+01  0.30233699255E+02  0.51100000000E-03 0.  1.
         12    1    3    3    0    0  0.18546621039E+02 -0.33107252212E+02 -0.11836857845E+02  0.39751459151E+02  0.00000000000E+00 0. -1.
</event>
<event>
 7    1  0.3568800E-013  0.7246156E+02  0.7816164E-02  0.1226708E+00
        -11   -1    0    0    0    0  0.00000000000E+00  0.00000000000E+00  0.45593999997E+02  0.45594000000E+02  0.51100000000E-03 0.  1.
         11   -1    0    0    0    0 -0.00000000000E+00 -0.00000000000E+00 -0.45593999997E+02  0.45594000000E+02  0.51100000000E-03 0. -1.
    9900012    2    1    2    0    0 -0.46868633661E+01  0.17991588654E+02  0.22395714689E+01  0.72461557976E+02  0.69999983953E+02 0.  0.
        -12    1    1    2    0    0  0.46868633661E+01 -0.17991588654E+02 -0.22395714689E+01  0.18726442024E+02  0.00000000000E+00 0.  1.
         11    1    3    3    0    0  0.23601737536E+02  0.14752764843E+01 -0.81737697891E+01  0.25020570902E+02  0.51100000000E-03 0. -1.
        -11    1    3    3    0    0  0.64648213010E+01  0.36426211833E+01  0.70366323445E+01  0.10226279800E+02  0.51100000000E-03 0.  1.
        -12    1    3    3    0    0 -0.34753422203E+02  0.12873690987E+02  0.33767089135E+01  0.37214707274E+02  0.00000000000E+00 0.  1.
</event>
<event>
 7    1  0.3568800E-013  0.7246155E+02  0.7816164E-02  0.1226708E+00
        -11   -1    0    0    0    0  0.00000000000E+00  0.00000000000E+00  0.45593999997E+02  0.45594000000E+02  0.51100000000E-03 0. -1.
         11   -1    0    0    0    0 -0.00000000000E+00 -0.00000000000E+00 -0.45593999997E+02  0.45594000000E+02  0.51100000000E-03 0.  1.
    9900012    2    1    2    0    0 -0.12872005642E+02 -0.13595218731E+02  0.40188107264E+00  0.72461547854E+02  0.69999970767E+02 0.  0.
        -12    1    1    2    0    0  0.12872005642E+02  0.13595218731E+02 -0.40188107264E+00  0.18726452146E+02  0.00000000000E+00 0.  1.
         11    1    3    3    0    0  0.10214401852E+02  0.24206069870E+01  0.13467213759E+02  0.17075104394E+02  0.51100000000E-03 0. -1.
        -11    1    3    3    0    0 -0.13275721845E+02  0.14243667994E+02  0.30803813113E+01  0.19713336037E+02  0.51100000000E-03 0.  1.
        -12    1    3    3    0    0 -0.98106856486E+01 -0.30259493712E+02 -0.16145713998E+02  0.35673107422E+02  0.00000000000E+00 0.  1.
</event>
<event>
 7    1  0.3568800E-013  0.7246156E+02  0.7816164E-02  0.1226708E+00
        -11   -1    0    0    0    0  0.00000000000E+00  0.00000000000E+00  0.45593999997E+02  0.45594000000E+02  0.51100000000E-03 0. -1.
         11   -1    0    0    0    0 -0.00000000000E+00 -0.00000000000E+00 -0.45593999997E+02  0.45594000000E+02  0.51100000000E-03 0.  1.
    9900012    2    1    2    0    0  0.10275561814E+01 -0.50073366858E+01  0.18015275206E+02  0.72461563256E+02  0.69999990831E+02 0.  0.
        -12    1    1    2    0    0 -0.10275561814E+01  0.50073366858E+01 -0.18015275206E+02  0.18726436744E+02  0.00000000000E+00 0.  1.
         11    1    3    3    0    0  0.27210504484E+00  0.40550179458E+01  0.12594461755E+01  0.42548109977E+01  0.51100000000E-03 0. -1.
        -11    1    3    3    0    0 -0.18611012918E+02  0.81240128525E+01 -0.16425539419E+02  0.26118340914E+02  0.51100000000E-03 0.  1.
         12    1    3    3    0    0  0.19366464055E+02 -0.17186367484E+02  0.33181368449E+02  0.42088411344E+02  0.00000000000E+00 0. -1.
</event>
<event>
 7    1  0.3568800E-013  0.7246160E+02  0.7816164E-02  0.1226708E+00
        -11   -1    0    0    0    0  0.00000000000E+00  0.00000000000E+00  0.45593999997E+02  0.45594000000E+02  0.51100000000E-03 0.  1.
         11   -1    0    0    0    0 -0.00000000000E+00 -0.00000000000E+00 -0.45593999997E+02  0.45594000000E+02  0.51100000000E-03 0. -1.
    9900012    2    1    2    0    0  0.39202480942E+01 -0.91243038256E+01 -0.15876292653E+02  0.72461603288E+02  0.70000042980E+02 0.  0.
        -12    1    1    2    0    0 -0.39202480942E+01  0.91243038256E+01  0.15876292653E+02  0.18726396712E+02  0.00000000000E+00 0.  1.
         11    1    3    3    0    0  0.16982163531E+02 -0.13337141353E+02 -0.62313798855E+01  0.22474503625E+02  0.51100000000E-03 0. -1.
        -11    1    3    3    0    0  0.66796083852E+01  0.17592488768E+02 -0.16655130570E+02  0.25129787182E+02  0.51100000000E-03 0.  1.
        -12    1    3    3    0    0 -0.19741523822E+02 -0.13379651241E+02  0.70102178025E+01  0.24857312481E+02  0.00000000000E+00 0.  1.
</event>
<event>
 7    1  0.3568800E-013  0.7246156E+02  0.7816164E-02  0.1226708E+00
        -11   -1    0    0    0    0  0.00000000000E+00  0.00000000000E+00  0.45593999997E+02  0.45594000000E+02  0.51100000000E-03 0.  1.
         11   -1    0    0    0    0 -0.00000000000E+00 -0.00000000000E+00 -0.45593999997E+02  0.45594000000E+02  0.51100000000E-03 0. -1.
    9900012    2    1    2    0    0 -0.13958353036E+02  0.90962673193E+01 -0.85499566630E+01  0.72461562604E+02  0.69999989981E+02 0.  0.
        -12    1    1    2    0    0  0.13958353036E+02 -0.90962673193E+01  0.85499566630E+01  0.18726437396E+02  0.00000000000E+00 0.  1.
         11    1    3    3    0    0  0.12560145603E+02  0.43032017105E+01 -0.21493925387E+02  0.25263879974E+02  0.51100000000E-03 0. -1.
        -11    1    3    3    0    0  0.90319151737E+01 -0.98613016612E+00  0.52917198453E+00  0.91009871805E+01  0.51100000000E-03 0.  1.
        -12    1    3    3    0    0 -0.35550413813E+02  0.57791957749E+01  0.12414796740E+02  0.38096695449E+02  0.00000000000E+00 0.  1.
</event>
<event>
 7    1  0.3568800E-013  0.7246156E+02  0.7816164E-02  0.1226708E+00
        -11   -1    0    0    0    0  0.00000000000E+00  0.00000000000E+00  0.45593999997E+02  0.45594000000E+02  0.51100000000E-03 0. -1.
         11   -1    0    0    0    0 -0.00000000000E+00 -0.00000000000E+00 -0.45593999997E+02  0.45594000000E+02  0.51100000000E-03 0.  1.
    9900012    2    1    2    0    0  0.27073963695E+01 -0.11005187198E+02  0.14907562109E+02  0.72461560178E+02  0.69999986822E+02 0.  0.
        -12    1    1    2    0    0 -0.27073963695E+01  0.11005187198E+02 -0.14907562109E+02  0.18726439822E+02  0.00000000000E+00 0.  1.
         11    1    3    3    0    0  0.84770126793E+01 -0.60044528942E+01  0.52232760585E+01  0.11627373374E+02  0.51100000000E-03 0. -1.
        -11    1    3    3    0    0  0.67524102654E+01  0.27401495356E+01 -0.23460994889E+02  0.24566679574E+02  0.51100000000E-03 0.  1.
         12    1    3    3    0    0 -0.12522026575E+02 -0.77408838398E+01  0.33145280939E+02  0.36267507230E+02  0.00000000000E+00 0. -1.
</event>
<event>
 7    1  0.3568800E-013  0.7246158E+02  0.7816164E-02  0.1226708E+00
        -11   -1    0    0    0    0  0.00000000000E+00  0.00000000000E+00  0.45593999997E+02  0.45594000000E+02  0.51100000000E-03 0. -1.
         11   -1    0    0    0    0 -0.00000000000E+00 -0.00000000000E+00 -0.45593999997E+02  0.45594000000E+02  0.51100000000E-03 0.  1.
    9900012    2    1    2    0    0  0.78177946247E+01  0.10914055651E+02  0.13055426038E+02  0.72461583563E+02  0.70000017284E+02 0.  0.
        -12    1    1    2    0    0 -0.78177946247E+01 -0.10914055651E+02 -0.13055426038E+02  0.18726416437E+02  0.00000000000E+00 0.  1.
         11    1    3    3    0    0 -0.19116608982E+02  0.10927245484E+02  0.26005369767E+02  0.34075338440E+02  0.51100000000E-03 0.  1.
        -11    1    3    3    0    0  0.57108069826E+01 -0.40348017020E+01  0.63302591833E+01  0.94321324607E+01  0.51100000000E-03 0. -1.
        -12    1    3    3    0    0  0.21223596624E+02  0.40216118687E+01 -0.19280202912E+02  0.28954112661E+02  0.00000000000E+00 0.  1.
</event>
<event>
 7    1  0.3568800E-013  0.7246210E+02  0.7816164E-02  0.1226707E+00
        -11   -1    0    0    0    0  0.00000000000E+00  0.00000000000E+00  0.45593999997E+02  0.45594000000E+02  0.51100000000E-03 0.  1.
         11   -1    0    0    0    0 -0.00000000000E+00 -0.00000000000E+00 -0.45593999997E+02  0.45594000000E+02  0.51100000000E-03 0. -1.
    9900012    2    1    2    0    0  0.72799794360E+01  0.83127065385E+00 -0.17232827517E+02  0.72462096665E+02  0.70000685692E+02 0.  0.
        -12    1    1    2    0    0 -0.72799794360E+01 -0.83127065385E+00  0.17232827517E+02  0.18725903335E+02  0.00000000000E+00 0.  1.
         11    1    3    3    0    0 -0.12492255606E+02  0.23238034945E+02 -0.26447475746E+01  0.26515229741E+02  0.51100000000E-03 0. -1.
        -11    1    3    3    0    0  0.20461083408E+02 -0.25173970550E-01 -0.11120408784E+02  0.23287766311E+02  0.51100000000E-03 0.  1.
        -12    1    3    3    0    0 -0.68884836664E+00 -0.22381590320E+02 -0.34676711576E+01  0.22659100613E+02  0.00000000000E+00 0.  1.
</event>
<event>
 7    1  0.3568800E-013  0.7246157E+02  0.7816164E-02  0.1226708E+00
        -11   -1    0    0    0    0  0.00000000000E+00  0.00000000000E+00  0.45593999997E+02  0.45594000000E+02  0.51100000000E-03 0.  1.
         11   -1    0    0    0    0 -0.00000000000E+00 -0.00000000000E+00 -0.45593999997E+02  0.45594000000E+02  0.51100000000E-03 0. -1.
    9900012    2    1    2    0    0  0.16168026402E+02  0.72881564387E+01  0.60130642221E+01  0.72461568323E+02  0.69999997432E+02 0.  0.
        -12    1    1    2    0    0 -0.16168026402E+02 -0.72881564387E+01 -0.60130642221E+01  0.18726431677E+02  0.00000000000E+00 0.  1.
         11    1    3    3    0    0 -0.52411386706E+01 -0.13993727873E+02  0.90294885810E+00  0.14970279598E+02  0.51100000000E-03 0. -1.
        -11    1    3    3    0    0  0.17236486506E+02 -0.13502086403E+02 -0.10501918687E+01  0.21920440405E+02  0.51100000000E-03 0.  1.
         12    1    3    3    0    0  0.41726785663E+01  0.34783970714E+02  0.61603072327E+01  0.35570848321E+02  0.00000000000E+00 0. -1.
</event>
<event>
 7    1  0.3568800E-013  0.7246156E+02  0.7816164E-02  0.1226708E+00
        -11   -1    0    0    0    0  0.00000000000E+00  0.00000000000E+00  0.45593999997E+02  0.45594000000E+02  0.51100000000E-03 0.  1.
         11   -1    0    0    0    0 -0.00000000000E+00 -0.00000000000E+00 -0.45593999997E+02  0.45594000000E+02  0.51100000000E-03 0. -1.
    9900012    2    1    2    0    0  0.59009330769E+01 -0.15176731615E+02 -0.92479897679E+01  0.72461561245E+02  0.69999988212E+02 0.  0.
        -12    1    1    2    0    0 -0.59009330769E+01  0.15176731615E+02  0.92479897679E+01  0.18726438755E+02  0.00000000000E+00 0.  1.
         11    1    3    3    0    0  0.16809427554E+02 -0.14566081344E+02 -0.51364549996E+01  0.22827850329E+02  0.51100000000E-03 0. -1.
        -11    1    3    3    0    0 -0.20373213501E+02  0.13836441862E+01  0.16897582641E+02  0.26504916505E+02  0.51100000000E-03 0.  1.
         12    1    3    3    0    0  0.94647190240E+01 -0.19942944565E+01 -0.21009117409E+02  0.23128794411E+02  0.00000000000E+00 0. -1.
</event>
<event>
 7    1  0.3568800E-013  0.7246181E+02  0.7816164E-02  0.1226707E+00
        -11   -1    0    0    0    0  0.00000000000E+00  0.00000000000E+00  0.45593999997E+02  0.45594000000E+02  0.51100000000E-03 0.  1.
         11   -1    0    0    0    0 -0.00000000000E+00 -0.00000000000E+00 -0.45593999997E+02  0.45594000000E+02  0.51100000000E-03 0. -1.
    9900012    2    1    2    0    0 -0.15072270877E+02 -0.43573339317E+01 -0.10223032872E+02  0.72461812201E+02  0.70000315127E+02 0.  0.
        -12    1    1    2    0    0  0.15072270877E+02  0.43573339317E+01  0.10223032872E+02  0.18726187799E+02  0.00000000000E+00 0.  1.
         11    1    3    3    0    0  0.16663678568E+02 -0.19751112323E+02  0.28760431474E-01  0.25841545016E+02  0.51100000000E-03 0. -1.
        -11    1    3    3    0    0 -0.11467358217E+01 -0.63193916471E+01  0.26550803475E+01  0.69497601216E+01  0.51100000000E-03 0.  1.
        -12    1    3    3    0    0 -0.30589213623E+02  0.21713170038E+02 -0.12906873651E+02  0.39670507063E+02  0.00000000000E+00 0.  1.
</event>
<event>
 7    1  0.4519610E-013  0.7246150E+02  0.7816164E-02  0.1226708E+00
        -11   -1    0    0    0    0  0.00000000000E+00  0.00000000000E+00  0.45593999997E+02  0.45594000000E+02  0.51100000000E-03 0.  1.
         11   -1    0    0    0    0 -0.00000000000E+00 -0.00000000000E+00 -0.45593999997E+02  0.45594000000E+02  0.51100000000E-03 0. -1.
    9900012    2    1    2    0    0 -0.78285840782E+00 -0.15563297823E+02 -0.10385216232E+02  0.72461499457E+02  0.69999907721E+02 0.  0.
        -12    1    1    2    0    0  0.78285840782E+00  0.15563297823E+02  0.10385216232E+02  0.18726500543E+02  0.00000000000E+00 0.  1.
         11    1    3    3    0    0  0.16564349000E+02 -0.35551916488E+01 -0.56971203861E+01  0.17873841960E+02  0.51100000000E-03 0. -1.
        -11    1    3    3    0    0 -0.73096763358E+01 -0.11014530895E+02  0.22217890343E+02  0.25853160552E+02  0.51100000000E-03 0.  1.
         12    1    3    3    0    0 -0.10037531072E+02 -0.99357527877E+00 -0.26905986190E+02  0.28734496945E+02  0.00000000000E+00 0. -1.
</event>
<event>
 7    1  0.3568800E-013  0.7246156E+02  0.7816164E-02  0.1226708E+00
        -11   -1    0    0    0    0  0.00000000000E+00  0.00000000000E+00  0.45593999997E+02  0.45594000000E+02  0.51100000000E-03 0.  1.
         11   -1    0    0    0    0 -0.00000000000E+00 -0.00000000000E+00 -0.45593999997E+02  0.45594000000E+02  0.51100000000E-03 0. -1.
    9900012    2    1    2    0    0  0.61400949633E+01  0.13581484180E+02 -0.11336758772E+02  0.72461559384E+02  0.69999985787E+02 0.  0.
        -12    1    1    2    0    0 -0.61400949633E+01 -0.13581484180E+02  0.11336758772E+02  0.18726440616E+02  0.00000000000E+00 0.  1.
         11    1    3    3    0    0 -0.17829442136E+02  0.29520411591E+01  0.87039617604E+01  0.20058975659E+02  0.51100000000E-03 0. -1.
        -11    1    3    3    0    0  0.40051034404E+01  0.85483026491E+01  0.11585337625E+02  0.14944376197E+02  0.51100000000E-03 0.  1.
         12    1    3    3    0    0  0.19964433659E+02  0.20811403721E+01 -0.31626058158E+02  0.37458207528E+02  0.00000000000E+00 0. -1.
</event>
<event>
 7    1  0.3568800E-013  0.7246155E+02  0.7816164E-02  0.1226708E+00
        -11   -1    0    0    0    0  0.00000000000E+00  0.00000000000E+00  0.45593999997E+02  0.45594000000E+02  0.51100000000E-03 0. -1.
         11   -1    0    0    0    0 -0.00000000000E+00 -0.00000000000E+00 -0.45593999997E+02  0.45594000000E+02  0.51100000000E-03 0.  1.
    9900012    2    1    2    0    0  0.13096133099E+02 -0.11405062507E+02 -0.70068331340E+01  0.72461551765E+02  0.69999975862E+02 0.  0.
        -12    1    1    2    0    0 -0.13096133099E+02  0.11405062507E+02  0.70068331340E+01  0.18726448235E+02  0.00000000000E+00 0.  1.
         11    1    3    3    0    0  0.11241450353E+02 -0.21449418173E+02  0.10816618787E+02  0.26522575068E+02  0.51100000000E-03 0. -1.
        -11    1    3    3    0    0 -0.57079217637E+01 -0.10984307025E+02  0.55812331205E+01  0.13578863542E+02  0.51100000000E-03 0.  1.
        -12    1    3    3    0    0  0.75626045094E+01  0.21028662691E+02 -0.23404685041E+02  0.32360113155E+02  0.00000000000E+00 0.  1.
</event>
<event>
 7    1  0.3568800E-013  0.7246161E+02  0.7816164E-02  0.1226708E+00
        -11   -1    0    0    0    0  0.00000000000E+00  0.00000000000E+00  0.45593999997E+02  0.45594000000E+02  0.51100000000E-03 0.  1.
         11   -1    0    0    0    0 -0.00000000000E+00 -0.00000000000E+00 -0.45593999997E+02  0.45594000000E+02  0.51100000000E-03 0. -1.
    9900012    2    1    2    0    0  0.47113567103E+01 -0.13080430952E+02 -0.12545237935E+02  0.72461613515E+02  0.70000056303E+02 0.  0.
        -12    1    1    2    0    0 -0.47113567103E+01  0.13080430952E+02  0.12545237935E+02  0.18726386485E+02  0.00000000000E+00 0.  1.
         11    1    3    3    0    0  0.23022674709E+02 -0.27714953309E+02 -0.79112811319E+01  0.36888352593E+02  0.51100000000E-03 0. -1.
        -11    1    3    3    0    0  0.93576775668E+00 -0.46283407391E+01 -0.67754159514E+01  0.82585386642E+01  0.51100000000E-03 0.  1.
        -12    1    3    3    0    0 -0.19247085755E+02  0.19262863096E+02  0.21414591485E+01  0.27314722257E+02  0.00000000000E+00 0.  1.
</event>
<event>
 7    1  0.3568800E-013  0.7246152E+02  0.7816164E-02  0.1226708E+00
        -11   -1    0    0    0    0  0.00000000000E+00  0.00000000000E+00  0.45593999997E+02  0.45594000000E+02  0.51100000000E-03 0. -1.
         11   -1    0    0    0    0 -0.00000000000E+00 -0.00000000000E+00 -0.45593999997E+02  0.45594000000E+02  0.51100000000E-03 0.  1.
    9900012    2    1    2    0    0 -0.37257121000E+01 -0.17004407517E+02 -0.69029096499E+01  0.72461522294E+02  0.69999937470E+02 0.  0.
        -12    1    1    2    0    0  0.37257121000E+01  0.17004407517E+02  0.69029096499E+01  0.18726477706E+02  0.00000000000E+00 0.  1.
         11    1    3    3    0    0 -0.15910983294E+02  0.54092422607E+01 -0.51563822680E+00  0.16813244013E+02  0.51100000000E-03 0. -1.
        -11    1    3    3    0    0 -0.10342439459E+02 -0.21850874587E+02 -0.18148439704E+02  0.30229003261E+02  0.51100000000E-03 0.  1.
         12    1    3    3    0    0  0.22527710653E+02 -0.56277519063E+00  0.11761168281E+02  0.25419275020E+02  0.00000000000E+00 0. -1.
</event>
<event>
 7    1  0.3568800E-013  0.7246157E+02  0.7816164E-02  0.1226708E+00
        -11   -1    0    0    0    0  0.00000000000E+00  0.00000000000E+00  0.45593999997E+02  0.45594000000E+02  0.51100000000E-03 0.  1.
         11   -1    0    0    0    0 -0.00000000000E+00 -0.00000000000E+00 -0.45593999997E+02  0.45594000000E+02  0.51100000000E-03 0. -1.
    9900012    2    1    2    0    0  0.15284184009E+02  0.76744731616E+01 -0.76272879208E+01  0.72461565738E+02  0.69999994065E+02 0.  0.
        -12    1    1    2    0    0 -0.15284184009E+02 -0.76744731616E+01  0.76272879208E+01  0.18726434262E+02  0.00000000000E+00 0.  1.
         11    1    3    3    0    0  0.14108595049E+02  0.10245893829E+02 -0.12353447148E+02  0.21369100386E+02  0.51100000000E-03 0. -1.
        -11    1    3    3    0    0  0.23063877609E+02  0.56966972648E+01  0.11965677562E+02  0.26600230260E+02  0.51100000000E-03 0.  1.
         12    1    3    3    0    0 -0.21888288649E+02 -0.82681179316E+01 -0.72395183348E+01  0.24492235093E+02  0.00000000000E+00 0. -1.
</event>
<event>
 7    1  0.3568800E-013  0.7246173E+02  0.7816164E-02  0.1226708E+00
        -11   -1    0    0    0    0  0.00000000000E+00  0.00000000000E+00  0.45593999997E+02  0.45594000000E+02  0.51100000000E-03 0. -1.
         11   -1    0    0    0    0 -0.00000000000E+00 -0.00000000000E+00 -0.45593999997E+02  0.45594000000E+02  0.51100000000E-03 0.  1.
    9900012    2    1    2    0    0  0.16298506380E+02  0.75046138761E+01  0.53584347121E+01  0.72461725352E+02  0.70000201991E+02 0.  0.
        -12    1    1    2    0    0 -0.16298506380E+02 -0.75046138761E+01 -0.53584347121E+01  0.18726274648E+02  0.00000000000E+00 0.  1.
         11    1    3    3    0    0  0.14565613366E+02 -0.11542646062E+02 -0.98943288897E+01  0.21054394203E+02  0.51100000000E-03 0. -1.
        -11    1    3    3    0    0  0.14310776533E+02  0.19434532387E+02 -0.76132882518E+01  0.25307341471E+02  0.51100000000E-03 0.  1.
         12    1    3    3    0    0 -0.12577883519E+02 -0.38727244899E+00  0.22866051854E+02  0.26099989677E+02  0.00000000000E+00 0. -1.
</event>
<event>
 7    1  0.3568800E-013  0.7246161E+02  0.7816164E-02  0.1226708E+00
        -11   -1    0    0    0    0  0.00000000000E+00  0.00000000000E+00  0.45593999997E+02  0.45594000000E+02  0.51100000000E-03 0.  1.
         11   -1    0    0    0    0 -0.00000000000E+00 -0.00000000000E+00 -0.45593999997E+02  0.45594000000E+02  0.51100000000E-03 0. -1.
    9900012    2    1    2    0    0  0.12199863070E+02 -0.41402258704E+00 -0.14201048439E+02  0.72461605516E+02  0.70000045882E+02 0.  0.
        -12    1    1    2    0    0 -0.12199863070E+02  0.41402258704E+00  0.14201048439E+02  0.18726394484E+02  0.00000000000E+00 0.  1.
         11    1    3    3    0    0 -0.89211117590E+01 -0.27203928062E+02 -0.63132735586E+01  0.29317185409E+02  0.51100000000E-03 0. -1.
        -11    1    3    3    0    0  0.42381742039E+01  0.95035354501E+01  0.89240377840E+01  0.13708309789E+02  0.51100000000E-03 0.  1.
        -12    1    3    3    0    0  0.16882800625E+02  0.17286370025E+02 -0.16811812664E+02  0.29436110318E+02  0.00000000000E+00 0.  1.
</event>
<event>
 7    1  0.3568800E-013  0.7246159E+02  0.7816164E-02  0.1226708E+00
        -11   -1    0    0    0    0  0.00000000000E+00  0.00000000000E+00  0.45593999997E+02  0.45594000000E+02  0.51100000000E-03 0. -1.
         11   -1    0    0    0    0 -0.00000000000E+00 -0.00000000000E+00 -0.45593999997E+02  0.45594000000E+02  0.51100000000E-03 0.  1.
    9900012    2    1    2    0    0  0.18625986883E+02  0.12587704957E+01  0.14719592851E+01  0.72461586711E+02  0.70000021385E+02 0.  0.
        -12    1    1    2    0    0 -0.18625986883E+02 -0.12587704957E+01 -0.14719592851E+01  0.18726413289E+02  0.00000000000E+00 0.  1.
         11    1    3    3    0    0 -0.77307332632E+01 -0.19280597883E+01  0.13651886457E+02  0.15806823066E+02  0.51100000000E-03 0. -1.
        -11    1    3    3    0    0  0.28730099835E+02  0.15929087005E+01  0.12813551711E+02  0.31498303166E+02  0.51100000000E-03 0.  1.
        -12    1    3    3    0    0 -0.23733796883E+01  0.15939215834E+01 -0.24993478883E+02  0.25156460479E+02  0.00000000000E+00 0.  1.
</event>
<event>
 7    1  0.3568800E-013  0.7246149E+02  0.7816164E-02  0.1226708E+00
        -11   -1    0    0    0    0  0.00000000000E+00  0.00000000000E+00  0.45593999997E+02  0.45594000000E+02  0.51100000000E-03 0.  1.
         11   -1    0    0    0    0 -0.00000000000E+00 -0.00000000000E+00 -0.45593999997E+02  0.45594000000E+02  0.51100000000E-03 0. -1.
    9900012    2    1    2    0    0  0.24247215502E+01 -0.18246010389E+02  0.34476015071E+01  0.72461491359E+02  0.69999897172E+02 0.  0.
        -12    1    1    2    0    0 -0.24247215502E+01  0.18246010389E+02 -0.34476015071E+01  0.18726508641E+02  0.00000000000E+00 0.  1.
         11    1    3    3    0    0  0.10585056014E+02 -0.21175529719E+02 -0.15006345214E+02  0.28029214521E+02  0.51100000000E-03 0. -1.
        -11    1    3    3    0    0  0.66746079179E+01 -0.15152327347E+02  0.43461007141E+01  0.17118177665E+02  0.51100000000E-03 0.  1.
        -12    1    3    3    0    0 -0.14834942381E+02  0.18081846677E+02  0.14107846007E+02  0.27314099174E+02  0.00000000000E+00 0.  1.
</event>
<event>
 7    1  0.3568800E-013  0.7246154E+02  0.7816164E-02  0.1226708E+00
        -11   -1    0    0    0    0  0.00000000000E+00  0.00000000000E+00  0.45593999997E+02  0.45594000000E+02  0.51100000000E-03 0. -1.
         11   -1    0    0    0    0 -0.00000000000E+00 -0.00000000000E+00 -0.45593999997E+02  0.45594000000E+02  0.51100000000E-03 0.  1.
    9900012    2    1    2    0    0  0.16099712424E+01  0.17324889573E+02  0.69236281390E+01  0.72461536567E+02  0.69999956064E+02 0.  0.
        -12    1    1    2    0    0 -0.16099712424E+01 -0.17324889573E+02 -0.69236281390E+01  0.18726463433E+02  0.00000000000E+00 0.  1.
         11    1    3    3    0    0  0.10979244993E+02  0.38355063289E+02 -0.54068975834E+01  0.40260268781E+02  0.51100000000E-03 0. -1.
        -11    1    3    3    0    0  0.31077654291E+01  0.16633429422E+01  0.31425570626E+01  0.47223490826E+01  0.51100000000E-03 0.  1.
        -12    1    3    3    0    0 -0.12477039179E+02 -0.22693516659E+02  0.91879686598E+01  0.27478918704E+02  0.00000000000E+00 0.  1.
</event>
<event>
 7    1  0.3568800E-013  0.7246154E+02  0.7816164E-02  0.1226708E+00
        -11   -1    0    0    0    0  0.00000000000E+00  0.00000000000E+00  0.45593999997E+02  0.45594000000E+02  0.51100000000E-03 0.  1.
         11   -1    0    0    0    0 -0.00000000000E+00 -0.00000000000E+00 -0.45593999997E+02  0.45594000000E+02  0.51100000000E-03 0. -1.
    9900012    2    1    2    0    0 -0.34492909335E+01  0.74693620189E+01 -0.16822347561E+02  0.72461538658E+02  0.69999958788E+02 0.  0.
        -12    1    1    2    0    0  0.34492909335E+01 -0.74693620189E+01  0.16822347561E+02  0.18726461342E+02  0.00000000000E+00 0.  1.
         11    1    3    3    0    0  0.71435550056E+01  0.28775281576E+01  0.10881103290E+02  0.13330752247E+02  0.51100000000E-03 0. -1.
        -11    1    3    3    0    0 -0.18830205669E+01  0.94242852318E+01  0.13594554198E+02  0.16648568187E+02  0.51100000000E-03 0.  1.
         12    1    3    3    0    0 -0.87098253722E+01 -0.48324513705E+01 -0.41298005048E+02  0.42482218224E+02  0.00000000000E+00 0. -1.
</event>
<event>
 7    1  0.3568800E-013  0.7246161E+02  0.7816164E-02  0.1226708E+00
        -11   -1    0    0    0    0  0.00000000000E+00  0.00000000000E+00  0.45593999997E+02  0.45594000000E+02  0.51100000000E-03 0.  1.
         11   -1    0    0    0    0 -0.00000000000E+00 -0.00000000000E+00 -0.45593999997E+02  0.45594000000E+02  0.51100000000E-03 0. -1.
    9900012    2    1    2    0    0 -0.12849048798E+02 -0.12890901795E+02  0.44050450866E+01  0.72461606158E+02  0.70000046719E+02 0.  0.
        -12    1    1    2    0    0  0.12849048798E+02  0.12890901795E+02 -0.44050450866E+01  0.18726393842E+02  0.00000000000E+00 0.  1.
         11    1    3    3    0    0  0.11456351324E+02  0.15362780826E+01 -0.99838255364E+01  0.15273667163E+02  0.51100000000E-03 0. -1.
        -11    1    3    3    0    0 -0.52867878801E+01  0.16193788106E+02 -0.27820434650E+01  0.17260610228E+02  0.51100000000E-03 0.  1.
         12    1    3    3    0    0 -0.19018612242E+02 -0.30620967984E+02  0.17170914088E+02  0.39927328768E+02  0.00000000000E+00 0. -1.
</event>
<event>
 7    1  0.3568800E-013  0.7246168E+02  0.7816164E-02  0.1226708E+00
        -11   -1    0    0    0    0  0.00000000000E+00  0.00000000000E+00  0.45593999997E+02  0.45594000000E+02  0.51100000000E-03 0.  1.
         11   -1    0    0    0    0 -0.00000000000E+00 -0.00000000000E+00 -0.45593999997E+02  0.45594000000E+02  0.51100000000E-03 0. -1.
    9900012    2    1    2    0    0  0.17793200410E+02  0.57297799913E+01  0.11164796345E+01  0.72461684656E+02  0.70000148977E+02 0.  0.
        -12    1    1    2    0    0 -0.17793200410E+02 -0.57297799913E+01 -0.11164796345E+01  0.18726315344E+02  0.00000000000E+00 0.  1.
         11    1    3    3    0    0  0.19766440208E+02 -0.67719316471E+01 -0.12845077815E+02  0.24526867738E+02  0.51100000000E-03 0. -1.
        -11    1    3    3    0    0 -0.18524053832E+01 -0.15356585822E+02  0.12757608058E+02  0.20050254298E+02  0.51100000000E-03 0.  1.
        -12    1    3    3    0    0 -0.12083441441E+00  0.27858297460E+02  0.12039493915E+01  0.27884562619E+02  0.00000000000E+00 0.  1.
</event>
<event>
 7    1  0.3568800E-013  0.7246151E+02  0.7816164E-02  0.1226708E+00
        -11   -1    0    0    0    0  0.00000000000E+00  0.00000000000E+00  0.45593999997E+02  0.45594000000E+02  0.51100000000E-03 0. -1.
         11   -1    0    0    0    0 -0.00000000000E+00 -0.00000000000E+00 -0.45593999997E+02  0.45594000000E+02  0.51100000000E-03 0.  1.
    9900012    2    1    2    0    0  0.11501216105E+02 -0.12691697030E+02 -0.75712688024E+01  0.72461514567E+02  0.69999927405E+02 0.  0.
        -12    1    1    2    0    0 -0.11501216105E+02  0.12691697030E+02  0.75712688024E+01  0.18726485433E+02  0.00000000000E+00 0.  1.
         11    1    3    3    0    0  0.64694472248E-02 -0.62622024964E+01 -0.28596576394E+02  0.29274210556E+02  0.51100000000E-03 0. -1.
        -11    1    3    3    0    0 -0.12425562486E+02 -0.11345596891E+01  0.31753742627E+01  0.12874969155E+02  0.51100000000E-03 0.  1.
         12    1    3    3    0    0  0.23920309144E+02 -0.52949348446E+01  0.17849933329E+02  0.30312334856E+02  0.00000000000E+00 0. -1.
</event>
<event>
 7    1  0.3568800E-013  0.7246154E+02  0.7816164E-02  0.1226708E+00
        -11   -1    0    0    0    0  0.00000000000E+00  0.00000000000E+00  0.45593999997E+02  0.45594000000E+02  0.51100000000E-03 0. -1.
         11   -1    0    0    0    0 -0.00000000000E+00 -0.00000000000E+00 -0.45593999997E+02  0.45594000000E+02  0.51100000000E-03 0.  1.
    9900012    2    1    2    0    0  0.17534250036E+02  0.54192295163E+01  0.37232252383E+01  0.72461538000E+02  0.69999957930E+02 0.  0.
        -12    1    1    2    0    0 -0.17534250036E+02 -0.54192295163E+01 -0.37232252383E+01  0.18726462000E+02  0.00000000000E+00 0.  1.
         11    1    3    3    0    0  0.13111726118E+01 -0.98413639633E+01 -0.15834505342E+00  0.99295866829E+01  0.51100000000E-03 0. -1.
        -11    1    3    3    0    0  0.16351621951E+01 -0.11032470609E+02 -0.20819241241E+02  0.23618424360E+02  0.51100000000E-03 0.  1.
        -12    1    3    3    0    0  0.14587915229E+02  0.26293064088E+02  0.24700811532E+02  0.38913526957E+02  0.00000000000E+00 0.  1.
</event>
<event>
 7    1  0.3568800E-013  0.7246160E+02  0.7816164E-02  0.1226708E+00
        -11   -1    0    0    0    0  0.00000000000E+00  0.00000000000E+00  0.45593999997E+02  0.45594000000E+02  0.51100000000E-03 0.  1.
         11   -1    0    0    0    0 -0.00000000000E+00 -0.00000000000E+00 -0.45593999997E+02  0.45594000000E+02  0.51100000000E-03 0. -1.
    9900012    2    1    2    0    0  0.16449900413E+02 -0.85272737605E+01 -0.27137599330E+01  0.72461598467E+02  0.70000036700E+02 0.  0.
        -12    1    1    2    0    0 -0.16449900413E+02  0.85272737605E+01  0.27137599330E+01  0.18726401533E+02  0.00000000000E+00 0.  1.
         11    1    3    3    0    0 -0.15184550466E+02 -0.21158236966E+02  0.61891959172E+01  0.26768408819E+02  0.51100000000E-03 0. -1.
        -11    1    3    3    0    0  0.58849437873E+00 -0.66148813602E+01 -0.61679894723E+01  0.90635023824E+01  0.51100000000E-03 0.  1.
         12    1    3    3    0    0  0.31045956501E+02  0.19245844565E+02 -0.27349663778E+01  0.36629687265E+02  0.00000000000E+00 0. -1.
</event>
<event>
 7    1  0.3568800E-013  0.7246155E+02  0.7816164E-02  0.1226708E+00
        -11   -1    0    0    0    0  0.00000000000E+00  0.00000000000E+00  0.45593999997E+02  0.45594000000E+02  0.51100000000E-03 0.  1.
         11   -1    0    0    0    0 -0.00000000000E+00 -0.00000000000E+00 -0.45593999997E+02  0.45594000000E+02  0.51100000000E-03 0. -1.
    9900012    2    1    2    0    0  0.39049936418E+01  0.15889926487E+02 -0.91072132886E+01  0.72461546171E+02  0.69999968575E+02 0.  0.
        -12    1    1    2    0    0 -0.39049936418E+01 -0.15889926487E+02  0.91072132886E+01  0.18726453829E+02  0.00000000000E+00 0.  1.
         11    1    3    3    0    0 -0.21283150007E+01  0.14045859163E+02 -0.10533368385E+02  0.17685240574E+02  0.51100000000E-03 0. -1.
        -11    1    3    3    0    0  0.64917492246E+01  0.10291991267E+02 -0.24580820273E+02  0.27427807382E+02  0.51100000000E-03 0.  1.
        -12    1    3    3    0    0 -0.45844058210E+00 -0.84479239425E+01  0.26006975370E+02  0.27348498215E+02  0.00000000000E+00 0.  1.
</event>
<event>
 7    1  0.3568800E-013  0.7246155E+02  0.7816164E-02  0.1226708E+00
        -11   -1    0    0    0    0  0.00000000000E+00  0.00000000000E+00  0.45593999997E+02  0.45594000000E+02  0.51100000000E-03 0. -1.
         11   -1    0    0    0    0 -0.00000000000E+00 -0.00000000000E+00 -0.45593999997E+02  0.45594000000E+02  0.51100000000E-03 0.  1.
    9900012    2    1    2    0    0  0.17107613078E+02 -0.63041673555E+01  0.42739721356E+01  0.72461553752E+02  0.69999978451E+02 0.  0.
        -12    1    1    2    0    0 -0.17107613078E+02  0.63041673555E+01 -0.42739721356E+01  0.18726446248E+02  0.00000000000E+00 0.  1.
         11    1    3    3    0    0  0.54627242468E+01 -0.19762406786E+01  0.59262468622E+01  0.82986315467E+01  0.51100000000E-03 0. -1.
        -11    1    3    3    0    0  0.19091321571E+02  0.11532553511E+02 -0.25942623593E+02  0.34212542568E+02  0.51100000000E-03 0.  1.
         12    1    3    3    0    0 -0.74464327403E+01 -0.15860480188E+02  0.24290348866E+02  0.29950379637E+02  0.00000000000E+00 0. -1.
</event>
<event>
 7    1  0.3568800E-013  0.7246155E+02  0.7816164E-02  0.1226708E+00
        -11   -1    0    0    0    0  0.00000000000E+00  0.00000000000E+00  0.45593999997E+02  0.45594000000E+02  0.51100000000E-03 0.  1.
         11   -1    0    0    0    0 -0.00000000000E+00 -0.00000000000E+00 -0.45593999997E+02  0.45594000000E+02  0.51100000000E-03 0. -1.
    9900012    2    1    2    0    0 -0.11953730814E+02 -0.13008614477E+02 -0.62099957945E+01  0.72461554028E+02  0.69999978810E+02 0.  0.
        -12    1    1    2    0    0  0.11953730814E+02  0.13008614477E+02  0.62099957945E+01  0.18726445972E+02  0.00000000000E+00 0.  1.
         11    1    3    3    0    0 -0.19154869598E+02 -0.21198539938E+01 -0.12265970857E+02  0.22844186385E+02  0.51100000000E-03 0. -1.
        -11    1    3    3    0    0 -0.18969620330E+02 -0.12472471127E+02 -0.25636434151E-01  0.22702636167E+02  0.51100000000E-03 0.  1.
         12    1    3    3    0    0  0.26170759114E+02  0.15837106443E+01  0.60816114966E+01  0.26914731475E+02  0.00000000000E+00 0. -1.
</event>
<event>
 7    1  0.3568800E-013  0.7246145E+02  0.7816164E-02  0.1226708E+00
        -11   -1    0    0    0    0  0.00000000000E+00  0.00000000000E+00  0.45593999997E+02  0.45594000000E+02  0.51100000000E-03 0.  1.
         11   -1    0    0    0    0 -0.00000000000E+00 -0.00000000000E+00 -0.45593999997E+02  0.45594000000E+02  0.51100000000E-03 0. -1.
    9900012    2    1    2    0    0 -0.12045547559E+02 -0.47792025977E+01 -0.13518413724E+02  0.72461454587E+02  0.69999849270E+02 0.  0.
        -12    1    1    2    0    0  0.12045547559E+02  0.47792025977E+01  0.13518413724E+02  0.18726545413E+02  0.00000000000E+00 0.  1.
         11    1    3    3    0    0 -0.25544294969E+02 -0.18892017839E+02 -0.42180298900E+00  0.31774160280E+02  0.51100000000E-03 0. -1.
        -11    1    3    3    0    0  0.65296254768E+01  0.78219061962E+01  0.10899232120E+02  0.14920170458E+02  0.51100000000E-03 0.  1.
         12    1    3    3    0    0  0.69691219332E+01  0.62909090450E+01 -0.23995842856E+02  0.25767123850E+02  0.00000000000E+00 0. -1.
</event>
<event>
 7    1  0.3568800E-013  0.7246158E+02  0.7816164E-02  0.1226708E+00
        -11   -1    0    0    0    0  0.00000000000E+00  0.00000000000E+00  0.45593999997E+02  0.45594000000E+02  0.51100000000E-03 0. -1.
         11   -1    0    0    0    0 -0.00000000000E+00 -0.00000000000E+00 -0.45593999997E+02  0.45594000000E+02  0.51100000000E-03 0.  1.
    9900012    2    1    2    0    0 -0.45252935059E+01 -0.11031656391E+02  0.14439637498E+02  0.72461578689E+02  0.70000010936E+02 0.  0.
        -12    1    1    2    0    0  0.45252935059E+01  0.11031656391E+02 -0.14439637498E+02  0.18726421311E+02  0.00000000000E+00 0.  1.
         11    1    3    3    0    0  0.10441786378E+02 -0.98473080431E+01  0.38595559003E+02  0.41177876991E+02  0.51100000000E-03 0. -1.
        -11    1    3    3    0    0  0.11628605994E+01 -0.20421268867E+01 -0.15707604495E+00  0.23552494858E+01  0.51100000000E-03 0.  1.
        -12    1    3    3    0    0 -0.16129940483E+02  0.85777853919E+00 -0.23998845460E+02  0.28928452213E+02  0.00000000000E+00 0.  1.
</event>
<event>
 7    1  0.3568800E-013  0.7246151E+02  0.7816164E-02  0.1226708E+00
        -11   -1    0    0    0    0  0.00000000000E+00  0.00000000000E+00  0.45593999997E+02  0.45594000000E+02  0.51100000000E-03 0. -1.
         11   -1    0    0    0    0 -0.00000000000E+00 -0.00000000000E+00 -0.45593999997E+02  0.45594000000E+02  0.51100000000E-03 0.  1.
    9900012    2    1    2    0    0  0.99942812164E+01 -0.14185149053E+02  0.70411156712E+01  0.72461510190E+02  0.69999921703E+02 0.  0.
        -12    1    1    2    0    0 -0.99942812164E+01  0.14185149053E+02 -0.70411156712E+01  0.18726489810E+02  0.00000000000E+00 0.  1.
         11    1    3    3    0    0 -0.12269951337E+02 -0.18231913215E+02 -0.58349963090E+01  0.22737668031E+02  0.51100000000E-03 0. -1.
        -11    1    3    3    0    0 -0.72166888348E+01  0.14116306807E+02 -0.40162447465E+00  0.15859130433E+02  0.51100000000E-03 0.  1.
         12    1    3    3    0    0  0.29480921388E+02 -0.10069542645E+02  0.13277736455E+02  0.33864711727E+02  0.00000000000E+00 0. -1.
</event>
<event>
 7    1  0.3568800E-013  0.7246163E+02  0.7816164E-02  0.1226708E+00
        -11   -1    0    0    0    0  0.00000000000E+00  0.00000000000E+00  0.45593999997E+02  0.45594000000E+02  0.51100000000E-03 0. -1.
         11   -1    0    0    0    0 -0.00000000000E+00 -0.00000000000E+00 -0.45593999997E+02  0.45594000000E+02  0.51100000000E-03 0.  1.
    9900012    2    1    2    0    0  0.11069839114E+02  0.30551943312E+01  0.14791942522E+02  0.72461625178E+02  0.70000071496E+02 0.  0.
        -12    1    1    2    0    0 -0.11069839114E+02 -0.30551943312E+01 -0.14791942522E+02  0.18726374822E+02  0.00000000000E+00 0.  1.
         11    1    3    3    0    0  0.23378083433E+02 -0.18660956896E+02  0.32500561339E+01  0.30088684956E+02  0.51100000000E-03 0. -1.
        -11    1    3    3    0    0 -0.42892353403E-01 -0.70890074006E+01  0.82731618393E+01  0.10895002192E+02  0.51100000000E-03 0.  1.
        -12    1    3    3    0    0 -0.12265351966E+02  0.28805158628E+02  0.32687245489E+01  0.31477938030E+02  0.00000000000E+00 0.  1.
</event>
<event>
 7    1  0.3568800E-013  0.7246162E+02  0.7816164E-02  0.1226708E+00
        -11   -1    0    0    0    0  0.00000000000E+00  0.00000000000E+00  0.45593999997E+02  0.45594000000E+02  0.51100000000E-03 0. -1.
         11   -1    0    0    0    0 -0.00000000000E+00 -0.00000000000E+00 -0.45593999997E+02  0.45594000000E+02  0.51100000000E-03 0.  1.
    9900012    2    1    2    0    0 -0.21385638440E+00  0.12541325323E+02  0.13904916044E+02  0.72461621130E+02  0.70000066222E+02 0.  0.
        -12    1    1    2    0    0  0.21385638440E+00 -0.12541325323E+02 -0.13904916044E+02  0.18726378870E+02  0.00000000000E+00 0.  1.
         11    1    3    3    0    0 -0.19683076593E+02  0.73276987112E+01  0.94964993294E+01  0.23049992892E+02  0.51100000000E-03 0. -1.
        -11    1    3    3    0    0 -0.10701401417E+02 -0.78071939181E+01 -0.65429116125E+01  0.14774368406E+02  0.51100000000E-03 0.  1.
         12    1    3    3    0    0  0.30170621625E+02  0.13020820530E+02  0.10951328327E+02  0.34637259832E+02  0.00000000000E+00 0. -1.
</event>
<event>
 7    1  0.3568800E-013  0.7246170E+02  0.7816164E-02  0.1226708E+00
        -11   -1    0    0    0    0  0.00000000000E+00  0.00000000000E+00  0.45593999997E+02  0.45594000000E+02  0.51100000000E-03 0. -1.
         11   -1    0    0    0    0 -0.00000000000E+00 -0.00000000000E+00 -0.45593999997E+02  0.45594000000E+02  0.51100000000E-03 0.  1.
    9900012    2    1    2    0    0 -0.12764908056E+02 -0.98866274308E+01 -0.94860918415E+01  0.72461702500E+02  0.70000172222E+02 0.  0.
        -12    1    1    2    0    0  0.12764908056E+02  0.98866274308E+01  0.94860918415E+01  0.18726297500E+02  0.00000000000E+00 0.  1.
         11    1    3    3    0    0  0.99682351383E+01 -0.12958938127E+02  0.26805664497E+00  0.16351502799E+02  0.51100000000E-03 0. -1.
        -11    1    3    3    0    0  0.74521697561E+01  0.13834399850E+02  0.98472601071E+01  0.18544378803E+02  0.51100000000E-03 0.  1.
         12    1    3    3    0    0 -0.30185312951E+02 -0.10762089154E+02 -0.19601408594E+02  0.37565820898E+02  0.00000000000E+00 0. -1.
</event>
<event>
 7    1  0.3568800E-013  0.7246156E+02  0.7816164E-02  0.1226708E+00
        -11   -1    0    0    0    0  0.00000000000E+00  0.00000000000E+00  0.45593999997E+02  0.45594000000E+02  0.51100000000E-03 0. -1.
         11   -1    0    0    0    0 -0.00000000000E+00 -0.00000000000E+00 -0.45593999997E+02  0.45594000000E+02  0.51100000000E-03 0.  1.
    9900012    2    1    2    0    0  0.11549808028E+02 -0.26810545629E+01  0.14494594777E+02  0.72461564226E+02  0.69999992095E+02 0.  0.
        -12    1    1    2    0    0 -0.11549808028E+02  0.26810545629E+01 -0.14494594777E+02  0.18726435774E+02  0.00000000000E+00 0.  1.
         11    1    3    3    0    0  0.27075742505E+02 -0.23069072979E+02  0.21162722593E+02  0.41390080794E+02  0.51100000000E-03 0. -1.
        -11    1    3    3    0    0 -0.75964432782E+01  0.19100307258E+02 -0.93775696805E+01  0.22593505731E+02  0.51100000000E-03 0.  1.
        -12    1    3    3    0    0 -0.79294911984E+01  0.12877111582E+01  0.27094418645E+01  0.84779777016E+01  0.00000000000E+00 0.  1.
</event>
<event>
 7    1  0.3568800E-013  0.7246161E+02  0.7816164E-02  0.1226708E+00
        -11   -1    0    0    0    0  0.00000000000E+00  0.00000000000E+00  0.45593999997E+02  0.45594000000E+02  0.51100000000E-03 0. -1.
         11   -1    0    0    0    0 -0.00000000000E+00 -0.00000000000E+00 -0.45593999997E+02  0.45594000000E+02  0.51100000000E-03 0.  1.
    9900012    2    1    2    0    0  0.79921236564E+01  0.91608739261E+01  0.14243671926E+02  0.72461605751E+02  0.70000046189E+02 0.  0.
        -12    1    1    2    0    0 -0.79921236564E+01 -0.91608739261E+01 -0.14243671926E+02  0.18726394249E+02  0.00000000000E+00 0.  1.
         11    1    3    3    0    0 -0.90359357122E+00 -0.82027056689E+01 -0.10408738879E+02  0.13283173828E+02  0.51100000000E-03 0. -1.
        -11    1    3    3    0    0 -0.18853370259E+02  0.12658929686E+02  0.20755115746E+02  0.30764799704E+02  0.51100000000E-03 0.  1.
         12    1    3    3    0    0  0.27749087487E+02  0.47046499092E+01  0.38972950594E+01  0.28413632220E+02  0.00000000000E+00 0. -1.
</event>
<event>
 7    1  0.3568800E-013  0.7246147E+02  0.7816164E-02  0.1226708E+00
        -11   -1    0    0    0    0  0.00000000000E+00  0.00000000000E+00  0.45593999997E+02  0.45594000000E+02  0.51100000000E-03 0. -1.
         11   -1    0    0    0    0 -0.00000000000E+00 -0.00000000000E+00 -0.45593999997E+02  0.45594000000E+02  0.51100000000E-03 0.  1.
    9900012    2    1    2    0    0 -0.18613113151E+01  0.18452916560E+01  0.18542208710E+02  0.72461465752E+02  0.69999863813E+02 0.  0.
        -12    1    1    2    0    0  0.18613113151E+01 -0.18452916560E+01 -0.18542208710E+02  0.18726534248E+02  0.00000000000E+00 0.  1.
         11    1    3    3    0    0 -0.90607542514E+01  0.18750205818E+02 -0.69803322816E+00  0.20836380119E+02  0.51100000000E-03 0. -1.
        -11    1    3    3    0    0  0.42761078670E+01  0.12870044763E+02 -0.35460763761E+01  0.14017767605E+02  0.51100000000E-03 0.  1.
        -12    1    3    3    0    0  0.29233350693E+01 -0.29774958925E+02  0.22786318314E+02  0.37607318028E+02  0.00000000000E+00 0.  1.
</event>
<event>
 7    1  0.3568800E-013  0.7246160E+02  0.7816164E-02  0.1226708E+00
        -11   -1    0    0    0    0  0.00000000000E+00  0.00000000000E+00  0.45593999997E+02  0.45594000000E+02  0.51100000000E-03 0.  1.
         11   -1    0    0    0    0 -0.00000000000E+00 -0.00000000000E+00 -0.45593999997E+02  0.45594000000E+02  0.51100000000E-03 0. -1.
    9900012    2    1    2    0    0  0.13258999959E+02  0.13189469601E+02 -0.95649684812E+00  0.72461599531E+02  0.70000038087E+02 0.  0.
        -12    1    1    2    0    0 -0.13258999959E+02 -0.13189469601E+02  0.95649684812E+00  0.18726400469E+02  0.00000000000E+00 0.  1.
         11    1    3    3    0    0  0.26770099485E+02  0.20689287534E+02  0.18049115920E+02  0.38346517846E+02  0.51100000000E-03 0.  1.
        -11    1    3    3    0    0  0.17363560028E+01  0.66098781769E+01 -0.82779213931E+01  0.10734496007E+02  0.51100000000E-03 0. -1.
        -12    1    3    3    0    0 -0.15247455528E+02 -0.14109696110E+02 -0.10727691375E+02  0.23380585678E+02  0.00000000000E+00 0.  1.
</event>
<event>
 7    1  0.3568800E-013  0.7246157E+02  0.7816164E-02  0.1226708E+00
        -11   -1    0    0    0    0  0.00000000000E+00  0.00000000000E+00  0.45593999997E+02  0.45594000000E+02  0.51100000000E-03 0.  1.
         11   -1    0    0    0    0 -0.00000000000E+00 -0.00000000000E+00 -0.45593999997E+02  0.45594000000E+02  0.51100000000E-03 0. -1.
    9900012    2    1    2    0    0 -0.14288582042E+02  0.10850213682E+02 -0.53654960474E+01  0.72461567837E+02  0.69999996799E+02 0.  0.
        -12    1    1    2    0    0  0.14288582042E+02 -0.10850213682E+02  0.53654960474E+01  0.18726432163E+02  0.00000000000E+00 0.  1.
         11    1    3    3    0    0  0.34625014393E+01  0.97091267465E+01 -0.31840512624E+02  0.33467511154E+02  0.51100000000E-03 0. -1.
        -11    1    3    3    0    0  0.43878883059E+01  0.37958321347E+01  0.27009680538E+01  0.63997760952E+01  0.51100000000E-03 0.  1.
        -12    1    3    3    0    0 -0.22138971787E+02 -0.26547451995E+01  0.23774048523E+02  0.32594280588E+02  0.00000000000E+00 0.  1.
</event>
<event>
 7    1  0.3568800E-013  0.7246165E+02  0.7816164E-02  0.1226708E+00
        -11   -1    0    0    0    0  0.00000000000E+00  0.00000000000E+00  0.45593999997E+02  0.45594000000E+02  0.51100000000E-03 0. -1.
         11   -1    0    0    0    0 -0.00000000000E+00 -0.00000000000E+00 -0.45593999997E+02  0.45594000000E+02  0.51100000000E-03 0.  1.
    9900012    2    1    2    0    0 -0.44238193066E+01 -0.18196308277E+02 -0.16638380937E-01  0.72461652545E+02  0.70000107146E+02 0.  0.
        -12    1    1    2    0    0  0.44238193066E+01  0.18196308277E+02  0.16638380937E-01  0.18726347455E+02  0.00000000000E+00 0.  1.
         11    1    3    3    0    0 -0.93544126996E+01 -0.29161076345E+01  0.73921720651E+01  0.12274075476E+02  0.51100000000E-03 0. -1.
        -11    1    3    3    0    0 -0.20033884716E+02 -0.51875643186E+01 -0.21461515166E+02  0.29813822194E+02  0.51100000000E-03 0.  1.
         12    1    3    3    0    0  0.24964478109E+02 -0.10092636324E+02  0.14052704720E+02  0.30373754874E+02  0.00000000000E+00 0. -1.
</event>
<event>
 7    1  0.3568800E-013  0.7246163E+02  0.7816164E-02  0.1226708E+00
        -11   -1    0    0    0    0  0.00000000000E+00  0.00000000000E+00  0.45593999997E+02  0.45594000000E+02  0.51100000000E-03 0.  1.
         11   -1    0    0    0    0 -0.00000000000E+00 -0.00000000000E+00 -0.45593999997E+02  0.45594000000E+02  0.51100000000E-03 0. -1.
    9900012    2    1    2    0    0  0.39019660375E+01 -0.45364463527E+01 -0.17744637161E+02  0.72461632695E+02  0.70000081289E+02 0.  0.
        -12    1    1    2    0    0 -0.39019660375E+01  0.45364463527E+01  0.17744637161E+02  0.18726367305E+02  0.00000000000E+00 0.  1.
         11    1    3    3    0    0  0.39871138907E+01 -0.50412894521E+01 -0.29132357694E+02  0.29832967361E+02  0.51100000000E-03 0. -1.
        -11    1    3    3    0    0 -0.53205927142E+01 -0.18888133509E+02  0.11088036294E+02  0.22539184622E+02  0.51100000000E-03 0.  1.
        -12    1    3    3    0    0  0.52354448609E+01  0.19392976609E+02  0.29968423850E+00  0.20089480712E+02  0.00000000000E+00 0.  1.
</event>
<event>
 7    1  0.3568800E-013  0.7246152E+02  0.7816164E-02  0.1226708E+00
        -11   -1    0    0    0    0  0.00000000000E+00  0.00000000000E+00  0.45593999997E+02  0.45594000000E+02  0.51100000000E-03 0. -1.
         11   -1    0    0    0    0 -0.00000000000E+00 -0.00000000000E+00 -0.45593999997E+02  0.45594000000E+02  0.51100000000E-03 0.  1.
    9900012    2    1    2    0    0 -0.42128894001E+01  0.15913164265E+02 -0.89276945100E+01  0.72461522401E+02  0.69999937610E+02 0.  0.
        -12    1    1    2    0    0  0.42128894001E+01 -0.15913164265E+02  0.89276945100E+01  0.18726477599E+02  0.00000000000E+00 0.  1.
         11    1    3    3    0    0 -0.20840535276E+02  0.30601690556E+02  0.11872903446E+01  0.37043231961E+02  0.51100000000E-03 0. -1.
        -11    1    3    3    0    0 -0.29446970184E+01  0.36754895248E+01 -0.69475285602E+01  0.83933674489E+01  0.51100000000E-03 0.  1.
        -12    1    3    3    0    0  0.19572342895E+02 -0.18364015816E+02 -0.31674562944E+01  0.27024922991E+02  0.00000000000E+00 0.  1.
</event>
<event>
 7    1  0.3568800E-013  0.7246159E+02  0.7816164E-02  0.1226708E+00
        -11   -1    0    0    0    0  0.00000000000E+00  0.00000000000E+00  0.45593999997E+02  0.45594000000E+02  0.51100000000E-03 0.  1.
         11   -1    0    0    0    0 -0.00000000000E+00 -0.00000000000E+00 -0.45593999997E+02  0.45594000000E+02  0.51100000000E-03 0. -1.
    9900012    2    1    2    0    0  0.12385066893E+02  0.12164171219E+02 -0.70229299622E+01  0.72461588474E+02  0.70000023683E+02 0.  0.
        -12    1    1    2    0    0 -0.12385066893E+02 -0.12164171219E+02  0.70229299622E+01  0.18726411526E+02  0.00000000000E+00 0.  1.
         11    1    3    3    0    0 -0.95545249944E+00 -0.16182429656E+02 -0.87922411891E+01  0.18441459390E+02  0.51100000000E-03 0. -1.
        -11    1    3    3    0    0 -0.10284342485E+02 -0.33875226991E+01 -0.77658248081E+01  0.13324828164E+02  0.51100000000E-03 0.  1.
        -12    1    3    3    0    0  0.23624861878E+02  0.31734123574E+02  0.95351360349E+01  0.40695300920E+02  0.00000000000E+00 0.  1.
</event>
<event>
 7    1  0.3568800E-013  0.7246151E+02  0.7816164E-02  0.1226708E+00
        -11   -1    0    0    0    0  0.00000000000E+00  0.00000000000E+00  0.45593999997E+02  0.45594000000E+02  0.51100000000E-03 0. -1.
         11   -1    0    0    0    0 -0.00000000000E+00 -0.00000000000E+00 -0.45593999997E+02  0.45594000000E+02  0.51100000000E-03 0.  1.
    9900012    2    1    2    0    0  0.84111937821E+01  0.10694304116E+02  0.12867216017E+02  0.72461506217E+02  0.69999916527E+02 0.  0.
        -12    1    1    2    0    0 -0.84111937821E+01 -0.10694304116E+02 -0.12867216017E+02  0.18726493783E+02  0.00000000000E+00 0.  1.
         11    1    3    3    0    0  0.28774822189E+02  0.18779400703E+02 -0.74800342579E+01  0.35165426140E+02  0.51100000000E-03 0. -1.
        -11    1    3    3    0    0  0.48265572007E+01 -0.25116079428E+01  0.30917526244E+01  0.62580159333E+01  0.51100000000E-03 0.  1.
        -12    1    3    3    0    0 -0.25190185608E+02 -0.55734886443E+01  0.17255497651E+02  0.31038064144E+02  0.00000000000E+00 0.  1.
</event>
<event>
 7    1  0.3568800E-013  0.7246154E+02  0.7816164E-02  0.1226708E+00
        -11   -1    0    0    0    0  0.00000000000E+00  0.00000000000E+00  0.45593999997E+02  0.45594000000E+02  0.51100000000E-03 0. -1.
         11   -1    0    0    0    0 -0.00000000000E+00 -0.00000000000E+00 -0.45593999997E+02  0.45594000000E+02  0.51100000000E-03 0.  1.
    9900012    2    1    2    0    0 -0.60292849757E+01 -0.10835982990E+02 -0.14032447976E+02  0.72461537417E+02  0.69999957171E+02 0.  0.
        -12    1    1    2    0    0  0.60292849757E+01  0.10835982990E+02  0.14032447976E+02  0.18726462583E+02  0.00000000000E+00 0.  1.
         11    1    3    3    0    0 -0.97232290394E+01  0.68226087899E+01 -0.16545508671E+02  0.20367695773E+02  0.51100000000E-03 0.  1.
        -11    1    3    3    0    0  0.12904247987E+02 -0.32237783847E+02  0.46305097145E+00  0.34727636544E+02  0.51100000000E-03 0. -1.
         12    1    3    3    0    0 -0.92103039232E+01  0.14579192067E+02  0.20500097236E+01  0.17366205099E+02  0.00000000000E+00 0. -1.
</event>
<event>
 7    1  0.3568800E-013  0.7246154E+02  0.7816164E-02  0.1226708E+00
        -11   -1    0    0    0    0  0.00000000000E+00  0.00000000000E+00  0.45593999997E+02  0.45594000000E+02  0.51100000000E-03 0. -1.
         11   -1    0    0    0    0 -0.00000000000E+00 -0.00000000000E+00 -0.45593999997E+02  0.45594000000E+02  0.51100000000E-03 0.  1.
    9900012    2    1    2    0    0  0.89835067460E+01 -0.84292319474E+01 -0.14104072337E+02  0.72461542749E+02  0.69999964117E+02 0.  0.
        -12    1    1    2    0    0 -0.89835067460E+01  0.84292319474E+01  0.14104072337E+02  0.18726457251E+02  0.00000000000E+00 0.  1.
         11    1    3    3    0    0  0.40490741734E+01 -0.21649762280E+02  0.92598411653E+01  0.23892506506E+02  0.51100000000E-03 0. -1.
        -11    1    3    3    0    0 -0.91285944125E+01 -0.99989847253E+01 -0.14903154400E+02  0.20134918495E+02  0.51100000000E-03 0.  1.
        -12    1    3    3    0    0  0.14063026985E+02  0.23219515058E+02 -0.84607591029E+01  0.28434117748E+02  0.00000000000E+00 0.  1.
</event>
<event>
 7    1  0.3568800E-013  0.7246155E+02  0.7816164E-02  0.1226708E+00
        -11   -1    0    0    0    0  0.00000000000E+00  0.00000000000E+00  0.45593999997E+02  0.45594000000E+02  0.51100000000E-03 0.  1.
         11   -1    0    0    0    0 -0.00000000000E+00 -0.00000000000E+00 -0.45593999997E+02  0.45594000000E+02  0.51100000000E-03 0. -1.
    9900012    2    1    2    0    0  0.75268739567E+01  0.17126578490E+02 -0.84049337446E+00  0.72461549417E+02  0.69999972803E+02 0.  0.
        -12    1    1    2    0    0 -0.75268739567E+01 -0.17126578490E+02  0.84049337446E+00  0.18726450583E+02  0.00000000000E+00 0.  1.
         11    1    3    3    0    0  0.18101130922E+02 -0.35828725959E+01 -0.14717897699E+02  0.23603059752E+02  0.51100000000E-03 0. -1.
        -11    1    3    3    0    0  0.15591872539E+02  0.76204910403E+01  0.75455977050E+01  0.18923911275E+02  0.51100000000E-03 0.  1.
         12    1    3    3    0    0 -0.26166129504E+02  0.13088960045E+02  0.63318066200E+01  0.29934578390E+02  0.00000000000E+00 0. -1.
</event>
<event>
 7    1  0.3568800E-013  0.7246152E+02  0.7816164E-02  0.1226708E+00
        -11   -1    0    0    0    0  0.00000000000E+00  0.00000000000E+00  0.45593999997E+02  0.45594000000E+02  0.51100000000E-03 0.  1.
         11   -1    0    0    0    0 -0.00000000000E+00 -0.00000000000E+00 -0.45593999997E+02  0.45594000000E+02  0.51100000000E-03 0. -1.
    9900012    2    1    2    0    0  0.14523875109E+02 -0.83189790197E+01 -0.83983853440E+01  0.72461515106E+02  0.69999928107E+02 0.  0.
        -12    1    1    2    0    0 -0.14523875109E+02  0.83189790197E+01  0.83983853440E+01  0.18726484894E+02  0.00000000000E+00 0.  1.
         11    1    3    3    0    0  0.23983385662E+02  0.12131266326E+02 -0.54839789933E+01  0.27430720668E+02  0.51100000000E-03 0. -1.
        -11    1    3    3    0    0 -0.95217147775E+01 -0.53852422261E+01  0.16905036858E+02  0.20135643957E+02  0.51100000000E-03 0.  1.
         12    1    3    3    0    0  0.62204224404E-01 -0.15065003120E+02 -0.19819443209E+02  0.24895150481E+02  0.00000000000E+00 0. -1.
</event>
<event>
 7    1  0.3568800E-013  0.7246157E+02  0.7816164E-02  0.1226708E+00
        -11   -1    0    0    0    0  0.00000000000E+00  0.00000000000E+00  0.45593999997E+02  0.45594000000E+02  0.51100000000E-03 0. -1.
         11   -1    0    0    0    0 -0.00000000000E+00 -0.00000000000E+00 -0.45593999997E+02  0.45594000000E+02  0.51100000000E-03 0.  1.
    9900012    2    1    2    0    0 -0.61828606246E+01  0.12915329570E+02  0.12068371057E+02  0.72461572595E+02  0.70000002996E+02 0.  0.
        -12    1    1    2    0    0  0.61828606246E+01 -0.12915329570E+02 -0.12068371057E+02  0.18726427405E+02  0.00000000000E+00 0.  1.
         11    1    3    3    0    0  0.11229212686E+02  0.12214669996E+02  0.65991458004E-01  0.16592098596E+02  0.51100000000E-03 0. -1.
        -11    1    3    3    0    0 -0.30240578458E+02  0.14953670145E+02  0.97722463712E+00  0.33749960067E+02  0.51100000000E-03 0.  1.
         12    1    3    3    0    0  0.12828505147E+02 -0.14253010572E+02  0.11025154962E+02  0.22119513932E+02  0.00000000000E+00 0. -1.
</event>
<event>
 7    1  0.3568800E-013  0.7246154E+02  0.7816164E-02  0.1226708E+00
        -11   -1    0    0    0    0  0.00000000000E+00  0.00000000000E+00  0.45593999997E+02  0.45594000000E+02  0.51100000000E-03 0.  1.
         11   -1    0    0    0    0 -0.00000000000E+00 -0.00000000000E+00 -0.45593999997E+02  0.45594000000E+02  0.51100000000E-03 0. -1.
    9900012    2    1    2    0    0  0.15221403656E+02 -0.67552186034E+01 -0.85648299231E+01  0.72461536926E+02  0.69999956532E+02 0.  0.
        -12    1    1    2    0    0 -0.15221403656E+02  0.67552186034E+01  0.85648299231E+01  0.18726463074E+02  0.00000000000E+00 0.  1.
         11    1    3    3    0    0  0.13709705047E+02 -0.70960587020E+01  0.28715379171E+02  0.32601887411E+02  0.51100000000E-03 0. -1.
        -11    1    3    3    0    0  0.48845964227E+00  0.38242521257E+01 -0.19080283639E+01  0.43016356937E+01  0.51100000000E-03 0.  1.
        -12    1    3    3    0    0  0.10232389661E+01 -0.34834120271E+01 -0.35372180730E+02  0.35558013821E+02  0.00000000000E+00 0.  1.
</event>
<event>
 7    1  0.3568800E-013  0.7246169E+02  0.7816164E-02  0.1226708E+00
        -11   -1    0    0    0    0  0.00000000000E+00  0.00000000000E+00  0.45593999997E+02  0.45594000000E+02  0.51100000000E-03 0.  1.
         11   -1    0    0    0    0 -0.00000000000E+00 -0.00000000000E+00 -0.45593999997E+02  0.45594000000E+02  0.51100000000E-03 0. -1.
    9900012    2    1    2    0    0 -0.13950813976E+02  0.96986018031E+01 -0.78731668945E+01  0.72461685774E+02  0.70000150434E+02 0.  0.
        -12    1    1    2    0    0  0.13950813976E+02 -0.96986018031E+01  0.78731668945E+01  0.18726314226E+02  0.00000000000E+00 0.  1.
         11    1    3    3    0    0 -0.28036989361E+02  0.73092887371E+01 -0.19724682692E+01  0.29041162264E+02  0.51100000000E-03 0. -1.
        -11    1    3    3    0    0 -0.13487931263E+02  0.66593392410E+01 -0.86639846462E+00  0.15067240472E+02  0.51100000000E-03 0.  1.
        -12    1    3    3    0    0  0.27574106648E+02 -0.42700261750E+01 -0.50343001607E+01  0.28353283039E+02  0.00000000000E+00 0.  1.
</event>
<event>
 7    1  0.3568800E-013  0.7246156E+02  0.7816164E-02  0.1226708E+00
        -11   -1    0    0    0    0  0.00000000000E+00  0.00000000000E+00  0.45593999997E+02  0.45594000000E+02  0.51100000000E-03 0.  1.
         11   -1    0    0    0    0 -0.00000000000E+00 -0.00000000000E+00 -0.45593999997E+02  0.45594000000E+02  0.51100000000E-03 0. -1.
    9900012    2    1    2    0    0  0.13822708358E+02 -0.65804990700E+01  0.10784683587E+02  0.72461557881E+02  0.69999983830E+02 0.  0.
        -12    1    1    2    0    0 -0.13822708358E+02  0.65804990700E+01 -0.10784683587E+02  0.18726442119E+02  0.00000000000E+00 0.  1.
         11    1    3    3    0    0  0.13485580929E+02 -0.14616222191E+02  0.18211196090E+02  0.26965580050E+02  0.51100000000E-03 0. -1.
        -11    1    3    3    0    0 -0.12772826910E+01 -0.12816344775E+02  0.11516722409E+02  0.17277877178E+02  0.51100000000E-03 0.  1.
         12    1    3    3    0    0  0.16144101198E+01  0.20852067897E+02 -0.18943234911E+02  0.28218100654E+02  0.00000000000E+00 0. -1.
</event>
<event>
 7    1  0.3568800E-013  0.7246154E+02  0.7816164E-02  0.1226708E+00
        -11   -1    0    0    0    0  0.00000000000E+00  0.00000000000E+00  0.45593999997E+02  0.45594000000E+02  0.51100000000E-03 0. -1.
         11   -1    0    0    0    0 -0.00000000000E+00 -0.00000000000E+00 -0.45593999997E+02  0.45594000000E+02  0.51100000000E-03 0.  1.
    9900012    2    1    2    0    0  0.18441137844E+02 -0.35527225668E+00  0.32370553634E+01  0.72461539822E+02  0.69999960304E+02 0.  0.
        -12    1    1    2    0    0 -0.18441137844E+02  0.35527225668E+00 -0.32370553634E+01  0.18726460178E+02  0.00000000000E+00 0.  1.
         11    1    3    3    0    0 -0.33675247747E+01  0.64924434537E+01  0.41207380262E+01  0.83947916740E+01  0.51100000000E-03 0. -1.
        -11    1    3    3    0    0 -0.78207861568E+01 -0.20414100758E+02  0.16259836937E+02  0.27244861962E+02  0.51100000000E-03 0.  1.
         12    1    3    3    0    0  0.29629448776E+02  0.13566385048E+02 -0.17143519600E+02  0.36821886186E+02  0.00000000000E+00 0. -1.
</event>
<event>
 7    1  0.3568800E-013  0.7246161E+02  0.7816164E-02  0.1226708E+00
        -11   -1    0    0    0    0  0.00000000000E+00  0.00000000000E+00  0.45593999997E+02  0.45594000000E+02  0.51100000000E-03 0.  1.
         11   -1    0    0    0    0 -0.00000000000E+00 -0.00000000000E+00 -0.45593999997E+02  0.45594000000E+02  0.51100000000E-03 0. -1.
    9900012    2    1    2    0    0  0.15702741825E+02 -0.56764161425E+01  0.84781972529E+01  0.72461611408E+02  0.70000053558E+02 0.  0.
        -12    1    1    2    0    0 -0.15702741825E+02  0.56764161425E+01 -0.84781972529E+01  0.18726388592E+02  0.00000000000E+00 0.  1.
         11    1    3    3    0    0  0.35138949199E+02 -0.14912450443E+02  0.89133263818E+01  0.39199162191E+02  0.51100000000E-03 0. -1.
        -11    1    3    3    0    0 -0.93143694171E+01 -0.73004633214E+01  0.54097171218E+01  0.13012274280E+02  0.51100000000E-03 0.  1.
        -12    1    3    3    0    0 -0.10121837957E+02  0.16536497622E+02 -0.58448462506E+01  0.20250174936E+02  0.00000000000E+00 0.  1.
</event>
<event>
 7    1  0.3568800E-013  0.7246157E+02  0.7816164E-02  0.1226708E+00
        -11   -1    0    0    0    0  0.00000000000E+00  0.00000000000E+00  0.45593999997E+02  0.45594000000E+02  0.51100000000E-03 0.  1.
         11   -1    0    0    0    0 -0.00000000000E+00 -0.00000000000E+00 -0.45593999997E+02  0.45594000000E+02  0.51100000000E-03 0. -1.
    9900012    2    1    2    0    0 -0.10544345071E+02  0.14405214448E+02 -0.56555905345E+01  0.72461571602E+02  0.70000001703E+02 0.  0.
        -12    1    1    2    0    0  0.10544345071E+02 -0.14405214448E+02  0.56555905345E+01  0.18726428398E+02  0.00000000000E+00 0.  1.
         11    1    3    3    0    0  0.56363398690E+01 -0.17882704442E+02  0.30819802676E+01  0.19001527515E+02  0.51100000000E-03 0. -1.
        -11    1    3    3    0    0 -0.20001014295E+02  0.49638781486E+01  0.69179010666E+01  0.21737939519E+02  0.51100000000E-03 0.  1.
        -12    1    3    3    0    0  0.38203293548E+01  0.27324040741E+02 -0.15655471869E+02  0.31722104568E+02  0.00000000000E+00 0.  1.
</event>
<event>
 7    1  0.3568800E-013  0.7246154E+02  0.7816164E-02  0.1226708E+00
        -11   -1    0    0    0    0  0.00000000000E+00  0.00000000000E+00  0.45593999997E+02  0.45594000000E+02  0.51100000000E-03 0.  1.
         11   -1    0    0    0    0 -0.00000000000E+00 -0.00000000000E+00 -0.45593999997E+02  0.45594000000E+02  0.51100000000E-03 0. -1.
    9900012    2    1    2    0    0  0.12136531259E+02  0.10919135344E+01 -0.14219448810E+02  0.72461537691E+02  0.69999957528E+02 0.  0.
        -12    1    1    2    0    0 -0.12136531259E+02 -0.10919135344E+01  0.14219448810E+02  0.18726462309E+02  0.00000000000E+00 0.  1.
         11    1    3    3    0    0 -0.10031618507E+02  0.14630687689E+02 -0.16066647583E+02  0.23933816180E+02  0.51100000000E-03 0. -1.
        -11    1    3    3    0    0 -0.73071126094E+01  0.33956313115E+01  0.10705441871E+02  0.13398906396E+02  0.51100000000E-03 0.  1.
         12    1    3    3    0    0  0.29475262375E+02 -0.16934405466E+02 -0.88582430985E+01  0.35128815115E+02  0.00000000000E+00 0. -1.
</event>
<event>
 7    1  0.3568800E-013  0.7246153E+02  0.7816164E-02  0.1226708E+00
        -11   -1    0    0    0    0  0.00000000000E+00  0.00000000000E+00  0.45593999997E+02  0.45594000000E+02  0.51100000000E-03 0. -1.
         11   -1    0    0    0    0 -0.00000000000E+00 -0.00000000000E+00 -0.45593999997E+02  0.45594000000E+02  0.51100000000E-03 0.  1.
    9900012    2    1    2    0    0 -0.72464198069E+01  0.16691218226E+02 -0.44241574592E+01  0.72461533832E+02  0.69999952502E+02 0.  0.
        -12    1    1    2    0    0  0.72464198069E+01 -0.16691218226E+02  0.44241574592E+01  0.18726466168E+02  0.00000000000E+00 0.  1.
         11    1    3    3    0    0 -0.19910582140E+02  0.24714851684E+02 -0.35779119264E+01  0.31938325394E+02  0.51100000000E-03 0. -1.
        -11    1    3    3    0    0 -0.10800851180E+02 -0.10961691546E+02  0.49676352973E+01  0.16170790595E+02  0.51100000000E-03 0.  1.
        -12    1    3    3    0    0  0.23465013514E+02  0.29380580877E+01 -0.58138808301E+01  0.24352417844E+02  0.00000000000E+00 0.  1.
</event>
<event>
 7    1  0.3568800E-013  0.7246158E+02  0.7816164E-02  0.1226708E+00
        -11   -1    0    0    0    0  0.00000000000E+00  0.00000000000E+00  0.45593999997E+02  0.45594000000E+02  0.51100000000E-03 0. -1.
         11   -1    0    0    0    0 -0.00000000000E+00 -0.00000000000E+00 -0.45593999997E+02  0.45594000000E+02  0.51100000000E-03 0.  1.
    9900012    2    1    2    0    0  0.14838643004E+02 -0.88037446948E+01  0.72792623735E+01  0.72461577289E+02  0.70000009112E+02 0.  0.
        -12    1    1    2    0    0 -0.14838643004E+02  0.88037446948E+01 -0.72792623735E+01  0.18726422711E+02  0.00000000000E+00 0.  1.
         11    1    3    3    0    0  0.13538576418E+02 -0.83583595178E-01 -0.99768520981E+01  0.16817776776E+02  0.51100000000E-03 0. -1.
        -11    1    3    3    0    0  0.19716092651E+01 -0.25991607349E+02  0.25525581153E+02  0.36482957517E+02  0.51100000000E-03 0.  1.
         12    1    3    3    0    0 -0.67154267914E+00  0.17271446250E+02 -0.82694666815E+01  0.19160842996E+02  0.00000000000E+00 0. -1.
</event>
<event>
 7    1  0.3568800E-013  0.7246168E+02  0.7816164E-02  0.1226708E+00
        -11   -1    0    0    0    0  0.00000000000E+00  0.00000000000E+00  0.45593999997E+02  0.45594000000E+02  0.51100000000E-03 0. -1.
         11   -1    0    0    0    0 -0.00000000000E+00 -0.00000000000E+00 -0.45593999997E+02  0.45594000000E+02  0.51100000000E-03 0.  1.
    9900012    2    1    2    0    0  0.65234282406E+01 -0.17452907520E+02  0.18751172139E+01  0.72461677310E+02  0.70000139408E+02 0.  0.
        -12    1    1    2    0    0 -0.65234282406E+01  0.17452907520E+02 -0.18751172139E+01  0.18726322690E+02  0.00000000000E+00 0.  1.
         11    1    3    3    0    0 -0.33716129567E+01 -0.23505003032E+01 -0.19275040283E+02  0.19708368877E+02  0.51100000000E-03 0. -1.
        -11    1    3    3    0    0 -0.52179687652E+01 -0.21833394628E+02 -0.38486868496E+01  0.22775792187E+02  0.51100000000E-03 0.  1.
         12    1    3    3    0    0  0.15113009963E+02  0.67309874110E+01  0.24998844347E+02  0.29977516247E+02  0.00000000000E+00 0. -1.
</event>
<event>
 7    1  0.3568800E-013  0.7246154E+02  0.7816164E-02  0.1226708E+00
        -11   -1    0    0    0    0  0.00000000000E+00  0.00000000000E+00  0.45593999997E+02  0.45594000000E+02  0.51100000000E-03 0. -1.
         11   -1    0    0    0    0 -0.00000000000E+00 -0.00000000000E+00 -0.45593999997E+02  0.45594000000E+02  0.51100000000E-03 0.  1.
    9900012    2    1    2    0    0  0.13218820326E+02 -0.11563768301E+02 -0.64978678163E+01  0.72461541865E+02  0.69999962965E+02 0.  0.
        -12    1    1    2    0    0 -0.13218820326E+02  0.11563768301E+02  0.64978678163E+01  0.18726458135E+02  0.00000000000E+00 0.  1.
         11    1    3    3    0    0  0.18178497792E+02 -0.19805594850E+02  0.11431995443E+02  0.29213180063E+02  0.51100000000E-03 0. -1.
        -11    1    3    3    0    0 -0.66190310859E+01 -0.12051097758E+02  0.29742652217E+01  0.14067223733E+02  0.51100000000E-03 0.  1.
        -12    1    3    3    0    0  0.16593536202E+01  0.20292924308E+02 -0.20904128481E+02  0.29181138068E+02  0.00000000000E+00 0.  1.
</event>
<event>
 7    1  0.3568800E-013  0.7246156E+02  0.7816164E-02  0.1226708E+00
        -11   -1    0    0    0    0  0.00000000000E+00  0.00000000000E+00  0.45593999997E+02  0.45594000000E+02  0.51100000000E-03 0.  1.
         11   -1    0    0    0    0 -0.00000000000E+00 -0.00000000000E+00 -0.45593999997E+02  0.45594000000E+02  0.51100000000E-03 0. -1.
    9900012    2    1    2    0    0 -0.63499834638E+01  0.13476730302E+02  0.11346143002E+02  0.72461561186E+02  0.69999988135E+02 0.  0.
        -12    1    1    2    0    0  0.63499834638E+01 -0.13476730302E+02 -0.11346143002E+02  0.18726438814E+02  0.00000000000E+00 0.  1.
         11    1    3    3    0    0  0.84400670450E+01 -0.24260063534E+02 -0.12677352453E+01  0.25717553681E+02  0.51100000000E-03 0. -1.
        -11    1    3    3    0    0 -0.15148986890E+01  0.21409358929E+01 -0.43961630395E+01  0.51190599007E+01  0.51100000000E-03 0.  1.
        -12    1    3    3    0    0 -0.13275151820E+02  0.35595857943E+02  0.17010041287E+02  0.41624947605E+02  0.00000000000E+00 0.  1.
</event>
<event>
 7    1  0.3568800E-013  0.7246153E+02  0.7816164E-02  0.1226708E+00
        -11   -1    0    0    0    0  0.00000000000E+00  0.00000000000E+00  0.45593999997E+02  0.45594000000E+02  0.51100000000E-03 0.  1.
         11   -1    0    0    0    0 -0.00000000000E+00 -0.00000000000E+00 -0.45593999997E+02  0.45594000000E+02  0.51100000000E-03 0. -1.
    9900012    2    1    2    0    0 -0.94858595660E+00 -0.17362227717E+02  0.69522472853E+01  0.72461534532E+02  0.69999953413E+02 0.  0.
        -12    1    1    2    0    0  0.94858595660E+00  0.17362227717E+02 -0.69522472853E+01  0.18726465468E+02  0.00000000000E+00 0.  1.
         11    1    3    3    0    0 -0.13061747171E+02 -0.10120733703E+02  0.16821064933E+02  0.23579370551E+02  0.51100000000E-03 0. -1.
        -11    1    3    3    0    0  0.21489738953E+01 -0.24865378765E+02  0.26187403915E+01  0.25095078232E+02  0.51100000000E-03 0.  1.
         12    1    3    3    0    0  0.99641873194E+01  0.17623884752E+02 -0.12487558039E+02  0.23787085749E+02  0.00000000000E+00 0. -1.
</event>
<event>
 7    1  0.3568800E-013  0.7246163E+02  0.7816164E-02  0.1226708E+00
        -11   -1    0    0    0    0  0.00000000000E+00  0.00000000000E+00  0.45593999997E+02  0.45594000000E+02  0.51100000000E-03 0. -1.
         11   -1    0    0    0    0 -0.00000000000E+00 -0.00000000000E+00 -0.45593999997E+02  0.45594000000E+02  0.51100000000E-03 0.  1.
    9900012    2    1    2    0    0  0.53820798405E+01 -0.13753983661E+02  0.11512518091E+02  0.72461630283E+02  0.70000078147E+02 0.  0.
        -12    1    1    2    0    0 -0.53820798405E+01  0.13753983661E+02 -0.11512518091E+02  0.18726369717E+02  0.00000000000E+00 0.  1.
         11    1    3    3    0    0  0.34133571512E+01 -0.19823896778E+02 -0.10553753286E+01  0.20143279471E+02  0.51100000000E-03 0. -1.
        -11    1    3    3    0    0 -0.79319852099E+01 -0.38198477644E+01 -0.17257362985E+02  0.19373285828E+02  0.51100000000E-03 0.  1.
         12    1    3    3    0    0  0.99007078992E+01  0.98897608810E+01  0.29825256405E+02  0.32945064984E+02  0.00000000000E+00 0. -1.
</event>
<event>
 7    1  0.3568800E-013  0.7246148E+02  0.7816164E-02  0.1226708E+00
        -11   -1    0    0    0    0  0.00000000000E+00  0.00000000000E+00  0.45593999997E+02  0.45594000000E+02  0.51100000000E-03 0.  1.
         11   -1    0    0    0    0 -0.00000000000E+00 -0.00000000000E+00 -0.45593999997E+02  0.45594000000E+02  0.51100000000E-03 0. -1.
    9900012    2    1    2    0    0  0.93476962120E+01  0.24446861512E+01 -0.16041404904E+02  0.72461479070E+02  0.69999881164E+02 0.  0.
        -12    1    1    2    0    0 -0.93476962120E+01 -0.24446861512E+01  0.16041404904E+02  0.18726520930E+02  0.00000000000E+00 0.  1.
         11    1    3    3    0    0  0.12462949475E+02 -0.21137367524E+02 -0.11427233228E+02  0.27068340825E+02  0.51100000000E-03 0. -1.
        -11    1    3    3    0    0 -0.27910211810E+01 -0.10332339750E+02 -0.41353840580E+01  0.11473815648E+02  0.51100000000E-03 0.  1.
        -12    1    3    3    0    0 -0.32423208238E+00  0.33914393426E+02 -0.47878761740E+00  0.33919322598E+02  0.00000000000E+00 0.  1.
</event>
<event>
 7    1  0.3568800E-013  0.7246154E+02  0.7816164E-02  0.1226708E+00
        -11   -1    0    0    0    0  0.00000000000E+00  0.00000000000E+00  0.45593999997E+02  0.45594000000E+02  0.51100000000E-03 0.  1.
         11   -1    0    0    0    0 -0.00000000000E+00 -0.00000000000E+00 -0.45593999997E+02  0.45594000000E+02  0.51100000000E-03 0. -1.
    9900012    2    1    2    0    0  0.14637315614E+02 -0.10905950077E+02 -0.41820428789E+01  0.72461541763E+02  0.69999962833E+02 0.  0.
        -12    1    1    2    0    0 -0.14637315614E+02  0.10905950077E+02  0.41820428789E+01  0.18726458237E+02  0.00000000000E+00 0.  1.
         11    1    3    3    0    0  0.31027311848E+02 -0.44359099710E+01 -0.50280434874E+01  0.31743544216E+02  0.51100000000E-03 0. -1.
        -11    1    3    3    0    0 -0.42293652493E+01  0.15005947748E+02  0.32351518651E+01  0.15922694686E+02  0.51100000000E-03 0.  1.
        -12    1    3    3    0    0 -0.12160630985E+02 -0.21475987854E+02 -0.23891512566E+01  0.24795302861E+02  0.00000000000E+00 0.  1.
</event>
<event>
 7    1  0.3568800E-013  0.7246153E+02  0.7816164E-02  0.1226708E+00
        -11   -1    0    0    0    0  0.00000000000E+00  0.00000000000E+00  0.45593999997E+02  0.45594000000E+02  0.51100000000E-03 0.  1.
         11   -1    0    0    0    0 -0.00000000000E+00 -0.00000000000E+00 -0.45593999997E+02  0.45594000000E+02  0.51100000000E-03 0. -1.
    9900012    2    1    2    0    0  0.68963478128E+00 -0.64284099242E+01 -0.17574999223E+02  0.72461530820E+02  0.69999948577E+02 0.  0.
        -12    1    1    2    0    0 -0.68963478128E+00  0.64284099242E+01  0.17574999223E+02  0.18726469180E+02  0.00000000000E+00 0.  1.
         11    1    3    3    0    0  0.10877044186E+02  0.15761243587E+02  0.11433664260E+02  0.22303711985E+02  0.51100000000E-03 0.  1.
        -11    1    3    3    0    0  0.86125875100E+01 -0.86055019013E+01 -0.23272594999E+02  0.26264900625E+02  0.51100000000E-03 0. -1.
        -12    1    3    3    0    0 -0.18799996914E+02 -0.13584151610E+02 -0.57360684841E+01  0.23892918210E+02  0.00000000000E+00 0.  1.
</event>
<event>
 7    1  0.3568800E-013  0.7246155E+02  0.7816164E-02  0.1226708E+00
        -11   -1    0    0    0    0  0.00000000000E+00  0.00000000000E+00  0.45593999997E+02  0.45594000000E+02  0.51100000000E-03 0.  1.
         11   -1    0    0    0    0 -0.00000000000E+00 -0.00000000000E+00 -0.45593999997E+02  0.45594000000E+02  0.51100000000E-03 0. -1.
    9900012    2    1    2    0    0  0.98787734335E+01 -0.10339328463E+02 -0.12090827111E+02  0.72461548712E+02  0.69999971885E+02 0.  0.
        -12    1    1    2    0    0 -0.98787734335E+01  0.10339328463E+02  0.12090827111E+02  0.18726451288E+02  0.00000000000E+00 0.  1.
         11    1    3    3    0    0  0.51617612728E+01  0.96897345179E+01 -0.29859954101E+02  0.31814330005E+02  0.51100000000E-03 0. -1.
        -11    1    3    3    0    0 -0.84983149329E+01 -0.83537280948E+00  0.14892592904E+02  0.17167076865E+02  0.51100000000E-03 0.  1.
        -12    1    3    3    0    0  0.13215327094E+02 -0.19193690171E+02  0.28765340861E+01  0.23480141842E+02  0.00000000000E+00 0.  1.
</event>
<event>
 7    1  0.3568800E-013  0.7246157E+02  0.7816164E-02  0.1226708E+00
        -11   -1    0    0    0    0  0.00000000000E+00  0.00000000000E+00  0.45593999997E+02  0.45594000000E+02  0.51100000000E-03 0.  1.
         11   -1    0    0    0    0 -0.00000000000E+00 -0.00000000000E+00 -0.45593999997E+02  0.45594000000E+02  0.51100000000E-03 0. -1.
    9900012    2    1    2    0    0 -0.14260046869E+02  0.12136192115E+02  0.20754280292E+00  0.72461570287E+02  0.69999999991E+02 0.  0.
        -12    1    1    2    0    0  0.14260046869E+02 -0.12136192115E+02 -0.20754280292E+00  0.18726429713E+02  0.00000000000E+00 0.  1.
         11    1    3    3    0    0 -0.83594688066E+01  0.90941439333E+01  0.14115258372E+02  0.18756990478E+02  0.51100000000E-03 0. -1.
        -11    1    3    3    0    0 -0.17491439296E+01  0.18236376908E+02  0.13042818592E+02  0.22488665240E+02  0.51100000000E-03 0.  1.
         12    1    3    3    0    0 -0.41514341331E+01 -0.15194328726E+02 -0.26950534162E+02  0.31215914569E+02  0.00000000000E+00 0. -1.
</event>
<event>
 7    1  0.3568800E-013  0.7246152E+02  0.7816164E-02  0.1226708E+00
        -11   -1    0    0    0    0  0.00000000000E+00  0.00000000000E+00  0.45593999997E+02  0.45594000000E+02  0.51100000000E-03 0. -1.
         11   -1    0    0    0    0 -0.00000000000E+00 -0.00000000000E+00 -0.45593999997E+02  0.45594000000E+02  0.51100000000E-03 0.  1.
    9900012    2    1    2    0    0 -0.11531830902E+02 -0.13988067289E+02  0.46937955138E+01  0.72461524978E+02  0.69999940967E+02 0.  0.
        -12    1    1    2    0    0  0.11531830902E+02  0.13988067289E+02 -0.46937955138E+01  0.18726475022E+02  0.00000000000E+00 0.  1.
         11    1    3    3    0    0  0.19075045391E+02  0.67987123683E+01  0.92927133358E+00  0.20271738751E+02  0.51100000000E-03 0. -1.
        -11    1    3    3    0    0  0.16882843224E+01  0.69536365555E+01 -0.49922047867E+01  0.87249913577E+01  0.51100000000E-03 0.  1.
        -12    1    3    3    0    0 -0.32295160615E+02 -0.27740416213E+02  0.87567289669E+01  0.43464794869E+02  0.00000000000E+00 0.  1.
</event>
<event>
 7    1  0.3568800E-013  0.7246155E+02  0.7816164E-02  0.1226708E+00
        -11   -1    0    0    0    0  0.00000000000E+00  0.00000000000E+00  0.45593999997E+02  0.45594000000E+02  0.51100000000E-03 0.  1.
         11   -1    0    0    0    0 -0.00000000000E+00 -0.00000000000E+00 -0.45593999997E+02  0.45594000000E+02  0.51100000000E-03 0. -1.
    9900012    2    1    2    0    0 -0.45505735185E+01 -0.60201111582E+01 -0.17138566672E+02  0.72461550115E+02  0.69999973713E+02 0.  0.
        -12    1    1    2    0    0  0.45505735185E+01  0.60201111582E+01  0.17138566672E+02  0.18726449885E+02  0.00000000000E+00 0.  1.
         11    1    3    3    0    0  0.82615993334E+00 -0.12268195570E+02 -0.33496449171E+02  0.35681974022E+02  0.51100000000E-03 0. -1.
        -11    1    3    3    0    0  0.41723728456E+01 -0.93103052323E+01 -0.25302266890E+01  0.10511542515E+02  0.51100000000E-03 0.  1.
        -12    1    3    3    0    0 -0.95491062975E+01  0.15558389644E+02  0.18888109188E+02  0.26268033578E+02  0.00000000000E+00 0.  1.
</event>
<event>
 7    1  0.3568800E-013  0.7246154E+02  0.7816164E-02  0.1226708E+00
        -11   -1    0    0    0    0  0.00000000000E+00  0.00000000000E+00  0.45593999997E+02  0.45594000000E+02  0.51100000000E-03 0. -1.
         11   -1    0    0    0    0 -0.00000000000E+00 -0.00000000000E+00 -0.45593999997E+02  0.45594000000E+02  0.51100000000E-03 0.  1.
    9900012    2    1    2    0    0  0.13146143448E+02 -0.81865888220E+01 -0.10528010933E+02  0.72461539088E+02  0.69999959348E+02 0.  0.
        -12    1    1    2    0    0 -0.13146143448E+02  0.81865888220E+01  0.10528010933E+02  0.18726460912E+02  0.00000000000E+00 0.  1.
         11    1    3    3    0    0  0.48474427771E+01  0.29794332813E+02 -0.22155095229E+01  0.30267283525E+02  0.51100000000E-03 0. -1.
        -11    1    3    3    0    0  0.76780269467E+01 -0.11391496619E+02  0.15570149472E+01  0.13825432681E+02  0.51100000000E-03 0.  1.
        -12    1    3    3    0    0  0.62067372382E+00 -0.26589425016E+02 -0.98695163577E+01  0.28368822882E+02  0.00000000000E+00 0.  1.
</event>
<event>
 7    1  0.3568800E-013  0.7246156E+02  0.7816164E-02  0.1226708E+00
        -11   -1    0    0    0    0  0.00000000000E+00  0.00000000000E+00  0.45593999997E+02  0.45594000000E+02  0.51100000000E-03 0.  1.
         11   -1    0    0    0    0 -0.00000000000E+00 -0.00000000000E+00 -0.45593999997E+02  0.45594000000E+02  0.51100000000E-03 0. -1.
    9900012    2    1    2    0    0 -0.10260286493E+02 -0.42209101280E+01 -0.15086081680E+02  0.72461563562E+02  0.69999991229E+02 0.  0.
        -12    1    1    2    0    0  0.10260286493E+02  0.42209101280E+01  0.15086081680E+02  0.18726436438E+02  0.00000000000E+00 0.  1.
         11    1    3    3    0    0 -0.76333446449E+01  0.17061866675E+02 -0.39397218481E+01  0.19102268279E+02  0.51100000000E-03 0. -1.
        -11    1    3    3    0    0 -0.23459287001E+02 -0.24740128284E+01 -0.88635016045E+01  0.25199614025E+02  0.51100000000E-03 0.  1.
        -12    1    3    3    0    0  0.20832345153E+02 -0.18808763974E+02 -0.22828582276E+01  0.28159681257E+02  0.00000000000E+00 0.  1.
</event>
<event>
 7    1  0.3568800E-013  0.7246147E+02  0.7816164E-02  0.1226708E+00
        -11   -1    0    0    0    0  0.00000000000E+00  0.00000000000E+00  0.45593999997E+02  0.45594000000E+02  0.51100000000E-03 0. -1.
         11   -1    0    0    0    0 -0.00000000000E+00 -0.00000000000E+00 -0.45593999997E+02  0.45594000000E+02  0.51100000000E-03 0.  1.
    9900012    2    1    2    0    0 -0.15567411342E+02  0.92774535924E+01  0.47188285581E+01  0.72461473787E+02  0.69999874281E+02 0.  0.
        -12    1    1    2    0    0  0.15567411342E+02 -0.92774535924E+01 -0.47188285581E+01  0.18726526213E+02  0.00000000000E+00 0.  1.
         11    1    3    3    0    0  0.24257286991E+01  0.10483451230E+02  0.87253829020E+01  0.13853491129E+02  0.51100000000E-03 0. -1.
        -11    1    3    3    0    0 -0.32516128856E+01  0.26562849433E+02  0.96310289320E+00  0.26778452602E+02  0.51100000000E-03 0.  1.
         12    1    3    3    0    0 -0.14741527156E+02 -0.27768847070E+02 -0.49696572370E+01  0.31829530055E+02  0.00000000000E+00 0. -1.
</event>
<event>
 7    1  0.3568800E-013  0.7246154E+02  0.7816164E-02  0.1226708E+00
        -11   -1    0    0    0    0  0.00000000000E+00  0.00000000000E+00  0.45593999997E+02  0.45594000000E+02  0.51100000000E-03 0.  1.
         11   -1    0    0    0    0 -0.00000000000E+00 -0.00000000000E+00 -0.45593999997E+02  0.45594000000E+02  0.51100000000E-03 0. -1.
    9900012    2    1    2    0    0 -0.18723271042E+02 -0.84899024825E-01  0.33489164503E+00  0.72461541745E+02  0.69999962809E+02 0.  0.
        -12    1    1    2    0    0  0.18723271042E+02  0.84899024825E-01 -0.33489164503E+00  0.18726458255E+02  0.00000000000E+00 0.  1.
         11    1    3    3    0    0  0.17232457935E+02  0.92530074323E+01  0.68900928822E+01  0.20737626026E+02  0.51100000000E-03 0. -1.
        -11    1    3    3    0    0 -0.85740285300E+00  0.80659030333E+01  0.65372724395E+01  0.10417766680E+02  0.51100000000E-03 0.  1.
         12    1    3    3    0    0 -0.35098326124E+02 -0.17403809490E+02 -0.13092473677E+02  0.41306149039E+02  0.00000000000E+00 0. -1.
</event>
<event>
 7    1  0.3568800E-013  0.7246133E+02  0.7816164E-02  0.1226709E+00
        -11   -1    0    0    0    0  0.00000000000E+00  0.00000000000E+00  0.45593999997E+02  0.45594000000E+02  0.51100000000E-03 0.  1.
         11   -1    0    0    0    0 -0.00000000000E+00 -0.00000000000E+00 -0.45593999997E+02  0.45594000000E+02  0.51100000000E-03 0. -1.
    9900012    2    1    2    0    0 -0.14450821723E+01 -0.47895555570E+01 -0.18046051848E+02  0.72461332058E+02  0.69999689652E+02 0.  0.
        -12    1    1    2    0    0  0.14450821723E+01  0.47895555570E+01  0.18046051848E+02  0.18726667942E+02  0.00000000000E+00 0.  1.
         11    1    3    3    0    0  0.72071125299E+01  0.31465671613E+01 -0.61294720149E+01  0.99706460854E+01  0.51100000000E-03 0. -1.
        -11    1    3    3    0    0  0.89380088901E+01 -0.22652098370E+02  0.13834766241E+02  0.28007254786E+02  0.51100000000E-03 0.  1.
         12    1    3    3    0    0 -0.17590203592E+02  0.14715975651E+02 -0.25751346074E+02  0.34483431186E+02  0.00000000000E+00 0. -1.
</event>
<event>
 7    1  0.3568800E-013  0.7246141E+02  0.7816164E-02  0.1226708E+00
        -11   -1    0    0    0    0  0.00000000000E+00  0.00000000000E+00  0.45593999997E+02  0.45594000000E+02  0.51100000000E-03 0. -1.
         11   -1    0    0    0    0 -0.00000000000E+00 -0.00000000000E+00 -0.45593999997E+02  0.45594000000E+02  0.51100000000E-03 0.  1.
    9900012    2    1    2    0    0  0.67962873547E+01  0.34971579229E+01  0.17095775780E+02  0.72461409684E+02  0.69999790774E+02 0.  0.
        -12    1    1    2    0    0 -0.67962873547E+01 -0.34971579229E+01 -0.17095775780E+02  0.18726590316E+02  0.00000000000E+00 0.  1.
         11    1    3    3    0    0 -0.15957522715E+02  0.11892794322E+02  0.16645718991E+02  0.25945347347E+02  0.51100000000E-03 0. -1.
        -11    1    3    3    0    0 -0.78733074561E+01 -0.11641253365E+02  0.58946550913E+01  0.15239905154E+02  0.51100000000E-03 0.  1.
        -12    1    3    3    0    0  0.30627117526E+02  0.32456169654E+01 -0.54445983018E+01  0.31276157182E+02  0.00000000000E+00 0.  1.
</event>
<event>
 7    1  0.3568800E-013  0.7246087E+02  0.7816164E-02  0.1226710E+00
        -11   -1    0    0    0    0  0.00000000000E+00  0.00000000000E+00  0.45593999997E+02  0.45594000000E+02  0.51100000000E-03 0. -1.
         11   -1    0    0    0    0 -0.00000000000E+00 -0.00000000000E+00 -0.45593999997E+02  0.45594000000E+02  0.51100000000E-03 0.  1.
    9900012    2    1    2    0    0  0.16784333349E+02 -0.82829572150E+01 -0.61966668906E+00  0.72460874941E+02  0.69999094167E+02 0.  0.
        -12    1    1    2    0    0 -0.16784333349E+02  0.82829572150E+01  0.61966668906E+00  0.18727125059E+02  0.00000000000E+00 0.  1.
         11    1    3    3    0    0 -0.18098999317E+01 -0.14710672702E+01  0.37374508339E+01  0.44054869961E+01  0.51100000000E-03 0. -1.
        -11    1    3    3    0    0  0.78400880842E+01 -0.34988792021E+02  0.56079903267E+01  0.36292314668E+02  0.51100000000E-03 0.  1.
         12    1    3    3    0    0  0.10754145196E+02  0.28176902076E+02 -0.99651078496E+01  0.31763073276E+02  0.00000000000E+00 0. -1.
</event>
<event>
 7    1  0.3568800E-013  0.7246158E+02  0.7816164E-02  0.1226708E+00
        -11   -1    0    0    0    0  0.00000000000E+00  0.00000000000E+00  0.45593999997E+02  0.45594000000E+02  0.51100000000E-03 0.  1.
         11   -1    0    0    0    0 -0.00000000000E+00 -0.00000000000E+00 -0.45593999997E+02  0.45594000000E+02  0.51100000000E-03 0. -1.
    9900012    2    1    2    0    0 -0.15196468156E+02  0.52625050308E+01 -0.95943824871E+01  0.72461580724E+02  0.70000013586E+02 0.  0.
        -12    1    1    2    0    0  0.15196468156E+02 -0.52625050308E+01  0.95943824871E+01  0.18726419276E+02  0.00000000000E+00 0.  1.
         11    1    3    3    0    0 -0.20009741893E+02  0.11390726808E-01 -0.16637860168E+02  0.26023226003E+02  0.51100000000E-03 0. -1.
        -11    1    3    3    0    0 -0.94549585737E+01  0.16535492381E+02 -0.99975972982E+01  0.21512105939E+02  0.51100000000E-03 0.  1.
        -12    1    3    3    0    0  0.14268232311E+02 -0.11284378077E+02  0.17041074979E+02  0.24926248782E+02  0.00000000000E+00 0.  1.
</event>
<event>
 7    1  0.3568800E-013  0.7246157E+02  0.7816164E-02  0.1226708E+00
        -11   -1    0    0    0    0  0.00000000000E+00  0.00000000000E+00  0.45593999997E+02  0.45594000000E+02  0.51100000000E-03 0.  1.
         11   -1    0    0    0    0 -0.00000000000E+00 -0.00000000000E+00 -0.45593999997E+02  0.45594000000E+02  0.51100000000E-03 0. -1.
    9900012    2    1    2    0    0 -0.10947849333E+02  0.14990517847E+02  0.24714334982E+01  0.72461574450E+02  0.70000005413E+02 0.  0.
        -12    1    1    2    0    0  0.10947849333E+02 -0.14990517847E+02 -0.24714334982E+01  0.18726425550E+02  0.00000000000E+00 0.  1.
         11    1    3    3    0    0  0.14171721697E+02  0.16525991201E+02  0.80193073162E+01  0.23200331272E+02  0.51100000000E-03 0. -1.
        -11    1    3    3    0    0 -0.17593769431E+02  0.18468962581E+02  0.40582322209E+01  0.25828522037E+02  0.51100000000E-03 0.  1.
        -12    1    3    3    0    0 -0.75258015996E+01 -0.20004435935E+02 -0.96061060389E+01  0.23432721140E+02  0.00000000000E+00 0.  1.
</event>
<event>
 7    1  0.3568800E-013  0.7246155E+02  0.7816164E-02  0.1226708E+00
        -11   -1    0    0    0    0  0.00000000000E+00  0.00000000000E+00  0.45593999997E+02  0.45594000000E+02  0.51100000000E-03 0.  1.
         11   -1    0    0    0    0 -0.00000000000E+00 -0.00000000000E+00 -0.45593999997E+02  0.45594000000E+02  0.51100000000E-03 0. -1.
    9900012    2    1    2    0    0 -0.65554436727E+01 -0.10362721073E+02 -0.14153443529E+02  0.72461553633E+02  0.69999978296E+02 0.  0.
        -12    1    1    2    0    0  0.65554436727E+01  0.10362721073E+02  0.14153443529E+02  0.18726446367E+02  0.00000000000E+00 0.  1.
         11    1    3    3    0    0 -0.44350485410E+00 -0.18122173512E+02 -0.34988769475E+02  0.39405886096E+02  0.51100000000E-03 0. -1.
        -11    1    3    3    0    0 -0.13015835156E+02  0.48022555395E+01  0.37179030772E+01  0.14363022893E+02  0.51100000000E-03 0.  1.
        -12    1    3    3    0    0  0.69038963378E+01  0.29571968994E+01  0.17117422868E+02  0.18692644644E+02  0.00000000000E+00 0.  1.
</event>
<event>
 7    1  0.3568800E-013  0.7246161E+02  0.7816164E-02  0.1226708E+00
        -11   -1    0    0    0    0  0.00000000000E+00  0.00000000000E+00  0.45593999997E+02  0.45594000000E+02  0.51100000000E-03 0.  1.
         11   -1    0    0    0    0 -0.00000000000E+00 -0.00000000000E+00 -0.45593999997E+02  0.45594000000E+02  0.51100000000E-03 0. -1.
    9900012    2    1    2    0    0  0.17054883512E+02 -0.75465895345E+01 -0.16904444078E+01  0.72461610399E+02  0.70000052243E+02 0.  0.
        -12    1    1    2    0    0 -0.17054883512E+02  0.75465895345E+01  0.16904444078E+01  0.18726389601E+02  0.00000000000E+00 0.  1.
         11    1    3    3    0    0  0.81541731207E+01  0.97938707346E+01 -0.22160239980E+01  0.12935269841E+02  0.51100000000E-03 0.  1.
        -11    1    3    3    0    0 -0.90069543586E+01  0.17171787090E+02  0.59156553195E+01  0.20272900059E+02  0.51100000000E-03 0. -1.
         12    1    3    3    0    0  0.17907664750E+02 -0.34512247359E+02 -0.53900757293E+01  0.39253440498E+02  0.00000000000E+00 0. -1.
</event>
<event>
 7    1  0.3568800E-013  0.7246180E+02  0.7816164E-02  0.1226707E+00
        -11   -1    0    0    0    0  0.00000000000E+00  0.00000000000E+00  0.45593999997E+02  0.45594000000E+02  0.51100000000E-03 0. -1.
         11   -1    0    0    0    0 -0.00000000000E+00 -0.00000000000E+00 -0.45593999997E+02  0.45594000000E+02  0.51100000000E-03 0.  1.
    9900012    2    1    2    0    0  0.92994989309E+01 -0.14431350007E+02  0.74783666447E+01  0.72461801478E+02  0.70000301159E+02 0.  0.
        -12    1    1    2    0    0 -0.92994989309E+01  0.14431350007E+02 -0.74783666447E+01  0.18726198522E+02  0.00000000000E+00 0.  1.
         11    1    3    3    0    0  0.35899204507E+02 -0.11674924060E+02 -0.22997789789E+01  0.37819911682E+02  0.51100000000E-03 0. -1.
        -11    1    3    3    0    0 -0.40966120332E+01  0.35546825391E+01 -0.46767091527E+01  0.71616762607E+01  0.51100000000E-03 0.  1.
        -12    1    3    3    0    0 -0.22503093543E+02 -0.63111084862E+01  0.14454854776E+02  0.27480213535E+02  0.00000000000E+00 0.  1.
</event>
<event>
 7    1  0.3568800E-013  0.7246178E+02  0.7816164E-02  0.1226707E+00
        -11   -1    0    0    0    0  0.00000000000E+00  0.00000000000E+00  0.45593999997E+02  0.45594000000E+02  0.51100000000E-03 0.  1.
         11   -1    0    0    0    0 -0.00000000000E+00 -0.00000000000E+00 -0.45593999997E+02  0.45594000000E+02  0.51100000000E-03 0. -1.
    9900012    2    1    2    0    0 -0.51278791603E+01  0.93045914695E+01 -0.15420793854E+02  0.72461776404E+02  0.70000268495E+02 0.  0.
        -12    1    1    2    0    0  0.51278791603E+01 -0.93045914695E+01  0.15420793854E+02  0.18726223596E+02  0.00000000000E+00 0.  1.
         11    1    3    3    0    0 -0.46995041738E+01  0.24650180270E+02  0.11558145409E+02  0.27628019335E+02  0.51100000000E-03 0. -1.
        -11    1    3    3    0    0 -0.74821613294E+01  0.23433994300E+01  0.37431043656E+01  0.86882155591E+01  0.51100000000E-03 0.  1.
         12    1    3    3    0    0  0.70537863429E+01 -0.17688988230E+02 -0.30722043628E+02  0.36145541510E+02  0.00000000000E+00 0. -1.
</event>
<event>
 7    1  0.3568800E-013  0.7246158E+02  0.7816164E-02  0.1226708E+00
        -11   -1    0    0    0    0  0.00000000000E+00  0.00000000000E+00  0.45593999997E+02  0.45594000000E+02  0.51100000000E-03 0. -1.
         11   -1    0    0    0    0 -0.00000000000E+00 -0.00000000000E+00 -0.45593999997E+02  0.45594000000E+02  0.51100000000E-03 0.  1.
    9900012    2    1    2    0    0 -0.12022631712E+02  0.98097228260E+01  0.10483526976E+02  0.72461583550E+02  0.70000017268E+02 0.  0.
        -12    1    1    2    0    0  0.12022631712E+02 -0.98097228260E+01 -0.10483526976E+02  0.18726416450E+02  0.00000000000E+00 0.  1.
         11    1    3    3    0    0  0.18213473448E+01 -0.94818242111E+00 -0.87629257958E+01  0.90002902630E+01  0.51100000000E-03 0. -1.
        -11    1    3    3    0    0 -0.15777522248E+02  0.17109820350E+02 -0.15580125750E+02  0.28007436143E+02  0.51100000000E-03 0.  1.
         12    1    3    3    0    0  0.19335431911E+01 -0.63519151024E+01  0.34826578523E+02  0.35453857143E+02  0.00000000000E+00 0. -1.
</event>
<event>
 7    1  0.3568800E-013  0.7246164E+02  0.7816164E-02  0.1226708E+00
        -11   -1    0    0    0    0  0.00000000000E+00  0.00000000000E+00  0.45593999997E+02  0.45594000000E+02  0.51100000000E-03 0. -1.
         11   -1    0    0    0    0 -0.00000000000E+00 -0.00000000000E+00 -0.45593999997E+02  0.45594000000E+02  0.51100000000E-03 0.  1.
    9900012    2    1    2    0    0  0.28502696878E+01  0.55119068785E+01  0.17668372856E+02  0.72461640127E+02  0.70000090970E+02 0.  0.
        -12    1    1    2    0    0 -0.28502696878E+01 -0.55119068785E+01 -0.17668372856E+02  0.18726359873E+02  0.00000000000E+00 0.  1.
         11    1    3    3    0    0 -0.14091802971E+01 -0.33798218269E+01 -0.12529217991E+02  0.13053363107E+02  0.51100000000E-03 0. -1.
        -11    1    3    3    0    0 -0.21766086129E+02  0.65333405478E+01  0.22931615349E+02  0.32284764625E+02  0.51100000000E-03 0.  1.
         12    1    3    3    0    0  0.26025536114E+02  0.23583881576E+01  0.72659754973E+01  0.27123512395E+02  0.00000000000E+00 0. -1.
</event>
<event>
 7    1  0.3568800E-013  0.7246144E+02  0.7816164E-02  0.1226708E+00
        -11   -1    0    0    0    0  0.00000000000E+00  0.00000000000E+00  0.45593999997E+02  0.45594000000E+02  0.51100000000E-03 0.  1.
         11   -1    0    0    0    0 -0.00000000000E+00 -0.00000000000E+00 -0.45593999997E+02  0.45594000000E+02  0.51100000000E-03 0. -1.
    9900012    2    1    2    0    0  0.16068305707E+02  0.49791197935E+01 -0.82281192488E+01  0.72461440557E+02  0.69999830993E+02 0.  0.
        -12    1    1    2    0    0 -0.16068305707E+02 -0.49791197935E+01  0.82281192488E+01  0.18726559443E+02  0.00000000000E+00 0.  1.
         11    1    3    3    0    0  0.71204030106E+01  0.12366821337E+02 -0.31078281579E+02  0.34197923843E+02  0.51100000000E-03 0. -1.
        -11    1    3    3    0    0  0.43398775602E+01  0.94580624039E+01  0.12421883805E+01  0.10480100854E+02  0.51100000000E-03 0.  1.
        -12    1    3    3    0    0  0.46080251361E+01 -0.16845763947E+02  0.21607973950E+02  0.27783415860E+02  0.00000000000E+00 0.  1.
</event>
<event>
 7    1  0.3568800E-013  0.7246148E+02  0.7816164E-02  0.1226708E+00
        -11   -1    0    0    0    0  0.00000000000E+00  0.00000000000E+00  0.45593999997E+02  0.45594000000E+02  0.51100000000E-03 0. -1.
         11   -1    0    0    0    0 -0.00000000000E+00 -0.00000000000E+00 -0.45593999997E+02  0.45594000000E+02  0.51100000000E-03 0.  1.
    9900012    2    1    2    0    0  0.69333858522E+01 -0.16019205612E+02 -0.67820197953E+01  0.72461479225E+02  0.69999881365E+02 0.  0.
        -12    1    1    2    0    0 -0.69333858522E+01  0.16019205612E+02  0.67820197953E+01  0.18726520775E+02  0.00000000000E+00 0.  1.
         11    1    3    3    0    0  0.40438374533E+01  0.15459336387E+02 -0.12033434022E+02  0.20003680599E+02  0.51100000000E-03 0. -1.
        -11    1    3    3    0    0  0.11746742311E+02  0.63317404980E+01  0.19086678014E+01  0.13480352581E+02  0.51100000000E-03 0.  1.
         12    1    3    3    0    0 -0.88571939126E+01 -0.37810282498E+02  0.33427464252E+01  0.38977446045E+02  0.00000000000E+00 0. -1.
</event>
<event>
 7    1  0.3568800E-013  0.7246157E+02  0.7816164E-02  0.1226708E+00
        -11   -1    0    0    0    0  0.00000000000E+00  0.00000000000E+00  0.45593999997E+02  0.45594000000E+02  0.51100000000E-03 0.  1.
         11   -1    0    0    0    0 -0.00000000000E+00 -0.00000000000E+00 -0.45593999997E+02  0.45594000000E+02  0.51100000000E-03 0. -1.
    9900012    2    1    2    0    0 -0.11379915422E+02 -0.57971648526E+01 -0.13695600126E+02  0.72461573268E+02  0.70000003873E+02 0.  0.
        -12    1    1    2    0    0  0.11379915422E+02  0.57971648526E+01  0.13695600126E+02  0.18726426732E+02  0.00000000000E+00 0.  1.
         11    1    3    3    0    0 -0.30373075464E+02  0.44881309189E+01 -0.63083831144E+01  0.31344261517E+02  0.51100000000E-03 0. -1.
        -11    1    3    3    0    0 -0.27509814166E+01  0.81240042745E+01  0.51345034363E+01  0.99965228958E+01  0.51100000000E-03 0.  1.
        -12    1    3    3    0    0  0.21744141459E+02 -0.18409300046E+02 -0.12521720448E+02  0.31120788855E+02  0.00000000000E+00 0.  1.
</event>
<event>
 7    1  0.3568800E-013  0.7246169E+02  0.7816164E-02  0.1226708E+00
        -11   -1    0    0    0    0  0.00000000000E+00  0.00000000000E+00  0.45593999997E+02  0.45594000000E+02  0.51100000000E-03 0. -1.
         11   -1    0    0    0    0 -0.00000000000E+00 -0.00000000000E+00 -0.45593999997E+02  0.45594000000E+02  0.51100000000E-03 0.  1.
    9900012    2    1    2    0    0  0.15543126129E+02  0.25161736984E+01  0.10136796486E+02  0.72461693825E+02  0.70000160922E+02 0.  0.
        -12    1    1    2    0    0 -0.15543126129E+02 -0.25161736984E+01 -0.10136796486E+02  0.18726306175E+02  0.00000000000E+00 0.  1.
         11    1    3    3    0    0 -0.11848529387E+02  0.26451476110E+01  0.70127957978E+01  0.14020119817E+02  0.51100000000E-03 0. -1.
        -11    1    3    3    0    0 -0.59533506327E+01  0.14803958929E+02 -0.10881217630E+02  0.19313220371E+02  0.51100000000E-03 0.  1.
         12    1    3    3    0    0  0.33345006148E+02 -0.14932932842E+02  0.14005218318E+02  0.39128353638E+02  0.00000000000E+00 0. -1.
</event>
<event>
 7    1  0.3568800E-013  0.7246157E+02  0.7816164E-02  0.1226708E+00
        -11   -1    0    0    0    0  0.00000000000E+00  0.00000000000E+00  0.45593999997E+02  0.45594000000E+02  0.51100000000E-03 0.  1.
         11   -1    0    0    0    0 -0.00000000000E+00 -0.00000000000E+00 -0.45593999997E+02  0.45594000000E+02  0.51100000000E-03 0. -1.
    9900012    2    1    2    0    0  0.16293315217E+02 -0.48000223922E+01 -0.78845837710E+01  0.72461574901E+02  0.70000006001E+02 0.  0.
        -12    1    1    2    0    0 -0.16293315217E+02  0.48000223922E+01  0.78845837710E+01  0.18726425099E+02  0.00000000000E+00 0.  1.
         11    1    3    3    0    0 -0.30706421308E+01 -0.19824119145E+01  0.94093372541E+00  0.37741431652E+01  0.51100000000E-03 0. -1.
        -11    1    3    3    0    0 -0.12545417802E+02  0.20037262287E+02 -0.16322342404E+02  0.28728004623E+02  0.51100000000E-03 0.  1.
         12    1    3    3    0    0  0.31909375150E+02 -0.22854872764E+02  0.74968249076E+01  0.39959427114E+02  0.00000000000E+00 0. -1.
</event>
<event>
 7    1  0.3568800E-013  0.7246153E+02  0.7816164E-02  0.1226708E+00
        -11   -1    0    0    0    0  0.00000000000E+00  0.00000000000E+00  0.45593999997E+02  0.45594000000E+02  0.51100000000E-03 0.  1.
         11   -1    0    0    0    0 -0.00000000000E+00 -0.00000000000E+00 -0.45593999997E+02  0.45594000000E+02  0.51100000000E-03 0. -1.
    9900012    2    1    2    0    0  0.13580194596E+00 -0.49369633344E+01 -0.18063463573E+02  0.72461527684E+02  0.69999944492E+02 0.  0.
        -12    1    1    2    0    0 -0.13580194596E+00  0.49369633344E+01  0.18063463573E+02  0.18726472316E+02  0.00000000000E+00 0.  1.
         11    1    3    3    0    0  0.11814529280E+02  0.35696497858E+01 -0.17607256525E+01  0.12466982666E+02  0.51100000000E-03 0. -1.
        -11    1    3    3    0    0  0.19342842349E+02 -0.96452243548E+00 -0.20018880938E+02  0.27853751057E+02  0.51100000000E-03 0.  1.
        -12    1    3    3    0    0 -0.31021569684E+02 -0.75420906846E+01  0.37161430176E+01  0.32140793961E+02  0.00000000000E+00 0.  1.
</event>
<event>
 7    1  0.3568800E-013  0.7246145E+02  0.7816164E-02  0.1226708E+00
        -11   -1    0    0    0    0  0.00000000000E+00  0.00000000000E+00  0.45593999997E+02  0.45594000000E+02  0.51100000000E-03 0.  1.
         11   -1    0    0    0    0 -0.00000000000E+00 -0.00000000000E+00 -0.45593999997E+02  0.45594000000E+02  0.51100000000E-03 0. -1.
    9900012    2    1    2    0    0  0.44765281930E+01 -0.85560317354E+01 -0.16044892829E+02  0.72461452811E+02  0.69999846956E+02 0.  0.
        -12    1    1    2    0    0 -0.44765281930E+01  0.85560317354E+01  0.16044892829E+02  0.18726547189E+02  0.00000000000E+00 0.  1.
         11    1    3    3    0    0  0.84854320026E+01 -0.33697875621E+02 -0.15720570158E+02  0.38140342211E+02  0.51100000000E-03 0. -1.
        -11    1    3    3    0    0 -0.66277182524E+01 -0.10707009361E+01  0.37106374001E+01  0.76708461009E+01  0.51100000000E-03 0.  1.
        -12    1    3    3    0    0  0.26188144427E+01  0.26212544821E+02 -0.40349600705E+01  0.26650264499E+02  0.00000000000E+00 0.  1.
</event>
<event>
 7    1  0.3568800E-013  0.7246157E+02  0.7816164E-02  0.1226708E+00
        -11   -1    0    0    0    0  0.00000000000E+00  0.00000000000E+00  0.45593999997E+02  0.45594000000E+02  0.51100000000E-03 0. -1.
         11   -1    0    0    0    0 -0.00000000000E+00 -0.00000000000E+00 -0.45593999997E+02  0.45594000000E+02  0.51100000000E-03 0.  1.
    9900012    2    1    2    0    0  0.23834382091E+01  0.69330384108E+00  0.18561192189E+02  0.72461566720E+02  0.69999995344E+02 0.  0.
        -12    1    1    2    0    0 -0.23834382091E+01 -0.69330384108E+00 -0.18561192189E+02  0.18726433280E+02  0.00000000000E+00 0.  1.
         11    1    3    3    0    0  0.81721967069E+01  0.66949802215E+01 -0.52606356967E+01  0.11801773061E+02  0.51100000000E-03 0. -1.
        -11    1    3    3    0    0 -0.39914206099E+01  0.10873167128E+01 -0.17864289516E+02  0.18337026376E+02  0.51100000000E-03 0.  1.
         12    1    3    3    0    0 -0.17973378878E+01 -0.70889930932E+01  0.41686117402E+02  0.42322767284E+02  0.00000000000E+00 0. -1.
</event>
<event>
 7    1  0.3568800E-013  0.7246148E+02  0.7816164E-02  0.1226708E+00
        -11   -1    0    0    0    0  0.00000000000E+00  0.00000000000E+00  0.45593999997E+02  0.45594000000E+02  0.51100000000E-03 0. -1.
         11   -1    0    0    0    0 -0.00000000000E+00 -0.00000000000E+00 -0.45593999997E+02  0.45594000000E+02  0.51100000000E-03 0.  1.
    9900012    2    1    2    0    0  0.13024563304E+02  0.12621481474E+02  0.46627881861E+01  0.72461477698E+02  0.69999879376E+02 0.  0.
        -12    1    1    2    0    0 -0.13024563304E+02 -0.12621481474E+02 -0.46627881861E+01  0.18726522302E+02  0.00000000000E+00 0.  1.
         11    1    3    3    0    0  0.72246555705E+01  0.89915612884E+00 -0.61873505403E+01  0.95544459193E+01  0.51100000000E-03 0. -1.
        -11    1    3    3    0    0 -0.82522680600E+00  0.21393481135E+02 -0.20374260782E+02  0.29554568802E+02  0.51100000000E-03 0.  1.
         12    1    3    3    0    0  0.66251345392E+01 -0.96711557896E+01  0.31224399509E+02  0.33352462977E+02  0.00000000000E+00 0. -1.
</event>
<event>
 7    1  0.3568800E-013  0.7246164E+02  0.7816164E-02  0.1226708E+00
        -11   -1    0    0    0    0  0.00000000000E+00  0.00000000000E+00  0.45593999997E+02  0.45594000000E+02  0.51100000000E-03 0.  1.
         11   -1    0    0    0    0 -0.00000000000E+00 -0.00000000000E+00 -0.45593999997E+02  0.45594000000E+02  0.51100000000E-03 0. -1.
    9900012    2    1    2    0    0 -0.84355485551E+01  0.24042344691E+00 -0.16717063473E+02  0.72461641731E+02  0.70000093059E+02 0.  0.
        -12    1    1    2    0    0  0.84355485551E+01 -0.24042344691E+00  0.16717063473E+02  0.18726358269E+02  0.00000000000E+00 0.  1.
         11    1    3    3    0    0  0.15870205378E+02 -0.12448804069E+02 -0.95817334210E+01  0.22330377451E+02  0.51100000000E-03 0. -1.
        -11    1    3    3    0    0  0.66628402377E+01  0.12335172653E+02 -0.12399754598E+02  0.18716405605E+02  0.51100000000E-03 0.  1.
         12    1    3    3    0    0 -0.30968594171E+02  0.35405486346E+00  0.52644245462E+01  0.31414858675E+02  0.00000000000E+00 0. -1.
</event>
<event>
 7    1  0.3568800E-013  0.7246149E+02  0.7816164E-02  0.1226708E+00
        -11   -1    0    0    0    0  0.00000000000E+00  0.00000000000E+00  0.45593999997E+02  0.45594000000E+02  0.51100000000E-03 0.  1.
         11   -1    0    0    0    0 -0.00000000000E+00 -0.00000000000E+00 -0.45593999997E+02  0.45594000000E+02  0.51100000000E-03 0. -1.
    9900012    2    1    2    0    0  0.16102868121E+02  0.70539168319E+01 -0.64515117697E+01  0.72461491823E+02  0.69999897776E+02 0.  0.
        -12    1    1    2    0    0 -0.16102868121E+02 -0.70539168319E+01  0.64515117697E+01  0.18726508177E+02  0.00000000000E+00 0.  1.
         11    1    3    3    0    0  0.23392732170E+02  0.10312505975E+02  0.10290947812E+02  0.27558506944E+02  0.51100000000E-03 0. -1.
        -11    1    3    3    0    0  0.90483502829E+01  0.14027885999E+02 -0.17450105038E+01  0.16783899737E+02  0.51100000000E-03 0.  1.
         12    1    3    3    0    0 -0.16338214332E+02 -0.17286475142E+02 -0.14997449078E+02  0.28119085142E+02  0.00000000000E+00 0. -1.
</event>
<event>
 7    1  0.3568800E-013  0.7246153E+02  0.7816164E-02  0.1226708E+00
        -11   -1    0    0    0    0  0.00000000000E+00  0.00000000000E+00  0.45593999997E+02  0.45594000000E+02  0.51100000000E-03 0. -1.
         11   -1    0    0    0    0 -0.00000000000E+00 -0.00000000000E+00 -0.45593999997E+02  0.45594000000E+02  0.51100000000E-03 0.  1.
    9900012    2    1    2    0    0  0.13572775427E+02  0.52842560334E+01  0.11770174314E+02  0.72461532153E+02  0.69999950314E+02 0.  0.
        -12    1    1    2    0    0 -0.13572775427E+02 -0.52842560334E+01 -0.11770174314E+02  0.18726467847E+02  0.00000000000E+00 0.  1.
         11    1    3    3    0    0 -0.22019133697E+01 -0.12176631891E+02  0.23502281106E+02  0.26560798259E+02  0.51100000000E-03 0. -1.
        -11    1    3    3    0    0 -0.17162093784E+01 -0.94639972778E+01 -0.98059211026E+01  0.13735672828E+02  0.51100000000E-03 0.  1.
         12    1    3    3    0    0  0.17490898175E+02  0.26924885202E+02 -0.19261856893E+01  0.32165061067E+02  0.00000000000E+00 0. -1.
</event>
<event>
 7    1  0.3568800E-013  0.7246156E+02  0.7816164E-02  0.1226708E+00
        -11   -1    0    0    0    0  0.00000000000E+00  0.00000000000E+00  0.45593999997E+02  0.45594000000E+02  0.51100000000E-03 0. -1.
         11   -1    0    0    0    0 -0.00000000000E+00 -0.00000000000E+00 -0.45593999997E+02  0.45594000000E+02  0.51100000000E-03 0.  1.
    9900012    2    1    2    0    0  0.12203375463E+01 -0.20694793661E+01  0.18571683883E+02  0.72461563851E+02  0.69999991607E+02 0.  0.
        -12    1    1    2    0    0 -0.12203375463E+01  0.20694793661E+01 -0.18571683883E+02  0.18726436149E+02  0.00000000000E+00 0.  1.
         11    1    3    3    0    0 -0.73361890386E+01  0.24179509029E+02  0.83975704000E+01  0.26626819475E+02  0.51100000000E-03 0. -1.
        -11    1    3    3    0    0  0.49533750601E+01 -0.16672323141E+02 -0.12191344143E+02  0.21239848297E+02  0.51100000000E-03 0.  1.
         12    1    3    3    0    0  0.36031515249E+01 -0.95766652540E+01  0.22365457626E+02  0.24594896079E+02  0.00000000000E+00 0. -1.
</event>
<event>
 7    1  0.3568800E-013  0.7246168E+02  0.7816164E-02  0.1226708E+00
        -11   -1    0    0    0    0  0.00000000000E+00  0.00000000000E+00  0.45593999997E+02  0.45594000000E+02  0.51100000000E-03 0. -1.
         11   -1    0    0    0    0 -0.00000000000E+00 -0.00000000000E+00 -0.45593999997E+02  0.45594000000E+02  0.51100000000E-03 0.  1.
    9900012    2    1    2    0    0  0.28179818174E+01  0.17290792169E+02  0.66153216306E+01  0.72461681739E+02  0.70000145177E+02 0.  0.
        -12    1    1    2    0    0 -0.28179818174E+01 -0.17290792169E+02 -0.66153216306E+01  0.18726318261E+02  0.00000000000E+00 0.  1.
         11    1    3    3    0    0  0.14843949465E+02 -0.33325375997E+01  0.13465546328E+02  0.20316731547E+02  0.51100000000E-03 0. -1.
        -11    1    3    3    0    0  0.63433029810E+01 -0.99421683303E+01 -0.11145331568E+02  0.16226602227E+02  0.51100000000E-03 0.  1.
        -12    1    3    3    0    0 -0.18369270629E+02  0.30565498099E+02  0.42951068708E+01  0.35918347965E+02  0.00000000000E+00 0.  1.
</event>
<event>
 7    1  0.3568800E-013  0.7246175E+02  0.7816164E-02  0.1226708E+00
        -11   -1    0    0    0    0  0.00000000000E+00  0.00000000000E+00  0.45593999997E+02  0.45594000000E+02  0.51100000000E-03 0. -1.
         11   -1    0    0    0    0 -0.00000000000E+00 -0.00000000000E+00 -0.45593999997E+02  0.45594000000E+02  0.51100000000E-03 0.  1.
    9900012    2    1    2    0    0 -0.10907856531E+02 -0.15078444912E+02  0.20812070900E+01  0.72461754834E+02  0.70000240397E+02 0.  0.
        -12    1    1    2    0    0  0.10907856531E+02  0.15078444912E+02 -0.20812070900E+01  0.18726245166E+02  0.00000000000E+00 0.  1.
         11    1    3    3    0    0  0.15940182532E+02 -0.52283281893E+01  0.68728748890E+01  0.18129016640E+02  0.51100000000E-03 0. -1.
        -11    1    3    3    0    0  0.34263583280E+01  0.13218050000E+01  0.15688414346E+02  0.16112524471E+02  0.51100000000E-03 0.  1.
        -12    1    3    3    0    0 -0.30274397392E+02 -0.11171921722E+02 -0.20480082145E+02  0.38220213724E+02  0.00000000000E+00 0.  1.
</event>
<event>
 7    1  0.3568800E-013  0.7246156E+02  0.7816164E-02  0.1226708E+00
        -11   -1    0    0    0    0  0.00000000000E+00  0.00000000000E+00  0.45593999997E+02  0.45594000000E+02  0.51100000000E-03 0. -1.
         11   -1    0    0    0    0 -0.00000000000E+00 -0.00000000000E+00 -0.45593999997E+02  0.45594000000E+02  0.51100000000E-03 0.  1.
    9900012    2    1    2    0    0  0.15398719060E+02  0.10536899944E+02  0.15914268279E+01  0.72461562846E+02  0.69999990298E+02 0.  0.
        -12    1    1    2    0    0 -0.15398719060E+02 -0.10536899944E+02 -0.15914268279E+01  0.18726437154E+02  0.00000000000E+00 0.  1.
         11    1    3    3    0    0  0.39011129006E+01  0.14102070906E+02  0.31100633398E+02  0.34370575842E+02  0.51100000000E-03 0. -1.
        -11    1    3    3    0    0  0.33254136918E+01 -0.79878985202E+01 -0.17631296556E+01  0.88302619120E+01  0.51100000000E-03 0.  1.
        -12    1    3    3    0    0  0.81721924679E+01  0.44227275574E+01 -0.27746076914E+02  0.29260725092E+02  0.00000000000E+00 0.  1.
</event>
<event>
 7    1  0.3568800E-013  0.7246164E+02  0.7816164E-02  0.1226708E+00
        -11   -1    0    0    0    0  0.00000000000E+00  0.00000000000E+00  0.45593999997E+02  0.45594000000E+02  0.51100000000E-03 0.  1.
         11   -1    0    0    0    0 -0.00000000000E+00 -0.00000000000E+00 -0.45593999997E+02  0.45594000000E+02  0.51100000000E-03 0. -1.
    9900012    2    1    2    0    0 -0.10157378413E+02  0.64299267111E+01 -0.14358279236E+02  0.72461642203E+02  0.70000093674E+02 0.  0.
        -12    1    1    2    0    0  0.10157378413E+02 -0.64299267111E+01  0.14358279236E+02  0.18726357797E+02  0.00000000000E+00 0.  1.
         11    1    3    3    0    0  0.56493189661E+01 -0.38568107229E+01 -0.19571562422E+02  0.20732482959E+02  0.51100000000E-03 0. -1.
        -11    1    3    3    0    0  0.77280004238E+01  0.14745017715E+02 -0.13419072425E+02  0.21382447077E+02  0.51100000000E-03 0.  1.
        -12    1    3    3    0    0 -0.23534697803E+02 -0.44582802813E+01  0.18632355611E+02  0.30346712168E+02  0.00000000000E+00 0.  1.
</event>
<event>
 7    1  0.3568800E-013  0.7246158E+02  0.7816164E-02  0.1226708E+00
        -11   -1    0    0    0    0  0.00000000000E+00  0.00000000000E+00  0.45593999997E+02  0.45594000000E+02  0.51100000000E-03 0.  1.
         11   -1    0    0    0    0 -0.00000000000E+00 -0.00000000000E+00 -0.45593999997E+02  0.45594000000E+02  0.51100000000E-03 0. -1.
    9900012    2    1    2    0    0 -0.10238274886E+02  0.14579404871E+02 -0.57704105374E+01  0.72461575974E+02  0.70000007399E+02 0.  0.
        -12    1    1    2    0    0  0.10238274886E+02 -0.14579404871E+02  0.57704105374E+01  0.18726424026E+02  0.00000000000E+00 0.  1.
         11    1    3    3    0    0 -0.14904058654E+02  0.16458117894E+02  0.30463841749E+01  0.22411627914E+02  0.51100000000E-03 0. -1.
        -11    1    3    3    0    0 -0.93962914577E+01  0.22668390388E+01  0.17461807110E+02  0.19958546044E+02  0.51100000000E-03 0.  1.
         12    1    3    3    0    0  0.14062075226E+02 -0.41455520622E+01 -0.26278601822E+02  0.30091402016E+02  0.00000000000E+00 0. -1.
</event>
<event>
 7    1  0.3568800E-013  0.7246155E+02  0.7816164E-02  0.1226708E+00
        -11   -1    0    0    0    0  0.00000000000E+00  0.00000000000E+00  0.45593999997E+02  0.45594000000E+02  0.51100000000E-03 0. -1.
         11   -1    0    0    0    0 -0.00000000000E+00 -0.00000000000E+00 -0.45593999997E+02  0.45594000000E+02  0.51100000000E-03 0.  1.
    9900012    2    1    2    0    0  0.13601715310E+02  0.65278454708E+01  0.11093260929E+02  0.72461551754E+02  0.69999975848E+02 0.  0.
        -12    1    1    2    0    0 -0.13601715310E+02 -0.65278454708E+01 -0.11093260929E+02  0.18726448246E+02  0.00000000000E+00 0.  1.
         11    1    3    3    0    0  0.15139806217E+02 -0.25069169827E+01  0.18466798474E+01  0.15456668198E+02  0.51100000000E-03 0. -1.
        -11    1    3    3    0    0 -0.93835955387E+01 -0.44495640642E+01 -0.20744555533E+02  0.23198859241E+02  0.51100000000E-03 0.  1.
         12    1    3    3    0    0  0.78455046314E+01  0.13484326518E+02  0.29991136614E+02  0.33806024315E+02  0.00000000000E+00 0. -1.
</event>
<event>
 7    1  0.3568800E-013  0.7246156E+02  0.7816164E-02  0.1226708E+00
        -11   -1    0    0    0    0  0.00000000000E+00  0.00000000000E+00  0.45593999997E+02  0.45594000000E+02  0.51100000000E-03 0.  1.
         11   -1    0    0    0    0 -0.00000000000E+00 -0.00000000000E+00 -0.45593999997E+02  0.45594000000E+02  0.51100000000E-03 0. -1.
    9900012    2    1    2    0    0  0.59358679421E+01  0.11866997243E+02 -0.13214359232E+02  0.72461563027E+02  0.69999990533E+02 0.  0.
        -12    1    1    2    0    0 -0.59358679421E+01 -0.11866997243E+02  0.13214359232E+02  0.18726436973E+02  0.00000000000E+00 0.  1.
         11    1    3    3    0    0 -0.80633732415E+01  0.24982954474E+01 -0.47774172839E+01  0.96996486710E+01  0.51100000000E-03 0. -1.
        -11    1    3    3    0    0  0.24976916488E+02  0.28346752344E+02 -0.13746434682E+02  0.40203845493E+02  0.51100000000E-03 0.  1.
         12    1    3    3    0    0 -0.10977675304E+02 -0.18978050549E+02  0.53094927339E+01  0.22558068863E+02  0.00000000000E+00 0. -1.
</event>
<event>
 7    1  0.3568800E-013  0.7246156E+02  0.7816164E-02  0.1226708E+00
        -11   -1    0    0    0    0  0.00000000000E+00  0.00000000000E+00  0.45593999997E+02  0.45594000000E+02  0.51100000000E-03 0.  1.
         11   -1    0    0    0    0 -0.00000000000E+00 -0.00000000000E+00 -0.45593999997E+02  0.45594000000E+02  0.51100000000E-03 0. -1.
    9900012    2    1    2    0    0  0.70861357287E+00 -0.28156436170E+01 -0.18499991373E+02  0.72461557119E+02  0.69999982837E+02 0.  0.
        -12    1    1    2    0    0 -0.70861357287E+00  0.28156436170E+01  0.18499991373E+02  0.18726442881E+02  0.00000000000E+00 0.  1.
         11    1    3    3    0    0 -0.20653688022E+02  0.21350648417E+01 -0.19037755603E+02  0.28170365093E+02  0.51100000000E-03 0.  1.
        -11    1    3    3    0    0  0.19090457832E+02  0.14641208016E+02  0.36177188999E+01  0.24328963042E+02  0.51100000000E-03 0. -1.
         12    1    3    3    0    0  0.22718437633E+01 -0.19591916475E+02 -0.30799546695E+01  0.19962228984E+02  0.00000000000E+00 0. -1.
</event>
<event>
 7    1  0.3568800E-013  0.7246148E+02  0.7816164E-02  0.1226708E+00
        -11   -1    0    0    0    0  0.00000000000E+00  0.00000000000E+00  0.45593999997E+02  0.45594000000E+02  0.51100000000E-03 0. -1.
         11   -1    0    0    0    0 -0.00000000000E+00 -0.00000000000E+00 -0.45593999997E+02  0.45594000000E+02  0.51100000000E-03 0.  1.
    9900012    2    1    2    0    0 -0.15238072205E+00  0.16535825281E+02  0.87878283907E+01  0.72461476953E+02  0.69999878406E+02 0.  0.
        -12    1    1    2    0    0  0.15238072205E+00 -0.16535825281E+02 -0.87878283907E+01  0.18726523047E+02  0.00000000000E+00 0.  1.
         11    1    3    3    0    0  0.87518993265E+01 -0.21699724643E+01 -0.16899584352E+01  0.91739022281E+01  0.51100000000E-03 0. -1.
        -11    1    3    3    0    0 -0.17108589376E+02 -0.50840009764E+01 -0.17955924006E+02  0.25317308379E+02  0.51100000000E-03 0.  1.
        -12    1    3    3    0    0  0.82043093277E+01  0.23789798721E+02  0.28433710832E+02  0.37970266346E+02  0.00000000000E+00 0.  1.
</event>
<event>
 7    1  0.3568800E-013  0.7246152E+02  0.7816164E-02  0.1226708E+00
        -11   -1    0    0    0    0  0.00000000000E+00  0.00000000000E+00  0.45593999997E+02  0.45594000000E+02  0.51100000000E-03 0. -1.
         11   -1    0    0    0    0 -0.00000000000E+00 -0.00000000000E+00 -0.45593999997E+02  0.45594000000E+02  0.51100000000E-03 0.  1.
    9900012    2    1    2    0    0  0.18292940795E+01  0.16141008026E+02  0.93167862267E+01  0.72461522421E+02  0.69999937636E+02 0.  0.
        -12    1    1    2    0    0 -0.18292940795E+01 -0.16141008026E+02 -0.93167862267E+01  0.18726477579E+02  0.00000000000E+00 0.  1.
         11    1    3    3    0    0  0.20013171471E+02 -0.46155343761E+01 -0.50686291881E+01  0.21154696689E+02  0.51100000000E-03 0. -1.
        -11    1    3    3    0    0 -0.68917339458E+01  0.28879498418E+02 -0.20667248352E+01  0.29762271040E+02  0.51100000000E-03 0.  1.
         12    1    3    3    0    0 -0.11292143446E+02 -0.81229560161E+01  0.16452140250E+02  0.21544554691E+02  0.00000000000E+00 0. -1.
</event>
<event>
 7    1  0.3568800E-013  0.7246143E+02  0.7816164E-02  0.1226708E+00
        -11   -1    0    0    0    0  0.00000000000E+00  0.00000000000E+00  0.45593999997E+02  0.45594000000E+02  0.51100000000E-03 0. -1.
         11   -1    0    0    0    0 -0.00000000000E+00 -0.00000000000E+00 -0.45593999997E+02  0.45594000000E+02  0.51100000000E-03 0.  1.
    9900012    2    1    2    0    0  0.12177627480E+02 -0.45991037196E+01  0.13462475259E+02  0.72461425135E+02  0.69999810903E+02 0.  0.
        -12    1    1    2    0    0 -0.12177627480E+02  0.45991037196E+01 -0.13462475259E+02  0.18726574865E+02  0.00000000000E+00 0.  1.
         11    1    3    3    0    0 -0.85377154795E+01  0.47063339359E+01  0.93726959973E+01  0.13523667966E+02  0.51100000000E-03 0. -1.
        -11    1    3    3    0    0 -0.42727898547E+01  0.18708606797E+02 -0.59275862905E+01  0.20084944135E+02  0.51100000000E-03 0.  1.
        -12    1    3    3    0    0  0.24988132815E+02 -0.28014044452E+02  0.10017365552E+02  0.38852813035E+02  0.00000000000E+00 0.  1.
</event>
<event>
 7    1  0.3568800E-013  0.7246161E+02  0.7816164E-02  0.1226708E+00
        -11   -1    0    0    0    0  0.00000000000E+00  0.00000000000E+00  0.45593999997E+02  0.45594000000E+02  0.51100000000E-03 0. -1.
         11   -1    0    0    0    0 -0.00000000000E+00 -0.00000000000E+00 -0.45593999997E+02  0.45594000000E+02  0.51100000000E-03 0.  1.
    9900012    2    1    2    0    0  0.80460694942E+01 -0.18989194708E+01  0.16802757931E+02  0.72461606766E+02  0.70000047511E+02 0.  0.
        -12    1    1    2    0    0 -0.80460694942E+01  0.18989194708E+01 -0.16802757931E+02  0.18726393234E+02  0.00000000000E+00 0.  1.
         11    1    3    3    0    0  0.30007544955E+01  0.40004649660E+01 -0.47551569759E+01  0.69007076168E+01  0.51100000000E-03 0. -1.
        -11    1    3    3    0    0 -0.15842371791E+02 -0.12279108124E+02 -0.13564076932E+02  0.24202095437E+02  0.51100000000E-03 0.  1.
         12    1    3    3    0    0  0.20887686789E+02  0.63797236872E+01  0.35121991839E+02  0.41358803712E+02  0.00000000000E+00 0. -1.
</event>
<event>
 7    1  0.3568800E-013  0.7246189E+02  0.7816164E-02  0.1226707E+00
        -11   -1    0    0    0    0  0.00000000000E+00  0.00000000000E+00  0.45593999997E+02  0.45594000000E+02  0.51100000000E-03 0.  1.
         11   -1    0    0    0    0 -0.00000000000E+00 -0.00000000000E+00 -0.45593999997E+02  0.45594000000E+02  0.51100000000E-03 0. -1.
    9900012    2    1    2    0    0  0.13398206422E+02 -0.10864295017E+02  0.72885105394E+01  0.72461889153E+02  0.70000415372E+02 0.  0.
        -12    1    1    2    0    0 -0.13398206422E+02  0.10864295017E+02 -0.72885105394E+01  0.18726110847E+02  0.00000000000E+00 0.  1.
         11    1    3    3    0    0  0.10835000009E+02 -0.95928281314E+01 -0.75693466589E+00  0.14491118904E+02  0.51100000000E-03 0. -1.
        -11    1    3    3    0    0  0.13438441122E+02 -0.10345829836E+02 -0.20198475111E+02  0.26374349127E+02  0.51100000000E-03 0.  1.
        -12    1    3    3    0    0 -0.10875234708E+02  0.90743629504E+01  0.28243920316E+02  0.31596421122E+02  0.00000000000E+00 0.  1.
</event>
<event>
 7    1  0.3568800E-013  0.7246158E+02  0.7816164E-02  0.1226708E+00
        -11   -1    0    0    0    0  0.00000000000E+00  0.00000000000E+00  0.45593999997E+02  0.45594000000E+02  0.51100000000E-03 0.  1.
         11   -1    0    0    0    0 -0.00000000000E+00 -0.00000000000E+00 -0.45593999997E+02  0.45594000000E+02  0.51100000000E-03 0. -1.
    9900012    2    1    2    0    0 -0.14612048653E+02 -0.25512656203E+01 -0.11430571221E+02  0.72461578011E+02  0.70000010052E+02 0.  0.
        -12    1    1    2    0    0  0.14612048653E+02  0.25512656203E+01  0.11430571221E+02  0.18726421989E+02  0.00000000000E+00 0.  1.
         11    1    3    3    0    0  0.82809765593E+01  0.10447008530E+02 -0.17646223299E+02  0.22115690290E+02  0.51100000000E-03 0. -1.
        -11    1    3    3    0    0 -0.11642255212E+02 -0.13288371791E+02  0.23695213891E+02  0.29556489860E+02  0.51100000000E-03 0.  1.
         12    1    3    3    0    0 -0.11250770000E+02  0.29009764062E+00 -0.17479561813E+02  0.20789397861E+02  0.00000000000E+00 0. -1.
</event>
<event>
 7    1  0.3568800E-013  0.7246147E+02  0.7816164E-02  0.1226708E+00
        -11   -1    0    0    0    0  0.00000000000E+00  0.00000000000E+00  0.45593999997E+02  0.45594000000E+02  0.51100000000E-03 0.  1.
         11   -1    0    0    0    0 -0.00000000000E+00 -0.00000000000E+00 -0.45593999997E+02  0.45594000000E+02  0.51100000000E-03 0. -1.
    9900012    2    1    2    0    0 -0.16968996468E+02  0.18289550211E+01 -0.77065635411E+01  0.72461466973E+02  0.69999865405E+02 0.  0.
        -12    1    1    2    0    0  0.16968996468E+02 -0.18289550211E+01  0.77065635411E+01  0.18726533027E+02  0.00000000000E+00 0.  1.
         11    1    3    3    0    0  0.98408892312E+01  0.14570368665E+02  0.17412800291E+02  0.24745592701E+02  0.51100000000E-03 0.  1.
        -11    1    3    3    0    0 -0.21960366942E+02 -0.47874726735E+01 -0.17335776145E+01  0.22542912466E+02  0.51100000000E-03 0. -1.
        -12    1    3    3    0    0 -0.48495187568E+01 -0.79539409700E+01 -0.23385786217E+02  0.25172961807E+02  0.00000000000E+00 0.  1.
</event>
<event>
 7    1  0.3568800E-013  0.7246161E+02  0.7816164E-02  0.1226708E+00
        -11   -1    0    0    0    0  0.00000000000E+00  0.00000000000E+00  0.45593999997E+02  0.45594000000E+02  0.51100000000E-03 0.  1.
         11   -1    0    0    0    0 -0.00000000000E+00 -0.00000000000E+00 -0.45593999997E+02  0.45594000000E+02  0.51100000000E-03 0. -1.
    9900012    2    1    2    0    0 -0.79085400503E+01 -0.11309487019E+02 -0.12658129651E+02  0.72461608233E+02  0.70000049422E+02 0.  0.
        -12    1    1    2    0    0  0.79085400503E+01  0.11309487019E+02  0.12658129651E+02  0.18726391767E+02  0.00000000000E+00 0.  1.
         11    1    3    3    0    0 -0.10988358607E+02 -0.20641353272E+02 -0.19983114976E+01  0.23469187009E+02  0.51100000000E-03 0. -1.
        -11    1    3    3    0    0  0.37591191722E+00 -0.19138395506E+02 -0.56504664841E+01  0.19958638833E+02  0.51100000000E-03 0.  1.
        -12    1    3    3    0    0  0.27039066398E+01  0.28470261759E+02 -0.50093516692E+01  0.29033782390E+02  0.00000000000E+00 0.  1.
</event>
<event>
 7    1  0.3568800E-013  0.7246130E+02  0.7816164E-02  0.1226709E+00
        -11   -1    0    0    0    0  0.00000000000E+00  0.00000000000E+00  0.45593999997E+02  0.45594000000E+02  0.51100000000E-03 0. -1.
         11   -1    0    0    0    0 -0.00000000000E+00 -0.00000000000E+00 -0.45593999997E+02  0.45594000000E+02  0.51100000000E-03 0.  1.
    9900012    2    1    2    0    0  0.10106455797E+02 -0.70642837488E+01 -0.14094133981E+02  0.72461303380E+02  0.69999652293E+02 0.  0.
        -12    1    1    2    0    0 -0.10106455797E+02  0.70642837488E+01  0.14094133981E+02  0.18726696620E+02  0.00000000000E+00 0.  1.
         11    1    3    3    0    0 -0.32129543667E+01 -0.53587627799E+00  0.90376954350E+01  0.96067777212E+01  0.51100000000E-03 0.  1.
        -11    1    3    3    0    0  0.21228220555E+02 -0.14308047053E+02 -0.37063715115E+02  0.45045272081E+02  0.51100000000E-03 0. -1.
         12    1    3    3    0    0 -0.79088103921E+01  0.77796395818E+01  0.13931885700E+02  0.17809253578E+02  0.00000000000E+00 0. -1.
</event>
<event>
 7    1  0.3568800E-013  0.7246168E+02  0.7816164E-02  0.1226708E+00
        -11   -1    0    0    0    0  0.00000000000E+00  0.00000000000E+00  0.45593999997E+02  0.45594000000E+02  0.51100000000E-03 0.  1.
         11   -1    0    0    0    0 -0.00000000000E+00 -0.00000000000E+00 -0.45593999997E+02  0.45594000000E+02  0.51100000000E-03 0. -1.
    9900012    2    1    2    0    0 -0.17802327956E+02 -0.52440090898E+00  0.57859363419E+01  0.72461683323E+02  0.70000147240E+02 0.  0.
        -12    1    1    2    0    0  0.17802327956E+02  0.52440090898E+00 -0.57859363419E+01  0.18726316677E+02  0.00000000000E+00 0.  1.
         11    1    3    3    0    0 -0.14057460444E+02 -0.14763100777E+02  0.19161961090E+02  0.27977528336E+02  0.51100000000E-03 0. -1.
        -11    1    3    3    0    0  0.31723031789E+01  0.50562846730E+01  0.13767863277E+02  0.15006118140E+02  0.51100000000E-03 0.  1.
         12    1    3    3    0    0 -0.69171706901E+01  0.91824151955E+01 -0.27143888026E+02  0.29478036846E+02  0.00000000000E+00 0. -1.
</event>
<event>
 7    1  0.3568800E-013  0.7246162E+02  0.7816164E-02  0.1226708E+00
        -11   -1    0    0    0    0  0.00000000000E+00  0.00000000000E+00  0.45593999997E+02  0.45594000000E+02  0.51100000000E-03 0. -1.
         11   -1    0    0    0    0 -0.00000000000E+00 -0.00000000000E+00 -0.45593999997E+02  0.45594000000E+02  0.51100000000E-03 0.  1.
    9900012    2    1    2    0    0  0.17727091694E+02  0.52597793637E+01  0.29600905305E+01  0.72461623019E+02  0.70000068683E+02 0.  0.
        -12    1    1    2    0    0 -0.17727091694E+02 -0.52597793637E+01 -0.29600905305E+01  0.18726376981E+02  0.00000000000E+00 0.  1.
         11    1    3    3    0    0  0.33741617317E+02  0.89668342420E+01 -0.39894612580E+01  0.35139958123E+02  0.51100000000E-03 0. -1.
        -11    1    3    3    0    0  0.69732363400E+00 -0.12561631138E+02  0.12374014474E+02  0.17646446429E+02  0.51100000000E-03 0.  1.
        -12    1    3    3    0    0 -0.16711849256E+02  0.88545762602E+01 -0.54244626852E+01  0.19675218467E+02  0.00000000000E+00 0.  1.
</event>
<event>
 7    1  0.3568800E-013  0.7246158E+02  0.7816164E-02  0.1226708E+00
        -11   -1    0    0    0    0  0.00000000000E+00  0.00000000000E+00  0.45593999997E+02  0.45594000000E+02  0.51100000000E-03 0. -1.
         11   -1    0    0    0    0 -0.00000000000E+00 -0.00000000000E+00 -0.45593999997E+02  0.45594000000E+02  0.51100000000E-03 0.  1.
    9900012    2    1    2    0    0  0.77325971527E+01 -0.11009036790E+02  0.13026389635E+02  0.72461580783E+02  0.70000013663E+02 0.  0.
        -12    1    1    2    0    0 -0.77325971527E+01  0.11009036790E+02 -0.13026389635E+02  0.18726419217E+02  0.00000000000E+00 0.  1.
         11    1    3    3    0    0  0.88446365754E+01  0.62612018455E+01  0.86411795486E+01  0.13860022689E+02  0.51100000000E-03 0. -1.
        -11    1    3    3    0    0  0.17218547866E+02 -0.30483735914E+02  0.74606520012E+01  0.35796618198E+02  0.51100000000E-03 0.  1.
         12    1    3    3    0    0 -0.18330587288E+02  0.13213497278E+02 -0.30754419148E+01  0.22804939896E+02  0.00000000000E+00 0. -1.
</event>
<event>
 7    1  0.3568800E-013  0.7246168E+02  0.7816164E-02  0.1226708E+00
        -11   -1    0    0    0    0  0.00000000000E+00  0.00000000000E+00  0.45593999997E+02  0.45594000000E+02  0.51100000000E-03 0.  1.
         11   -1    0    0    0    0 -0.00000000000E+00 -0.00000000000E+00 -0.45593999997E+02  0.45594000000E+02  0.51100000000E-03 0. -1.
    9900012    2    1    2    0    0  0.43257480090E+01 -0.18202357013E+02 -0.79814957616E+00  0.72461683239E+02  0.70000147132E+02 0.  0.
        -12    1    1    2    0    0 -0.43257480090E+01  0.18202357013E+02  0.79814957616E+00  0.18726316761E+02  0.00000000000E+00 0.  1.
         11    1    3    3    0    0  0.18369817237E+02 -0.24184563047E+02 -0.10974050379E+02  0.32291996796E+02  0.51100000000E-03 0. -1.
        -11    1    3    3    0    0  0.66313385732E+01 -0.72707333438E+01  0.12029136709E+02  0.15541503944E+02  0.51100000000E-03 0.  1.
        -12    1    3    3    0    0 -0.20675407801E+02  0.13252939378E+02 -0.18532359059E+01  0.24628182499E+02  0.00000000000E+00 0.  1.
</event>
<event>
 7    1  0.3568800E-013  0.7246163E+02  0.7816164E-02  0.1226708E+00
        -11   -1    0    0    0    0  0.00000000000E+00  0.00000000000E+00  0.45593999997E+02  0.45594000000E+02  0.51100000000E-03 0. -1.
         11   -1    0    0    0    0 -0.00000000000E+00 -0.00000000000E+00 -0.45593999997E+02  0.45594000000E+02  0.51100000000E-03 0.  1.
    9900012    2    1    2    0    0  0.17262985454E+02 -0.26653647554E+01 -0.67499740251E+01  0.72461628611E+02  0.70000075968E+02 0.  0.
        -12    1    1    2    0    0 -0.17262985454E+02  0.26653647554E+01  0.67499740251E+01  0.18726371389E+02  0.00000000000E+00 0.  1.
         11    1    3    3    0    0  0.24949820435E+01 -0.71254001951E+00  0.95689016304E+00  0.27655537822E+01  0.51100000000E-03 0. -1.
        -11    1    3    3    0    0  0.26005871943E+02  0.21924671505E+02 -0.21175986389E+02  0.40067680192E+02  0.51100000000E-03 0.  1.
         12    1    3    3    0    0 -0.11237868532E+02 -0.23877496241E+02  0.13469122201E+02  0.29628394637E+02  0.00000000000E+00 0. -1.
</event>
<event>
 7    1  0.3568800E-013  0.7246156E+02  0.7816164E-02  0.1226708E+00
        -11   -1    0    0    0    0  0.00000000000E+00  0.00000000000E+00  0.45593999997E+02  0.45594000000E+02  0.51100000000E-03 0. -1.
         11   -1    0    0    0    0 -0.00000000000E+00 -0.00000000000E+00 -0.45593999997E+02  0.45594000000E+02  0.51100000000E-03 0.  1.
    9900012    2    1    2    0    0  0.62212029266E+00  0.12981270894E+02  0.13482549094E+02  0.72461559928E+02  0.69999986496E+02 0.  0.
        -12    1    1    2    0    0 -0.62212029266E+00 -0.12981270894E+02 -0.13482549094E+02  0.18726440072E+02  0.00000000000E+00 0.  1.
         11    1    3    3    0    0  0.29544860860E+02  0.78819046733E+01  0.11197475588E+02  0.32563886198E+02  0.51100000000E-03 0. -1.
        -11    1    3    3    0    0 -0.11796927591E+02  0.12073653557E+02  0.10266683793E+02  0.19757160908E+02  0.51100000000E-03 0.  1.
        -12    1    3    3    0    0 -0.17125812976E+02 -0.69742873356E+01 -0.79816102871E+01  0.20140512821E+02  0.00000000000E+00 0.  1.
</event>
<event>
 7    1  0.3568800E-013  0.7246160E+02  0.7816164E-02  0.1226708E+00
        -11   -1    0    0    0    0  0.00000000000E+00  0.00000000000E+00  0.45593999997E+02  0.45594000000E+02  0.51100000000E-03 0.  1.
         11   -1    0    0    0    0 -0.00000000000E+00 -0.00000000000E+00 -0.45593999997E+02  0.45594000000E+02  0.51100000000E-03 0. -1.
    9900012    2    1    2    0    0 -0.12075257762E+01  0.81094358477E+01 -0.16836180880E+02  0.72461600055E+02  0.70000038769E+02 0.  0.
        -12    1    1    2    0    0  0.12075257762E+01 -0.81094358477E+01  0.16836180880E+02  0.18726399945E+02  0.00000000000E+00 0.  1.
         11    1    3    3    0    0 -0.32581671560E+02  0.13812432349E+02 -0.53971486808E+01  0.35797734889E+02  0.51100000000E-03 0. -1.
        -11    1    3    3    0    0  0.11089299514E+02 -0.86750408974E+01 -0.25054262995E+01  0.14300561509E+02  0.51100000000E-03 0.  1.
        -12    1    3    3    0    0  0.20284846270E+02  0.29720443964E+01 -0.89336058997E+01  0.22363303657E+02  0.00000000000E+00 0.  1.
</event>
<event>
 7    1  0.3568800E-013  0.7246168E+02  0.7816164E-02  0.1226708E+00
        -11   -1    0    0    0    0  0.00000000000E+00  0.00000000000E+00  0.45593999997E+02  0.45594000000E+02  0.51100000000E-03 0.  1.
         11   -1    0    0    0    0 -0.00000000000E+00 -0.00000000000E+00 -0.45593999997E+02  0.45594000000E+02  0.51100000000E-03 0. -1.
    9900012    2    1    2    0    0 -0.80597119950E+01  0.41842058728E+01 -0.16377072077E+02  0.72461680927E+02  0.70000144119E+02 0.  0.
        -12    1    1    2    0    0  0.80597119950E+01 -0.41842058728E+01  0.16377072077E+02  0.18726319073E+02  0.00000000000E+00 0.  1.
         11    1    3    3    0    0 -0.53014820008E+01 -0.29240087375E+01  0.98242558604E+01  0.11539997486E+02  0.51100000000E-03 0. -1.
        -11    1    3    3    0    0 -0.22029665532E+02  0.22267937785E+01  0.61233365886E+01  0.22973028212E+02  0.51100000000E-03 0.  1.
         12    1    3    3    0    0  0.19271435537E+02  0.48814208318E+01 -0.32324664526E+02  0.37948655229E+02  0.00000000000E+00 0. -1.
</event>
<event>
 7    1  0.3568800E-013  0.7246157E+02  0.7816164E-02  0.1226708E+00
        -11   -1    0    0    0    0  0.00000000000E+00  0.00000000000E+00  0.45593999997E+02  0.45594000000E+02  0.51100000000E-03 0.  1.
         11   -1    0    0    0    0 -0.00000000000E+00 -0.00000000000E+00 -0.45593999997E+02  0.45594000000E+02  0.51100000000E-03 0. -1.
    9900012    2    1    2    0    0 -0.82417984933E+01  0.12978704117E+02 -0.10691352348E+02  0.72461574341E+02  0.70000005271E+02 0.  0.
        -12    1    1    2    0    0  0.82417984933E+01 -0.12978704117E+02  0.10691352348E+02  0.18726425659E+02  0.00000000000E+00 0.  1.
         11    1    3    3    0    0  0.24645749361E+01  0.10922113847E+02 -0.24147030198E+02  0.26616644570E+02  0.51100000000E-03 0. -1.
        -11    1    3    3    0    0 -0.16662309531E+02  0.82895745027E+01 -0.98068788231E+01  0.21036265754E+02  0.51100000000E-03 0.  1.
        -12    1    3    3    0    0  0.59559361019E+01 -0.62329842327E+01  0.23262556674E+02  0.24808664017E+02  0.00000000000E+00 0.  1.
</event>
<event>
 7    1  0.3568800E-013  0.7246159E+02  0.7816164E-02  0.1226708E+00
        -11   -1    0    0    0    0  0.00000000000E+00  0.00000000000E+00  0.45593999997E+02  0.45594000000E+02  0.51100000000E-03 0. -1.
         11   -1    0    0    0    0 -0.00000000000E+00 -0.00000000000E+00 -0.45593999997E+02  0.45594000000E+02  0.51100000000E-03 0.  1.
    9900012    2    1    2    0    0  0.60753732650E+01  0.53724205000E+01  0.16879140099E+02  0.72461589965E+02  0.70000025624E+02 0.  0.
        -12    1    1    2    0    0 -0.60753732650E+01 -0.53724205000E+01 -0.16879140099E+02  0.18726410035E+02  0.00000000000E+00 0.  1.
         11    1    3    3    0    0  0.56932844633E+01 -0.10779019000E+02  0.33213789457E+01  0.12634567541E+02  0.51100000000E-03 0. -1.
        -11    1    3    3    0    0  0.13011831467E+02 -0.16215687580E+02 -0.35629049882E+01  0.21093851570E+02  0.51100000000E-03 0.  1.
         12    1    3    3    0    0 -0.12629742666E+02  0.32367127081E+02  0.17120666141E+02  0.38733170854E+02  0.00000000000E+00 0. -1.
</event>
<event>
 7    1  0.3568800E-013  0.7246164E+02  0.7816164E-02  0.1226708E+00
        -11   -1    0    0    0    0  0.00000000000E+00  0.00000000000E+00  0.45593999997E+02  0.45594000000E+02  0.51100000000E-03 0. -1.
         11   -1    0    0    0    0 -0.00000000000E+00 -0.00000000000E+00 -0.45593999997E+02  0.45594000000E+02  0.51100000000E-03 0.  1.
    9900012    2    1    2    0    0  0.18560762571E+02  0.13300084362E+01  0.20989748702E+01  0.72461640900E+02  0.70000091977E+02 0.  0.
        -12    1    1    2    0    0 -0.18560762571E+02 -0.13300084362E+01 -0.20989748702E+01  0.18726359100E+02  0.00000000000E+00 0.  1.
         11    1    3    3    0    0 -0.42194823157E+01 -0.15705111906E+02  0.17072449731E+01  0.16351429805E+02  0.51100000000E-03 0. -1.
        -11    1    3    3    0    0  0.13876528188E+02 -0.64973850814E+01 -0.18953520833E+02  0.24372320359E+02  0.51100000000E-03 0.  1.
        -12    1    3    3    0    0  0.89037166983E+01  0.23532505424E+02  0.19345250730E+02  0.31737890736E+02  0.00000000000E+00 0.  1.
</event>
<event>
 7    1  0.3568800E-013  0.7246155E+02  0.7816164E-02  0.1226708E+00
        -11   -1    0    0    0    0  0.00000000000E+00  0.00000000000E+00  0.45593999997E+02  0.45594000000E+02  0.51100000000E-03 0. -1.
         11   -1    0    0    0    0 -0.00000000000E+00 -0.00000000000E+00 -0.45593999997E+02  0.45594000000E+02  0.51100000000E-03 0.  1.
    9900012    2    1    2    0    0  0.62423812130E+01  0.48615414633E+01  0.16972860949E+02  0.72461550325E+02  0.69999973987E+02 0.  0.
        -12    1    1    2    0    0 -0.62423812130E+01 -0.48615414633E+01 -0.16972860949E+02  0.18726449675E+02  0.00000000000E+00 0.  1.
         11    1    3    3    0    0 -0.69902241423E+01  0.10678256419E+02  0.50042317125E+01  0.13708782915E+02  0.51100000000E-03 0. -1.
        -11    1    3    3    0    0  0.19767119192E+02  0.15208304715E+02 -0.10711618444E+02  0.27143513100E+02  0.51100000000E-03 0.  1.
         12    1    3    3    0    0 -0.65345138371E+01 -0.21025019670E+02  0.22680247681E+02  0.31609254311E+02  0.00000000000E+00 0. -1.
</event>
<event>
 7    1  0.3568800E-013  0.7246159E+02  0.7816164E-02  0.1226708E+00
        -11   -1    0    0    0    0  0.00000000000E+00  0.00000000000E+00  0.45593999997E+02  0.45594000000E+02  0.51100000000E-03 0. -1.
         11   -1    0    0    0    0 -0.00000000000E+00 -0.00000000000E+00 -0.45593999997E+02  0.45594000000E+02  0.51100000000E-03 0.  1.
    9900012    2    1    2    0    0  0.54912008412E+01  0.13540298623E+02  0.11712613144E+02  0.72461594041E+02  0.70000030934E+02 0.  0.
        -12    1    1    2    0    0 -0.54912008412E+01 -0.13540298623E+02 -0.11712613144E+02  0.18726405959E+02  0.00000000000E+00 0.  1.
         11    1    3    3    0    0  0.10442065349E+02  0.58216827499E+01  0.13423713036E+02  0.17975672192E+02  0.51100000000E-03 0. -1.
        -11    1    3    3    0    0  0.21848781805E+02  0.14842497257E+02  0.20914651960E+01  0.26496098168E+02  0.51100000000E-03 0.  1.
        -12    1    3    3    0    0 -0.26799646313E+02 -0.71238813834E+01 -0.38025650888E+01  0.27989823682E+02  0.00000000000E+00 0.  1.
</event>
<event>
 7    1  0.3568800E-013  0.7246155E+02  0.7816164E-02  0.1226708E+00
        -11   -1    0    0    0    0  0.00000000000E+00  0.00000000000E+00  0.45593999997E+02  0.45594000000E+02  0.51100000000E-03 0.  1.
         11   -1    0    0    0    0 -0.00000000000E+00 -0.00000000000E+00 -0.45593999997E+02  0.45594000000E+02  0.51100000000E-03 0. -1.
    9900012    2    1    2    0    0 -0.11118855270E+02 -0.15066976055E+02 -0.19309014688E+00  0.72461548287E+02  0.69999971331E+02 0.  0.
        -12    1    1    2    0    0  0.11118855270E+02  0.15066976055E+02  0.19309014688E+00  0.18726451713E+02  0.00000000000E+00 0.  1.
         11    1    3    3    0    0  0.15535682578E+02 -0.14610992663E+02  0.19849985358E+02  0.29135209948E+02  0.51100000000E-03 0. -1.
        -11    1    3    3    0    0 -0.24761395190E+01 -0.50150731234E+01  0.55113981838E+01  0.78522439820E+01  0.51100000000E-03 0.  1.
        -12    1    3    3    0    0 -0.24178398329E+02  0.45590897314E+01 -0.25554473688E+02  0.35474094357E+02  0.00000000000E+00 0.  1.
</event>
<event>
 7    1  0.3568800E-013  0.7246119E+02  0.7816164E-02  0.1226709E+00
        -11   -1    0    0    0    0  0.00000000000E+00  0.00000000000E+00  0.45593999997E+02  0.45594000000E+02  0.51100000000E-03 0. -1.
         11   -1    0    0    0    0 -0.00000000000E+00 -0.00000000000E+00 -0.45593999997E+02  0.45594000000E+02  0.51100000000E-03 0.  1.
    9900012    2    1    2    0    0  0.11416902755E+01 -0.60710826654E+01  0.17678568553E+02  0.72461193345E+02  0.69999508951E+02 0.  0.
        -12    1    1    2    0    0 -0.11416902755E+01  0.60710826654E+01 -0.17678568553E+02  0.18726806655E+02  0.00000000000E+00 0.  1.
         11    1    3    3    0    0 -0.98695840251E+01 -0.13061556811E+02 -0.15058845391E+02  0.22243690789E+02  0.51100000000E-03 0. -1.
        -11    1    3    3    0    0  0.16444390655E+02 -0.13068529929E+00  0.17523827832E+00  0.16445843589E+02  0.51100000000E-03 0.  1.
         12    1    3    3    0    0 -0.54331163540E+01  0.71211594448E+01  0.32562175667E+02  0.33771658966E+02  0.00000000000E+00 0. -1.
</event>
<event>
 7    1  0.3568800E-013  0.7246157E+02  0.7816164E-02  0.1226708E+00
        -11   -1    0    0    0    0  0.00000000000E+00  0.00000000000E+00  0.45593999997E+02  0.45594000000E+02  0.51100000000E-03 0.  1.
         11   -1    0    0    0    0 -0.00000000000E+00 -0.00000000000E+00 -0.45593999997E+02  0.45594000000E+02  0.51100000000E-03 0. -1.
    9900012    2    1    2    0    0  0.68176370222E+01  0.22483410309E+01 -0.17295775499E+02  0.72461573164E+02  0.70000003738E+02 0.  0.
        -12    1    1    2    0    0 -0.68176370222E+01 -0.22483410309E+01  0.17295775499E+02  0.18726426836E+02  0.00000000000E+00 0.  1.
         11    1    3    3    0    0  0.32509880126E+02  0.11351735975E+01 -0.59527502468E+01  0.33069867866E+02  0.51100000000E-03 0. -1.
        -11    1    3    3    0    0 -0.66114027231E+01  0.36151612385E+01  0.87650112691E+01  0.11558782789E+02  0.51100000000E-03 0.  1.
        -12    1    3    3    0    0 -0.19080840381E+02 -0.25019938052E+01 -0.20108036521E+02  0.27832922509E+02  0.00000000000E+00 0.  1.
</event>
<event>
 7    1  0.3568800E-013  0.7246156E+02  0.7816164E-02  0.1226708E+00
        -11   -1    0    0    0    0  0.00000000000E+00  0.00000000000E+00  0.45593999997E+02  0.45594000000E+02  0.51100000000E-03 0. -1.
         11   -1    0    0    0    0 -0.00000000000E+00 -0.00000000000E+00 -0.45593999997E+02  0.45594000000E+02  0.51100000000E-03 0.  1.
    9900012    2    1    2    0    0 -0.93769207275E+01 -0.94288991268E+01  0.13185166278E+02  0.72461564385E+02  0.69999992302E+02 0.  0.
        -12    1    1    2    0    0  0.93769207275E+01  0.94288991268E+01 -0.13185166278E+02  0.18726435615E+02  0.00000000000E+00 0.  1.
         11    1    3    3    0    0  0.67729688869E+01  0.78195393598E+01 -0.12508232131E+02  0.16231887587E+02  0.51100000000E-03 0. -1.
        -11    1    3    3    0    0 -0.12501382632E+02  0.13409437436E+02  0.48019986954E+01  0.18951431919E+02  0.51100000000E-03 0.  1.
         12    1    3    3    0    0 -0.36485069820E+01 -0.30657875922E+02  0.20891399713E+02  0.37278244879E+02  0.00000000000E+00 0. -1.
</event>
<event>
 7    1  0.3568800E-013  0.7246155E+02  0.7816164E-02  0.1226708E+00
        -11   -1    0    0    0    0  0.00000000000E+00  0.00000000000E+00  0.45593999997E+02  0.45594000000E+02  0.51100000000E-03 0.  1.
         11   -1    0    0    0    0 -0.00000000000E+00 -0.00000000000E+00 -0.45593999997E+02  0.45594000000E+02  0.51100000000E-03 0. -1.
    9900012    2    1    2    0    0  0.12803130966E+02  0.13442134419E+02 -0.24634889160E+01  0.72461550312E+02  0.69999973970E+02 0.  0.
        -12    1    1    2    0    0 -0.12803130966E+02 -0.13442134419E+02  0.24634889160E+01  0.18726449688E+02  0.00000000000E+00 0.  1.
         11    1    3    3    0    0  0.41749954770E+01  0.75382202696E+01 -0.18812510491E+02  0.20692170097E+02  0.51100000000E-03 0. -1.
        -11    1    3    3    0    0 -0.18601921566E+02  0.61366911286E+01 -0.77205275174E+00  0.19603227532E+02  0.51100000000E-03 0.  1.
         12    1    3    3    0    0  0.27230057055E+02 -0.23277697966E+00  0.17121074327E+02  0.32166152684E+02  0.00000000000E+00 0. -1.
</event>
<event>
 7    1  0.3568800E-013  0.7246157E+02  0.7816164E-02  0.1226708E+00
        -11   -1    0    0    0    0  0.00000000000E+00  0.00000000000E+00  0.45593999997E+02  0.45594000000E+02  0.51100000000E-03 0. -1.
         11   -1    0    0    0    0 -0.00000000000E+00 -0.00000000000E+00 -0.45593999997E+02  0.45594000000E+02  0.51100000000E-03 0.  1.
    9900012    2    1    2    0    0  0.35555566550E+01  0.24854318894E+01  0.18217023170E+02  0.72461567132E+02  0.69999995880E+02 0.  0.
        -12    1    1    2    0    0 -0.35555566550E+01 -0.24854318894E+01 -0.18217023170E+02  0.18726432868E+02  0.00000000000E+00 0.  1.
         11    1    3    3    0    0  0.55066833539E+00 -0.81631551082E+00 -0.85381204852E+01  0.85947139748E+01  0.51100000000E-03 0. -1.
        -11    1    3    3    0    0  0.22778437641E+01  0.28560717126E+02  0.23684675753E+01  0.28749135184E+02  0.51100000000E-03 0.  1.
         12    1    3    3    0    0  0.72704455549E+00 -0.25258969725E+02  0.24386676080E+02  0.35117717972E+02  0.00000000000E+00 0. -1.
</event>
<event>
 7    1  0.3568800E-013  0.7246147E+02  0.7816164E-02  0.1226708E+00
        -11   -1    0    0    0    0  0.00000000000E+00  0.00000000000E+00  0.45593999997E+02  0.45594000000E+02  0.51100000000E-03 0. -1.
         11   -1    0    0    0    0 -0.00000000000E+00 -0.00000000000E+00 -0.45593999997E+02  0.45594000000E+02  0.51100000000E-03 0.  1.
    9900012    2    1    2    0    0 -0.16473499978E+02 -0.78306142409E+01 -0.42412420566E+01  0.72461471889E+02  0.69999871808E+02 0.  0.
        -12    1    1    2    0    0  0.16473499978E+02  0.78306142409E+01  0.42412420566E+01  0.18726528111E+02  0.00000000000E+00 0.  1.
         11    1    3    3    0    0 -0.17545370851E+02 -0.51682288101E+01  0.24929977783E+02  0.30920129687E+02  0.51100000000E-03 0. -1.
        -11    1    3    3    0    0 -0.19138471899E+01 -0.12340624069E+02 -0.21338087759E+01  0.12669133895E+02  0.51100000000E-03 0.  1.
        -12    1    3    3    0    0  0.29857180626E+01  0.96782386387E+01 -0.27037411064E+02  0.28872208307E+02  0.00000000000E+00 0.  1.
</event>
<event>
 7    1  0.3568800E-013  0.7246120E+02  0.7816164E-02  0.1226709E+00
        -11   -1    0    0    0    0  0.00000000000E+00  0.00000000000E+00  0.45593999997E+02  0.45594000000E+02  0.51100000000E-03 0.  1.
         11   -1    0    0    0    0 -0.00000000000E+00 -0.00000000000E+00 -0.45593999997E+02  0.45594000000E+02  0.51100000000E-03 0. -1.
    9900012    2    1    2    0    0 -0.32237404604E+01  0.72864629382E+01 -0.16947206712E+02  0.72461204758E+02  0.69999523819E+02 0.  0.
        -12    1    1    2    0    0  0.32237404604E+01 -0.72864629382E+01  0.16947206712E+02  0.18726795242E+02  0.00000000000E+00 0.  1.
         11    1    3    3    0    0  0.13396798941E+02 -0.25950099467E+01  0.49018148118E+01  0.14499520241E+02  0.51100000000E-03 0. -1.
        -11    1    3    3    0    0 -0.49887210696E+00 -0.73984677178E+01  0.13522216791E+02  0.15421950109E+02  0.51100000000E-03 0.  1.
        -12    1    3    3    0    0 -0.16121667295E+02  0.17279940603E+02 -0.35371238315E+02  0.42539734408E+02  0.00000000000E+00 0.  1.
</event>
<event>
 7    1  0.3568800E-013  0.7246159E+02  0.7816164E-02  0.1226708E+00
        -11   -1    0    0    0    0  0.00000000000E+00  0.00000000000E+00  0.45593999997E+02  0.45594000000E+02  0.51100000000E-03 0. -1.
         11   -1    0    0    0    0 -0.00000000000E+00 -0.00000000000E+00 -0.45593999997E+02  0.45594000000E+02  0.51100000000E-03 0.  1.
    9900012    2    1    2    0    0 -0.74710437779E+01 -0.52594999914E+01  0.16346240978E+02  0.72461590056E+02  0.70000025743E+02 0.  0.
        -12    1    1    2    0    0  0.74710437779E+01  0.52594999914E+01 -0.16346240978E+02  0.18726409944E+02  0.00000000000E+00 0.  1.
         11    1    3    3    0    0 -0.17192093237E+01 -0.21371481194E+00  0.59178229660E+01  0.61661968536E+01  0.51100000000E-03 0. -1.
        -11    1    3    3    0    0 -0.12271594801E+02  0.10382540940E+02 -0.23491954106E+02  0.28465085690E+02  0.51100000000E-03 0.  1.
         12    1    3    3    0    0  0.65197603469E+01 -0.15428326120E+02  0.33920372118E+02  0.37830307512E+02  0.00000000000E+00 0. -1.
</event>
<event>
 7    1  0.3568800E-013  0.7246159E+02  0.7816164E-02  0.1226708E+00
        -11   -1    0    0    0    0  0.00000000000E+00  0.00000000000E+00  0.45593999997E+02  0.45594000000E+02  0.51100000000E-03 0.  1.
         11   -1    0    0    0    0 -0.00000000000E+00 -0.00000000000E+00 -0.45593999997E+02  0.45594000000E+02  0.51100000000E-03 0. -1.
    9900012    2    1    2    0    0 -0.16647771420E+02 -0.53560960302E+01  0.66964414818E+01  0.72461591203E+02  0.70000027237E+02 0.  0.
        -12    1    1    2    0    0  0.16647771420E+02  0.53560960302E+01 -0.66964414818E+01  0.18726408797E+02  0.00000000000E+00 0.  1.
         11    1    3    3    0    0 -0.12066996030E+02  0.14472362166E+02  0.13503762251E+02  0.23182175373E+02  0.51100000000E-03 0. -1.
        -11    1    3    3    0    0 -0.18535857225E+02  0.55200247539E+01  0.81112651758E+00  0.19357339767E+02  0.51100000000E-03 0.  1.
         12    1    3    3    0    0  0.13955081835E+02 -0.25348482950E+02 -0.76184472866E+01  0.29922076063E+02  0.00000000000E+00 0. -1.
</event>
<event>
 7    1  0.3568800E-013  0.7246165E+02  0.7816164E-02  0.1226708E+00
        -11   -1    0    0    0    0  0.00000000000E+00  0.00000000000E+00  0.45593999997E+02  0.45594000000E+02  0.51100000000E-03 0.  1.
         11   -1    0    0    0    0 -0.00000000000E+00 -0.00000000000E+00 -0.45593999997E+02  0.45594000000E+02  0.51100000000E-03 0. -1.
    9900012    2    1    2    0    0  0.49090361180E+01  0.12339495648E+02 -0.13202816391E+02  0.72461650940E+02  0.70000105056E+02 0.  0.
        -12    1    1    2    0    0 -0.49090361180E+01 -0.12339495648E+02  0.13202816391E+02  0.18726349060E+02  0.00000000000E+00 0.  1.
         11    1    3    3    0    0  0.43585989196E+01 -0.44829046202E+01 -0.33149917031E+01  0.70769335611E+01  0.51100000000E-03 0. -1.
        -11    1    3    3    0    0  0.29091945702E+02  0.24872658867E+01  0.58504461732E+01  0.29778440473E+02  0.51100000000E-03 0.  1.
         12    1    3    3    0    0 -0.28541508504E+02  0.14335134381E+02 -0.15738270861E+02  0.35606276906E+02  0.00000000000E+00 0. -1.
</event>
<event>
 7    1  0.3568800E-013  0.7246158E+02  0.7816164E-02  0.1226708E+00
        -11   -1    0    0    0    0  0.00000000000E+00  0.00000000000E+00  0.45593999997E+02  0.45594000000E+02  0.51100000000E-03 0. -1.
         11   -1    0    0    0    0 -0.00000000000E+00 -0.00000000000E+00 -0.45593999997E+02  0.45594000000E+02  0.51100000000E-03 0.  1.
    9900012    2    1    2    0    0 -0.41322217048E+01  0.74526023588E+01  0.16675201255E+02  0.72461578157E+02  0.70000010243E+02 0.  0.
        -12    1    1    2    0    0  0.41322217048E+01 -0.74526023588E+01 -0.16675201255E+02  0.18726421843E+02  0.00000000000E+00 0.  1.
         11    1    3    3    0    0 -0.55161908818E+01 -0.17216562683E+02  0.29811933787E+02  0.34865309247E+02  0.51100000000E-03 0. -1.
        -11    1    3    3    0    0 -0.11291603806E+02  0.64429279449E+01 -0.55439263344E+01  0.14133179277E+02  0.51100000000E-03 0.  1.
        -12    1    3    3    0    0  0.12675572983E+02  0.18226237097E+02 -0.75928061982E+01  0.23463089633E+02  0.00000000000E+00 0.  1.
</event>
<event>
 7    1  0.3568800E-013  0.7246157E+02  0.7816164E-02  0.1226708E+00
        -11   -1    0    0    0    0  0.00000000000E+00  0.00000000000E+00  0.45593999997E+02  0.45594000000E+02  0.51100000000E-03 0. -1.
         11   -1    0    0    0    0 -0.00000000000E+00 -0.00000000000E+00 -0.45593999997E+02  0.45594000000E+02  0.51100000000E-03 0.  1.
    9900012    2    1    2    0    0  0.39817522645E+01  0.10083554009E+02  0.15269149954E+02  0.72461565399E+02  0.69999993624E+02 0.  0.
        -12    1    1    2    0    0 -0.39817522645E+01 -0.10083554009E+02 -0.15269149954E+02  0.18726434601E+02  0.00000000000E+00 0.  1.
         11    1    3    3    0    0  0.14142007714E+02  0.59304821763E+01 -0.13708258768E+01  0.15396303611E+02  0.51100000000E-03 0. -1.
        -11    1    3    3    0    0  0.22314528387E+01 -0.20755270544E+02 -0.54119530253E+01  0.21565015023E+02  0.51100000000E-03 0.  1.
         12    1    3    3    0    0 -0.12391708288E+02  0.24908342376E+02  0.22051928856E+02  0.35500246766E+02  0.00000000000E+00 0. -1.
</event>
<event>
 7    1  0.3568800E-013  0.7246178E+02  0.7816164E-02  0.1226707E+00
        -11   -1    0    0    0    0  0.00000000000E+00  0.00000000000E+00  0.45593999997E+02  0.45594000000E+02  0.51100000000E-03 0.  1.
         11   -1    0    0    0    0 -0.00000000000E+00 -0.00000000000E+00 -0.45593999997E+02  0.45594000000E+02  0.51100000000E-03 0. -1.
    9900012    2    1    2    0    0  0.53838128974E+00  0.10095524361E+02 -0.15762676363E+02  0.72461776872E+02  0.70000269105E+02 0.  0.
        -12    1    1    2    0    0 -0.53838128974E+00 -0.10095524361E+02  0.15762676363E+02  0.18726223128E+02  0.00000000000E+00 0.  1.
         11    1    3    3    0    0  0.24543225259E+02  0.18462578575E+02  0.51092999942E+01  0.31134252207E+02  0.51100000000E-03 0. -1.
        -11    1    3    3    0    0  0.99812851367E+00  0.61313839590E+01 -0.67025415595E+01  0.91386100366E+01  0.51100000000E-03 0.  1.
        -12    1    3    3    0    0 -0.25002972483E+02 -0.14498438173E+02 -0.14169434797E+02  0.32188914628E+02  0.00000000000E+00 0.  1.
</event>
<event>
 7    1  0.3568800E-013  0.7246155E+02  0.7816164E-02  0.1226708E+00
        -11   -1    0    0    0    0  0.00000000000E+00  0.00000000000E+00  0.45593999997E+02  0.45594000000E+02  0.51100000000E-03 0.  1.
         11   -1    0    0    0    0 -0.00000000000E+00 -0.00000000000E+00 -0.45593999997E+02  0.45594000000E+02  0.51100000000E-03 0. -1.
    9900012    2    1    2    0    0  0.15722417579E+02  0.14313004000E+01  0.10071585718E+02  0.72461551478E+02  0.69999975488E+02 0.  0.
        -12    1    1    2    0    0 -0.15722417579E+02 -0.14313004000E+01 -0.10071585718E+02  0.18726448522E+02  0.00000000000E+00 0.  1.
         11    1    3    3    0    0 -0.22944241433E+02  0.78148375238E+01  0.30783336297E+01  0.24433297744E+02  0.51100000000E-03 0. -1.
        -11    1    3    3    0    0  0.90188161324E+01 -0.10443321706E+02 -0.64393262712E+01  0.15227177538E+02  0.51100000000E-03 0.  1.
        -12    1    3    3    0    0  0.29647842879E+02  0.40597845821E+01  0.13432578360E+02  0.32801076196E+02  0.00000000000E+00 0.  1.
</event>
<event>
 7    1  0.3568800E-013  0.7246155E+02  0.7816164E-02  0.1226708E+00
        -11   -1    0    0    0    0  0.00000000000E+00  0.00000000000E+00  0.45593999997E+02  0.45594000000E+02  0.51100000000E-03 0.  1.
         11   -1    0    0    0    0 -0.00000000000E+00 -0.00000000000E+00 -0.45593999997E+02  0.45594000000E+02  0.51100000000E-03 0. -1.
    9900012    2    1    2    0    0  0.36967282905E+01  0.14412708010E+02 -0.11370491670E+02  0.72461547238E+02  0.69999969965E+02 0.  0.
        -12    1    1    2    0    0 -0.36967282905E+01 -0.14412708010E+02  0.11370491670E+02  0.18726452762E+02  0.00000000000E+00 0.  1.
         11    1    3    3    0    0  0.18908030872E+00 -0.10525519104E+02 -0.19226911611E+02  0.21920228879E+02  0.51100000000E-03 0. -1.
        -11    1    3    3    0    0 -0.16385961477E+02  0.10883812526E+02 -0.82597150869E+01  0.21334947907E+02  0.51100000000E-03 0.  1.
         12    1    3    3    0    0  0.19893609459E+02  0.14054414588E+02  0.16116135028E+02  0.29206370452E+02  0.00000000000E+00 0. -1.
</event>
<event>
 7    1  0.3568800E-013  0.7246162E+02  0.7816164E-02  0.1226708E+00
        -11   -1    0    0    0    0  0.00000000000E+00  0.00000000000E+00  0.45593999997E+02  0.45594000000E+02  0.51100000000E-03 0. -1.
         11   -1    0    0    0    0 -0.00000000000E+00 -0.00000000000E+00 -0.45593999997E+02  0.45594000000E+02  0.51100000000E-03 0.  1.
    9900012    2    1    2    0    0  0.35040026039E+01  0.47086517846E+01  0.17782797220E+02  0.72461619868E+02  0.70000064579E+02 0.  0.
        -12    1    1    2    0    0 -0.35040026039E+01 -0.47086517846E+01 -0.17782797220E+02  0.18726380132E+02  0.00000000000E+00 0.  1.
         11    1    3    3    0    0  0.11919195194E+02 -0.17073676265E+02  0.21345579666E+02  0.29819648000E+02  0.51100000000E-03 0. -1.
        -11    1    3    3    0    0  0.10839949273E+02 -0.20524227207E+01  0.27218724712E+01  0.11363341466E+02  0.51100000000E-03 0.  1.
        -12    1    3    3    0    0 -0.19255141863E+02  0.23834750770E+02 -0.62846549180E+01  0.31278630403E+02  0.00000000000E+00 0.  1.
</event>
<event>
 7    1  0.3568800E-013  0.7246165E+02  0.7816164E-02  0.1226708E+00
        -11   -1    0    0    0    0  0.00000000000E+00  0.00000000000E+00  0.45593999997E+02  0.45594000000E+02  0.51100000000E-03 0. -1.
         11   -1    0    0    0    0 -0.00000000000E+00 -0.00000000000E+00 -0.45593999997E+02  0.45594000000E+02  0.51100000000E-03 0.  1.
    9900012    2    1    2    0    0  0.67104666596E+01 -0.15332019534E+02  0.84008835649E+01  0.72461654108E+02  0.70000109183E+02 0.  0.
        -12    1    1    2    0    0 -0.67104666596E+01  0.15332019534E+02 -0.84008835649E+01  0.18726345892E+02  0.00000000000E+00 0.  1.
         11    1    3    3    0    0  0.37219155480E+01 -0.22339063006E+02 -0.10125190812E+01  0.22669618137E+02  0.51100000000E-03 0. -1.
        -11    1    3    3    0    0 -0.88091088400E+01 -0.10274659954E+02 -0.13254105426E+02  0.18943081762E+02  0.51100000000E-03 0.  1.
         12    1    3    3    0    0  0.11797659952E+02  0.17281703426E+02  0.22667508072E+02  0.30848954210E+02  0.00000000000E+00 0. -1.
</event>
<event>
 7    1  0.3568800E-013  0.7246160E+02  0.7816164E-02  0.1226708E+00
        -11   -1    0    0    0    0  0.00000000000E+00  0.00000000000E+00  0.45593999997E+02  0.45594000000E+02  0.51100000000E-03 0. -1.
         11   -1    0    0    0    0 -0.00000000000E+00 -0.00000000000E+00 -0.45593999997E+02  0.45594000000E+02  0.51100000000E-03 0.  1.
    9900012    2    1    2    0    0  0.25184942162E+01 -0.12651016299E+01  0.18513094626E+02  0.72461602379E+02  0.70000041796E+02 0.  0.
        -12    1    1    2    0    0 -0.25184942162E+01  0.12651016299E+01 -0.18513094626E+02  0.18726397621E+02  0.00000000000E+00 0.  1.
         11    1    3    3    0    0 -0.18013878041E+02  0.15509982364E+02  0.10912948797E+02  0.26156295738E+02  0.51100000000E-03 0. -1.
        -11    1    3    3    0    0  0.61736321990E+01  0.45350016033E+01  0.17236210258E+02  0.18861784602E+02  0.51100000000E-03 0.  1.
        -12    1    3    3    0    0  0.14358740058E+02 -0.21310085598E+02 -0.96360644288E+01  0.27443522039E+02  0.00000000000E+00 0.  1.
</event>
<event>
 7    1  0.3568800E-013  0.7246156E+02  0.7816164E-02  0.1226708E+00
        -11   -1    0    0    0    0  0.00000000000E+00  0.00000000000E+00  0.45593999997E+02  0.45594000000E+02  0.51100000000E-03 0. -1.
         11   -1    0    0    0    0 -0.00000000000E+00 -0.00000000000E+00 -0.45593999997E+02  0.45594000000E+02  0.51100000000E-03 0.  1.
    9900012    2    1    2    0    0  0.55721143727E+01  0.10055034099E+02 -0.14782674117E+02  0.72461558177E+02  0.69999984214E+02 0.  0.
        -12    1    1    2    0    0 -0.55721143727E+01 -0.10055034099E+02  0.14782674117E+02  0.18726441823E+02  0.00000000000E+00 0.  1.
         11    1    3    3    0    0 -0.60557195061E+01  0.17321100393E+02 -0.15487974666E+02  0.24011864090E+02  0.51100000000E-03 0. -1.
        -11    1    3    3    0    0 -0.92874892591E+01 -0.19640960411E+02 -0.72098067800E+01  0.22891179451E+02  0.51100000000E-03 0.  1.
         12    1    3    3    0    0  0.20915323138E+02  0.12374894117E+02  0.79151073288E+01  0.25558514636E+02  0.00000000000E+00 0. -1.
</event>
<event>
 7    1  0.3568800E-013  0.7246234E+02  0.7816164E-02  0.1226706E+00
        -11   -1    0    0    0    0  0.00000000000E+00  0.00000000000E+00  0.45593999997E+02  0.45594000000E+02  0.51100000000E-03 0. -1.
         11   -1    0    0    0    0 -0.00000000000E+00 -0.00000000000E+00 -0.45593999997E+02  0.45594000000E+02  0.51100000000E-03 0.  1.
    9900012    2    1    2    0    0 -0.16997525137E+02  0.58620304837E+01  0.52317378196E+01  0.72462339990E+02  0.70001002665E+02 0.  0.
        -12    1    1    2    0    0  0.16997525137E+02 -0.58620304837E+01 -0.52317378196E+01  0.18725660010E+02  0.00000000000E+00 0.  1.
         11    1    3    3    0    0 -0.53108990222E+01  0.80196873470E+01 -0.18304901236E+02  0.20678260157E+02  0.51100000000E-03 0. -1.
        -11    1    3    3    0    0 -0.79702602144E+01 -0.67242094778E+01 -0.11922547380E+02  0.15839418464E+02  0.51100000000E-03 0.  1.
         12    1    3    3    0    0 -0.37163659008E+01  0.45665526146E+01  0.35459186436E+02  0.35944661370E+02  0.00000000000E+00 0. -1.
</event>
<event>
 7    1  0.3568800E-013  0.7246156E+02  0.7816164E-02  0.1226708E+00
        -11   -1    0    0    0    0  0.00000000000E+00  0.00000000000E+00  0.45593999997E+02  0.45594000000E+02  0.51100000000E-03 0. -1.
         11   -1    0    0    0    0 -0.00000000000E+00 -0.00000000000E+00 -0.45593999997E+02  0.45594000000E+02  0.51100000000E-03 0.  1.
    9900012    2    1    2    0    0 -0.85603679121E+01  0.27049855827E+01  0.16434195863E+02  0.72461557747E+02  0.69999983654E+02 0.  0.
        -12    1    1    2    0    0  0.85603679121E+01 -0.27049855827E+01 -0.16434195863E+02  0.18726442253E+02  0.00000000000E+00 0.  1.
         11    1    3    3    0    0  0.11442449265E+02  0.50427562712E+01  0.30795428010E+02  0.33237289639E+02  0.51100000000E-03 0. -1.
        -11    1    3    3    0    0  0.49803776623E+01  0.61345872709E+01  0.20399327086E+01  0.81607994927E+01  0.51100000000E-03 0.  1.
        -12    1    3    3    0    0 -0.24983194839E+02 -0.84723579594E+01 -0.16401164855E+02  0.31063468615E+02  0.00000000000E+00 0.  1.
</event>
<event>
 7    1  0.3568800E-013  0.7246160E+02  0.7816164E-02  0.1226708E+00
        -11   -1    0    0    0    0  0.00000000000E+00  0.00000000000E+00  0.45593999997E+02  0.45594000000E+02  0.51100000000E-03 0. -1.
         11   -1    0    0    0    0 -0.00000000000E+00 -0.00000000000E+00 -0.45593999997E+02  0.45594000000E+02  0.51100000000E-03 0.  1.
    9900012    2    1    2    0    0 -0.56326761506E+01  0.88950226321E+01  0.15486432442E+02  0.72461599971E+02  0.70000038660E+02 0.  0.
        -12    1    1    2    0    0  0.56326761506E+01 -0.88950226321E+01 -0.15486432442E+02  0.18726400029E+02  0.00000000000E+00 0.  1.
         11    1    3    3    0    0 -0.14350639415E+02 -0.15056653983E+02  0.16644533242E+02  0.26639898046E+02  0.51100000000E-03 0. -1.
        -11    1    3    3    0    0  0.34146619587E+01 -0.10133979853E+02  0.29211250051E+01  0.11085595857E+02  0.51100000000E-03 0.  1.
        -12    1    3    3    0    0  0.53033013059E+01  0.34085656468E+02 -0.40792258050E+01  0.34736106068E+02  0.00000000000E+00 0.  1.
</event>
<event>
 7    1  0.3568800E-013  0.7246157E+02  0.7816164E-02  0.1226708E+00
        -11   -1    0    0    0    0  0.00000000000E+00  0.00000000000E+00  0.45593999997E+02  0.45594000000E+02  0.51100000000E-03 0. -1.
         11   -1    0    0    0    0 -0.00000000000E+00 -0.00000000000E+00 -0.45593999997E+02  0.45594000000E+02  0.51100000000E-03 0.  1.
    9900012    2    1    2    0    0  0.58649847116E+01  0.11478648707E+02  0.13583880612E+02  0.72461568565E+02  0.69999997748E+02 0.  0.
        -12    1    1    2    0    0 -0.58649847116E+01 -0.11478648707E+02 -0.13583880612E+02  0.18726431435E+02  0.00000000000E+00 0.  1.
         11    1    3    3    0    0 -0.20544177742E+02  0.21288867315E+02  0.14016565290E+02  0.32737489419E+02  0.51100000000E-03 0. -1.
        -11    1    3    3    0    0  0.31635495768E+01  0.68585005264E+01  0.68616640401E+01  0.10204386756E+02  0.51100000000E-03 0.  1.
        -12    1    3    3    0    0  0.23245612877E+02 -0.16668719134E+02 -0.72943487189E+01  0.29519692391E+02  0.00000000000E+00 0.  1.
</event>
<event>
 7    1  0.3568800E-013  0.7246157E+02  0.7816164E-02  0.1226708E+00
        -11   -1    0    0    0    0  0.00000000000E+00  0.00000000000E+00  0.45593999997E+02  0.45594000000E+02  0.51100000000E-03 0.  1.
         11   -1    0    0    0    0 -0.00000000000E+00 -0.00000000000E+00 -0.45593999997E+02  0.45594000000E+02  0.51100000000E-03 0. -1.
    9900012    2    1    2    0    0 -0.58248421571E+01  0.16342051680E+02 -0.70489419602E+01  0.72461574233E+02  0.70000005131E+02 0.  0.
        -12    1    1    2    0    0  0.58248421571E+01 -0.16342051680E+02  0.70489419602E+01  0.18726425767E+02  0.00000000000E+00 0.  1.
         11    1    3    3    0    0 -0.31515440892E+02  0.81264159622E+01 -0.10464646403E+02  0.34187285292E+02  0.51100000000E-03 0. -1.
        -11    1    3    3    0    0  0.43549496771E+01  0.55682087693E+01 -0.10504799889E+02  0.12661807002E+02  0.51100000000E-03 0.  1.
        -12    1    3    3    0    0  0.21335649058E+02  0.26474269480E+01  0.13920504333E+02  0.25612481938E+02  0.00000000000E+00 0.  1.
</event>
<event>
 7    1  0.3568800E-013  0.7246158E+02  0.7816164E-02  0.1226708E+00
        -11   -1    0    0    0    0  0.00000000000E+00  0.00000000000E+00  0.45593999997E+02  0.45594000000E+02  0.51100000000E-03 0. -1.
         11   -1    0    0    0    0 -0.00000000000E+00 -0.00000000000E+00 -0.45593999997E+02  0.45594000000E+02  0.51100000000E-03 0.  1.
    9900012    2    1    2    0    0 -0.85917828204E+01  0.10911241338E+02 -0.12562043056E+02  0.72461578951E+02  0.70000011277E+02 0.  0.
        -12    1    1    2    0    0  0.85917828204E+01 -0.10911241338E+02  0.12562043056E+02  0.18726421049E+02  0.00000000000E+00 0.  1.
         11    1    3    3    0    0  0.15401774290E+02  0.12838307629E+02  0.10145112877E+01  0.20076504364E+02  0.51100000000E-03 0. -1.
        -11    1    3    3    0    0 -0.10583576704E+02 -0.60402974089E+01 -0.29048751408E+02  0.31501226123E+02  0.51100000000E-03 0.  1.
         12    1    3    3    0    0 -0.13409980406E+02  0.41132311176E+01  0.15472197064E+02  0.20883848464E+02  0.00000000000E+00 0. -1.
</event>
<event>
 7    1  0.3568800E-013  0.7246158E+02  0.7816164E-02  0.1226708E+00
        -11   -1    0    0    0    0  0.00000000000E+00  0.00000000000E+00  0.45593999997E+02  0.45594000000E+02  0.51100000000E-03 0.  1.
         11   -1    0    0    0    0 -0.00000000000E+00 -0.00000000000E+00 -0.45593999997E+02  0.45594000000E+02  0.51100000000E-03 0. -1.
    9900012    2    1    2    0    0 -0.11057958496E+02 -0.34435343724E+01 -0.14715382075E+02  0.72461578968E+02  0.70000011299E+02 0.  0.
        -12    1    1    2    0    0  0.11057958496E+02  0.34435343724E+01  0.14715382075E+02  0.18726421032E+02  0.00000000000E+00 0.  1.
         11    1    3    3    0    0  0.40330639344E+01  0.91764273051E+01  0.47199108048E+01  0.11079259048E+02  0.51100000000E-03 0. -1.
        -11    1    3    3    0    0 -0.26142308808E+02  0.11197723799E+02  0.45372540515E+00  0.28443192421E+02  0.51100000000E-03 0.  1.
         12    1    3    3    0    0  0.11051286378E+02 -0.23817685477E+02 -0.19889018285E+02  0.32939127499E+02  0.00000000000E+00 0. -1.
</event>
<event>
 7    1  0.3568800E-013  0.7246161E+02  0.7816164E-02  0.1226708E+00
        -11   -1    0    0    0    0  0.00000000000E+00  0.00000000000E+00  0.45593999997E+02  0.45594000000E+02  0.51100000000E-03 0.  1.
         11   -1    0    0    0    0 -0.00000000000E+00 -0.00000000000E+00 -0.45593999997E+02  0.45594000000E+02  0.51100000000E-03 0. -1.
    9900012    2    1    2    0    0  0.15179724062E+02  0.18054075839E+00 -0.10964533074E+02  0.72461612118E+02  0.70000054483E+02 0.  0.
        -12    1    1    2    0    0 -0.15179724062E+02 -0.18054075839E+00  0.10964533074E+02  0.18726387882E+02  0.00000000000E+00 0.  1.
         11    1    3    3    0    0  0.52779971286E+01 -0.15857049581E+02  0.10940424442E+02  0.19974888293E+02  0.51100000000E-03 0. -1.
        -11    1    3    3    0    0 -0.31997954729E+01  0.11090877709E+02  0.11482168060E+02  0.16281475457E+02  0.51100000000E-03 0.  1.
         12    1    3    3    0    0  0.13101522407E+02  0.49467126299E+01 -0.33387125575E+02  0.36205248368E+02  0.00000000000E+00 0. -1.
</event>
<event>
 7    1  0.3568800E-013  0.7246157E+02  0.7816164E-02  0.1226708E+00
        -11   -1    0    0    0    0  0.00000000000E+00  0.00000000000E+00  0.45593999997E+02  0.45594000000E+02  0.51100000000E-03 0. -1.
         11   -1    0    0    0    0 -0.00000000000E+00 -0.00000000000E+00 -0.45593999997E+02  0.45594000000E+02  0.51100000000E-03 0.  1.
    9900012    2    1    2    0    0 -0.18407685229E+02  0.29710510178E+01  0.17346680242E+01  0.72461572343E+02  0.70000002669E+02 0.  0.
        -12    1    1    2    0    0  0.18407685229E+02 -0.29710510178E+01 -0.17346680242E+01  0.18726427657E+02  0.00000000000E+00 0.  1.
         11    1    3    3    0    0 -0.44571853264E+00  0.33632966190E+02  0.29646590355E+01  0.33766318769E+02  0.51100000000E-03 0.  1.
        -11    1    3    3    0    0 -0.49914270810E+01 -0.20750830159E+01  0.41896348617E+01  0.68391047925E+01  0.51100000000E-03 0. -1.
        -12    1    3    3    0    0 -0.12970539615E+02 -0.28586832156E+02 -0.54196258729E+01  0.31856148782E+02  0.00000000000E+00 0.  1.
</event>
<event>
 7    1  0.3568800E-013  0.7246158E+02  0.7816164E-02  0.1226708E+00
        -11   -1    0    0    0    0  0.00000000000E+00  0.00000000000E+00  0.45593999997E+02  0.45594000000E+02  0.51100000000E-03 0. -1.
         11   -1    0    0    0    0 -0.00000000000E+00 -0.00000000000E+00 -0.45593999997E+02  0.45594000000E+02  0.51100000000E-03 0.  1.
    9900012    2    1    2    0    0 -0.19952717906E+01  0.17870855356E+02  0.52278278324E+01  0.72461581108E+02  0.70000014087E+02 0.  0.
        -12    1    1    2    0    0  0.19952717906E+01 -0.17870855356E+02 -0.52278278324E+01  0.18726418892E+02  0.00000000000E+00 0.  1.
         11    1    3    3    0    0  0.10764869319E+02 -0.14495380706E+02 -0.99399705079E+00  0.18082768142E+02  0.51100000000E-03 0. -1.
        -11    1    3    3    0    0  0.26610990674E+00  0.17256954410E+02 -0.16683225945E+02  0.24004235422E+02  0.51100000000E-03 0.  1.
         12    1    3    3    0    0 -0.13026251017E+02  0.15109281651E+02  0.22905050828E+02  0.30374577545E+02  0.00000000000E+00 0. -1.
</event>
<event>
 7    1  0.3568800E-013  0.7246143E+02  0.7816164E-02  0.1226708E+00
        -11   -1    0    0    0    0  0.00000000000E+00  0.00000000000E+00  0.45593999997E+02  0.45594000000E+02  0.51100000000E-03 0.  1.
         11   -1    0    0    0    0 -0.00000000000E+00 -0.00000000000E+00 -0.45593999997E+02  0.45594000000E+02  0.51100000000E-03 0. -1.
    9900012    2    1    2    0    0  0.42711758317E+01  0.17117435008E+02 -0.62797234542E+01  0.72461429281E+02  0.69999816304E+02 0.  0.
        -12    1    1    2    0    0 -0.42711758317E+01 -0.17117435008E+02  0.62797234542E+01  0.18726570719E+02  0.00000000000E+00 0.  1.
         11    1    3    3    0    0  0.16966884879E+02  0.29426163704E+02 -0.12194440395E+02  0.36089869350E+02  0.51100000000E-03 0. -1.
        -11    1    3    3    0    0  0.38715670936E+01 -0.17731412945E+02  0.64626250438E+00  0.18160663321E+02  0.51100000000E-03 0.  1.
        -12    1    3    3    0    0 -0.16567276141E+02  0.54226842484E+01  0.52684544369E+01  0.18210896610E+02  0.00000000000E+00 0.  1.
</event>
<event>
 7    1  0.3568800E-013  0.7246156E+02  0.7816164E-02  0.1226708E+00
        -11   -1    0    0    0    0  0.00000000000E+00  0.00000000000E+00  0.45593999997E+02  0.45594000000E+02  0.51100000000E-03 0. -1.
         11   -1    0    0    0    0 -0.00000000000E+00 -0.00000000000E+00 -0.45593999997E+02  0.45594000000E+02  0.51100000000E-03 0.  1.
    9900012    2    1    2    0    0  0.51901828753E+01  0.10426476294E+02  0.14663903896E+02  0.72461561907E+02  0.69999989073E+02 0.  0.
        -12    1    1    2    0    0 -0.51901828753E+01 -0.10426476294E+02 -0.14663903896E+02  0.18726438093E+02  0.00000000000E+00 0.  1.
         11    1    3    3    0    0 -0.49067961750E+01 -0.24345610983E+01 -0.96666393372E+00  0.55622096208E+01  0.51100000000E-03 0. -1.
        -11    1    3    3    0    0  0.12875866279E+01 -0.23366707041E+02 -0.55062601716E+01  0.24041210007E+02  0.51100000000E-03 0.  1.
         12    1    3    3    0    0  0.88093924224E+01  0.36227744433E+02  0.21136828002E+02  0.42858142278E+02  0.00000000000E+00 0. -1.
</event>
<event>
 7    1  0.3568800E-013  0.7246154E+02  0.7816164E-02  0.1226708E+00
        -11   -1    0    0    0    0  0.00000000000E+00  0.00000000000E+00  0.45593999997E+02  0.45594000000E+02  0.51100000000E-03 0. -1.
         11   -1    0    0    0    0 -0.00000000000E+00 -0.00000000000E+00 -0.45593999997E+02  0.45594000000E+02  0.51100000000E-03 0.  1.
    9900012    2    1    2    0    0  0.18572945298E+02 -0.16693826550E+01  0.17144506155E+01  0.72461535400E+02  0.69999954544E+02 0.  0.
        -12    1    1    2    0    0 -0.18572945298E+02  0.16693826550E+01 -0.17144506155E+01  0.18726464600E+02  0.00000000000E+00 0.  1.
         11    1    3    3    0    0  0.59451047505E+01 -0.59542290277E+00 -0.23303518530E+02  0.24057281124E+02  0.51100000000E-03 0.  1.
        -11    1    3    3    0    0  0.26262625412E+02  0.26880943258E+01  0.11353782972E+02  0.28737775360E+02  0.51100000000E-03 0. -1.
        -12    1    3    3    0    0 -0.13634784864E+02 -0.37620540780E+01  0.13664186173E+02  0.19666478916E+02  0.00000000000E+00 0.  1.
</event>
<event>
 7    1  0.3568800E-013  0.7246167E+02  0.7816164E-02  0.1226708E+00
        -11   -1    0    0    0    0  0.00000000000E+00  0.00000000000E+00  0.45593999997E+02  0.45594000000E+02  0.51100000000E-03 0. -1.
         11   -1    0    0    0    0 -0.00000000000E+00 -0.00000000000E+00 -0.45593999997E+02  0.45594000000E+02  0.51100000000E-03 0.  1.
    9900012    2    1    2    0    0 -0.16253545343E+02 -0.43955144902E+01  0.81961703547E+01  0.72461668476E+02  0.70000127900E+02 0.  0.
        -12    1    1    2    0    0  0.16253545343E+02  0.43955144902E+01 -0.81961703547E+01  0.18726331524E+02  0.00000000000E+00 0.  1.
         11    1    3    3    0    0 -0.24692920837E+01 -0.11072382255E+02 -0.65148486902E+01  0.13081984020E+02  0.51100000000E-03 0. -1.
        -11    1    3    3    0    0 -0.50412616714E+01 -0.23245924455E+02  0.15152601018E+02  0.28202635353E+02  0.51100000000E-03 0.  1.
         12    1    3    3    0    0 -0.87429915878E+01  0.29922792220E+02 -0.44158197258E+00  0.31177049103E+02  0.00000000000E+00 0. -1.
</event>
<event>
 7    1  0.3568800E-013  0.7246150E+02  0.7816164E-02  0.1226708E+00
        -11   -1    0    0    0    0  0.00000000000E+00  0.00000000000E+00  0.45593999997E+02  0.45594000000E+02  0.51100000000E-03 0. -1.
         11   -1    0    0    0    0 -0.00000000000E+00 -0.00000000000E+00 -0.45593999997E+02  0.45594000000E+02  0.51100000000E-03 0.  1.
    9900012    2    1    2    0    0  0.73921280239E+01  0.15427206816E+01  0.17136458191E+02  0.72461501578E+02  0.69999910484E+02 0.  0.
        -12    1    1    2    0    0 -0.73921280239E+01 -0.15427206816E+01 -0.17136458191E+02  0.18726498422E+02  0.00000000000E+00 0.  1.
         11    1    3    3    0    0 -0.24607657570E+02 -0.79173913773E+01  0.17393544024E+02  0.31156977891E+02  0.51100000000E-03 0. -1.
        -11    1    3    3    0    0  0.51869730016E+01  0.14881668361E+00 -0.10024035809E+02  0.11287520963E+02  0.51100000000E-03 0.  1.
        -12    1    3    3    0    0  0.26812812593E+02  0.93112953753E+01  0.97669499764E+01  0.30017002724E+02  0.00000000000E+00 0.  1.
</event>
<event>
 7    1  0.3568800E-013  0.7246159E+02  0.7816164E-02  0.1226708E+00
        -11   -1    0    0    0    0  0.00000000000E+00  0.00000000000E+00  0.45593999997E+02  0.45594000000E+02  0.51100000000E-03 0. -1.
         11   -1    0    0    0    0 -0.00000000000E+00 -0.00000000000E+00 -0.45593999997E+02  0.45594000000E+02  0.51100000000E-03 0.  1.
    9900012    2    1    2    0    0  0.16095518596E+02 -0.62339090390E+01  0.72629975785E+01  0.72461588849E+02  0.70000024170E+02 0.  0.
        -12    1    1    2    0    0 -0.16095518596E+02  0.62339090390E+01 -0.72629975785E+01  0.18726411151E+02  0.00000000000E+00 0.  1.
         11    1    3    3    0    0 -0.16213510515E+01  0.65147318479E+01 -0.71036927756E-01  0.67138332410E+01  0.51100000000E-03 0. -1.
        -11    1    3    3    0    0  0.51979961132E+01  0.17044546907E+02 -0.17511933725E+02  0.24984066240E+02  0.51100000000E-03 0.  1.
         12    1    3    3    0    0  0.12518873534E+02 -0.29793187793E+02  0.24845968231E+02  0.40763689367E+02  0.00000000000E+00 0. -1.
</event>
<event>
 7    1  0.3568800E-013  0.7246154E+02  0.7816164E-02  0.1226708E+00
        -11   -1    0    0    0    0  0.00000000000E+00  0.00000000000E+00  0.45593999997E+02  0.45594000000E+02  0.51100000000E-03 0.  1.
         11   -1    0    0    0    0 -0.00000000000E+00 -0.00000000000E+00 -0.45593999997E+02  0.45594000000E+02  0.51100000000E-03 0. -1.
    9900012    2    1    2    0    0  0.17575645124E+02 -0.51176798405E+01 -0.39479363817E+01  0.72461544111E+02  0.69999965891E+02 0.  0.
        -12    1    1    2    0    0 -0.17575645124E+02  0.51176798405E+01  0.39479363817E+01  0.18726455889E+02  0.00000000000E+00 0.  1.
         11    1    3    3    0    0 -0.20360605886E+01  0.52308135310E+01 -0.36685459256E+01  0.67056082786E+01  0.51100000000E-03 0. -1.
        -11    1    3    3    0    0  0.26219121869E+02  0.14860207893E+02 -0.17184696986E+02  0.34692678492E+02  0.51100000000E-03 0.  1.
        -12    1    3    3    0    0 -0.66074161554E+01 -0.25208701265E+02  0.16905306530E+02  0.31063257340E+02  0.00000000000E+00 0.  1.
</event>
<event>
 7    1  0.3568800E-013  0.7246154E+02  0.7816164E-02  0.1226708E+00
        -11   -1    0    0    0    0  0.00000000000E+00  0.00000000000E+00  0.45593999997E+02  0.45594000000E+02  0.51100000000E-03 0.  1.
         11   -1    0    0    0    0 -0.00000000000E+00 -0.00000000000E+00 -0.45593999997E+02  0.45594000000E+02  0.51100000000E-03 0. -1.
    9900012    2    1    2    0    0 -0.95913427233E+01  0.15952091183E+02 -0.20535936424E+01  0.72461539704E+02  0.69999960151E+02 0.  0.
        -12    1    1    2    0    0  0.95913427233E+01 -0.15952091183E+02  0.20535936424E+01  0.18726460296E+02  0.00000000000E+00 0.  1.
         11    1    3    3    0    0 -0.17254182144E+02 -0.38169617649E+01 -0.25596236366E+01  0.17855746190E+02  0.51100000000E-03 0. -1.
        -11    1    3    3    0    0 -0.19394856795E+01 -0.84571991179E+01 -0.17671416649E+02  0.19686665239E+02  0.51100000000E-03 0.  1.
        -12    1    3    3    0    0  0.96023251001E+01  0.28226252066E+02  0.18177446643E+02  0.34919128275E+02  0.00000000000E+00 0.  1.
</event>
<event>
 7    1  0.3568800E-013  0.7246157E+02  0.7816164E-02  0.1226708E+00
        -11   -1    0    0    0    0  0.00000000000E+00  0.00000000000E+00  0.45593999997E+02  0.45594000000E+02  0.51100000000E-03 0.  1.
         11   -1    0    0    0    0 -0.00000000000E+00 -0.00000000000E+00 -0.45593999997E+02  0.45594000000E+02  0.51100000000E-03 0. -1.
    9900012    2    1    2    0    0 -0.40459934373E+01 -0.64030137785E+01 -0.17126313589E+02  0.72461567732E+02  0.69999996662E+02 0.  0.
        -12    1    1    2    0    0  0.40459934373E+01  0.64030137785E+01  0.17126313589E+02  0.18726432268E+02  0.00000000000E+00 0.  1.
         11    1    3    3    0    0  0.67434337412E+01 -0.11163049041E+02  0.85747076587E+01  0.15608112449E+02  0.51100000000E-03 0. -1.
        -11    1    3    3    0    0  0.54227130439E+01 -0.20217643109E+02 -0.10892362035E+02  0.23596662065E+02  0.51100000000E-03 0.  1.
         12    1    3    3    0    0 -0.16212140222E+02  0.24977678372E+02 -0.14808659213E+02  0.33256793218E+02  0.00000000000E+00 0. -1.
</event>
<event>
 7    1  0.3568800E-013  0.7246149E+02  0.7816164E-02  0.1226708E+00
        -11   -1    0    0    0    0  0.00000000000E+00  0.00000000000E+00  0.45593999997E+02  0.45594000000E+02  0.51100000000E-03 0.  1.
         11   -1    0    0    0    0 -0.00000000000E+00 -0.00000000000E+00 -0.45593999997E+02  0.45594000000E+02  0.51100000000E-03 0. -1.
    9900012    2    1    2    0    0  0.81661078668E+01 -0.20797051058E+01 -0.16723386798E+02  0.72461490528E+02  0.69999896089E+02 0.  0.
        -12    1    1    2    0    0 -0.81661078668E+01  0.20797051058E+01  0.16723386798E+02  0.18726509472E+02  0.00000000000E+00 0.  1.
         11    1    3    3    0    0  0.11435431898E+02  0.17855572797E+02 -0.19631730414E+02  0.28896287338E+02  0.51100000000E-03 0. -1.
        -11    1    3    3    0    0  0.15842574481E+02 -0.15060955319E+02 -0.48152933493E+01  0.22383176531E+02  0.51100000000E-03 0.  1.
        -12    1    3    3    0    0 -0.19111898512E+02 -0.48743225842E+01  0.77236369654E+01  0.21182026659E+02  0.00000000000E+00 0.  1.
</event>
<event>
 7    1  0.3568800E-013  0.7246159E+02  0.7816164E-02  0.1226708E+00
        -11   -1    0    0    0    0  0.00000000000E+00  0.00000000000E+00  0.45593999997E+02  0.45594000000E+02  0.51100000000E-03 0. -1.
         11   -1    0    0    0    0 -0.00000000000E+00 -0.00000000000E+00 -0.45593999997E+02  0.45594000000E+02  0.51100000000E-03 0.  1.
    9900012    2    1    2    0    0 -0.81323369482E+01 -0.20720574462E+01  0.16740677340E+02  0.72461585391E+02  0.70000019667E+02 0.  0.
        -12    1    1    2    0    0  0.81323369482E+01  0.20720574462E+01 -0.16740677340E+02  0.18726414609E+02  0.00000000000E+00 0.  1.
         11    1    3    3    0    0  0.11232342457E+02  0.20060372473E+02  0.15906456079E+02  0.27957099386E+02  0.51100000000E-03 0. -1.
        -11    1    3    3    0    0  0.59051229700E+01 -0.15412729888E+02  0.65184598123E+01  0.17745789317E+02  0.51100000000E-03 0.  1.
        -12    1    3    3    0    0 -0.25269802375E+02 -0.67197000305E+01 -0.56842385518E+01  0.26758696689E+02  0.00000000000E+00 0.  1.
</event>
<event>
 7    1  0.3568800E-013  0.7246158E+02  0.7816164E-02  0.1226708E+00
        -11   -1    0    0    0    0  0.00000000000E+00  0.00000000000E+00  0.45593999997E+02  0.45594000000E+02  0.51100000000E-03 0.  1.
         11   -1    0    0    0    0 -0.00000000000E+00 -0.00000000000E+00 -0.45593999997E+02  0.45594000000E+02  0.51100000000E-03 0. -1.
    9900012    2    1    2    0    0 -0.15075703174E+02  0.53005446628E+00 -0.11095983457E+02  0.72461584625E+02  0.70000018668E+02 0.  0.
        -12    1    1    2    0    0  0.15075703174E+02 -0.53005446628E+00  0.11095983457E+02  0.18726415375E+02  0.00000000000E+00 0.  1.
         11    1    3    3    0    0  0.91245107388E+01 -0.18783828099E+02 -0.65153532162E+01  0.21875527927E+02  0.51100000000E-03 0. -1.
        -11    1    3    3    0    0 -0.48981026949E+00  0.49895850337E+00  0.14688107788E+02  0.14704740200E+02  0.51100000000E-03 0.  1.
         12    1    3    3    0    0 -0.23710403644E+02  0.18814924062E+02 -0.19268738029E+02  0.35881316498E+02  0.00000000000E+00 0. -1.
</event>
<event>
 7    1  0.3568800E-013  0.7246193E+02  0.7816164E-02  0.1226707E+00
        -11   -1    0    0    0    0  0.00000000000E+00  0.00000000000E+00  0.45593999997E+02  0.45594000000E+02  0.51100000000E-03 0.  1.
         11   -1    0    0    0    0 -0.00000000000E+00 -0.00000000000E+00 -0.45593999997E+02  0.45594000000E+02  0.51100000000E-03 0. -1.
    9900012    2    1    2    0    0  0.88235422760E+01 -0.73310933006E+01 -0.14800871158E+02  0.72461932225E+02  0.70000471480E+02 0.  0.
        -12    1    1    2    0    0 -0.88235422760E+01  0.73310933006E+01  0.14800871158E+02  0.18726067775E+02  0.00000000000E+00 0.  1.
         11    1    3    3    0    0  0.14201617012E+02  0.40049919344E+01 -0.23860513256E+02  0.28054411048E+02  0.51100000000E-03 0. -1.
        -11    1    3    3    0    0  0.11037821220E+02 -0.16126323710E+02 -0.71851086035E+01  0.20821085457E+02  0.51100000000E-03 0.  1.
        -12    1    3    3    0    0 -0.16415895956E+02  0.47902384750E+01  0.16244750701E+02  0.23586435721E+02  0.00000000000E+00 0.  1.
</event>
<event>
 7    1  0.3568800E-013  0.7246155E+02  0.7816164E-02  0.1226708E+00
        -11   -1    0    0    0    0  0.00000000000E+00  0.00000000000E+00  0.45593999997E+02  0.45594000000E+02  0.51100000000E-03 0.  1.
         11   -1    0    0    0    0 -0.00000000000E+00 -0.00000000000E+00 -0.45593999997E+02  0.45594000000E+02  0.51100000000E-03 0. -1.
    9900012    2    1    2    0    0 -0.95844672916E+01 -0.13773309852E+02 -0.83134637009E+01  0.72461554629E+02  0.69999979593E+02 0.  0.
        -12    1    1    2    0    0  0.95844672916E+01  0.13773309852E+02  0.83134637009E+01  0.18726445371E+02  0.00000000000E+00 0.  1.
         11    1    3    3    0    0  0.17877679373E+02  0.56918074882E+01 -0.16104663354E+01  0.18830870780E+02  0.51100000000E-03 0. -1.
        -11    1    3    3    0    0  0.57279256789E+01 -0.40789744548E+00  0.10267909080E+02  0.11764585417E+02  0.51100000000E-03 0.  1.
        -12    1    3    3    0    0 -0.33190072344E+02 -0.19057219894E+02 -0.16970906445E+02  0.41866098431E+02  0.00000000000E+00 0.  1.
</event>
<event>
 7    1  0.3568800E-013  0.7246151E+02  0.7816164E-02  0.1226708E+00
        -11   -1    0    0    0    0  0.00000000000E+00  0.00000000000E+00  0.45593999997E+02  0.45594000000E+02  0.51100000000E-03 0. -1.
         11   -1    0    0    0    0 -0.00000000000E+00 -0.00000000000E+00 -0.45593999997E+02  0.45594000000E+02  0.51100000000E-03 0.  1.
    9900012    2    1    2    0    0 -0.38029982623E+01 -0.43564357145E+01  0.17811231420E+02  0.72461513608E+02  0.69999926155E+02 0.  0.
        -12    1    1    2    0    0  0.38029982623E+01  0.43564357145E+01 -0.17811231420E+02  0.18726486392E+02  0.00000000000E+00 0.  1.
         11    1    3    3    0    0  0.61274609085E+01 -0.14281579858E+02 -0.14774955923E+02  0.21443148631E+02  0.51100000000E-03 0. -1.
        -11    1    3    3    0    0  0.21892825135E+01 -0.13070662191E+02  0.11518864257E+02  0.17559026228E+02  0.51100000000E-03 0.  1.
         12    1    3    3    0    0 -0.12119741684E+02  0.22995806335E+02  0.21067323085E+02  0.33459338748E+02  0.00000000000E+00 0. -1.
</event>
<event>
 7    1  0.3568800E-013  0.7246173E+02  0.7816164E-02  0.1226708E+00
        -11   -1    0    0    0    0  0.00000000000E+00  0.00000000000E+00  0.45593999997E+02  0.45594000000E+02  0.51100000000E-03 0.  1.
         11   -1    0    0    0    0 -0.00000000000E+00 -0.00000000000E+00 -0.45593999997E+02  0.45594000000E+02  0.51100000000E-03 0. -1.
    9900012    2    1    2    0    0  0.58778453350E+01  0.14045760865E+02 -0.10901400840E+02  0.72461734907E+02  0.70000214438E+02 0.  0.
        -12    1    1    2    0    0 -0.58778453350E+01 -0.14045760865E+02  0.10901400840E+02  0.18726265093E+02  0.00000000000E+00 0.  1.
         11    1    3    3    0    0  0.18131844153E+02  0.24169360221E+02 -0.38061350545E+01  0.30453380932E+02  0.51100000000E-03 0. -1.
        -11    1    3    3    0    0 -0.19624031327E+01  0.14507076558E+02 -0.13378778454E+01  0.14700211349E+02  0.51100000000E-03 0.  1.
        -12    1    3    3    0    0 -0.10291595686E+02 -0.24630675914E+02 -0.57573879403E+01  0.27308142625E+02  0.00000000000E+00 0.  1.
</event>
<event>
 7    1  0.3568800E-013  0.7246154E+02  0.7816164E-02  0.1226708E+00
        -11   -1    0    0    0    0  0.00000000000E+00  0.00000000000E+00  0.45593999997E+02  0.45594000000E+02  0.51100000000E-03 0. -1.
         11   -1    0    0    0    0 -0.00000000000E+00 -0.00000000000E+00 -0.45593999997E+02  0.45594000000E+02  0.51100000000E-03 0.  1.
    9900012    2    1    2    0    0 -0.12038327135E+02 -0.20210641756E+01  0.14201206346E+02  0.72461540583E+02  0.69999961296E+02 0.  0.
        -12    1    1    2    0    0  0.12038327135E+02  0.20210641756E+01 -0.14201206346E+02  0.18726459417E+02  0.00000000000E+00 0.  1.
         11    1    3    3    0    0 -0.11453804353E+02  0.21740029430E+02  0.15364584991E+01  0.24620707113E+02  0.51100000000E-03 0. -1.
        -11    1    3    3    0    0  0.12971628011E+02  0.22112726008E+00 -0.62734873802E+01  0.14410713885E+02  0.51100000000E-03 0.  1.
        -12    1    3    3    0    0 -0.13556150792E+02 -0.23982220866E+02  0.18938235227E+02  0.33430119585E+02  0.00000000000E+00 0.  1.
</event>
<event>
 7    1  0.3568800E-013  0.7246158E+02  0.7816164E-02  0.1226708E+00
        -11   -1    0    0    0    0  0.00000000000E+00  0.00000000000E+00  0.45593999997E+02  0.45594000000E+02  0.51100000000E-03 0.  1.
         11   -1    0    0    0    0 -0.00000000000E+00 -0.00000000000E+00 -0.45593999997E+02  0.45594000000E+02  0.51100000000E-03 0. -1.
    9900012    2    1    2    0    0 -0.10876062313E+02  0.63885398416E+01  0.13841117366E+02  0.72461582759E+02  0.70000016238E+02 0.  0.
        -12    1    1    2    0    0  0.10876062313E+02 -0.63885398416E+01 -0.13841117366E+02  0.18726417241E+02  0.00000000000E+00 0.  1.
         11    1    3    3    0    0  0.15043710372E+02  0.15012390889E+01 -0.46330013097E+01  0.15812388876E+02  0.51100000000E-03 0. -1.
        -11    1    3    3    0    0  0.10913941617E+02  0.10811725055E+02  0.10185648327E+02  0.18432442931E+02  0.51100000000E-03 0.  1.
         12    1    3    3    0    0 -0.36833714303E+02 -0.59244243021E+01  0.82884703488E+01  0.38216750952E+02  0.00000000000E+00 0. -1.
</event>
<event>
 7    1  0.3568800E-013  0.7246160E+02  0.7816164E-02  0.1226708E+00
        -11   -1    0    0    0    0  0.00000000000E+00  0.00000000000E+00  0.45593999997E+02  0.45594000000E+02  0.51100000000E-03 0. -1.
         11   -1    0    0    0    0 -0.00000000000E+00 -0.00000000000E+00 -0.45593999997E+02  0.45594000000E+02  0.51100000000E-03 0.  1.
    9900012    2    1    2    0    0 -0.85704741048E+01  0.13153385171E+02  0.10208504431E+02  0.72461598035E+02  0.70000036137E+02 0.  0.
        -12    1    1    2    0    0  0.85704741048E+01 -0.13153385171E+02 -0.10208504431E+02  0.18726401965E+02  0.00000000000E+00 0.  1.
         11    1    3    3    0    0 -0.23592113728E+02 -0.41138683456E+01  0.83147827546E+01  0.25350490241E+02  0.51100000000E-03 0. -1.
        -11    1    3    3    0    0 -0.87549671683E+01  0.76324471576E+00  0.13350092679E+02  0.15983021223E+02  0.51100000000E-03 0.  1.
        -12    1    3    3    0    0  0.23776606792E+02  0.16504008801E+02 -0.11456371003E+02  0.31128086571E+02  0.00000000000E+00 0.  1.
</event>
<event>
 7    1  0.3568800E-013  0.7246155E+02  0.7816164E-02  0.1226708E+00
        -11   -1    0    0    0    0  0.00000000000E+00  0.00000000000E+00  0.45593999997E+02  0.45594000000E+02  0.51100000000E-03 0. -1.
         11   -1    0    0    0    0 -0.00000000000E+00 -0.00000000000E+00 -0.45593999997E+02  0.45594000000E+02  0.51100000000E-03 0.  1.
    9900012    2    1    2    0    0  0.56117501567E+01  0.17443248039E+02 -0.38627962398E+01  0.72461552479E+02  0.69999976792E+02 0.  0.
        -12    1    1    2    0    0 -0.56117501567E+01 -0.17443248039E+02  0.38627962398E+01  0.18726447521E+02  0.00000000000E+00 0.  1.
         11    1    3    3    0    0  0.25998898021E+01  0.18415735559E+02  0.12914067240E+02  0.22642258635E+02  0.51100000000E-03 0. -1.
        -11    1    3    3    0    0  0.10474388859E+02  0.18352774364E+02 -0.19709858535E+02  0.28896637738E+02  0.51100000000E-03 0.  1.
         12    1    3    3    0    0 -0.74625285046E+01 -0.19325261884E+02  0.29329950552E+01  0.20922656106E+02  0.00000000000E+00 0. -1.
</event>
<event>
 7    1  0.3568800E-013  0.7246157E+02  0.7816164E-02  0.1226708E+00
        -11   -1    0    0    0    0  0.00000000000E+00  0.00000000000E+00  0.45593999997E+02  0.45594000000E+02  0.51100000000E-03 0.  1.
         11   -1    0    0    0    0 -0.00000000000E+00 -0.00000000000E+00 -0.45593999997E+02  0.45594000000E+02  0.51100000000E-03 0. -1.
    9900012    2    1    2    0    0  0.13391514811E+02 -0.29859791347E+01 -0.12744817346E+02  0.72461571896E+02  0.70000002087E+02 0.  0.
        -12    1    1    2    0    0 -0.13391514811E+02  0.29859791347E+01  0.12744817346E+02  0.18726428104E+02  0.00000000000E+00 0.  1.
         11    1    3    3    0    0  0.15728252024E+02  0.62936976842E+01 -0.10172123287E+02  0.19760076789E+02  0.51100000000E-03 0. -1.
        -11    1    3    3    0    0 -0.21758585937E+02  0.10463651676E+02 -0.57669232712E+01  0.24823002893E+02  0.51100000000E-03 0.  1.
         12    1    3    3    0    0  0.19421848724E+02 -0.19743328494E+02  0.31942292119E+01  0.27878492215E+02  0.00000000000E+00 0. -1.
</event>
<event>
 7    1  0.3568800E-013  0.7246155E+02  0.7816164E-02  0.1226708E+00
        -11   -1    0    0    0    0  0.00000000000E+00  0.00000000000E+00  0.45593999997E+02  0.45594000000E+02  0.51100000000E-03 0.  1.
         11   -1    0    0    0    0 -0.00000000000E+00 -0.00000000000E+00 -0.45593999997E+02  0.45594000000E+02  0.51100000000E-03 0. -1.
    9900012    2    1    2    0    0  0.14374131289E+02  0.70762812007E+01  0.96948645302E+01  0.72461553348E+02  0.69999977924E+02 0.  0.
        -12    1    1    2    0    0 -0.14374131289E+02 -0.70762812007E+01 -0.96948645302E+01  0.18726446652E+02  0.00000000000E+00 0.  1.
         11    1    3    3    0    0  0.30216206078E+02  0.12966404437E+02  0.10568847138E+02  0.34537621282E+02  0.51100000000E-03 0.  1.
        -11    1    3    3    0    0  0.41849933533E+01 -0.12748090294E+02 -0.79596971263E+01  0.15600793381E+02  0.51100000000E-03 0. -1.
        -12    1    3    3    0    0 -0.20027068141E+02  0.68579670576E+01  0.70857145186E+01  0.22323138685E+02  0.00000000000E+00 0.  1.
</event>
<event>
 7    1  0.3568800E-013  0.7246164E+02  0.7816164E-02  0.1226708E+00
        -11   -1    0    0    0    0  0.00000000000E+00  0.00000000000E+00  0.45593999997E+02  0.45594000000E+02  0.51100000000E-03 0.  1.
         11   -1    0    0    0    0 -0.00000000000E+00 -0.00000000000E+00 -0.45593999997E+02  0.45594000000E+02  0.51100000000E-03 0. -1.
    9900012    2    1    2    0    0  0.28892679566E+01 -0.36861428718E+01 -0.18131219565E+02  0.72461637793E+02  0.70000087930E+02 0.  0.
        -12    1    1    2    0    0 -0.28892679566E+01  0.36861428718E+01  0.18131219565E+02  0.18726362207E+02  0.00000000000E+00 0.  1.
         11    1    3    3    0    0  0.92666526215E+01 -0.20376522481E+02 -0.63394271150E+01  0.23265035045E+02  0.51100000000E-03 0. -1.
        -11    1    3    3    0    0  0.62356596399E+01  0.20286578126E+02  0.10233706948E+02  0.23561779673E+02  0.51100000000E-03 0.  1.
         12    1    3    3    0    0 -0.12613044305E+02 -0.35961985169E+01 -0.22025499398E+02  0.25634823076E+02  0.00000000000E+00 0. -1.
</event>
<event>
 7    1  0.3568800E-013  0.7246163E+02  0.7816164E-02  0.1226708E+00
        -11   -1    0    0    0    0  0.00000000000E+00  0.00000000000E+00  0.45593999997E+02  0.45594000000E+02  0.51100000000E-03 0. -1.
         11   -1    0    0    0    0 -0.00000000000E+00 -0.00000000000E+00 -0.45593999997E+02  0.45594000000E+02  0.51100000000E-03 0.  1.
    9900012    2    1    2    0    0 -0.64600550888E+01  0.16253659582E+02  0.66905315218E+01  0.72461628926E+02  0.70000076379E+02 0.  0.
        -12    1    1    2    0    0  0.64600550888E+01 -0.16253659582E+02 -0.66905315218E+01  0.18726371074E+02  0.00000000000E+00 0.  1.
         11    1    3    3    0    0  0.69028275587E+01  0.28550630259E+02  0.45585076433E+01  0.29724863477E+02  0.51100000000E-03 0. -1.
        -11    1    3    3    0    0 -0.81705940175E+01  0.13818203055E+02  0.51400324059E+00  0.16061305733E+02  0.51100000000E-03 0.  1.
        -12    1    3    3    0    0 -0.51922886300E+01 -0.26115173733E+02  0.16180206379E+01  0.26675459716E+02  0.00000000000E+00 0.  1.
</event>
<event>
 7    1  0.3568800E-013  0.7246153E+02  0.7816164E-02  0.1226708E+00
        -11   -1    0    0    0    0  0.00000000000E+00  0.00000000000E+00  0.45593999997E+02  0.45594000000E+02  0.51100000000E-03 0.  1.
         11   -1    0    0    0    0 -0.00000000000E+00 -0.00000000000E+00 -0.45593999997E+02  0.45594000000E+02  0.51100000000E-03 0. -1.
    9900012    2    1    2    0    0 -0.14396977035E+01 -0.18456057550E+02 -0.28252494215E+01  0.72461526118E+02  0.69999942452E+02 0.  0.
        -12    1    1    2    0    0  0.14396977035E+01  0.18456057550E+02  0.28252494215E+01  0.18726473882E+02  0.00000000000E+00 0.  1.
         11    1    3    3    0    0 -0.96130963864E+01 -0.12331462958E+02  0.10950185044E+02  0.19088822740E+02  0.51100000000E-03 0.  1.
        -11    1    3    3    0    0 -0.11590815545E+02 -0.20433979740E+02  0.31129647275E+01  0.23697786451E+02  0.51100000000E-03 0. -1.
         12    1    3    3    0    0  0.19764214228E+02  0.14309385149E+02 -0.16888399193E+02  0.29674916928E+02  0.00000000000E+00 0. -1.
</event>
<event>
 7    1  0.3568800E-013  0.7246159E+02  0.7816164E-02  0.1226708E+00
        -11   -1    0    0    0    0  0.00000000000E+00  0.00000000000E+00  0.45593999997E+02  0.45594000000E+02  0.51100000000E-03 0. -1.
         11   -1    0    0    0    0 -0.00000000000E+00 -0.00000000000E+00 -0.45593999997E+02  0.45594000000E+02  0.51100000000E-03 0.  1.
    9900012    2    1    2    0    0  0.14700273857E+02 -0.74818514665E+01 -0.88657902686E+01  0.72461591110E+02  0.70000027116E+02 0.  0.
        -12    1    1    2    0    0 -0.14700273857E+02  0.74818514665E+01  0.88657902686E+01  0.18726408890E+02  0.00000000000E+00 0.  1.
         11    1    3    3    0    0  0.12421536764E+02  0.27518026660E+01 -0.44349278606E+01  0.13473513976E+02  0.51100000000E-03 0. -1.
        -11    1    3    3    0    0  0.15273997044E+02 -0.45485904632E+01 -0.27571528180E+02  0.31846095952E+02  0.51100000000E-03 0.  1.
         12    1    3    3    0    0 -0.12995259951E+02 -0.56850636693E+01  0.23140665772E+02  0.27141981182E+02  0.00000000000E+00 0. -1.
</event>
<event>
 7    1  0.3568800E-013  0.7246159E+02  0.7816164E-02  0.1226708E+00
        -11   -1    0    0    0    0  0.00000000000E+00  0.00000000000E+00  0.45593999997E+02  0.45594000000E+02  0.51100000000E-03 0. -1.
         11   -1    0    0    0    0 -0.00000000000E+00 -0.00000000000E+00 -0.45593999997E+02  0.45594000000E+02  0.51100000000E-03 0.  1.
    9900012    2    1    2    0    0 -0.15291589932E+02 -0.57323885495E+01  0.91643655830E+01  0.72461585563E+02  0.70000019890E+02 0.  0.
        -12    1    1    2    0    0  0.15291589932E+02  0.57323885495E+01 -0.91643655830E+01  0.18726414437E+02  0.00000000000E+00 0.  1.
         11    1    3    3    0    0  0.59758994509E+01  0.70907512470E+01  0.21337451163E+02  0.23265359440E+02  0.51100000000E-03 0. -1.
        -11    1    3    3    0    0 -0.93576800844E-02  0.12493600992E+02  0.29591191757E+01  0.12839257762E+02  0.51100000000E-03 0.  1.
        -12    1    3    3    0    0 -0.21258131703E+02 -0.25316740789E+02 -0.15132204756E+02  0.36356968361E+02  0.00000000000E+00 0.  1.
</event>
<event>
 7    1  0.3568800E-013  0.7246155E+02  0.7816164E-02  0.1226708E+00
        -11   -1    0    0    0    0  0.00000000000E+00  0.00000000000E+00  0.45593999997E+02  0.45594000000E+02  0.51100000000E-03 0. -1.
         11   -1    0    0    0    0 -0.00000000000E+00 -0.00000000000E+00 -0.45593999997E+02  0.45594000000E+02  0.51100000000E-03 0.  1.
    9900012    2    1    2    0    0 -0.29373780236E+01  0.16640946961E+02  0.80703638795E+01  0.72461546023E+02  0.69999968382E+02 0.  0.
        -12    1    1    2    0    0  0.29373780236E+01 -0.16640946961E+02 -0.80703638795E+01  0.18726453977E+02  0.00000000000E+00 0.  1.
         11    1    3    3    0    0 -0.17195823497E+02 -0.16012050214E+01 -0.45848754206E+01  0.17868443865E+02  0.51100000000E-03 0. -1.
        -11    1    3    3    0    0 -0.43287699767E+01 -0.12773516519E+02 -0.49620496937E+01  0.14370905024E+02  0.51100000000E-03 0.  1.
         12    1    3    3    0    0  0.18587215450E+02  0.31015668502E+02  0.17617288994E+02  0.40222197134E+02  0.00000000000E+00 0. -1.
</event>
<event>
 7    1  0.3568800E-013  0.7246177E+02  0.7816164E-02  0.1226707E+00
        -11   -1    0    0    0    0  0.00000000000E+00  0.00000000000E+00  0.45593999997E+02  0.45594000000E+02  0.51100000000E-03 0. -1.
         11   -1    0    0    0    0 -0.00000000000E+00 -0.00000000000E+00 -0.45593999997E+02  0.45594000000E+02  0.51100000000E-03 0.  1.
    9900012    2    1    2    0    0 -0.27435005024E+01  0.11061750073E+02  0.14858748433E+02  0.72461774682E+02  0.70000266252E+02 0.  0.
        -12    1    1    2    0    0  0.27435005024E+01 -0.11061750073E+02 -0.14858748433E+02  0.18726225318E+02  0.00000000000E+00 0.  1.
         11    1    3    3    0    0  0.73732997711E+01 -0.14643382665E+02  0.83112497283E+01  0.18381269752E+02  0.51100000000E-03 0. -1.
        -11    1    3    3    0    0  0.12341956412E+02 -0.50539379636E+00  0.14102098443E+02  0.18746959533E+02  0.51100000000E-03 0.  1.
        -12    1    3    3    0    0 -0.22458756686E+02  0.26210526535E+02 -0.75545997388E+01  0.35333545397E+02  0.00000000000E+00 0.  1.
</event>
<event>
 7    1  0.3568800E-013  0.7246158E+02  0.7816164E-02  0.1226708E+00
        -11   -1    0    0    0    0  0.00000000000E+00  0.00000000000E+00  0.45593999997E+02  0.45594000000E+02  0.51100000000E-03 0.  1.
         11   -1    0    0    0    0 -0.00000000000E+00 -0.00000000000E+00 -0.45593999997E+02  0.45594000000E+02  0.51100000000E-03 0. -1.
    9900012    2    1    2    0    0 -0.84393234400E+01  0.86397245666E+01 -0.14311244378E+02  0.72461581860E+02  0.70000015066E+02 0.  0.
        -12    1    1    2    0    0  0.84393234400E+01 -0.86397245666E+01  0.14311244378E+02  0.18726418140E+02  0.00000000000E+00 0.  1.
         11    1    3    3    0    0 -0.90684459988E+01  0.29339043102E+01 -0.23348046843E+02  0.25218560605E+02  0.51100000000E-03 0. -1.
        -11    1    3    3    0    0 -0.77280323309E+01  0.14934248005E+02  0.23028345235E+02  0.28514188252E+02  0.51100000000E-03 0.  1.
         12    1    3    3    0    0  0.83571548897E+01 -0.92284277483E+01 -0.13991542770E+02  0.18728833003E+02  0.00000000000E+00 0. -1.
</event>
<event>
 7    1  0.3568800E-013  0.7246157E+02  0.7816164E-02  0.1226708E+00
        -11   -1    0    0    0    0  0.00000000000E+00  0.00000000000E+00  0.45593999997E+02  0.45594000000E+02  0.51100000000E-03 0.  1.
         11   -1    0    0    0    0 -0.00000000000E+00 -0.00000000000E+00 -0.45593999997E+02  0.45594000000E+02  0.51100000000E-03 0. -1.
    9900012    2    1    2    0    0  0.23759545615E+01 -0.24671817864E+00 -0.18573452781E+02  0.72461570064E+02  0.69999999700E+02 0.  0.
        -12    1    1    2    0    0 -0.23759545615E+01  0.24671817864E+00  0.18573452781E+02  0.18726429936E+02  0.00000000000E+00 0.  1.
         11    1    3    3    0    0  0.28095035693E+01  0.25304731621E+02  0.63609241937E+01  0.26242791573E+02  0.51100000000E-03 0. -1.
        -11    1    3    3    0    0  0.56244459954E+01 -0.22118290118E+02 -0.27740066506E+01  0.22990177548E+02  0.51100000000E-03 0.  1.
         12    1    3    3    0    0 -0.60579950032E+01 -0.34331596811E+01 -0.22160370324E+02  0.23228600943E+02  0.00000000000E+00 0. -1.
</event>
<event>
 7    1  0.3568800E-013  0.7246158E+02  0.7816164E-02  0.1226708E+00
        -11   -1    0    0    0    0  0.00000000000E+00  0.00000000000E+00  0.45593999997E+02  0.45594000000E+02  0.51100000000E-03 0.  1.
         11   -1    0    0    0    0 -0.00000000000E+00 -0.00000000000E+00 -0.45593999997E+02  0.45594000000E+02  0.51100000000E-03 0. -1.
    9900012    2    1    2    0    0 -0.12088021890E+02  0.14302202285E+02 -0.74446481436E-01  0.72461580008E+02  0.70000012654E+02 0.  0.
        -12    1    1    2    0    0  0.12088021890E+02 -0.14302202285E+02  0.74446481436E-01  0.18726419992E+02  0.00000000000E+00 0.  1.
         11    1    3    3    0    0  0.39608678883E+01 -0.31324520681E+01 -0.20991137126E+01  0.54687301110E+01  0.51100000000E-03 0. -1.
        -11    1    3    3    0    0  0.74859079995E+01 -0.17129294483E+02  0.14160764321E+02  0.23451626692E+02  0.51100000000E-03 0.  1.
         12    1    3    3    0    0 -0.23534797778E+02  0.34563948837E+02 -0.12136097090E+02  0.43541223205E+02  0.00000000000E+00 0. -1.
</event>
<event>
 7    1  0.3568800E-013  0.7246162E+02  0.7816164E-02  0.1226708E+00
        -11   -1    0    0    0    0  0.00000000000E+00  0.00000000000E+00  0.45593999997E+02  0.45594000000E+02  0.51100000000E-03 0.  1.
         11   -1    0    0    0    0 -0.00000000000E+00 -0.00000000000E+00 -0.45593999997E+02  0.45594000000E+02  0.51100000000E-03 0. -1.
    9900012    2    1    2    0    0  0.97330781198E+01  0.15820425752E+02 -0.23787855292E+01  0.72461620177E+02  0.70000064982E+02 0.  0.
        -12    1    1    2    0    0 -0.97330781198E+01 -0.15820425752E+02  0.23787855292E+01  0.18726379823E+02  0.00000000000E+00 0.  1.
         11    1    3    3    0    0  0.45895548064E+01 -0.72388490379E+01 -0.15509029454E+01  0.87103529735E+01  0.51100000000E-03 0. -1.
        -11    1    3    3    0    0  0.10984677082E+02  0.12725133781E+02  0.27953003843E+02  0.32618439332E+02  0.51100000000E-03 0.  1.
         12    1    3    3    0    0 -0.58411537687E+01  0.10334141009E+02 -0.28780886427E+02  0.31132827872E+02  0.00000000000E+00 0. -1.
</event>
<event>
 7    1  0.3568800E-013  0.7246125E+02  0.7816164E-02  0.1226709E+00
        -11   -1    0    0    0    0  0.00000000000E+00  0.00000000000E+00  0.45593999997E+02  0.45594000000E+02  0.51100000000E-03 0.  1.
         11   -1    0    0    0    0 -0.00000000000E+00 -0.00000000000E+00 -0.45593999997E+02  0.45594000000E+02  0.51100000000E-03 0. -1.
    9900012    2    1    2    0    0 -0.99512160841E+01  0.44925955902E+01 -0.15214504005E+02  0.72461247777E+02  0.69999579860E+02 0.  0.
        -12    1    1    2    0    0  0.99512160841E+01 -0.44925955902E+01  0.15214504005E+02  0.18726752223E+02  0.00000000000E+00 0.  1.
         11    1    3    3    0    0  0.97116527311E+01 -0.18763357703E+01 -0.17010075775E+01  0.10036446669E+02  0.51100000000E-03 0. -1.
        -11    1    3    3    0    0  0.17528832940E+02  0.85321651504E+01  0.59625373178E+01  0.20386507252E+02  0.51100000000E-03 0.  1.
         12    1    3    3    0    0 -0.37191701756E+02 -0.21632337899E+01 -0.19476033746E+02  0.42038293857E+02  0.00000000000E+00 0. -1.
</event>
<event>
 7    1  0.3568800E-013  0.7246158E+02  0.7816164E-02  0.1226708E+00
        -11   -1    0    0    0    0  0.00000000000E+00  0.00000000000E+00  0.45593999997E+02  0.45594000000E+02  0.51100000000E-03 0.  1.
         11   -1    0    0    0    0 -0.00000000000E+00 -0.00000000000E+00 -0.45593999997E+02  0.45594000000E+02  0.51100000000E-03 0. -1.
    9900012    2    1    2    0    0  0.81304505565E+01 -0.14544812162E+02 -0.85453416683E+01  0.72461584130E+02  0.70000018024E+02 0.  0.
        -12    1    1    2    0    0 -0.81304505565E+01  0.14544812162E+02  0.85453416683E+01  0.18726415870E+02  0.00000000000E+00 0.  1.
         11    1    3    3    0    0 -0.17321210217E-01 -0.16152071015E+02 -0.18757433765E+02  0.24753404207E+02  0.51100000000E-03 0. -1.
        -11    1    3    3    0    0  0.20199892947E+02 -0.70486224603E+01 -0.91881027023E+01  0.23283899699E+02  0.51100000000E-03 0.  1.
        -12    1    3    3    0    0 -0.12052121180E+02  0.86558813128E+01  0.19400194799E+02  0.24424280225E+02  0.00000000000E+00 0.  1.
</event>
<event>
 7    1  0.3568800E-013  0.7246166E+02  0.7816164E-02  0.1226708E+00
        -11   -1    0    0    0    0  0.00000000000E+00  0.00000000000E+00  0.45593999997E+02  0.45594000000E+02  0.51100000000E-03 0.  1.
         11   -1    0    0    0    0 -0.00000000000E+00 -0.00000000000E+00 -0.45593999997E+02  0.45594000000E+02  0.51100000000E-03 0. -1.
    9900012    2    1    2    0    0 -0.17652478560E+02 -0.42090295113E+01 -0.46205965572E+01  0.72461659159E+02  0.70000115763E+02 0.  0.
        -12    1    1    2    0    0  0.17652478560E+02  0.42090295113E+01  0.46205965572E+01  0.18726340841E+02  0.00000000000E+00 0.  1.
         11    1    3    3    0    0 -0.26540626436E+02  0.80303782368E+00 -0.12192503440E+02  0.29218262470E+02  0.51100000000E-03 0. -1.
        -11    1    3    3    0    0 -0.81905688090E+01  0.12828599022E+02  0.10326278344E+02  0.18392672317E+02  0.51100000000E-03 0.  1.
        -12    1    3    3    0    0  0.17078716685E+02 -0.17840666356E+02 -0.27543714618E+01  0.24850724372E+02  0.00000000000E+00 0.  1.
</event>
<event>
 7    1  0.3568800E-013  0.7246157E+02  0.7816164E-02  0.1226708E+00
        -11   -1    0    0    0    0  0.00000000000E+00  0.00000000000E+00  0.45593999997E+02  0.45594000000E+02  0.51100000000E-03 0. -1.
         11   -1    0    0    0    0 -0.00000000000E+00 -0.00000000000E+00 -0.45593999997E+02  0.45594000000E+02  0.51100000000E-03 0.  1.
    9900012    2    1    2    0    0  0.12814115149E+02  0.30234070003E+01  0.13316777240E+02  0.72461572337E+02  0.70000002661E+02 0.  0.
        -12    1    1    2    0    0 -0.12814115149E+02 -0.30234070003E+01 -0.13316777240E+02  0.18726427663E+02  0.00000000000E+00 0.  1.
         11    1    3    3    0    0  0.55528554207E+01  0.16224028856E+01 -0.11812220903E+01  0.59043780649E+01  0.51100000000E-03 0. -1.
        -11    1    3    3    0    0  0.24354253077E+02  0.22287078088E+02  0.20565760033E+02  0.38894652314E+02  0.51100000000E-03 0.  1.
         12    1    3    3    0    0 -0.17092993348E+02 -0.20886073973E+02 -0.60677607029E+01  0.27662541958E+02  0.00000000000E+00 0. -1.
</event>
<event>
 7    1  0.3568800E-013  0.7246165E+02  0.7816164E-02  0.1226708E+00
        -11   -1    0    0    0    0  0.00000000000E+00  0.00000000000E+00  0.45593999997E+02  0.45594000000E+02  0.51100000000E-03 0. -1.
         11   -1    0    0    0    0 -0.00000000000E+00 -0.00000000000E+00 -0.45593999997E+02  0.45594000000E+02  0.51100000000E-03 0.  1.
    9900012    2    1    2    0    0 -0.52346013410E+01  0.11054203873E+02  0.14180254264E+02  0.72461652639E+02  0.70000107270E+02 0.  0.
        -12    1    1    2    0    0  0.52346013410E+01 -0.11054203873E+02 -0.14180254264E+02  0.18726347361E+02  0.00000000000E+00 0.  1.
         11    1    3    3    0    0 -0.32187034551E+01 -0.18281407540E+01  0.21654896077E+02  0.21968993489E+02  0.51100000000E-03 0. -1.
        -11    1    3    3    0    0  0.25222093638E+01  0.25976135129E+02  0.10210691049E+02  0.28024620394E+02  0.51100000000E-03 0.  1.
         12    1    3    3    0    0 -0.45381072497E+01 -0.13093790502E+02 -0.17685332862E+02  0.22468038756E+02  0.00000000000E+00 0. -1.
</event>
<event>
 7    1  0.3568800E-013  0.7246157E+02  0.7816164E-02  0.1226708E+00
        -11   -1    0    0    0    0  0.00000000000E+00  0.00000000000E+00  0.45593999997E+02  0.45594000000E+02  0.51100000000E-03 0. -1.
         11   -1    0    0    0    0 -0.00000000000E+00 -0.00000000000E+00 -0.45593999997E+02  0.45594000000E+02  0.51100000000E-03 0.  1.
    9900012    2    1    2    0    0  0.11899635053E+02 -0.14358873172E+02  0.17030915739E+01  0.72461572843E+02  0.70000003320E+02 0.  0.
        -12    1    1    2    0    0 -0.11899635053E+02  0.14358873172E+02 -0.17030915739E+01  0.18726427157E+02  0.00000000000E+00 0.  1.
         11    1    3    3    0    0 -0.23763889643E+02 -0.12317145286E+02 -0.69835136684E+01  0.27662320625E+02  0.51100000000E-03 0. -1.
        -11    1    3    3    0    0  0.27404667054E+00  0.59921552407E+01 -0.29563162413E+01  0.66873636051E+01  0.51100000000E-03 0.  1.
         12    1    3    3    0    0  0.35389478025E+02 -0.80338831259E+01  0.11642921484E+02  0.38111888613E+02  0.00000000000E+00 0. -1.
</event>
<event>
 7    1  0.3568800E-013  0.7246161E+02  0.7816164E-02  0.1226708E+00
        -11   -1    0    0    0    0  0.00000000000E+00  0.00000000000E+00  0.45593999997E+02  0.45594000000E+02  0.51100000000E-03 0.  1.
         11   -1    0    0    0    0 -0.00000000000E+00 -0.00000000000E+00 -0.45593999997E+02  0.45594000000E+02  0.51100000000E-03 0. -1.
    9900012    2    1    2    0    0 -0.14899275593E+02  0.74474255482E+01 -0.85571697115E+01  0.72461609158E+02  0.70000050627E+02 0.  0.
        -12    1    1    2    0    0  0.14899275593E+02 -0.74474255482E+01  0.85571697115E+01  0.18726390842E+02  0.00000000000E+00 0.  1.
         11    1    3    3    0    0 -0.27151596495E+02  0.64395586550E+01 -0.19187651441E+02  0.33865071623E+02  0.51100000000E-03 0. -1.
        -11    1    3    3    0    0 -0.92992765097E+01 -0.38868394802E+01  0.12910497363E+02  0.16378797489E+02  0.51100000000E-03 0.  1.
        -12    1    3    3    0    0  0.21551597412E+02  0.48947063734E+01 -0.22800156336E+01  0.22217740047E+02  0.00000000000E+00 0.  1.
</event>
<event>
 7    1  0.3568800E-013  0.7246158E+02  0.7816164E-02  0.1226708E+00
        -11   -1    0    0    0    0  0.00000000000E+00  0.00000000000E+00  0.45593999997E+02  0.45594000000E+02  0.51100000000E-03 0.  1.
         11   -1    0    0    0    0 -0.00000000000E+00 -0.00000000000E+00 -0.45593999997E+02  0.45594000000E+02  0.51100000000E-03 0. -1.
    9900012    2    1    2    0    0 -0.42210997691E+01  0.17277566861E+02 -0.58606045440E+01  0.72461583217E+02  0.70000016835E+02 0.  0.
        -12    1    1    2    0    0  0.42210997691E+01 -0.17277566861E+02  0.58606045440E+01  0.18726416783E+02  0.00000000000E+00 0.  1.
         11    1    3    3    0    0  0.13043032249E+02  0.25137640291E+02  0.16023289569E+02  0.32538707082E+02  0.51100000000E-03 0. -1.
        -11    1    3    3    0    0 -0.12004463602E+02  0.43570156190E+01  0.16633615193E+01  0.12878567594E+02  0.51100000000E-03 0.  1.
         12    1    3    3    0    0 -0.52596684164E+01 -0.12217089049E+02 -0.23547255632E+02  0.27044308542E+02  0.00000000000E+00 0. -1.
</event>
<event>
 7    1  0.3876916E-013  0.7246154E+02  0.7816164E-02  0.1226708E+00
        -11   -1    0    0    0    0  0.00000000000E+00  0.00000000000E+00  0.45593999997E+02  0.45594000000E+02  0.51100000000E-03 0.  1.
         11   -1    0    0    0    0 -0.00000000000E+00 -0.00000000000E+00 -0.45593999997E+02  0.45594000000E+02  0.51100000000E-03 0. -1.
    9900012    2    1    2    0    0 -0.16815275453E+02 -0.81206531579E+01 -0.14077951325E+01  0.72461537883E+02  0.69999957779E+02 0.  0.
        -12    1    1    2    0    0  0.16815275453E+02  0.81206531579E+01  0.14077951325E+01  0.18726462117E+02  0.00000000000E+00 0.  1.
         11    1    3    3    0    0 -0.61463658791E+01 -0.79790004444E+01  0.76995410237E+01  0.12677744036E+02  0.51100000000E-03 0. -1.
        -11    1    3    3    0    0  0.43655492453E+01  0.84219165397E+00  0.23471951940E+02  0.23889324711E+02  0.51100000000E-03 0.  1.
         12    1    3    3    0    0 -0.15034458819E+02 -0.98384436753E+00 -0.32579288096E+02  0.35894469136E+02  0.00000000000E+00 0. -1.
</event>
<event>
 7    1  0.3568800E-013  0.7246156E+02  0.7816164E-02  0.1226708E+00
        -11   -1    0    0    0    0  0.00000000000E+00  0.00000000000E+00  0.45593999997E+02  0.45594000000E+02  0.51100000000E-03 0.  1.
         11   -1    0    0    0    0 -0.00000000000E+00 -0.00000000000E+00 -0.45593999997E+02  0.45594000000E+02  0.51100000000E-03 0. -1.
    9900012    2    1    2    0    0  0.14504812722E+02  0.68634586293E+01 -0.96531213247E+01  0.72461563933E+02  0.69999991714E+02 0.  0.
        -12    1    1    2    0    0 -0.14504812722E+02 -0.68634586293E+01  0.96531213247E+01  0.18726436067E+02  0.00000000000E+00 0.  1.
         11    1    3    3    0    0 -0.43852899108E+01 -0.88074851898E+01  0.35296352544E+01  0.10452793323E+02  0.51100000000E-03 0. -1.
        -11    1    3    3    0    0  0.28203081867E+02 -0.12303967744E+02 -0.99941254804E+01  0.32352495938E+02  0.51100000000E-03 0.  1.
         12    1    3    3    0    0 -0.93129792344E+01  0.27974911563E+02 -0.31886310986E+01  0.29656274672E+02  0.00000000000E+00 0. -1.
</event>
<event>
 7    1  0.3568800E-013  0.7246156E+02  0.7816164E-02  0.1226708E+00
        -11   -1    0    0    0    0  0.00000000000E+00  0.00000000000E+00  0.45593999997E+02  0.45594000000E+02  0.51100000000E-03 0.  1.
         11   -1    0    0    0    0 -0.00000000000E+00 -0.00000000000E+00 -0.45593999997E+02  0.45594000000E+02  0.51100000000E-03 0. -1.
    9900012    2    1    2    0    0 -0.10820184194E+02 -0.49600415114E+01 -0.14456869918E+02  0.72461561854E+02  0.69999989005E+02 0.  0.
        -12    1    1    2    0    0  0.10820184194E+02  0.49600415114E+01  0.14456869918E+02  0.18726438146E+02  0.00000000000E+00 0.  1.
         11    1    3    3    0    0 -0.32862079902E+02  0.47173648490E+01  0.39739969662E+01  0.33435945908E+02  0.51100000000E-03 0. -1.
        -11    1    3    3    0    0  0.56515389830E-01  0.54184193063E+01 -0.94346860971E+01  0.10880062674E+02  0.51100000000E-03 0.  1.
        -12    1    3    3    0    0  0.21985380318E+02 -0.15095825667E+02 -0.89961807875E+01  0.28145553273E+02  0.00000000000E+00 0.  1.
</event>
<event>
 7    1  0.3568800E-013  0.7246158E+02  0.7816164E-02  0.1226708E+00
        -11   -1    0    0    0    0  0.00000000000E+00  0.00000000000E+00  0.45593999997E+02  0.45594000000E+02  0.51100000000E-03 0.  1.
         11   -1    0    0    0    0 -0.00000000000E+00 -0.00000000000E+00 -0.45593999997E+02  0.45594000000E+02  0.51100000000E-03 0. -1.
    9900012    2    1    2    0    0  0.10610373975E+02 -0.46181735454E+01 -0.14723155805E+02  0.72461578034E+02  0.70000010082E+02 0.  0.
        -12    1    1    2    0    0 -0.10610373975E+02  0.46181735454E+01  0.14723155805E+02  0.18726421966E+02  0.00000000000E+00 0.  1.
         11    1    3    3    0    0 -0.72009090761E+01 -0.10122370078E+02  0.32529870539E+01  0.12841237968E+02  0.51100000000E-03 0. -1.
        -11    1    3    3    0    0  0.36961960189E+02  0.35957556718E+00 -0.10474403416E+02  0.38419121837E+02  0.51100000000E-03 0.  1.
         12    1    3    3    0    0 -0.19150677137E+02  0.51446209656E+01 -0.75017394426E+01  0.21201218228E+02  0.00000000000E+00 0. -1.
</event>
<event>
 7    1  0.3568800E-013  0.7246151E+02  0.7816164E-02  0.1226708E+00
        -11   -1    0    0    0    0  0.00000000000E+00  0.00000000000E+00  0.45593999997E+02  0.45594000000E+02  0.51100000000E-03 0.  1.
         11   -1    0    0    0    0 -0.00000000000E+00 -0.00000000000E+00 -0.45593999997E+02  0.45594000000E+02  0.51100000000E-03 0. -1.
    9900012    2    1    2    0    0  0.89758404908E+01  0.98536087452E+01  0.13153785865E+02  0.72461510729E+02  0.69999922405E+02 0.  0.
        -12    1    1    2    0    0 -0.89758404908E+01 -0.98536087452E+01 -0.13153785865E+02  0.18726489271E+02  0.00000000000E+00 0.  1.
         11    1    3    3    0    0  0.21743680114E+02 -0.11499481080E+02 -0.76435546471E+01  0.25757515756E+02  0.51100000000E-03 0. -1.
        -11    1    3    3    0    0  0.73974950683E+01 -0.32461603506E+01  0.10546219709E+02  0.13284699497E+02  0.51100000000E-03 0.  1.
         12    1    3    3    0    0 -0.20165334691E+02  0.24599250176E+02  0.10251120803E+02  0.33419295476E+02  0.00000000000E+00 0. -1.
</event>
<event>
 7    1  0.3568800E-013  0.7246113E+02  0.7816164E-02  0.1226709E+00
        -11   -1    0    0    0    0  0.00000000000E+00  0.00000000000E+00  0.45593999997E+02  0.45594000000E+02  0.51100000000E-03 0.  1.
         11   -1    0    0    0    0 -0.00000000000E+00 -0.00000000000E+00 -0.45593999997E+02  0.45594000000E+02  0.51100000000E-03 0. -1.
    9900012    2    1    2    0    0  0.91572510155E+01  0.36573842223E+01  0.15920554038E+02  0.72461127693E+02  0.69999423427E+02 0.  0.
        -12    1    1    2    0    0 -0.91572510155E+01 -0.36573842223E+01 -0.15920554038E+02  0.18726872307E+02  0.00000000000E+00 0.  1.
         11    1    3    3    0    0  0.35423342815E+01  0.19979033320E+02 -0.99026348322E+01  0.22578132816E+02  0.51100000000E-03 0. -1.
        -11    1    3    3    0    0  0.19973184993E+02  0.11938706681E+01  0.12902538618E+02  0.23808169795E+02  0.51100000000E-03 0.  1.
         12    1    3    3    0    0 -0.14358268259E+02 -0.17515519766E+02  0.12920650253E+02  0.26074825082E+02  0.00000000000E+00 0. -1.
</event>
<event>
 7    1  0.3568800E-013  0.7246156E+02  0.7816164E-02  0.1226708E+00
        -11   -1    0    0    0    0  0.00000000000E+00  0.00000000000E+00  0.45593999997E+02  0.45594000000E+02  0.51100000000E-03 0. -1.
         11   -1    0    0    0    0 -0.00000000000E+00 -0.00000000000E+00 -0.45593999997E+02  0.45594000000E+02  0.51100000000E-03 0.  1.
    9900012    2    1    2    0    0 -0.73796917917E+01  0.10849067281E+02  0.13361036328E+02  0.72461564045E+02  0.69999991859E+02 0.  0.
        -12    1    1    2    0    0  0.73796917917E+01 -0.10849067281E+02 -0.13361036328E+02  0.18726435955E+02  0.00000000000E+00 0.  1.
         11    1    3    3    0    0  0.12540274753E+02 -0.10789157831E+01 -0.71768649999E+01  0.14488959301E+02  0.51100000000E-03 0. -1.
        -11    1    3    3    0    0  0.23434585605E+01 -0.93179824941E+01 -0.10522000724E+02  0.14248827856E+02  0.51100000000E-03 0.  1.
         12    1    3    3    0    0 -0.22263425105E+02  0.21245965558E+02  0.31059902052E+02  0.43723776888E+02  0.00000000000E+00 0. -1.
</event>
<event>
 7    1  0.3568800E-013  0.7246160E+02  0.7816164E-02  0.1226708E+00
        -11   -1    0    0    0    0  0.00000000000E+00  0.00000000000E+00  0.45593999997E+02  0.45594000000E+02  0.51100000000E-03 0. -1.
         11   -1    0    0    0    0 -0.00000000000E+00 -0.00000000000E+00 -0.45593999997E+02  0.45594000000E+02  0.51100000000E-03 0.  1.
    9900012    2    1    2    0    0 -0.53034413306E+01  0.88804232686E+01  0.15610565938E+02  0.72461596814E+02  0.70000034547E+02 0.  0.
        -12    1    1    2    0    0  0.53034413306E+01 -0.88804232686E+01 -0.15610565938E+02  0.18726403186E+02  0.00000000000E+00 0.  1.
         11    1    3    3    0    0  0.14611791822E+02  0.29256749404E+02  0.19180245808E+02  0.37912315617E+02  0.51100000000E-03 0. -1.
        -11    1    3    3    0    0 -0.35020121083E+01 -0.42792678162E+01  0.72688906087E+01  0.91330713778E+01  0.51100000000E-03 0.  1.
        -12    1    3    3    0    0 -0.16413221044E+02 -0.16097058319E+02 -0.10838570478E+02  0.25416209819E+02  0.00000000000E+00 0.  1.
</event>
<event>
 7    1  0.3568800E-013  0.7246168E+02  0.7816164E-02  0.1226708E+00
        -11   -1    0    0    0    0  0.00000000000E+00  0.00000000000E+00  0.45593999997E+02  0.45594000000E+02  0.51100000000E-03 0. -1.
         11   -1    0    0    0    0 -0.00000000000E+00 -0.00000000000E+00 -0.45593999997E+02  0.45594000000E+02  0.51100000000E-03 0.  1.
    9900012    2    1    2    0    0  0.12511965225E+02  0.12811038975E+02 -0.54775092939E+01  0.72461678912E+02  0.70000141495E+02 0.  0.
        -12    1    1    2    0    0 -0.12511965225E+02 -0.12811038975E+02  0.54775092939E+01  0.18726321088E+02  0.00000000000E+00 0.  1.
         11    1    3    3    0    0  0.19622243263E+02 -0.17400591481E+02  0.16346995083E+00  0.26226698940E+02  0.51100000000E-03 0. -1.
        -11    1    3    3    0    0  0.73561418056E+01  0.14627363615E+02  0.10577117548E+02  0.19492254987E+02  0.51100000000E-03 0.  1.
        -12    1    3    3    0    0 -0.14466419844E+02  0.15584266841E+02 -0.16218096793E+02  0.26742724986E+02  0.00000000000E+00 0.  1.
</event>
<event>
 7    1  0.3568800E-013  0.7246177E+02  0.7816164E-02  0.1226707E+00
        -11   -1    0    0    0    0  0.00000000000E+00  0.00000000000E+00  0.45593999997E+02  0.45594000000E+02  0.51100000000E-03 0. -1.
         11   -1    0    0    0    0 -0.00000000000E+00 -0.00000000000E+00 -0.45593999997E+02  0.45594000000E+02  0.51100000000E-03 0.  1.
    9900012    2    1    2    0    0 -0.15046167207E+02 -0.81088163758E+01  0.76506095181E+01  0.72461765017E+02  0.70000253662E+02 0.  0.
        -12    1    1    2    0    0  0.15046167207E+02  0.81088163758E+01 -0.76506095181E+01  0.18726234983E+02  0.00000000000E+00 0.  1.
         11    1    3    3    0    0 -0.16378473111E+02 -0.16461876342E+01  0.24467305264E+01  0.16641839012E+02  0.51100000000E-03 0. -1.
        -11    1    3    3    0    0  0.56598732740E+01 -0.25238619513E+02 -0.13318218115E+02  0.29092903163E+02  0.51100000000E-03 0.  1.
        -12    1    3    3    0    0 -0.43275673708E+01  0.18775990772E+02  0.18522097106E+02  0.26727022843E+02  0.00000000000E+00 0.  1.
</event>
<event>
 7    1  0.3568800E-013  0.7246152E+02  0.7816164E-02  0.1226708E+00
        -11   -1    0    0    0    0  0.00000000000E+00  0.00000000000E+00  0.45593999997E+02  0.45594000000E+02  0.51100000000E-03 0.  1.
         11   -1    0    0    0    0 -0.00000000000E+00 -0.00000000000E+00 -0.45593999997E+02  0.45594000000E+02  0.51100000000E-03 0. -1.
    9900012    2    1    2    0    0 -0.18489266555E+02 -0.26211008015E+01 -0.13992831110E+01  0.72461517672E+02  0.69999931450E+02 0.  0.
        -12    1    1    2    0    0  0.18489266555E+02  0.26211008015E+01  0.13992831110E+01  0.18726482328E+02  0.00000000000E+00 0.  1.
         11    1    3    3    0    0 -0.12474523497E+02  0.14380853512E+01 -0.10953780033E+02  0.16663346700E+02  0.51100000000E-03 0. -1.
        -11    1    3    3    0    0  0.22396909795E+02  0.84042632014E+01  0.50288818289E+01  0.24444689833E+02  0.51100000000E-03 0.  1.
         12    1    3    3    0    0 -0.28411652852E+02 -0.12463449354E+02  0.45256150933E+01  0.31353481140E+02  0.00000000000E+00 0. -1.
</event>
<event>
 7    1  0.3568800E-013  0.7246157E+02  0.7816164E-02  0.1226708E+00
        -11   -1    0    0    0    0  0.00000000000E+00  0.00000000000E+00  0.45593999997E+02  0.45594000000E+02  0.51100000000E-03 0.  1.
         11   -1    0    0    0    0 -0.00000000000E+00 -0.00000000000E+00 -0.45593999997E+02  0.45594000000E+02  0.51100000000E-03 0. -1.
    9900012    2    1    2    0    0  0.17492317059E+02 -0.33860040207E+01 -0.57648087902E+01  0.72461569488E+02  0.69999998950E+02 0.  0.
        -12    1    1    2    0    0 -0.17492317059E+02  0.33860040207E+01  0.57648087902E+01  0.18726430512E+02  0.00000000000E+00 0.  1.
         11    1    3    3    0    0 -0.61034284767E+01  0.61319516596E+01 -0.23379530374E+02  0.24929001406E+02  0.51100000000E-03 0. -1.
        -11    1    3    3    0    0 -0.57793952002E+01  0.44417434291E+01  0.12695558165E+02  0.14639251721E+02  0.51100000000E-03 0.  1.
        -12    1    3    3    0    0  0.29375140736E+02 -0.13959699109E+02  0.49191634189E+01  0.32893316361E+02  0.00000000000E+00 0.  1.
</event>
<event>
 7    1  0.3568800E-013  0.7246155E+02  0.7816164E-02  0.1226708E+00
        -11   -1    0    0    0    0  0.00000000000E+00  0.00000000000E+00  0.45593999997E+02  0.45594000000E+02  0.51100000000E-03 0.  1.
         11   -1    0    0    0    0 -0.00000000000E+00 -0.00000000000E+00 -0.45593999997E+02  0.45594000000E+02  0.51100000000E-03 0. -1.
    9900012    2    1    2    0    0 -0.94123356331E+01  0.15595995269E+02 -0.43419751236E+01  0.72461551365E+02  0.69999975341E+02 0.  0.
        -12    1    1    2    0    0  0.94123356331E+01 -0.15595995269E+02  0.43419751236E+01  0.18726448635E+02  0.00000000000E+00 0.  1.
         11    1    3    3    0    0 -0.15237661292E+01  0.18309690080E+01  0.62214917811E+01  0.66619269711E+01  0.51100000000E-03 0. -1.
        -11    1    3    3    0    0 -0.37386382343E+01 -0.17571176539E+02  0.16345102963E+02  0.24287569906E+02  0.51100000000E-03 0.  1.
         12    1    3    3    0    0 -0.41499312696E+01  0.31336202800E+02 -0.26908569868E+02  0.41512054488E+02  0.00000000000E+00 0. -1.
</event>
<event>
 7    1  0.3783392E-013  0.7246163E+02  0.7816164E-02  0.1226708E+00
        -11   -1    0    0    0    0  0.00000000000E+00  0.00000000000E+00  0.45593999997E+02  0.45594000000E+02  0.51100000000E-03 0.  1.
         11   -1    0    0    0    0 -0.00000000000E+00 -0.00000000000E+00 -0.45593999997E+02  0.45594000000E+02  0.51100000000E-03 0. -1.
    9900012    2    1    2    0    0  0.23730968549E+01  0.16595263478E+02  0.83452188485E+01  0.72461627254E+02  0.70000074201E+02 0.  0.
        -12    1    1    2    0    0 -0.23730968549E+01 -0.16595263478E+02 -0.83452188485E+01  0.18726372746E+02  0.00000000000E+00 0.  1.
         11    1    3    3    0    0 -0.89030509946E+01 -0.52605307455E+01  0.12934032351E+02  0.16559791480E+02  0.51100000000E-03 0. -1.
        -11    1    3    3    0    0 -0.46616851415E+01 -0.14267556155E+02 -0.65352815159E+01  0.16370839066E+02  0.51100000000E-03 0.  1.
         12    1    3    3    0    0  0.15937832991E+02  0.36123350378E+02  0.19464680137E+01  0.39530996708E+02  0.00000000000E+00 0. -1.
</event>
<event>
 7    1  0.3568800E-013  0.7246155E+02  0.7816164E-02  0.1226708E+00
        -11   -1    0    0    0    0  0.00000000000E+00  0.00000000000E+00  0.45593999997E+02  0.45594000000E+02  0.51100000000E-03 0.  1.
         11   -1    0    0    0    0 -0.00000000000E+00 -0.00000000000E+00 -0.45593999997E+02  0.45594000000E+02  0.51100000000E-03 0. -1.
    9900012    2    1    2    0    0 -0.12885071296E+02 -0.10643040116E+02  0.84486913047E+01  0.72461554797E+02  0.69999979811E+02 0.  0.
        -12    1    1    2    0    0  0.12885071296E+02  0.10643040116E+02 -0.84486913047E+01  0.18726445203E+02  0.00000000000E+00 0.  1.
         11    1    3    3    0    0  0.59843336384E+01 -0.77399828595E+01 -0.89116573617E+01  0.13233942004E+02  0.51100000000E-03 0. -1.
        -11    1    3    3    0    0 -0.36503798876E+01 -0.11205397977E+02 -0.17032703537E+02  0.20712296039E+02  0.51100000000E-03 0.  1.
        -12    1    3    3    0    0 -0.15219025046E+02  0.83023407213E+01  0.34393052203E+02  0.38515316754E+02  0.00000000000E+00 0.  1.
</event>
<event>
 7    1  0.3568800E-013  0.7246155E+02  0.7816164E-02  0.1226708E+00
        -11   -1    0    0    0    0  0.00000000000E+00  0.00000000000E+00  0.45593999997E+02  0.45594000000E+02  0.51100000000E-03 0.  1.
         11   -1    0    0    0    0 -0.00000000000E+00 -0.00000000000E+00 -0.45593999997E+02  0.45594000000E+02  0.51100000000E-03 0. -1.
    9900012    2    1    2    0    0  0.17236090656E+02  0.65453639192E+01  0.32795242187E+01  0.72461551083E+02  0.69999974974E+02 0.  0.
        -12    1    1    2    0    0 -0.17236090656E+02 -0.65453639192E+01 -0.32795242187E+01  0.18726448917E+02  0.00000000000E+00 0.  1.
         11    1    3    3    0    0  0.14484813558E+02  0.46390548078E+00 -0.96507805481E+01  0.17411565052E+02  0.51100000000E-03 0. -1.
        -11    1    3    3    0    0  0.53455145519E+01  0.27428709736E+02 -0.32572926340E+01  0.28133940342E+02  0.51100000000E-03 0.  1.
        -12    1    3    3    0    0 -0.25942374542E+01 -0.21347251298E+02  0.16187597401E+02  0.26916045689E+02  0.00000000000E+00 0.  1.
</event>
<event>
 7    1  0.3568800E-013  0.7246149E+02  0.7816164E-02  0.1226708E+00
        -11   -1    0    0    0    0  0.00000000000E+00  0.00000000000E+00  0.45593999997E+02  0.45594000000E+02  0.51100000000E-03 0.  1.
         11   -1    0    0    0    0 -0.00000000000E+00 -0.00000000000E+00 -0.45593999997E+02  0.45594000000E+02  0.51100000000E-03 0. -1.
    9900012    2    1    2    0    0 -0.44409928270E+01 -0.17867266540E+02 -0.34235450685E+01  0.72461486930E+02  0.69999891403E+02 0.  0.
        -12    1    1    2    0    0  0.44409928270E+01  0.17867266540E+02  0.34235450685E+01  0.18726513070E+02  0.00000000000E+00 0.  1.
         11    1    3    3    0    0 -0.35250199087E+00 -0.15519899020E+02 -0.20369123275E+02  0.25610402310E+02  0.51100000000E-03 0. -1.
        -11    1    3    3    0    0  0.50474262749E+00 -0.19326016867E+02 -0.37477790198E+01  0.19692525001E+02  0.51100000000E-03 0.  1.
        -12    1    3    3    0    0 -0.45932334636E+01  0.16978649347E+02  0.20693357226E+02  0.27158559619E+02  0.00000000000E+00 0.  1.
</event>
<event>
 7    1  0.3568800E-013  0.7246157E+02  0.7816164E-02  0.1226708E+00
        -11   -1    0    0    0    0  0.00000000000E+00  0.00000000000E+00  0.45593999997E+02  0.45594000000E+02  0.51100000000E-03 0.  1.
         11   -1    0    0    0    0 -0.00000000000E+00 -0.00000000000E+00 -0.45593999997E+02  0.45594000000E+02  0.51100000000E-03 0. -1.
    9900012    2    1    2    0    0 -0.78088474241E+01  0.35973254237E+01 -0.16636113840E+02  0.72461571296E+02  0.70000001305E+02 0.  0.
        -12    1    1    2    0    0  0.78088474241E+01 -0.35973254237E+01  0.16636113840E+02  0.18726428704E+02  0.00000000000E+00 0.  1.
         11    1    3    3    0    0 -0.61138262720E+01 -0.97893026674E+01 -0.17143069731E+02  0.20666256518E+02  0.51100000000E-03 0. -1.
        -11    1    3    3    0    0 -0.30761138101E+01 -0.84993867033E+01  0.20320772453E+02  0.22240410155E+02  0.51100000000E-03 0.  1.
        -12    1    3    3    0    0  0.13810926581E+01  0.21886014794E+02 -0.19813816563E+02  0.29554904623E+02  0.00000000000E+00 0.  1.
</event>
<event>
 7    1  0.3568800E-013  0.7246155E+02  0.7816164E-02  0.1226708E+00
        -11   -1    0    0    0    0  0.00000000000E+00  0.00000000000E+00  0.45593999997E+02  0.45594000000E+02  0.51100000000E-03 0.  1.
         11   -1    0    0    0    0 -0.00000000000E+00 -0.00000000000E+00 -0.45593999997E+02  0.45594000000E+02  0.51100000000E-03 0. -1.
    9900012    2    1    2    0    0 -0.66245120867E+01 -0.18642627164E+01 -0.17416094700E+02  0.72461548375E+02  0.69999971446E+02 0.  0.
        -12    1    1    2    0    0  0.66245120867E+01  0.18642627164E+01  0.17416094700E+02  0.18726451625E+02  0.00000000000E+00 0.  1.
         11    1    3    3    0    0  0.25086915455E+02 -0.12704803818E+01 -0.84472038310E+01  0.26501371668E+02  0.51100000000E-03 0. -1.
        -11    1    3    3    0    0  0.36497622309E+01 -0.76178095489E+01 -0.46720381625E+01  0.96529647010E+01  0.51100000000E-03 0.  1.
        -12    1    3    3    0    0 -0.35361189773E+02  0.70240272143E+01 -0.42968527065E+01  0.36307212006E+02  0.00000000000E+00 0.  1.
</event>
<event>
 7    1  0.3568800E-013  0.7246160E+02  0.7816164E-02  0.1226708E+00
        -11   -1    0    0    0    0  0.00000000000E+00  0.00000000000E+00  0.45593999997E+02  0.45594000000E+02  0.51100000000E-03 0.  1.
         11   -1    0    0    0    0 -0.00000000000E+00 -0.00000000000E+00 -0.45593999997E+02  0.45594000000E+02  0.51100000000E-03 0. -1.
    9900012    2    1    2    0    0  0.14836436985E+02 -0.11055456467E+02 -0.28870840167E+01  0.72461595267E+02  0.70000032531E+02 0.  0.
        -12    1    1    2    0    0 -0.14836436985E+02  0.11055456467E+02  0.28870840167E+01  0.18726404733E+02  0.00000000000E+00 0.  1.
         11    1    3    3    0    0 -0.59260137604E+01 -0.48764900973E+00  0.36543142311E+01  0.69792158160E+01  0.51100000000E-03 0. -1.
        -11    1    3    3    0    0 -0.13289677185E+02  0.16192134961E+02  0.29260970247E+01  0.21150952658E+02  0.51100000000E-03 0.  1.
         12    1    3    3    0    0  0.34052127930E+02 -0.26759942419E+02 -0.94674952725E+01  0.44331426793E+02  0.00000000000E+00 0. -1.
</event>
<event>
 7    1  0.3568800E-013  0.7246150E+02  0.7816164E-02  0.1226708E+00
        -11   -1    0    0    0    0  0.00000000000E+00  0.00000000000E+00  0.45593999997E+02  0.45594000000E+02  0.51100000000E-03 0. -1.
         11   -1    0    0    0    0 -0.00000000000E+00 -0.00000000000E+00 -0.45593999997E+02  0.45594000000E+02  0.51100000000E-03 0.  1.
    9900012    2    1    2    0    0 -0.15794289527E+02 -0.79988333762E+01  0.61025319058E+01  0.72461499721E+02  0.69999908065E+02 0.  0.
        -12    1    1    2    0    0  0.15794289527E+02  0.79988333762E+01 -0.61025319058E+01  0.18726500279E+02  0.00000000000E+00 0.  1.
         11    1    3    3    0    0 -0.20536599893E+02  0.41711475467E+01 -0.81747060642E+00  0.20971854126E+02  0.51100000000E-03 0. -1.
        -11    1    3    3    0    0 -0.18171828647E+02 -0.90527603885E+01  0.16790950113E+02  0.26345850394E+02  0.51100000000E-03 0.  1.
        -12    1    3    3    0    0  0.22914139013E+02 -0.31172205343E+01 -0.98709476009E+01  0.25143795201E+02  0.00000000000E+00 0.  1.
</event>
<event>
 7    1  0.3568800E-013  0.7246158E+02  0.7816164E-02  0.1226708E+00
        -11   -1    0    0    0    0  0.00000000000E+00  0.00000000000E+00  0.45593999997E+02  0.45594000000E+02  0.51100000000E-03 0.  1.
         11   -1    0    0    0    0 -0.00000000000E+00 -0.00000000000E+00 -0.45593999997E+02  0.45594000000E+02  0.51100000000E-03 0. -1.
    9900012    2    1    2    0    0  0.18299814685E+02  0.26050550797E+01 -0.30015372743E+01  0.72461581349E+02  0.70000014401E+02 0.  0.
        -12    1    1    2    0    0 -0.18299814685E+02 -0.26050550797E+01  0.30015372743E+01  0.18726418651E+02  0.00000000000E+00 0.  1.
         11    1    3    3    0    0  0.35738694994E+01  0.12177805973E+02 -0.61522507048E+01  0.14103960100E+02  0.51100000000E-03 0. -1.
        -11    1    3    3    0    0 -0.97311003156E+01  0.15855367147E+02  0.11802483451E+02  0.22031468326E+02  0.51100000000E-03 0.  1.
         12    1    3    3    0    0  0.24457045501E+02 -0.25428118040E+02 -0.86517700202E+01  0.36326152923E+02  0.00000000000E+00 0. -1.
</event>
<event>
 7    1  0.3568800E-013  0.7246162E+02  0.7816164E-02  0.1226708E+00
        -11   -1    0    0    0    0  0.00000000000E+00  0.00000000000E+00  0.45593999997E+02  0.45594000000E+02  0.51100000000E-03 0. -1.
         11   -1    0    0    0    0 -0.00000000000E+00 -0.00000000000E+00 -0.45593999997E+02  0.45594000000E+02  0.51100000000E-03 0.  1.
    9900012    2    1    2    0    0 -0.55933934482E+01  0.12160683352E+02  0.13096147878E+02  0.72461618633E+02  0.70000062970E+02 0.  0.
        -12    1    1    2    0    0  0.55933934482E+01 -0.12160683352E+02 -0.13096147878E+02  0.18726381367E+02  0.00000000000E+00 0.  1.
         11    1    3    3    0    0  0.75527582464E+00  0.13776616014E+02  0.79881338859E+01  0.15942894141E+02  0.51100000000E-03 0. -1.
        -11    1    3    3    0    0 -0.25038509369E+02 -0.88997587503E+01 -0.12921165075E+02  0.29548082246E+02  0.51100000000E-03 0.  1.
         12    1    3    3    0    0  0.18689840096E+02  0.72838260889E+01  0.18029179068E+02  0.26970642246E+02  0.00000000000E+00 0. -1.
</event>
<event>
 7    1  0.3568800E-013  0.7246154E+02  0.7816164E-02  0.1226708E+00
        -11   -1    0    0    0    0  0.00000000000E+00  0.00000000000E+00  0.45593999997E+02  0.45594000000E+02  0.51100000000E-03 0.  1.
         11   -1    0    0    0    0 -0.00000000000E+00 -0.00000000000E+00 -0.45593999997E+02  0.45594000000E+02  0.51100000000E-03 0. -1.
    9900012    2    1    2    0    0 -0.70469146229E+01 -0.17250804364E+02  0.18523392619E+01  0.72461536969E+02  0.69999956588E+02 0.  0.
        -12    1    1    2    0    0  0.70469146229E+01  0.17250804364E+02 -0.18523392619E+01  0.18726463031E+02  0.00000000000E+00 0.  1.
         11    1    3    3    0    0 -0.46161634009E+01  0.12168254743E+02  0.69430069935E+01  0.14750618103E+02  0.51100000000E-03 0. -1.
        -11    1    3    3    0    0  0.13644175776E+02  0.48255049328E+01 -0.12546153279E+02  0.19153459030E+02  0.51100000000E-03 0.  1.
        -12    1    3    3    0    0 -0.16074926998E+02 -0.34244564040E+02  0.74554855479E+01  0.38557459836E+02  0.00000000000E+00 0.  1.
</event>
<event>
 7    1  0.3568800E-013  0.7246159E+02  0.7816164E-02  0.1226708E+00
        -11   -1    0    0    0    0  0.00000000000E+00  0.00000000000E+00  0.45593999997E+02  0.45594000000E+02  0.51100000000E-03 0.  1.
         11   -1    0    0    0    0 -0.00000000000E+00 -0.00000000000E+00 -0.45593999997E+02  0.45594000000E+02  0.51100000000E-03 0. -1.
    9900012    2    1    2    0    0 -0.57022174415E+01 -0.30856324502E+01 -0.17568212964E+02  0.72461587687E+02  0.70000022657E+02 0.  0.
        -12    1    1    2    0    0  0.57022174415E+01  0.30856324502E+01  0.17568212964E+02  0.18726412313E+02  0.00000000000E+00 0.  1.
         11    1    3    3    0    0  0.13970006510E+02 -0.13156217011E+02  0.63401937337E+01  0.20210026837E+02  0.51100000000E-03 0. -1.
        -11    1    3    3    0    0 -0.10308621362E+02  0.10557240684E+02  0.95021181688E+01  0.17550306414E+02  0.51100000000E-03 0.  1.
        -12    1    3    3    0    0 -0.93636025890E+01 -0.48665612372E+00 -0.33410524866E+02  0.34701254436E+02  0.00000000000E+00 0.  1.
</event>
<event>
 7    1  0.3568800E-013  0.7246155E+02  0.7816164E-02  0.1226708E+00
        -11   -1    0    0    0    0  0.00000000000E+00  0.00000000000E+00  0.45593999997E+02  0.45594000000E+02  0.51100000000E-03 0.  1.
         11   -1    0    0    0    0 -0.00000000000E+00 -0.00000000000E+00 -0.45593999997E+02  0.45594000000E+02  0.51100000000E-03 0. -1.
    9900012    2    1    2    0    0  0.20752433881E+01  0.45268434051E+00 -0.18605597951E+02  0.72461552570E+02  0.69999976911E+02 0.  0.
        -12    1    1    2    0    0 -0.20752433881E+01 -0.45268434051E+00  0.18605597951E+02  0.18726447430E+02  0.00000000000E+00 0.  1.
         11    1    3    3    0    0 -0.85830886356E+01  0.13059126990E+02 -0.36166239593E+01  0.16040267373E+02  0.51100000000E-03 0. -1.
        -11    1    3    3    0    0  0.23564537380E+02 -0.17383593706E+02 -0.25716661266E+02  0.38972085125E+02  0.51100000000E-03 0.  1.
         12    1    3    3    0    0 -0.12906205356E+02  0.47771510571E+01  0.10727687275E+02  0.17449200073E+02  0.00000000000E+00 0. -1.
</event>
<event>
 7    1  0.3568800E-013  0.7246169E+02  0.7816164E-02  0.1226708E+00
        -11   -1    0    0    0    0  0.00000000000E+00  0.00000000000E+00  0.45593999997E+02  0.45594000000E+02  0.51100000000E-03 0. -1.
         11   -1    0    0    0    0 -0.00000000000E+00 -0.00000000000E+00 -0.45593999997E+02  0.45594000000E+02  0.51100000000E-03 0.  1.
    9900012    2    1    2    0    0 -0.21337003471E+01  0.11013232879E+02  0.14994358744E+02  0.72461687769E+02  0.70000153033E+02 0.  0.
        -12    1    1    2    0    0  0.21337003471E+01 -0.11013232879E+02 -0.14994358744E+02  0.18726312231E+02  0.00000000000E+00 0.  1.
         11    1    3    3    0    0  0.35870980764E+01 -0.21662930642E+02  0.19990117323E+02  0.29694353461E+02  0.51100000000E-03 0. -1.
        -11    1    3    3    0    0  0.10208964716E+02  0.84945935355E+01  0.51423689759E+00  0.13290805835E+02  0.51100000000E-03 0.  1.
        -12    1    3    3    0    0 -0.15929763139E+02  0.24181569986E+02 -0.55099954768E+01  0.29476528473E+02  0.00000000000E+00 0.  1.
</event>
<event>
 7    1  0.3568800E-013  0.7246159E+02  0.7816164E-02  0.1226708E+00
        -11   -1    0    0    0    0  0.00000000000E+00  0.00000000000E+00  0.45593999997E+02  0.45594000000E+02  0.51100000000E-03 0.  1.
         11   -1    0    0    0    0 -0.00000000000E+00 -0.00000000000E+00 -0.45593999997E+02  0.45594000000E+02  0.51100000000E-03 0. -1.
    9900012    2    1    2    0    0 -0.85240485808E+01 -0.14787700954E+02  0.77034359015E+01  0.72461590082E+02  0.70000025777E+02 0.  0.
        -12    1    1    2    0    0  0.85240485808E+01  0.14787700954E+02 -0.77034359015E+01  0.18726409918E+02  0.00000000000E+00 0.  1.
         11    1    3    3    0    0 -0.49716542958E+01 -0.27474559377E+01 -0.89565749545E+01  0.10605946245E+02  0.51100000000E-03 0. -1.
        -11    1    3    3    0    0  0.94973898515E+01 -0.68087827838E+01 -0.19681523065E+02  0.22889348776E+02  0.51100000000E-03 0.  1.
         12    1    3    3    0    0 -0.13049784136E+02 -0.52314622327E+01  0.36341533921E+02  0.38966295061E+02  0.00000000000E+00 0. -1.
</event>
<event>
 7    1  0.3568800E-013  0.7246158E+02  0.7816164E-02  0.1226708E+00
        -11   -1    0    0    0    0  0.00000000000E+00  0.00000000000E+00  0.45593999997E+02  0.45594000000E+02  0.51100000000E-03 0.  1.
         11   -1    0    0    0    0 -0.00000000000E+00 -0.00000000000E+00 -0.45593999997E+02  0.45594000000E+02  0.51100000000E-03 0. -1.
    9900012    2    1    2    0    0  0.74919219598E+01 -0.88196668739E+01 -0.14722881321E+02  0.72461584090E+02  0.70000017972E+02 0.  0.
        -12    1    1    2    0    0 -0.74919219598E+01  0.88196668739E+01  0.14722881321E+02  0.18726415910E+02  0.00000000000E+00 0.  1.
         11    1    3    3    0    0 -0.20444849506E+02  0.15751286844E+02 -0.10100420098E+02  0.27714858740E+02  0.51100000000E-03 0. -1.
        -11    1    3    3    0    0 -0.22213342478E+01 -0.13810422009E+01 -0.61393469904E+01  0.66733188993E+01  0.51100000000E-03 0.  1.
        -12    1    3    3    0    0  0.30158105713E+02 -0.23189911517E+02  0.15168857673E+01  0.38073406451E+02  0.00000000000E+00 0.  1.
</event>
<event>
 7    1  0.3568800E-013  0.7246159E+02  0.7816164E-02  0.1226708E+00
        -11   -1    0    0    0    0  0.00000000000E+00  0.00000000000E+00  0.45593999997E+02  0.45594000000E+02  0.51100000000E-03 0.  1.
         11   -1    0    0    0    0 -0.00000000000E+00 -0.00000000000E+00 -0.45593999997E+02  0.45594000000E+02  0.51100000000E-03 0. -1.
    9900012    2    1    2    0    0  0.55380168985E+01 -0.13966693270E+02 -0.11177673686E+02  0.72461587074E+02  0.70000021858E+02 0.  0.
        -12    1    1    2    0    0 -0.55380168985E+01  0.13966693270E+02  0.11177673686E+02  0.18726412926E+02  0.00000000000E+00 0.  1.
         11    1    3    3    0    0  0.23984886078E+02  0.42155941993E+00 -0.25216308221E+02  0.34803946228E+02  0.51100000000E-03 0. -1.
        -11    1    3    3    0    0  0.63483822710E+01 -0.35004720228E+01  0.21422598676E+00  0.72526653636E+01  0.51100000000E-03 0.  1.
        -12    1    3    3    0    0 -0.24795251451E+02 -0.10887780667E+02  0.13824408548E+02  0.30404975482E+02  0.00000000000E+00 0.  1.
</event>
<event>
 7    1  0.3568800E-013  0.7246153E+02  0.7816164E-02  0.1226708E+00
        -11   -1    0    0    0    0  0.00000000000E+00  0.00000000000E+00  0.45593999997E+02  0.45594000000E+02  0.51100000000E-03 0.  1.
         11   -1    0    0    0    0 -0.00000000000E+00 -0.00000000000E+00 -0.45593999997E+02  0.45594000000E+02  0.51100000000E-03 0. -1.
    9900012    2    1    2    0    0 -0.64247133682E+01 -0.17528607813E+02 -0.14668042646E+01  0.72461533476E+02  0.69999952037E+02 0.  0.
        -12    1    1    2    0    0  0.64247133682E+01  0.17528607813E+02  0.14668042646E+01  0.18726466524E+02  0.00000000000E+00 0.  1.
         11    1    3    3    0    0 -0.56846532177E+01 -0.13195825937E+02 -0.18107678070E+02  0.23115646427E+02  0.51100000000E-03 0. -1.
        -11    1    3    3    0    0  0.51745547974E+01 -0.42650219445E+01 -0.15382627211E+02  0.16780692766E+02  0.51100000000E-03 0.  1.
        -12    1    3    3    0    0 -0.59146149479E+01 -0.67759931353E-01  0.32023501016E+02  0.32565194284E+02  0.00000000000E+00 0.  1.
</event>
<event>
 7    1  0.3568800E-013  0.7246166E+02  0.7816164E-02  0.1226708E+00
        -11   -1    0    0    0    0  0.00000000000E+00  0.00000000000E+00  0.45593999997E+02  0.45594000000E+02  0.51100000000E-03 0. -1.
         11   -1    0    0    0    0 -0.00000000000E+00 -0.00000000000E+00 -0.45593999997E+02  0.45594000000E+02  0.51100000000E-03 0.  1.
    9900012    2    1    2    0    0  0.11566308644E+02  0.46473894852E+01  0.13974911313E+02  0.72461658369E+02  0.70000114734E+02 0.  0.
        -12    1    1    2    0    0 -0.11566308644E+02 -0.46473894852E+01 -0.13974911313E+02  0.18726341631E+02  0.00000000000E+00 0.  1.
         11    1    3    3    0    0 -0.49911730610E+01  0.13262618257E+00  0.65526246221E+01  0.82380997766E+01  0.51100000000E-03 0. -1.
        -11    1    3    3    0    0  0.13569870303E+02  0.26449229344E+02 -0.14494403003E+02  0.33072508698E+02  0.51100000000E-03 0.  1.
         12    1    3    3    0    0  0.29876114025E+01 -0.21934466041E+02  0.21916689693E+02  0.31151049894E+02  0.00000000000E+00 0. -1.
</event>
<event>
 7    1  0.3568800E-013  0.7246163E+02  0.7816164E-02  0.1226708E+00
        -11   -1    0    0    0    0  0.00000000000E+00  0.00000000000E+00  0.45593999997E+02  0.45594000000E+02  0.51100000000E-03 0. -1.
         11   -1    0    0    0    0 -0.00000000000E+00 -0.00000000000E+00 -0.45593999997E+02  0.45594000000E+02  0.51100000000E-03 0.  1.
    9900012    2    1    2    0    0 -0.10148052556E+02 -0.15318294713E+02  0.36116314548E+01  0.72461628078E+02  0.70000075274E+02 0.  0.
        -12    1    1    2    0    0  0.10148052556E+02  0.15318294713E+02 -0.36116314548E+01  0.18726371922E+02  0.00000000000E+00 0.  1.
         11    1    3    3    0    0  0.15127566781E+01 -0.26316262078E+02 -0.14443515927E+02  0.30057432278E+02  0.51100000000E-03 0. -1.
        -11    1    3    3    0    0 -0.86818409453E+01 -0.40011264586E+01 -0.78183526591E+01  0.12349494471E+02  0.51100000000E-03 0.  1.
         12    1    3    3    0    0 -0.29789682885E+01  0.14999093824E+02  0.25873500041E+02  0.30054701329E+02  0.00000000000E+00 0. -1.
</event>
<event>
 7    1  0.3568800E-013  0.7246155E+02  0.7816164E-02  0.1226708E+00
        -11   -1    0    0    0    0  0.00000000000E+00  0.00000000000E+00  0.45593999997E+02  0.45594000000E+02  0.51100000000E-03 0.  1.
         11   -1    0    0    0    0 -0.00000000000E+00 -0.00000000000E+00 -0.45593999997E+02  0.45594000000E+02  0.51100000000E-03 0. -1.
    9900012    2    1    2    0    0 -0.23813084301E+01 -0.14281806982E+02 -0.11876000788E+02  0.72461547180E+02  0.69999969890E+02 0.  0.
        -12    1    1    2    0    0  0.23813084301E+01  0.14281806982E+02  0.11876000788E+02  0.18726452820E+02  0.00000000000E+00 0.  1.
         11    1    3    3    0    0  0.29056056859E+01 -0.16374823508E+01  0.12636496150E+01  0.35666095191E+01  0.51100000000E-03 0. -1.
        -11    1    3    3    0    0  0.24848950619E+02 -0.12819222955E+02 -0.24013137703E+02  0.36856934309E+02  0.51100000000E-03 0.  1.
         12    1    3    3    0    0 -0.30135864735E+02  0.17489832377E+00  0.10873487300E+02  0.32038003353E+02  0.00000000000E+00 0. -1.
</event>
<event>
 7    1  0.3568800E-013  0.7246151E+02  0.7816164E-02  0.1226708E+00
        -11   -1    0    0    0    0  0.00000000000E+00  0.00000000000E+00  0.45593999997E+02  0.45594000000E+02  0.51100000000E-03 0.  1.
         11   -1    0    0    0    0 -0.00000000000E+00 -0.00000000000E+00 -0.45593999997E+02  0.45594000000E+02  0.51100000000E-03 0. -1.
    9900012    2    1    2    0    0  0.33947052570E+00 -0.39034884958E+01 -0.18311989472E+02  0.72461510176E+02  0.69999921685E+02 0.  0.
        -12    1    1    2    0    0 -0.33947052570E+00  0.39034884958E+01  0.18311989472E+02  0.18726489824E+02  0.00000000000E+00 0.  1.
         11    1    3    3    0    0  0.37547560359E+01  0.16303063004E+02 -0.32896089832E+02  0.36905836702E+02  0.51100000000E-03 0. -1.
        -11    1    3    3    0    0 -0.23570959024E+01  0.48438567789E+01 -0.17119855664E+01  0.56524104971E+01  0.51100000000E-03 0.  1.
        -12    1    3    3    0    0 -0.10581896079E+01 -0.25050408278E+02  0.16296085926E+02  0.29903262977E+02  0.00000000000E+00 0.  1.
</event>
<event>
 7    1  0.3568800E-013  0.7246160E+02  0.7816164E-02  0.1226708E+00
        -11   -1    0    0    0    0  0.00000000000E+00  0.00000000000E+00  0.45593999997E+02  0.45594000000E+02  0.51100000000E-03 0.  1.
         11   -1    0    0    0    0 -0.00000000000E+00 -0.00000000000E+00 -0.45593999997E+02  0.45594000000E+02  0.51100000000E-03 0. -1.
    9900012    2    1    2    0    0  0.14925305813E+02  0.72840296295E+01 -0.86519430965E+01  0.72461602573E+02  0.70000042049E+02 0.  0.
        -12    1    1    2    0    0 -0.14925305813E+02 -0.72840296295E+01  0.86519430965E+01  0.18726397427E+02  0.00000000000E+00 0.  1.
         11    1    3    3    0    0 -0.12782995311E+02 -0.63090352570E+01 -0.12255161007E+02  0.18798879397E+02  0.51100000000E-03 0. -1.
        -11    1    3    3    0    0 -0.51876228908E+00 -0.13802047973E+02  0.38074390305E+01  0.14326975773E+02  0.51100000000E-03 0.  1.
         12    1    3    3    0    0  0.28227063413E+02  0.27395112860E+02 -0.20422111953E+00  0.39335747403E+02  0.00000000000E+00 0. -1.
</event>
<event>
 7    1  0.3568800E-013  0.7246156E+02  0.7816164E-02  0.1226708E+00
        -11   -1    0    0    0    0  0.00000000000E+00  0.00000000000E+00  0.45593999997E+02  0.45594000000E+02  0.51100000000E-03 0.  1.
         11   -1    0    0    0    0 -0.00000000000E+00 -0.00000000000E+00 -0.45593999997E+02  0.45594000000E+02  0.51100000000E-03 0. -1.
    9900012    2    1    2    0    0  0.54971294451E+01 -0.17474264321E+02 -0.38873014102E+01  0.72461562593E+02  0.69999989968E+02 0.  0.
        -12    1    1    2    0    0 -0.54971294451E+01  0.17474264321E+02  0.38873014102E+01  0.18726437407E+02  0.00000000000E+00 0.  1.
         11    1    3    3    0    0  0.90885377908E+01 -0.17793104138E+02 -0.38312421129E+01  0.20343905486E+02  0.51100000000E-03 0. -1.
        -11    1    3    3    0    0  0.44259598878E+00 -0.16789405018E+02  0.19558112802E+02  0.25779832985E+02  0.51100000000E-03 0.  1.
         12    1    3    3    0    0 -0.40340043345E+01  0.17108244836E+02 -0.19614172099E+02  0.26337824122E+02  0.00000000000E+00 0. -1.
</event>
<event>
 7    1  0.3568800E-013  0.7246168E+02  0.7816164E-02  0.1226708E+00
        -11   -1    0    0    0    0  0.00000000000E+00  0.00000000000E+00  0.45593999997E+02  0.45594000000E+02  0.51100000000E-03 0. -1.
         11   -1    0    0    0    0 -0.00000000000E+00 -0.00000000000E+00 -0.45593999997E+02  0.45594000000E+02  0.51100000000E-03 0.  1.
    9900012    2    1    2    0    0  0.56550801552E+01 -0.11556491591E+02  0.13606706225E+02  0.72461684725E+02  0.70000149068E+02 0.  0.
        -12    1    1    2    0    0 -0.56550801552E+01  0.11556491591E+02 -0.13606706225E+02  0.18726315275E+02  0.00000000000E+00 0.  1.
         11    1    3    3    0    0 -0.11731074880E+02  0.61002383842E+01  0.86958371163E+01  0.15825568224E+02  0.51100000000E-03 0. -1.
        -11    1    3    3    0    0 -0.59004963865E+01  0.10325691839E+02 -0.11644356926E+02  0.16644122627E+02  0.51100000000E-03 0.  1.
         12    1    3    3    0    0  0.23286651422E+02 -0.27982421814E+02  0.16555226035E+02  0.39991993875E+02  0.00000000000E+00 0. -1.
</event>
<event>
 7    1  0.3568800E-013  0.7246161E+02  0.7816164E-02  0.1226708E+00
        -11   -1    0    0    0    0  0.00000000000E+00  0.00000000000E+00  0.45593999997E+02  0.45594000000E+02  0.51100000000E-03 0.  1.
         11   -1    0    0    0    0 -0.00000000000E+00 -0.00000000000E+00 -0.45593999997E+02  0.45594000000E+02  0.51100000000E-03 0. -1.
    9900012    2    1    2    0    0  0.50324144287E+01 -0.18009369080E+02 -0.10075421829E+01  0.72461609240E+02  0.70000050734E+02 0.  0.
        -12    1    1    2    0    0 -0.50324144287E+01  0.18009369080E+02  0.10075421829E+01  0.18726390760E+02  0.00000000000E+00 0.  1.
         11    1    3    3    0    0  0.87081791123E+01  0.10249701299E+02 -0.41896534603E+01  0.14086942768E+02  0.51100000000E-03 0. -1.
        -11    1    3    3    0    0 -0.22068177510E+02 -0.11199298341E+02 -0.13556150121E+02  0.28216979787E+02  0.51100000000E-03 0.  1.
         12    1    3    3    0    0  0.18392412826E+02 -0.17059772038E+02  0.16738261398E+02  0.30157686685E+02  0.00000000000E+00 0. -1.
</event>
<event>
 7    1  0.3568800E-013  0.7246153E+02  0.7816164E-02  0.1226708E+00
        -11   -1    0    0    0    0  0.00000000000E+00  0.00000000000E+00  0.45593999997E+02  0.45594000000E+02  0.51100000000E-03 0. -1.
         11   -1    0    0    0    0 -0.00000000000E+00 -0.00000000000E+00 -0.45593999997E+02  0.45594000000E+02  0.51100000000E-03 0.  1.
    9900012    2    1    2    0    0 -0.63522968473E+01 -0.13798953711E+02  0.10950710312E+02  0.72461525289E+02  0.69999941372E+02 0.  0.
        -12    1    1    2    0    0  0.63522968473E+01  0.13798953711E+02 -0.10950710312E+02  0.18726474711E+02  0.00000000000E+00 0.  1.
         11    1    3    3    0    0 -0.14413124052E+02  0.14744211185E+02 -0.15661031936E+02  0.25892041827E+02  0.51100000000E-03 0. -1.
        -11    1    3    3    0    0  0.53124361887E+01 -0.14695942845E+01 -0.30633914372E+01  0.63060330620E+01  0.51100000000E-03 0.  1.
        -12    1    3    3    0    0  0.27483910162E+01 -0.27073570611E+02  0.29675133686E+02  0.40263450400E+02  0.00000000000E+00 0.  1.
</event>
<event>
 7    1  0.3568800E-013  0.7246154E+02  0.7816164E-02  0.1226708E+00
        -11   -1    0    0    0    0  0.00000000000E+00  0.00000000000E+00  0.45593999997E+02  0.45594000000E+02  0.51100000000E-03 0.  1.
         11   -1    0    0    0    0 -0.00000000000E+00 -0.00000000000E+00 -0.45593999997E+02  0.45594000000E+02  0.51100000000E-03 0. -1.
    9900012    2    1    2    0    0  0.32506773216E+01 -0.16465412465E+02 -0.83068324802E+01  0.72461543407E+02  0.69999964974E+02 0.  0.
        -12    1    1    2    0    0 -0.32506773216E+01  0.16465412465E+02  0.83068324802E+01  0.18726456593E+02  0.00000000000E+00 0.  1.
         11    1    3    3    0    0 -0.12020348923E+01  0.28927804557E+01 -0.12215428144E+01  0.33623256469E+01  0.51100000000E-03 0. -1.
        -11    1    3    3    0    0 -0.29870813420E+02 -0.16239306069E+01 -0.56124890050E+01  0.30436863802E+02  0.51100000000E-03 0.  1.
         12    1    3    3    0    0  0.34323525634E+02 -0.17734262314E+02 -0.14728006607E+01  0.38662353958E+02  0.00000000000E+00 0. -1.
</event>
<event>
 7    1  0.3568800E-013  0.7246157E+02  0.7816164E-02  0.1226708E+00
        -11   -1    0    0    0    0  0.00000000000E+00  0.00000000000E+00  0.45593999997E+02  0.45594000000E+02  0.51100000000E-03 0.  1.
         11   -1    0    0    0    0 -0.00000000000E+00 -0.00000000000E+00 -0.45593999997E+02  0.45594000000E+02  0.51100000000E-03 0. -1.
    9900012    2    1    2    0    0 -0.17765441800E+02 -0.35612843438E+01 -0.47313471697E+01  0.72461566422E+02  0.69999994955E+02 0.  0.
        -12    1    1    2    0    0  0.17765441800E+02  0.35612843438E+01  0.47313471697E+01  0.18726433578E+02  0.00000000000E+00 0.  1.
         11    1    3    3    0    0  0.18584367149E+02  0.80858575905E+01  0.47233253442E+00  0.20272713030E+02  0.51100000000E-03 0. -1.
        -11    1    3    3    0    0 -0.13069624215E+02  0.49941252708E+01 -0.16313465993E+02  0.21491522452E+02  0.51100000000E-03 0.  1.
        -12    1    3    3    0    0 -0.23280184734E+02 -0.16641267205E+02  0.11109786289E+02  0.30697330939E+02  0.00000000000E+00 0.  1.
</event>
<event>
 7    1  0.3568800E-013  0.7246160E+02  0.7816164E-02  0.1226708E+00
        -11   -1    0    0    0    0  0.00000000000E+00  0.00000000000E+00  0.45593999997E+02  0.45594000000E+02  0.51100000000E-03 0. -1.
         11   -1    0    0    0    0 -0.00000000000E+00 -0.00000000000E+00 -0.45593999997E+02  0.45594000000E+02  0.51100000000E-03 0.  1.
    9900012    2    1    2    0    0  0.50785015134E+01 -0.12129604494E+02  0.13332648515E+02  0.72461601541E+02  0.70000040705E+02 0.  0.
        -12    1    1    2    0    0 -0.50785015134E+01  0.12129604494E+02 -0.13332648515E+02  0.18726398459E+02  0.00000000000E+00 0.  1.
         11    1    3    3    0    0 -0.10621559290E+02  0.70530392400E+01  0.43111278494E+01  0.13459149597E+02  0.51100000000E-03 0. -1.
        -11    1    3    3    0    0 -0.13855450247E+02  0.66466933042E+01 -0.66417469964E+01  0.16741112175E+02  0.51100000000E-03 0.  1.
         12    1    3    3    0    0  0.29555511050E+02 -0.25829337038E+02  0.15663267662E+02  0.42261339770E+02  0.00000000000E+00 0. -1.
</event>
<event>
 7    1  0.3568800E-013  0.7246153E+02  0.7816164E-02  0.1226708E+00
        -11   -1    0    0    0    0  0.00000000000E+00  0.00000000000E+00  0.45593999997E+02  0.45594000000E+02  0.51100000000E-03 0.  1.
         11   -1    0    0    0    0 -0.00000000000E+00 -0.00000000000E+00 -0.45593999997E+02  0.45594000000E+02  0.51100000000E-03 0. -1.
    9900012    2    1    2    0    0  0.37416285860E+01 -0.26152242979E+01 -0.18161539121E+02  0.72461529808E+02  0.69999947259E+02 0.  0.
        -12    1    1    2    0    0 -0.37416285860E+01  0.26152242979E+01  0.18161539121E+02  0.18726470192E+02  0.00000000000E+00 0.  1.
         11    1    3    3    0    0 -0.52157373434E+01 -0.81432726462E+01 -0.56457091451E+01  0.11197805028E+02  0.51100000000E-03 0. -1.
        -11    1    3    3    0    0  0.97264522297E+01 -0.26126178186E+02 -0.95204724164E+01  0.29458792488E+02  0.51100000000E-03 0.  1.
         12    1    3    3    0    0 -0.76908630040E+00  0.31654226534E+02 -0.29953575597E+01  0.31804932292E+02  0.00000000000E+00 0. -1.
</event>
<event>
 7    1  0.3568800E-013  0.7246168E+02  0.7816164E-02  0.1226708E+00
        -11   -1    0    0    0    0  0.00000000000E+00  0.00000000000E+00  0.45593999997E+02  0.45594000000E+02  0.51100000000E-03 0.  1.
         11   -1    0    0    0    0 -0.00000000000E+00 -0.00000000000E+00 -0.45593999997E+02  0.45594000000E+02  0.51100000000E-03 0. -1.
    9900012    2    1    2    0    0 -0.35560226634E+01 -0.15800361635E+02 -0.94009674190E+01  0.72461683934E+02  0.70000148037E+02 0.  0.
        -12    1    1    2    0    0  0.35560226634E+01  0.15800361635E+02  0.94009674190E+01  0.18726316066E+02  0.00000000000E+00 0.  1.
         11    1    3    3    0    0 -0.20092836236E+02 -0.14291696693E+02 -0.53665634555E+01  0.25234394504E+02  0.51100000000E-03 0. -1.
        -11    1    3    3    0    0 -0.13795717831E+02  0.16790271193E+01 -0.86660013173E+01  0.16378050605E+02  0.51100000000E-03 0.  1.
         12    1    3    3    0    0  0.30332531404E+02 -0.31876920615E+01  0.46315973538E+01  0.30849238825E+02  0.00000000000E+00 0. -1.
</event>
<event>
 7    1  0.3568800E-013  0.7246157E+02  0.7816164E-02  0.1226708E+00
        -11   -1    0    0    0    0  0.00000000000E+00  0.00000000000E+00  0.45593999997E+02  0.45594000000E+02  0.51100000000E-03 0. -1.
         11   -1    0    0    0    0 -0.00000000000E+00 -0.00000000000E+00 -0.45593999997E+02  0.45594000000E+02  0.51100000000E-03 0.  1.
    9900012    2    1    2    0    0  0.15761204004E+02 -0.93060804285E+01 -0.39573484372E+01  0.72461567044E+02  0.69999995766E+02 0.  0.
        -12    1    1    2    0    0 -0.15761204004E+02  0.93060804285E+01  0.39573484372E+01  0.18726432956E+02  0.00000000000E+00 0.  1.
         11    1    3    3    0    0 -0.16000642736E+01  0.34120619352E+01 -0.15064498899E+00  0.37716132495E+01  0.51100000000E-03 0. -1.
        -11    1    3    3    0    0 -0.24870785457E+02 -0.49126133660E+01 -0.44440725547E+01  0.25737900467E+02  0.51100000000E-03 0.  1.
         12    1    3    3    0    0  0.42232053735E+02 -0.78055289977E+01  0.63736910650E+00  0.42952053327E+02  0.00000000000E+00 0. -1.
</event>
<event>
 7    1  0.3568800E-013  0.7246177E+02  0.7816164E-02  0.1226707E+00
        -11   -1    0    0    0    0  0.00000000000E+00  0.00000000000E+00  0.45593999997E+02  0.45594000000E+02  0.51100000000E-03 0. -1.
         11   -1    0    0    0    0 -0.00000000000E+00 -0.00000000000E+00 -0.45593999997E+02  0.45594000000E+02  0.51100000000E-03 0.  1.
    9900012    2    1    2    0    0  0.16299563274E+02 -0.15328242512E+01 -0.90910087597E+01  0.72461768308E+02  0.70000257949E+02 0.  0.
        -12    1    1    2    0    0 -0.16299563274E+02  0.15328242512E+01  0.90910087597E+01  0.18726231692E+02  0.00000000000E+00 0.  1.
         11    1    3    3    0    0  0.11880848943E+02  0.23198024254E+01  0.17716075092E+00  0.12106504083E+02  0.51100000000E-03 0. -1.
        -11    1    3    3    0    0  0.19353230417E+02  0.20563497606E+02 -0.13711043459E+02  0.31391044494E+02  0.51100000000E-03 0.  1.
         12    1    3    3    0    0 -0.14934516087E+02 -0.24416124283E+02  0.44428739486E+01  0.28964219732E+02  0.00000000000E+00 0. -1.
</event>
<event>
 7    1  0.3568800E-013  0.7246167E+02  0.7816164E-02  0.1226708E+00
        -11   -1    0    0    0    0  0.00000000000E+00  0.00000000000E+00  0.45593999997E+02  0.45594000000E+02  0.51100000000E-03 0.  1.
         11   -1    0    0    0    0 -0.00000000000E+00 -0.00000000000E+00 -0.45593999997E+02  0.45594000000E+02  0.51100000000E-03 0. -1.
    9900012    2    1    2    0    0  0.14067126487E+02 -0.12309272423E+02  0.11284079622E+01  0.72461667211E+02  0.70000126252E+02 0.  0.
        -12    1    1    2    0    0 -0.14067126487E+02  0.12309272423E+02 -0.11284079622E+01  0.18726332789E+02  0.00000000000E+00 0.  1.
         11    1    3    3    0    0 -0.79900630156E+01 -0.22793278903E+02  0.70117740573E+01  0.25150340869E+02  0.51100000000E-03 0. -1.
        -11    1    3    3    0    0  0.11773728747E+02 -0.67501949940E+01 -0.18990332559E+02  0.23341348548E+02  0.51100000000E-03 0.  1.
        -12    1    3    3    0    0  0.10283460756E+02  0.17234201474E+02  0.13106966464E+02  0.23969977794E+02  0.00000000000E+00 0.  1.
</event>
<event>
 7    1  0.3568800E-013  0.7246162E+02  0.7816164E-02  0.1226708E+00
        -11   -1    0    0    0    0  0.00000000000E+00  0.00000000000E+00  0.45593999997E+02  0.45594000000E+02  0.51100000000E-03 0.  1.
         11   -1    0    0    0    0 -0.00000000000E+00 -0.00000000000E+00 -0.45593999997E+02  0.45594000000E+02  0.51100000000E-03 0. -1.
    9900012    2    1    2    0    0  0.24429780526E+01  0.17333558906E+02 -0.66525914374E+01  0.72461618103E+02  0.70000062280E+02 0.  0.
        -12    1    1    2    0    0 -0.24429780526E+01 -0.17333558906E+02  0.66525914374E+01  0.18726381897E+02  0.00000000000E+00 0.  1.
         11    1    3    3    0    0  0.23885052166E+02  0.10683694152E+02  0.10865075087E+02  0.28331729467E+02  0.51100000000E-03 0. -1.
        -11    1    3    3    0    0  0.14313302891E+01  0.19802659954E+01  0.86931253595E+01  0.90299827567E+01  0.51100000000E-03 0.  1.
        -12    1    3    3    0    0 -0.22873404403E+02  0.46695987586E+01 -0.26210791884E+02  0.35099905879E+02  0.00000000000E+00 0.  1.
</event>
<event>
 7    1  0.3568800E-013  0.7246154E+02  0.7816164E-02  0.1226708E+00
        -11   -1    0    0    0    0  0.00000000000E+00  0.00000000000E+00  0.45593999997E+02  0.45594000000E+02  0.51100000000E-03 0. -1.
         11   -1    0    0    0    0 -0.00000000000E+00 -0.00000000000E+00 -0.45593999997E+02  0.45594000000E+02  0.51100000000E-03 0.  1.
    9900012    2    1    2    0    0 -0.39686098886E+00 -0.17617081764E+02 -0.63372756572E+01  0.72461544615E+02  0.69999966548E+02 0.  0.
        -12    1    1    2    0    0  0.39686098886E+00  0.17617081764E+02  0.63372756572E+01  0.18726455385E+02  0.00000000000E+00 0.  1.
         11    1    3    3    0    0 -0.34809378986E+01  0.79237732524E+01  0.16813409768E+02  0.18910152286E+02  0.51100000000E-03 0. -1.
        -11    1    3    3    0    0  0.14021875215E+01  0.93760502799E+01  0.29458397435E+01  0.99274579199E+01  0.51100000000E-03 0.  1.
        -12    1    3    3    0    0  0.16818893883E+01 -0.34916905297E+02 -0.26096525169E+02  0.43623934409E+02  0.00000000000E+00 0.  1.
</event>
<event>
 7    1  0.3568800E-013  0.7246155E+02  0.7816164E-02  0.1226708E+00
        -11   -1    0    0    0    0  0.00000000000E+00  0.00000000000E+00  0.45593999997E+02  0.45594000000E+02  0.51100000000E-03 0.  1.
         11   -1    0    0    0    0 -0.00000000000E+00 -0.00000000000E+00 -0.45593999997E+02  0.45594000000E+02  0.51100000000E-03 0. -1.
    9900012    2    1    2    0    0  0.78054672961E+01 -0.95650077859E+01 -0.14080666916E+02  0.72461551472E+02  0.69999975481E+02 0.  0.
        -12    1    1    2    0    0 -0.78054672961E+01  0.95650077859E+01  0.14080666916E+02  0.18726448528E+02  0.00000000000E+00 0.  1.
         11    1    3    3    0    0  0.65331715321E+00  0.44629922061E+01 -0.72632257460E+01  0.85498287254E+01  0.51100000000E-03 0. -1.
        -11    1    3    3    0    0  0.22658046558E+02 -0.16540158187E+02 -0.26594656744E+02  0.38655396445E+02  0.51100000000E-03 0.  1.
         12    1    3    3    0    0 -0.15505896416E+02  0.25121581954E+01  0.19777215573E+02  0.25256326302E+02  0.00000000000E+00 0. -1.
</event>
<event>
 7    1  0.3568800E-013  0.7246157E+02  0.7816164E-02  0.1226708E+00
        -11   -1    0    0    0    0  0.00000000000E+00  0.00000000000E+00  0.45593999997E+02  0.45594000000E+02  0.51100000000E-03 0.  1.
         11   -1    0    0    0    0 -0.00000000000E+00 -0.00000000000E+00 -0.45593999997E+02  0.45594000000E+02  0.51100000000E-03 0. -1.
    9900012    2    1    2    0    0  0.73616929877E+01 -0.15078609970E+02  0.83138483689E+01  0.72461572765E+02  0.70000003218E+02 0.  0.
        -12    1    1    2    0    0 -0.73616929877E+01  0.15078609970E+02 -0.83138483689E+01  0.18726427235E+02  0.00000000000E+00 0.  1.
         11    1    3    3    0    0 -0.39865276034E+01  0.22403364740E+01  0.21204971303E+02  0.21692448411E+02  0.51100000000E-03 0.  1.
        -11    1    3    3    0    0  0.37430430069E+01  0.71447577495E+01  0.12385257855E+02  0.14780140278E+02  0.51100000000E-03 0. -1.
         12    1    3    3    0    0  0.76051775841E+01 -0.24463704194E+02 -0.25276380789E+02  0.35988984075E+02  0.00000000000E+00 0. -1.
</event>
<event>
 7    1  0.3568800E-013  0.7246158E+02  0.7816164E-02  0.1226708E+00
        -11   -1    0    0    0    0  0.00000000000E+00  0.00000000000E+00  0.45593999997E+02  0.45594000000E+02  0.51100000000E-03 0.  1.
         11   -1    0    0    0    0 -0.00000000000E+00 -0.00000000000E+00 -0.45593999997E+02  0.45594000000E+02  0.51100000000E-03 0. -1.
    9900012    2    1    2    0    0 -0.38279700007E+01 -0.14815472011E+02 -0.10794778699E+02  0.72461579829E+02  0.70000012421E+02 0.  0.
        -12    1    1    2    0    0  0.38279700007E+01  0.14815472011E+02  0.10794778699E+02  0.18726420171E+02  0.00000000000E+00 0.  1.
         11    1    3    3    0    0  0.12781048912E+02  0.15303508751E+01 -0.12659322119E+02  0.18054241105E+02  0.51100000000E-03 0. -1.
        -11    1    3    3    0    0 -0.37126728693E+01  0.10156556901E+02  0.17855798480E+02  0.20875083893E+02  0.51100000000E-03 0.  1.
         12    1    3    3    0    0 -0.12896346044E+02 -0.26502379787E+02 -0.15991255060E+02  0.33532254831E+02  0.00000000000E+00 0. -1.
</event>
<event>
 7    1  0.3568800E-013  0.7246160E+02  0.7816164E-02  0.1226708E+00
        -11   -1    0    0    0    0  0.00000000000E+00  0.00000000000E+00  0.45593999997E+02  0.45594000000E+02  0.51100000000E-03 0. -1.
         11   -1    0    0    0    0 -0.00000000000E+00 -0.00000000000E+00 -0.45593999997E+02  0.45594000000E+02  0.51100000000E-03 0.  1.
    9900012    2    1    2    0    0  0.82724104517E+01  0.11462290250E+02  0.12282562401E+02  0.72461595871E+02  0.70000033319E+02 0.  0.
        -12    1    1    2    0    0 -0.82724104517E+01 -0.11462290250E+02 -0.12282562401E+02  0.18726404129E+02  0.00000000000E+00 0.  1.
         11    1    3    3    0    0  0.51898167227E+01  0.50890039865E+01 -0.13473027583E+02  0.15308645652E+02  0.51100000000E-03 0. -1.
        -11    1    3    3    0    0  0.30725914143E+01  0.62583273527E+01 -0.14924524726E+02  0.16472671848E+02  0.51100000000E-03 0.  1.
         12    1    3    3    0    0  0.10002314718E-01  0.11495891115E+00  0.40680114709E+02  0.40680278371E+02  0.00000000000E+00 0. -1.
</event>
<event>
 7    1  0.3568800E-013  0.7246137E+02  0.7816164E-02  0.1226709E+00
        -11   -1    0    0    0    0  0.00000000000E+00  0.00000000000E+00  0.45593999997E+02  0.45594000000E+02  0.51100000000E-03 0.  1.
         11   -1    0    0    0    0 -0.00000000000E+00 -0.00000000000E+00 -0.45593999997E+02  0.45594000000E+02  0.51100000000E-03 0. -1.
    9900012    2    1    2    0    0 -0.51343555259E+01  0.53924533142E+01 -0.17182739414E+02  0.72461369412E+02  0.69999738313E+02 0.  0.
        -12    1    1    2    0    0  0.51343555259E+01 -0.53924533142E+01  0.17182739414E+02  0.18726630588E+02  0.00000000000E+00 0.  1.
         11    1    3    3    0    0  0.78810224891E+01  0.84822690850E+01 -0.80187910344E+00  0.11606136940E+02  0.51100000000E-03 0. -1.
        -11    1    3    3    0    0 -0.98199309470E+01  0.26758960285E+02 -0.63331414158E+01  0.29199001349E+02  0.51100000000E-03 0.  1.
         12    1    3    3    0    0 -0.31954470680E+01 -0.29848776056E+02 -0.10047718894E+02  0.31656231124E+02  0.00000000000E+00 0. -1.
</event>
<event>
 7    1  0.3568800E-013  0.7246169E+02  0.7816164E-02  0.1226708E+00
        -11   -1    0    0    0    0  0.00000000000E+00  0.00000000000E+00  0.45593999997E+02  0.45594000000E+02  0.51100000000E-03 0. -1.
         11   -1    0    0    0    0 -0.00000000000E+00 -0.00000000000E+00 -0.45593999997E+02  0.45594000000E+02  0.51100000000E-03 0.  1.
    9900012    2    1    2    0    0  0.93610744877E+01 -0.10322128752E+02  0.12509945278E+02  0.72461687272E+02  0.70000152385E+02 0.  0.
        -12    1    1    2    0    0 -0.93610744877E+01  0.10322128752E+02 -0.12509945278E+02  0.18726312728E+02  0.00000000000E+00 0.  1.
         11    1    3    3    0    0 -0.24286493680E+01  0.18390159141E+02  0.10481706103E+02  0.21306394675E+02  0.51100000000E-03 0. -1.
        -11    1    3    3    0    0  0.10857620903E+02  0.50839397038E+01 -0.96457473388E+01  0.15387488962E+02  0.51100000000E-03 0.  1.
        -12    1    3    3    0    0  0.93210295274E+00 -0.33796227597E+02  0.11673986514E+02  0.35767803634E+02  0.00000000000E+00 0.  1.
</event>
<event>
 7    1  0.3568800E-013  0.7246158E+02  0.7816164E-02  0.1226708E+00
        -11   -1    0    0    0    0  0.00000000000E+00  0.00000000000E+00  0.45593999997E+02  0.45594000000E+02  0.51100000000E-03 0. -1.
         11   -1    0    0    0    0 -0.00000000000E+00 -0.00000000000E+00 -0.45593999997E+02  0.45594000000E+02  0.51100000000E-03 0.  1.
    9900012    2    1    2    0    0  0.39496897361E+01 -0.63214312961E+01  0.17179007798E+02  0.72461578784E+02  0.70000011060E+02 0.  0.
        -12    1    1    2    0    0 -0.39496897361E+01  0.63214312961E+01 -0.17179007798E+02  0.18726421216E+02  0.00000000000E+00 0.  1.
         11    1    3    3    0    0 -0.70367309437E+01 -0.36989565990E+01  0.44798373496E+01  0.91250646702E+01  0.51100000000E-03 0. -1.
        -11    1    3    3    0    0  0.12653747265E+02 -0.14679162835E+02 -0.20359267504E+02  0.28108627055E+02  0.51100000000E-03 0.  1.
         12    1    3    3    0    0 -0.16673265848E+01  0.12056688137E+02  0.33058437952E+02  0.35227887059E+02  0.00000000000E+00 0. -1.
</event>
<event>
 7    1  0.3568800E-013  0.7246155E+02  0.7816164E-02  0.1226708E+00
        -11   -1    0    0    0    0  0.00000000000E+00  0.00000000000E+00  0.45593999997E+02  0.45594000000E+02  0.51100000000E-03 0. -1.
         11   -1    0    0    0    0 -0.00000000000E+00 -0.00000000000E+00 -0.45593999997E+02  0.45594000000E+02  0.51100000000E-03 0.  1.
    9900012    2    1    2    0    0  0.97551787822E+01 -0.13368458313E+02  0.87636043005E+01  0.72461549427E+02  0.69999972816E+02 0.  0.
        -12    1    1    2    0    0 -0.97551787822E+01  0.13368458313E+02 -0.87636043005E+01  0.18726450573E+02  0.00000000000E+00 0.  1.
         11    1    3    3    0    0  0.96897659647E+01 -0.12992629554E+02 -0.63787535128E+01  0.17418050517E+02  0.51100000000E-03 0. -1.
        -11    1    3    3    0    0  0.10714867624E+02  0.20295054105E+02 -0.58857633835E+01  0.23692611089E+02  0.51100000000E-03 0.  1.
        -12    1    3    3    0    0 -0.10649454807E+02 -0.20670882865E+02  0.21028121197E+02  0.31350887821E+02  0.00000000000E+00 0.  1.
</event>
<event>
 7    1  0.3568800E-013  0.7246154E+02  0.7816164E-02  0.1226708E+00
        -11   -1    0    0    0    0  0.00000000000E+00  0.00000000000E+00  0.45593999997E+02  0.45594000000E+02  0.51100000000E-03 0.  1.
         11   -1    0    0    0    0 -0.00000000000E+00 -0.00000000000E+00 -0.45593999997E+02  0.45594000000E+02  0.51100000000E-03 0. -1.
    9900012    2    1    2    0    0 -0.18370897390E+01 -0.41705534087E+01 -0.18163473730E+02  0.72461542984E+02  0.69999964423E+02 0.  0.
        -12    1    1    2    0    0  0.18370897390E+01  0.41705534087E+01  0.18163473730E+02  0.18726457016E+02  0.00000000000E+00 0.  1.
         11    1    3    3    0    0 -0.24136200392E+02 -0.24321395648E+02 -0.77315481899E+01  0.35126390269E+02  0.51100000000E-03 0. -1.
        -11    1    3    3    0    0  0.45628548442E+01 -0.94312031745E+00  0.40756631687E+01  0.61903271956E+01  0.51100000000E-03 0.  1.
        -12    1    3    3    0    0  0.17736255809E+02  0.21093962557E+02 -0.14507588709E+02  0.31144825519E+02  0.00000000000E+00 0.  1.
</event>
<event>
 7    1  0.3568800E-013  0.7246161E+02  0.7816164E-02  0.1226708E+00
        -11   -1    0    0    0    0  0.00000000000E+00  0.00000000000E+00  0.45593999997E+02  0.45594000000E+02  0.51100000000E-03 0.  1.
         11   -1    0    0    0    0 -0.00000000000E+00 -0.00000000000E+00 -0.45593999997E+02  0.45594000000E+02  0.51100000000E-03 0. -1.
    9900012    2    1    2    0    0 -0.11135733453E+02 -0.39946508306E+01 -0.14516059397E+02  0.72461607523E+02  0.70000048498E+02 0.  0.
        -12    1    1    2    0    0  0.11135733453E+02  0.39946508306E+01  0.14516059397E+02  0.18726392477E+02  0.00000000000E+00 0.  1.
         11    1    3    3    0    0 -0.34626396728E+01  0.27330246946E+02 -0.99223339604E+01  0.29281136984E+02  0.51100000000E-03 0. -1.
        -11    1    3    3    0    0  0.33335789694E+01  0.40055449186E+01  0.20196561645E+01  0.55889310359E+01  0.51100000000E-03 0.  1.
        -12    1    3    3    0    0 -0.11006672749E+02 -0.35330442695E+02 -0.66133816007E+01  0.37591539503E+02  0.00000000000E+00 0.  1.
</event>
<event>
 7    1  0.3568800E-013  0.7246169E+02  0.7816164E-02  0.1226708E+00
        -11   -1    0    0    0    0  0.00000000000E+00  0.00000000000E+00  0.45593999997E+02  0.45594000000E+02  0.51100000000E-03 0.  1.
         11   -1    0    0    0    0 -0.00000000000E+00 -0.00000000000E+00 -0.45593999997E+02  0.45594000000E+02  0.51100000000E-03 0. -1.
    9900012    2    1    2    0    0 -0.51898403785E+01 -0.11642103072E+02 -0.13718655365E+02  0.72461694649E+02  0.70000161995E+02 0.  0.
        -12    1    1    2    0    0  0.51898403785E+01  0.11642103072E+02  0.13718655365E+02  0.18726305351E+02  0.00000000000E+00 0.  1.
         11    1    3    3    0    0 -0.14898280638E+02  0.20532670248E+01 -0.25698891771E+02  0.29775958590E+02  0.51100000000E-03 0. -1.
        -11    1    3    3    0    0 -0.20467313783E+01  0.71583173496E+01 -0.84158359076E+01  0.11236410054E+02  0.51100000000E-03 0.  1.
         12    1    3    3    0    0  0.11755171637E+02 -0.20853687446E+02  0.20396072314E+02  0.31449326005E+02  0.00000000000E+00 0. -1.
</event>
<event>
 7    1  0.3568800E-013  0.7246160E+02  0.7816164E-02  0.1226708E+00
        -11   -1    0    0    0    0  0.00000000000E+00  0.00000000000E+00  0.45593999997E+02  0.45594000000E+02  0.51100000000E-03 0.  1.
         11   -1    0    0    0    0 -0.00000000000E+00 -0.00000000000E+00 -0.45593999997E+02  0.45594000000E+02  0.51100000000E-03 0. -1.
    9900012    2    1    2    0    0 -0.38991849244E+01  0.10545162113E+02 -0.14975778779E+02  0.72461600530E+02  0.70000039388E+02 0.  0.
        -12    1    1    2    0    0  0.38991849244E+01 -0.10545162113E+02  0.14975778779E+02  0.18726399470E+02  0.00000000000E+00 0.  1.
         11    1    3    3    0    0  0.11627513460E+02  0.13680251714E+02 -0.15964555896E+02  0.24025307520E+02  0.51100000000E-03 0. -1.
        -11    1    3    3    0    0 -0.10314951413E+02 -0.31278269042E+00 -0.22211050382E+02  0.24491362049E+02  0.51100000000E-03 0.  1.
        -12    1    3    3    0    0 -0.52117469710E+01 -0.28223069103E+01  0.23199827499E+02  0.23944930962E+02  0.00000000000E+00 0.  1.
</event>
<event>
 7    1  0.3568800E-013  0.7246156E+02  0.7816164E-02  0.1226708E+00
        -11   -1    0    0    0    0  0.00000000000E+00  0.00000000000E+00  0.45593999997E+02  0.45594000000E+02  0.51100000000E-03 0.  1.
         11   -1    0    0    0    0 -0.00000000000E+00 -0.00000000000E+00 -0.45593999997E+02  0.45594000000E+02  0.51100000000E-03 0. -1.
    9900012    2    1    2    0    0  0.83200755446E+01 -0.15882052227E+02 -0.54051958224E+01  0.72461564624E+02  0.69999992613E+02 0.  0.
        -12    1    1    2    0    0 -0.83200755446E+01  0.15882052227E+02  0.54051958224E+01  0.18726435376E+02  0.00000000000E+00 0.  1.
         11    1    3    3    0    0  0.23097743387E+02 -0.41969562458E+01  0.11232736063E+02  0.26024883305E+02  0.51100000000E-03 0. -1.
        -11    1    3    3    0    0  0.70571820272E+01 -0.18998472365E+02 -0.90064271616E+01  0.22177950781E+02  0.51100000000E-03 0.  1.
        -12    1    3    3    0    0 -0.21834849870E+02  0.73133763835E+01 -0.76315047243E+01  0.24258730538E+02  0.00000000000E+00 0.  1.
</event>
<event>
 7    1  0.3568800E-013  0.7246156E+02  0.7816164E-02  0.1226708E+00
        -11   -1    0    0    0    0  0.00000000000E+00  0.00000000000E+00  0.45593999997E+02  0.45594000000E+02  0.51100000000E-03 0. -1.
         11   -1    0    0    0    0 -0.00000000000E+00 -0.00000000000E+00 -0.45593999997E+02  0.45594000000E+02  0.51100000000E-03 0.  1.
    9900012    2    1    2    0    0 -0.17260783933E+02  0.67884841928E+01  0.25809901925E+01  0.72461556398E+02  0.69999981898E+02 0.  0.
        -12    1    1    2    0    0  0.17260783933E+02 -0.67884841928E+01 -0.25809901925E+01  0.18726443602E+02  0.00000000000E+00 0.  1.
         11    1    3    3    0    0  0.32542767212E+01 -0.38781491604E+01 -0.91117162310E+01  0.10423710032E+02  0.51100000000E-03 0. -1.
        -11    1    3    3    0    0 -0.14018630331E+02 -0.48423824733E+01 -0.20744740933E+02  0.25501273322E+02  0.51100000000E-03 0.  1.
         12    1    3    3    0    0 -0.64964303224E+01  0.15509015826E+02  0.32437447357E+02  0.36536573045E+02  0.00000000000E+00 0. -1.
</event>
<event>
 7    1  0.3568800E-013  0.7246156E+02  0.7816164E-02  0.1226708E+00
        -11   -1    0    0    0    0  0.00000000000E+00  0.00000000000E+00  0.45593999997E+02  0.45594000000E+02  0.51100000000E-03 0. -1.
         11   -1    0    0    0    0 -0.00000000000E+00 -0.00000000000E+00 -0.45593999997E+02  0.45594000000E+02  0.51100000000E-03 0.  1.
    9900012    2    1    2    0    0  0.10925484956E+02 -0.17401611430E+01  0.15109113234E+02  0.72461556530E+02  0.69999982069E+02 0.  0.
        -12    1    1    2    0    0 -0.10925484956E+02  0.17401611430E+01 -0.15109113234E+02  0.18726443470E+02  0.00000000000E+00 0.  1.
         11    1    3    3    0    0  0.22497745974E+01  0.12691908517E+01 -0.64583363146E+01  0.69557486563E+01  0.51100000000E-03 0. -1.
        -11    1    3    3    0    0  0.53323210938E+01 -0.48496344211E+01 -0.21290898100E+02  0.22477876778E+02  0.51100000000E-03 0.  1.
         12    1    3    3    0    0  0.33433892650E+01  0.18402824264E+01  0.42858347649E+02  0.43027931096E+02  0.00000000000E+00 0. -1.
</event>
<event>
 7    1  0.3568800E-013  0.7246176E+02  0.7816164E-02  0.1226708E+00
        -11   -1    0    0    0    0  0.00000000000E+00  0.00000000000E+00  0.45593999997E+02  0.45594000000E+02  0.51100000000E-03 0.  1.
         11   -1    0    0    0    0 -0.00000000000E+00 -0.00000000000E+00 -0.45593999997E+02  0.45594000000E+02  0.51100000000E-03 0. -1.
    9900012    2    1    2    0    0 -0.96100631653E+01 -0.14920562503E+02 -0.59745722606E+01  0.72461761372E+02  0.70000248914E+02 0.  0.
        -12    1    1    2    0    0  0.96100631653E+01  0.14920562503E+02  0.59745722606E+01  0.18726238628E+02  0.00000000000E+00 0.  1.
         11    1    3    3    0    0 -0.76290062215E+01 -0.21197077247E+02  0.21033133736E+01  0.22626129743E+02  0.51100000000E-03 0. -1.
        -11    1    3    3    0    0 -0.13726351169E+02  0.11144485725E+02  0.15197080487E+02  0.23314449041E+02  0.51100000000E-03 0.  1.
        -12    1    3    3    0    0  0.11745294225E+02 -0.48679709814E+01 -0.23274966121E+02  0.26521182588E+02  0.00000000000E+00 0.  1.
</event>
<event>
 7    1  0.3568800E-013  0.7246192E+02  0.7816164E-02  0.1226707E+00
        -11   -1    0    0    0    0  0.00000000000E+00  0.00000000000E+00  0.45593999997E+02  0.45594000000E+02  0.51100000000E-03 0. -1.
         11   -1    0    0    0    0 -0.00000000000E+00 -0.00000000000E+00 -0.45593999997E+02  0.45594000000E+02  0.51100000000E-03 0.  1.
    9900012    2    1    2    0    0  0.14278032511E+02  0.83733342179E+01  0.87573559567E+01  0.72461916008E+02  0.70000450355E+02 0.  0.
        -12    1    1    2    0    0 -0.14278032511E+02 -0.83733342179E+01 -0.87573559567E+01  0.18726083992E+02  0.00000000000E+00 0.  1.
         11    1    3    3    0    0  0.44653111639E+01  0.24117943855E+01  0.18494538230E+02  0.19178209003E+02  0.51100000000E-03 0. -1.
        -11    1    3    3    0    0 -0.38561730547E+01  0.26549069372E+02 -0.29516723893E+00  0.26829280257E+02  0.51100000000E-03 0.  1.
        -12    1    3    3    0    0  0.13668894402E+02 -0.20587529539E+02 -0.94420150346E+01  0.26454426749E+02  0.00000000000E+00 0.  1.
</event>
<event>
 7    1  0.3568800E-013  0.7246157E+02  0.7816164E-02  0.1226708E+00
        -11   -1    0    0    0    0  0.00000000000E+00  0.00000000000E+00  0.45593999997E+02  0.45594000000E+02  0.51100000000E-03 0.  1.
         11   -1    0    0    0    0 -0.00000000000E+00 -0.00000000000E+00 -0.45593999997E+02  0.45594000000E+02  0.51100000000E-03 0. -1.
    9900012    2    1    2    0    0 -0.32480787268E+01  0.18139645321E+02 -0.33290228634E+01  0.72461571055E+02  0.70000000991E+02 0.  0.
        -12    1    1    2    0    0  0.32480787268E+01 -0.18139645321E+02  0.33290228634E+01  0.18726428945E+02  0.00000000000E+00 0.  1.
         11    1    3    3    0    0  0.18290926320E+02 -0.98984267742E+01 -0.15212267960E+02  0.25767225986E+02  0.51100000000E-03 0. -1.
        -11    1    3    3    0    0 -0.95183297154E+00 -0.44329787406E+01 -0.30329118204E+01  0.54548914647E+01  0.51100000000E-03 0.  1.
        -12    1    3    3    0    0 -0.20587172075E+02  0.32471050836E+02  0.14916156917E+02  0.41239453605E+02  0.00000000000E+00 0.  1.
</event>
<event>
 7    1  0.3568800E-013  0.7246155E+02  0.7816164E-02  0.1226708E+00
        -11   -1    0    0    0    0  0.00000000000E+00  0.00000000000E+00  0.45593999997E+02  0.45594000000E+02  0.51100000000E-03 0.  1.
         11   -1    0    0    0    0 -0.00000000000E+00 -0.00000000000E+00 -0.45593999997E+02  0.45594000000E+02  0.51100000000E-03 0. -1.
    9900012    2    1    2    0    0  0.10579575992E+02 -0.15437043125E+02  0.67108387530E+00  0.72461545926E+02  0.69999968256E+02 0.  0.
        -12    1    1    2    0    0 -0.10579575992E+02  0.15437043125E+02 -0.67108387530E+00  0.18726454074E+02  0.00000000000E+00 0.  1.
         11    1    3    3    0    0 -0.84893805052E+01 -0.56039884587E+01  0.37427749342E+01  0.10838940561E+02  0.51100000000E-03 0. -1.
        -11    1    3    3    0    0 -0.15179524123E+02 -0.56416414244E+01 -0.17837428923E+02  0.24091906139E+02  0.51100000000E-03 0.  1.
        -12    1    3    3    0    0  0.34248480620E+02 -0.41914132421E+01  0.14765737864E+02  0.37530699226E+02  0.00000000000E+00 0.  1.
</event>
<event>
 7    1  0.3568800E-013  0.7246164E+02  0.7816164E-02  0.1226708E+00
        -11   -1    0    0    0    0  0.00000000000E+00  0.00000000000E+00  0.45593999997E+02  0.45594000000E+02  0.51100000000E-03 0. -1.
         11   -1    0    0    0    0 -0.00000000000E+00 -0.00000000000E+00 -0.45593999997E+02  0.45594000000E+02  0.51100000000E-03 0.  1.
    9900012    2    1    2    0    0  0.16829986396E+02 -0.16075430576E+01 -0.80525716012E+01  0.72461640338E+02  0.70000091245E+02 0.  0.
        -12    1    1    2    0    0 -0.16829986396E+02  0.16075430576E+01  0.80525716012E+01  0.18726359662E+02  0.00000000000E+00 0.  1.
         11    1    3    3    0    0  0.10993585446E+02 -0.34611169473E+01  0.73137775038E+01  0.13650259818E+02  0.51100000000E-03 0. -1.
        -11    1    3    3    0    0  0.50311505726E+01  0.21431362282E+02 -0.27909245267E+02  0.35546332258E+02  0.51100000000E-03 0.  1.
         12    1    3    3    0    0  0.80525037795E+00 -0.19577788392E+02  0.12542896162E+02  0.23265048262E+02  0.00000000000E+00 0. -1.
</event>
<event>
 7    1  0.3568800E-013  0.7246157E+02  0.7816164E-02  0.1226708E+00
        -11   -1    0    0    0    0  0.00000000000E+00  0.00000000000E+00  0.45593999997E+02  0.45594000000E+02  0.51100000000E-03 0. -1.
         11   -1    0    0    0    0 -0.00000000000E+00 -0.00000000000E+00 -0.45593999997E+02  0.45594000000E+02  0.51100000000E-03 0.  1.
    9900012    2    1    2    0    0 -0.80158835863E+01  0.12806741770E+02 -0.11064005050E+02  0.72461568622E+02  0.69999997821E+02 0.  0.
        -12    1    1    2    0    0  0.80158835863E+01 -0.12806741770E+02  0.11064005050E+02  0.18726431378E+02  0.00000000000E+00 0.  1.
         11    1    3    3    0    0  0.17405372505E+02  0.45575546806E+01  0.11976312926E+02  0.21613661612E+02  0.51100000000E-03 0. -1.
        -11    1    3    3    0    0 -0.34300459720E+01  0.59472544413E+01  0.93684382871E+01  0.11614761597E+02  0.51100000000E-03 0.  1.
        -12    1    3    3    0    0 -0.21991210119E+02  0.23019326476E+01 -0.32408756263E+02  0.39233145413E+02  0.00000000000E+00 0.  1.
</event>
<event>
 7    1  0.3568800E-013  0.7246165E+02  0.7816164E-02  0.1226708E+00
        -11   -1    0    0    0    0  0.00000000000E+00  0.00000000000E+00  0.45593999997E+02  0.45594000000E+02  0.51100000000E-03 0. -1.
         11   -1    0    0    0    0 -0.00000000000E+00 -0.00000000000E+00 -0.45593999997E+02  0.45594000000E+02  0.51100000000E-03 0.  1.
    9900012    2    1    2    0    0  0.13514333909E+02 -0.56842222759E+01 -0.11650266556E+02  0.72461646519E+02  0.70000099296E+02 0.  0.
        -12    1    1    2    0    0 -0.13514333909E+02  0.56842222759E+01  0.11650266556E+02  0.18726353481E+02  0.00000000000E+00 0.  1.
         11    1    3    3    0    0 -0.72033530971E+01 -0.26673475360E+01 -0.58140403550E+01  0.96335924883E+01  0.51100000000E-03 0. -1.
        -11    1    3    3    0    0  0.18575422925E+02  0.16569360693E+02 -0.25045265496E+02  0.35310839337E+02  0.51100000000E-03 0.  1.
         12    1    3    3    0    0  0.21422640806E+01 -0.19586235433E+02  0.19209039295E+02  0.27517214693E+02  0.00000000000E+00 0. -1.
</event>
<event>
 7    1  0.3568800E-013  0.7246183E+02  0.7816164E-02  0.1226707E+00
        -11   -1    0    0    0    0  0.00000000000E+00  0.00000000000E+00  0.45593999997E+02  0.45594000000E+02  0.51100000000E-03 0.  1.
         11   -1    0    0    0    0 -0.00000000000E+00 -0.00000000000E+00 -0.45593999997E+02  0.45594000000E+02  0.51100000000E-03 0. -1.
    9900012    2    1    2    0    0 -0.11416246228E+02 -0.10514246609E+00 -0.14843437252E+02  0.72461832150E+02  0.70000341115E+02 0.  0.
        -12    1    1    2    0    0  0.11416246228E+02  0.10514246609E+00  0.14843437252E+02  0.18726167850E+02  0.00000000000E+00 0.  1.
         11    1    3    3    0    0 -0.72859965598E+01  0.27533393788E+01 -0.15295604897E+02  0.17164560963E+02  0.51100000000E-03 0. -1.
        -11    1    3    3    0    0  0.23796525554E+02  0.28977215095E+01  0.88797713729E+01  0.25564071630E+02  0.51100000000E-03 0.  1.
         12    1    3    3    0    0 -0.27926775222E+02 -0.57562033544E+01 -0.84276037274E+01  0.29733199558E+02  0.00000000000E+00 0. -1.
</event>
<event>
 7    1  0.3568800E-013  0.7246153E+02  0.7816164E-02  0.1226708E+00
        -11   -1    0    0    0    0  0.00000000000E+00  0.00000000000E+00  0.45593999997E+02  0.45594000000E+02  0.51100000000E-03 0.  1.
         11   -1    0    0    0    0 -0.00000000000E+00 -0.00000000000E+00 -0.45593999997E+02  0.45594000000E+02  0.51100000000E-03 0. -1.
    9900012    2    1    2    0    0 -0.32394561637E+01  0.11796007935E+02 -0.14178883204E+02  0.72461531877E+02  0.69999949955E+02 0.  0.
        -12    1    1    2    0    0  0.32394561637E+01 -0.11796007935E+02  0.14178883204E+02  0.18726468123E+02  0.00000000000E+00 0.  1.
         11    1    3    3    0    0 -0.26680985397E+02  0.16582042526E+02 -0.23920848447E+02  0.39484757905E+02  0.51100000000E-03 0. -1.
        -11    1    3    3    0    0  0.98728413790E+01 -0.72426753270E+01 -0.46009558667E+01  0.13080448690E+02  0.51100000000E-03 0.  1.
        -12    1    3    3    0    0  0.13568687854E+02  0.24566407357E+01  0.14342921110E+02  0.19896325283E+02  0.00000000000E+00 0.  1.
</event>
<event>
 7    1  0.3568800E-013  0.7246152E+02  0.7816164E-02  0.1226708E+00
        -11   -1    0    0    0    0  0.00000000000E+00  0.00000000000E+00  0.45593999997E+02  0.45594000000E+02  0.51100000000E-03 0.  1.
         11   -1    0    0    0    0 -0.00000000000E+00 -0.00000000000E+00 -0.45593999997E+02  0.45594000000E+02  0.51100000000E-03 0. -1.
    9900012    2    1    2    0    0  0.10750340103E+02  0.10483966616E+01 -0.15297449564E+02  0.72461523795E+02  0.69999939426E+02 0.  0.
        -12    1    1    2    0    0 -0.10750340103E+02 -0.10483966616E+01  0.15297449564E+02  0.18726476205E+02  0.00000000000E+00 0.  1.
         11    1    3    3    0    0 -0.93173227147E+01 -0.44363244292E+01  0.74488911525E+01  0.12727115018E+02  0.51100000000E-03 0. -1.
        -11    1    3    3    0    0 -0.12484219831E+02 -0.11412343291E+02 -0.14178237054E+02  0.22070789075E+02  0.51100000000E-03 0.  1.
        -12    1    3    3    0    0  0.32551882649E+02  0.16897064381E+02 -0.85681036629E+01  0.37663619702E+02  0.00000000000E+00 0.  1.
</event>
<event>
 7    1  0.3568800E-013  0.7246157E+02  0.7816164E-02  0.1226708E+00
        -11   -1    0    0    0    0  0.00000000000E+00  0.00000000000E+00  0.45593999997E+02  0.45594000000E+02  0.51100000000E-03 0.  1.
         11   -1    0    0    0    0 -0.00000000000E+00 -0.00000000000E+00 -0.45593999997E+02  0.45594000000E+02  0.51100000000E-03 0. -1.
    9900012    2    1    2    0    0  0.77907832356E+01 -0.53180113444E+01 -0.16177193180E+02  0.72461571423E+02  0.70000001470E+02 0.  0.
        -12    1    1    2    0    0 -0.77907832356E+01  0.53180113444E+01  0.16177193180E+02  0.18726428577E+02  0.00000000000E+00 0.  1.
         11    1    3    3    0    0 -0.80136383208E+01 -0.96809107065E+01  0.87631517566E+01  0.15320941884E+02  0.51100000000E-03 0. -1.
        -11    1    3    3    0    0  0.27787841143E+01  0.18034826872E+02  0.73998474581E+01  0.19690971640E+02  0.51100000000E-03 0.  1.
        -12    1    3    3    0    0  0.13025637442E+02 -0.13671927510E+02 -0.32340192395E+02  0.37449657899E+02  0.00000000000E+00 0.  1.
</event>
<event>
 7    1  0.3568800E-013  0.7246162E+02  0.7816164E-02  0.1226708E+00
        -11   -1    0    0    0    0  0.00000000000E+00  0.00000000000E+00  0.45593999997E+02  0.45594000000E+02  0.51100000000E-03 0.  1.
         11   -1    0    0    0    0 -0.00000000000E+00 -0.00000000000E+00 -0.45593999997E+02  0.45594000000E+02  0.51100000000E-03 0. -1.
    9900012    2    1    2    0    0 -0.62496732313E+01 -0.13466734078E+02 -0.11413405600E+02  0.72461623693E+02  0.70000069561E+02 0.  0.
        -12    1    1    2    0    0  0.62496732313E+01  0.13466734078E+02  0.11413405600E+02  0.18726376307E+02  0.00000000000E+00 0.  1.
         11    1    3    3    0    0  0.87502291060E+01  0.21340216832E+01 -0.18862564368E+02  0.20902557087E+02  0.51100000000E-03 0. -1.
        -11    1    3    3    0    0  0.20343682257E+01 -0.12317073815E+02 -0.17300869812E+02  0.21334691419E+02  0.51100000000E-03 0.  1.
        -12    1    3    3    0    0 -0.17034270563E+02 -0.32836819460E+01  0.24750028580E+02  0.30224375187E+02  0.00000000000E+00 0.  1.
</event>
<event>
 7    1  0.4176906E-013  0.7246158E+02  0.7816164E-02  0.1226708E+00
        -11   -1    0    0    0    0  0.00000000000E+00  0.00000000000E+00  0.45593999997E+02  0.45594000000E+02  0.51100000000E-03 0. -1.
         11   -1    0    0    0    0 -0.00000000000E+00 -0.00000000000E+00 -0.45593999997E+02  0.45594000000E+02  0.51100000000E-03 0.  1.
    9900012    2    1    2    0    0  0.11106520423E+02  0.12763946071E+02  0.80253246964E+01  0.72461576110E+02  0.70000007576E+02 0.  0.
        -12    1    1    2    0    0 -0.11106520423E+02 -0.12763946071E+02 -0.80253246964E+01  0.18726423890E+02  0.00000000000E+00 0.  1.
         11    1    3    3    0    0 -0.16325597009E+02  0.12294609690E+02  0.25283059732E+02  0.32510239231E+02  0.51100000000E-03 0. -1.
        -11    1    3    3    0    0  0.43782529363E+01 -0.98069336778E+01 -0.61364647174E+01  0.12369367260E+02  0.51100000000E-03 0.  1.
        -12    1    3    3    0    0  0.23053864497E+02  0.10276270059E+02 -0.11121270318E+02  0.27581969619E+02  0.00000000000E+00 0.  1.
</event>
<event>
 7    1  0.3568800E-013  0.7246157E+02  0.7816164E-02  0.1226708E+00
        -11   -1    0    0    0    0  0.00000000000E+00  0.00000000000E+00  0.45593999997E+02  0.45594000000E+02  0.51100000000E-03 0. -1.
         11   -1    0    0    0    0 -0.00000000000E+00 -0.00000000000E+00 -0.45593999997E+02  0.45594000000E+02  0.51100000000E-03 0.  1.
    9900012    2    1    2    0    0  0.14719747107E+02 -0.10318121656E+02  0.52482934728E+01  0.72461570181E+02  0.69999999852E+02 0.  0.
        -12    1    1    2    0    0 -0.14719747107E+02  0.10318121656E+02 -0.52482934728E+01  0.18726429819E+02  0.00000000000E+00 0.  1.
         11    1    3    3    0    0  0.33524027778E+02 -0.11982678321E+02  0.10270135027E+02  0.37052944444E+02  0.51100000000E-03 0. -1.
        -11    1    3    3    0    0  0.61213037529E+01  0.59704291447E+01 -0.53960856675E+01  0.10111089190E+02  0.51100000000E-03 0.  1.
        -12    1    3    3    0    0 -0.24925584424E+02 -0.43058724798E+01  0.37424411352E+00  0.25297536547E+02  0.00000000000E+00 0.  1.
</event>
<event>
 7    1  0.3568800E-013  0.7246160E+02  0.7816164E-02  0.1226708E+00
        -11   -1    0    0    0    0  0.00000000000E+00  0.00000000000E+00  0.45593999997E+02  0.45594000000E+02  0.51100000000E-03 0. -1.
         11   -1    0    0    0    0 -0.00000000000E+00 -0.00000000000E+00 -0.45593999997E+02  0.45594000000E+02  0.51100000000E-03 0.  1.
    9900012    2    1    2    0    0  0.17820703072E+02 -0.49431400722E+01  0.29437872326E+01  0.72461602188E+02  0.70000041547E+02 0.  0.
        -12    1    1    2    0    0 -0.17820703072E+02  0.49431400722E+01 -0.29437872326E+01  0.18726397812E+02  0.00000000000E+00 0.  1.
         11    1    3    3    0    0 -0.12466637664E+02 -0.23272323006E+02  0.14075146133E+02  0.29918686663E+02  0.51100000000E-03 0. -1.
        -11    1    3    3    0    0  0.14635483571E+01 -0.31084786991E+01  0.23630473761E+01  0.41699648414E+01  0.51100000000E-03 0.  1.
        -12    1    3    3    0    0  0.28823792379E+02  0.21437661633E+02 -0.13494406276E+02  0.38372950683E+02  0.00000000000E+00 0.  1.
</event>
<event>
 7    1  0.3568800E-013  0.7246159E+02  0.7816164E-02  0.1226708E+00
        -11   -1    0    0    0    0  0.00000000000E+00  0.00000000000E+00  0.45593999997E+02  0.45594000000E+02  0.51100000000E-03 0. -1.
         11   -1    0    0    0    0 -0.00000000000E+00 -0.00000000000E+00 -0.45593999997E+02  0.45594000000E+02  0.51100000000E-03 0.  1.
    9900012    2    1    2    0    0  0.71408988528E+01 -0.15873868461E+02 -0.69069797964E+01  0.72461588003E+02  0.70000023069E+02 0.  0.
        -12    1    1    2    0    0 -0.71408988528E+01  0.15873868461E+02  0.69069797964E+01  0.18726411997E+02  0.00000000000E+00 0.  1.
         11    1    3    3    0    0 -0.49764757400E+01 -0.23942589537E+02  0.16339481634E+02  0.29410738938E+02  0.51100000000E-03 0. -1.
        -11    1    3    3    0    0  0.62152658302E+01  0.16993348297E+02 -0.71559229613E+00  0.18108436936E+02  0.51100000000E-03 0.  1.
         12    1    3    3    0    0  0.59021087627E+01 -0.89246272212E+01 -0.22530869135E+02  0.24942412130E+02  0.00000000000E+00 0. -1.
</event>
<event>
 7    1  0.3568800E-013  0.7246155E+02  0.7816164E-02  0.1226708E+00
        -11   -1    0    0    0    0  0.00000000000E+00  0.00000000000E+00  0.45593999997E+02  0.45594000000E+02  0.51100000000E-03 0.  1.
         11   -1    0    0    0    0 -0.00000000000E+00 -0.00000000000E+00 -0.45593999997E+02  0.45594000000E+02  0.51100000000E-03 0. -1.
    9900012    2    1    2    0    0 -0.12295327015E+02 -0.37226532189E+01 -0.13625225024E+02  0.72461548912E+02  0.69999972146E+02 0.  0.
        -12    1    1    2    0    0  0.12295327015E+02  0.37226532189E+01  0.13625225024E+02  0.18726451088E+02  0.00000000000E+00 0.  1.
         11    1    3    3    0    0  0.15380787901E+02  0.16447496283E+02  0.11107559047E+02  0.25109094740E+02  0.51100000000E-03 0. -1.
        -11    1    3    3    0    0 -0.23839216326E+00 -0.63006498595E+00  0.33994062344E+01  0.34655123312E+01  0.51100000000E-03 0.  1.
        -12    1    3    3    0    0 -0.27437722753E+02 -0.19540084516E+02 -0.28132190306E+02  0.43886941841E+02  0.00000000000E+00 0.  1.
</event>
<event>
 7    1  0.3568800E-013  0.7246156E+02  0.7816164E-02  0.1226708E+00
        -11   -1    0    0    0    0  0.00000000000E+00  0.00000000000E+00  0.45593999997E+02  0.45594000000E+02  0.51100000000E-03 0.  1.
         11   -1    0    0    0    0 -0.00000000000E+00 -0.00000000000E+00 -0.45593999997E+02  0.45594000000E+02  0.51100000000E-03 0. -1.
    9900012    2    1    2    0    0  0.44300193850E+01 -0.75268331197E+00 -0.18179331399E+02  0.72461556290E+02  0.69999981757E+02 0.  0.
        -12    1    1    2    0    0 -0.44300193850E+01  0.75268331197E+00  0.18179331399E+02  0.18726443710E+02  0.00000000000E+00 0.  1.
         11    1    3    3    0    0 -0.85541553528E+01 -0.41850207199E+01  0.70761397392E-01  0.95232861798E+01  0.51100000000E-03 0. -1.
        -11    1    3    3    0    0 -0.71074348637E+01 -0.15253952789E+02  0.13063800699E+02  0.21304027671E+02  0.51100000000E-03 0.  1.
         12    1    3    3    0    0  0.20091609601E+02  0.18686290197E+02 -0.31313893495E+02  0.41634242440E+02  0.00000000000E+00 0. -1.
</event>
<event>
 7    1  0.3568800E-013  0.7246166E+02  0.7816164E-02  0.1226708E+00
        -11   -1    0    0    0    0  0.00000000000E+00  0.00000000000E+00  0.45593999997E+02  0.45594000000E+02  0.51100000000E-03 0.  1.
         11   -1    0    0    0    0 -0.00000000000E+00 -0.00000000000E+00 -0.45593999997E+02  0.45594000000E+02  0.51100000000E-03 0. -1.
    9900012    2    1    2    0    0  0.16276284219E+02 -0.79442435680E+01 -0.47589204081E+01  0.72461661402E+02  0.70000118684E+02 0.  0.
        -12    1    1    2    0    0 -0.16276284219E+02  0.79442435680E+01  0.47589204081E+01  0.18726338598E+02  0.00000000000E+00 0.  1.
         11    1    3    3    0    0 -0.72196431831E+01  0.81835538620E+01  0.47405785374E+01  0.11898188376E+02  0.51100000000E-03 0. -1.
        -11    1    3    3    0    0  0.45237801220E+00 -0.10974629050E+01  0.20110100894E+02  0.20145104342E+02  0.51100000000E-03 0.  1.
        -12    1    3    3    0    0  0.23043549390E+02 -0.15030334525E+02 -0.29609599840E+02  0.40418368684E+02  0.00000000000E+00 0.  1.
</event>
<event>
 7    1  0.3568800E-013  0.7246159E+02  0.7816164E-02  0.1226708E+00
        -11   -1    0    0    0    0  0.00000000000E+00  0.00000000000E+00  0.45593999997E+02  0.45594000000E+02  0.51100000000E-03 0.  1.
         11   -1    0    0    0    0 -0.00000000000E+00 -0.00000000000E+00 -0.45593999997E+02  0.45594000000E+02  0.51100000000E-03 0. -1.
    9900012    2    1    2    0    0  0.27182934900E+01 -0.13124523784E+02 -0.13078079078E+02  0.72461590936E+02  0.70000026890E+02 0.  0.
        -12    1    1    2    0    0 -0.27182934900E+01  0.13124523784E+02  0.13078079078E+02  0.18726409064E+02  0.00000000000E+00 0.  1.
         11    1    3    3    0    0 -0.11998706936E+02 -0.78806376906E+01  0.45407136949E+01  0.15056277749E+02  0.51100000000E-03 0. -1.
        -11    1    3    3    0    0 -0.14657546935E+02 -0.13243771812E+02 -0.18335597896E+02  0.26952464162E+02  0.51100000000E-03 0.  1.
        -12    1    3    3    0    0  0.29374547361E+02  0.79998857182E+01  0.71680512265E+00  0.30452849025E+02  0.00000000000E+00 0.  1.
</event>
<event>
 7    1  0.3730031E-013  0.7246161E+02  0.7816164E-02  0.1226708E+00
        -11   -1    0    0    0    0  0.00000000000E+00  0.00000000000E+00  0.45593999997E+02  0.45594000000E+02  0.51100000000E-03 0.  1.
         11   -1    0    0    0    0 -0.00000000000E+00 -0.00000000000E+00 -0.45593999997E+02  0.45594000000E+02  0.51100000000E-03 0. -1.
    9900012    2    1    2    0    0 -0.15636405397E+02 -0.83712339057E+01 -0.60085853324E+01  0.72461606099E+02  0.70000046642E+02 0.  0.
        -12    1    1    2    0    0  0.15636405397E+02  0.83712339057E+01  0.60085853324E+01  0.18726393901E+02  0.00000000000E+00 0.  1.
         11    1    3    3    0    0  0.77115207225E+01 -0.49083543898E+01 -0.11616129212E+01  0.92145992592E+01  0.51100000000E-03 0. -1.
        -11    1    3    3    0    0  0.91213474351E+01 -0.59664068442E+01  0.19667515604E+02  0.22485732364E+02  0.51100000000E-03 0.  1.
         12    1    3    3    0    0 -0.32469273554E+02  0.25035273282E+01 -0.24514488015E+02  0.40761274476E+02  0.00000000000E+00 0. -1.
</event>
<event>
 7    1  0.3568800E-013  0.7246149E+02  0.7816164E-02  0.1226708E+00
        -11   -1    0    0    0    0  0.00000000000E+00  0.00000000000E+00  0.45593999997E+02  0.45594000000E+02  0.51100000000E-03 0.  1.
         11   -1    0    0    0    0 -0.00000000000E+00 -0.00000000000E+00 -0.45593999997E+02  0.45594000000E+02  0.51100000000E-03 0. -1.
    9900012    2    1    2    0    0  0.91994926097E+01  0.13751839789E+02 -0.87714586413E+01  0.72461488084E+02  0.69999892905E+02 0.  0.
        -12    1    1    2    0    0 -0.91994926097E+01 -0.13751839789E+02  0.87714586413E+01  0.18726511916E+02  0.00000000000E+00 0.  1.
         11    1    3    3    0    0  0.38449042896E+01  0.11456328286E+02  0.76349421865E+01  0.14294162768E+02  0.51100000000E-03 0. -1.
        -11    1    3    3    0    0  0.10121229816E+02  0.27761650799E+02 -0.54983700764E+01  0.30056290886E+02  0.51100000000E-03 0.  1.
         12    1    3    3    0    0 -0.47666414955E+01 -0.25466139296E+02 -0.10908030752E+02  0.28111034429E+02  0.00000000000E+00 0. -1.
</event>
<event>
 7    1  0.3568800E-013  0.7246153E+02  0.7816164E-02  0.1226708E+00
        -11   -1    0    0    0    0  0.00000000000E+00  0.00000000000E+00  0.45593999997E+02  0.45594000000E+02  0.51100000000E-03 0. -1.
         11   -1    0    0    0    0 -0.00000000000E+00 -0.00000000000E+00 -0.45593999997E+02  0.45594000000E+02  0.51100000000E-03 0.  1.
    9900012    2    1    2    0    0  0.13629482875E+02  0.64804694244E+01  0.11086996338E+02  0.72461527423E+02  0.69999944152E+02 0.  0.
        -12    1    1    2    0    0 -0.13629482875E+02 -0.64804694244E+01 -0.11086996338E+02  0.18726472577E+02  0.00000000000E+00 0.  1.
         11    1    3    3    0    0 -0.14385224734E+02  0.19586646292E+02  0.23214424392E+02  0.33607750649E+02  0.51100000000E-03 0.  1.
        -11    1    3    3    0    0  0.16819290769E+02 -0.41554621069E+01  0.34714641161E+01  0.17669393613E+02  0.51100000000E-03 0. -1.
        -12    1    3    3    0    0  0.11195416840E+02 -0.89507147610E+01 -0.15598892170E+02  0.21184383160E+02  0.00000000000E+00 0.  1.
</event>
<event>
 7    1  0.3568800E-013  0.7246172E+02  0.7816164E-02  0.1226708E+00
        -11   -1    0    0    0    0  0.00000000000E+00  0.00000000000E+00  0.45593999997E+02  0.45594000000E+02  0.51100000000E-03 0.  1.
         11   -1    0    0    0    0 -0.00000000000E+00 -0.00000000000E+00 -0.45593999997E+02  0.45594000000E+02  0.51100000000E-03 0. -1.
    9900012    2    1    2    0    0 -0.11455660763E+02  0.85175825622E+01 -0.12119901678E+02  0.72461724532E+02  0.70000200923E+02 0.  0.
        -12    1    1    2    0    0  0.11455660763E+02 -0.85175825622E+01  0.12119901678E+02  0.18726275468E+02  0.00000000000E+00 0.  1.
         11    1    3    3    0    0 -0.23479600303E+02 -0.19253613524E+01 -0.30586671483E+02  0.38607552621E+02  0.51100000000E-03 0. -1.
        -11    1    3    3    0    0 -0.48803738069E+01  0.73857277045E+01  0.30881745461E+00  0.88578999036E+01  0.51100000000E-03 0.  1.
        -12    1    3    3    0    0  0.16904313347E+02  0.30572162101E+01  0.18157952350E+02  0.24996272007E+02  0.00000000000E+00 0.  1.
</event>
<event>
 7    1  0.3568800E-013  0.7246160E+02  0.7816164E-02  0.1226708E+00
        -11   -1    0    0    0    0  0.00000000000E+00  0.00000000000E+00  0.45593999997E+02  0.45594000000E+02  0.51100000000E-03 0. -1.
         11   -1    0    0    0    0 -0.00000000000E+00 -0.00000000000E+00 -0.45593999997E+02  0.45594000000E+02  0.51100000000E-03 0.  1.
    9900012    2    1    2    0    0  0.90154211095E+00 -0.18675460428E+02  0.10452756922E+01  0.72461596137E+02  0.70000033664E+02 0.  0.
        -12    1    1    2    0    0 -0.90154211095E+00  0.18675460428E+02 -0.10452756922E+01  0.18726403863E+02  0.00000000000E+00 0.  1.
         11    1    3    3    0    0  0.14067258019E+02  0.39883800973E+01 -0.30727986854E+01  0.14941118298E+02  0.51100000000E-03 0. -1.
        -11    1    3    3    0    0  0.91101510391E+01 -0.22180625310E+01 -0.17838718695E+02  0.20152779915E+02  0.51100000000E-03 0.  1.
        -12    1    3    3    0    0 -0.22275866947E+02 -0.20445777994E+02  0.21956793073E+02  0.37367697924E+02  0.00000000000E+00 0.  1.
</event>
<event>
 7    1  0.3568800E-013  0.7246160E+02  0.7816164E-02  0.1226708E+00
        -11   -1    0    0    0    0  0.00000000000E+00  0.00000000000E+00  0.45593999997E+02  0.45594000000E+02  0.51100000000E-03 0.  1.
         11   -1    0    0    0    0 -0.00000000000E+00 -0.00000000000E+00 -0.45593999997E+02  0.45594000000E+02  0.51100000000E-03 0. -1.
    9900012    2    1    2    0    0  0.93940342693E+01  0.16182084889E+02 -0.75508657752E+00  0.72461604006E+02  0.70000043915E+02 0.  0.
        -12    1    1    2    0    0 -0.93940342693E+01 -0.16182084889E+02  0.75508657752E+00  0.18726395994E+02  0.00000000000E+00 0.  1.
         11    1    3    3    0    0  0.18739495501E+02  0.37177417021E+00  0.33140212342E+01  0.19033907761E+02  0.51100000000E-03 0. -1.
        -11    1    3    3    0    0  0.17145629525E+02  0.20107180568E+02 -0.25463010429E+01  0.26547221539E+02  0.51100000000E-03 0.  1.
        -12    1    3    3    0    0 -0.26491090756E+02 -0.42968698492E+01 -0.15228067688E+01  0.26880474706E+02  0.00000000000E+00 0.  1.
</event>
<event>
 7    1  0.3568800E-013  0.7246146E+02  0.7816164E-02  0.1226708E+00
        -11   -1    0    0    0    0  0.00000000000E+00  0.00000000000E+00  0.45593999997E+02  0.45594000000E+02  0.51100000000E-03 0. -1.
         11   -1    0    0    0    0 -0.00000000000E+00 -0.00000000000E+00 -0.45593999997E+02  0.45594000000E+02  0.51100000000E-03 0.  1.
    9900012    2    1    2    0    0  0.26195181971E+01 -0.18134570111E+02  0.38676433792E+01  0.72461463374E+02  0.69999860716E+02 0.  0.
        -12    1    1    2    0    0 -0.26195181971E+01  0.18134570111E+02 -0.38676433792E+01  0.18726536626E+02  0.00000000000E+00 0.  1.
         11    1    3    3    0    0 -0.92012008652E+01 -0.24031206307E+02 -0.16040743676E+02  0.30322704890E+02  0.51100000000E-03 0. -1.
        -11    1    3    3    0    0 -0.28994529797E+01  0.12930151999E+00 -0.88540897707E+01  0.93176419975E+01  0.51100000000E-03 0.  1.
         12    1    3    3    0    0  0.14720172042E+02  0.57673346755E+01  0.28762476826E+02  0.32821116486E+02  0.00000000000E+00 0. -1.
</event>
<event>
 7    1  0.3568800E-013  0.7246160E+02  0.7816164E-02  0.1226708E+00
        -11   -1    0    0    0    0  0.00000000000E+00  0.00000000000E+00  0.45593999997E+02  0.45594000000E+02  0.51100000000E-03 0. -1.
         11   -1    0    0    0    0 -0.00000000000E+00 -0.00000000000E+00 -0.45593999997E+02  0.45594000000E+02  0.51100000000E-03 0.  1.
    9900012    2    1    2    0    0  0.10910902214E+02 -0.74282994779E+01  0.13283467668E+02  0.72461603296E+02  0.70000042990E+02 0.  0.
        -12    1    1    2    0    0 -0.10910902214E+02  0.74282994779E+01 -0.13283467668E+02  0.18726396704E+02  0.00000000000E+00 0.  1.
         11    1    3    3    0    0 -0.22720371652E+02 -0.94676983144E+01  0.13845782928E+02  0.28241074777E+02  0.51100000000E-03 0. -1.
        -11    1    3    3    0    0  0.20589604177E+02 -0.30685720164E+01  0.13147441533E+02  0.24621193178E+02  0.51100000000E-03 0.  1.
        -12    1    3    3    0    0  0.13041669689E+02  0.51079708528E+01 -0.13709756792E+02  0.19599335341E+02  0.00000000000E+00 0.  1.
</event>
<event>
 7    1  0.3568800E-013  0.7246153E+02  0.7816164E-02  0.1226708E+00
        -11   -1    0    0    0    0  0.00000000000E+00  0.00000000000E+00  0.45593999997E+02  0.45594000000E+02  0.51100000000E-03 0. -1.
         11   -1    0    0    0    0 -0.00000000000E+00 -0.00000000000E+00 -0.45593999997E+02  0.45594000000E+02  0.51100000000E-03 0.  1.
    9900012    2    1    2    0    0  0.10541119121E+02  0.70812088025E+01  0.13763061173E+02  0.72461533081E+02  0.69999951522E+02 0.  0.
        -12    1    1    2    0    0 -0.10541119121E+02 -0.70812088025E+01 -0.13763061173E+02  0.18726466919E+02  0.00000000000E+00 0.  1.
         11    1    3    3    0    0  0.89211737430E+01 -0.20143715752E+02  0.20889895290E+02  0.30360242929E+02  0.51100000000E-03 0. -1.
        -11    1    3    3    0    0 -0.14597758251E+01 -0.69635931734E+01 -0.20231790778E+01  0.73970148834E+01  0.51100000000E-03 0.  1.
         12    1    3    3    0    0  0.30797212027E+01  0.34188517728E+02 -0.51036550385E+01  0.34704275268E+02  0.00000000000E+00 0. -1.
</event>
<event>
 7    1  0.3568800E-013  0.7246158E+02  0.7816164E-02  0.1226708E+00
        -11   -1    0    0    0    0  0.00000000000E+00  0.00000000000E+00  0.45593999997E+02  0.45594000000E+02  0.51100000000E-03 0. -1.
         11   -1    0    0    0    0 -0.00000000000E+00 -0.00000000000E+00 -0.45593999997E+02  0.45594000000E+02  0.51100000000E-03 0.  1.
    9900012    2    1    2    0    0  0.16810462158E+02  0.80756423974E+01 -0.16944685496E+01  0.72461578511E+02  0.70000010704E+02 0.  0.
        -12    1    1    2    0    0 -0.16810462158E+02 -0.80756423974E+01  0.16944685496E+01  0.18726421489E+02  0.00000000000E+00 0.  1.
         11    1    3    3    0    0 -0.32455239933E+01 -0.74377797611E+00 -0.29262015430E+01  0.44327516736E+01  0.51100000000E-03 0. -1.
        -11    1    3    3    0    0  0.28430684962E+02 -0.11954519987E+02 -0.20329335002E+02  0.36939088476E+02  0.51100000000E-03 0.  1.
         12    1    3    3    0    0 -0.83746988107E+01  0.20773940361E+02  0.21561067995E+02  0.31089738361E+02  0.00000000000E+00 0. -1.
</event>
<event>
 7    1  0.3568800E-013  0.7246158E+02  0.7816164E-02  0.1226708E+00
        -11   -1    0    0    0    0  0.00000000000E+00  0.00000000000E+00  0.45593999997E+02  0.45594000000E+02  0.51100000000E-03 0. -1.
         11   -1    0    0    0    0 -0.00000000000E+00 -0.00000000000E+00 -0.45593999997E+02  0.45594000000E+02  0.51100000000E-03 0.  1.
    9900012    2    1    2    0    0 -0.13562830687E+02  0.11351279276E+02 -0.61544112959E+01  0.72461582942E+02  0.70000016475E+02 0.  0.
        -12    1    1    2    0    0  0.13562830687E+02 -0.11351279276E+02  0.61544112959E+01  0.18726417058E+02  0.00000000000E+00 0.  1.
         11    1    3    3    0    0  0.50352169367E+01  0.19714953278E+02  0.80843743687E+01  0.21894974344E+02  0.51100000000E-03 0.  1.
        -11    1    3    3    0    0  0.62307117458E+00  0.15846306871E+02 -0.11386430658E+02  0.19522921465E+02  0.51100000000E-03 0. -1.
         12    1    3    3    0    0 -0.19221118798E+02 -0.24209980872E+02 -0.28523550068E+01  0.31043687133E+02  0.00000000000E+00 0. -1.
</event>
<event>
 7    1  0.3568800E-013  0.7246156E+02  0.7816164E-02  0.1226708E+00
        -11   -1    0    0    0    0  0.00000000000E+00  0.00000000000E+00  0.45593999997E+02  0.45594000000E+02  0.51100000000E-03 0.  1.
         11   -1    0    0    0    0 -0.00000000000E+00 -0.00000000000E+00 -0.45593999997E+02  0.45594000000E+02  0.51100000000E-03 0. -1.
    9900012    2    1    2    0    0 -0.14829156853E+02 -0.86099958796E+01 -0.75261920038E+01  0.72461561789E+02  0.69999988920E+02 0.  0.
        -12    1    1    2    0    0  0.14829156853E+02  0.86099958796E+01  0.75261920038E+01  0.18726438211E+02  0.00000000000E+00 0.  1.
         11    1    3    3    0    0  0.20808843589E+02 -0.11110342415E+02 -0.15046833749E+02  0.27979544068E+02  0.51100000000E-03 0. -1.
        -11    1    3    3    0    0 -0.72939448563E-01  0.67175925395E+00 -0.62602017719E+01  0.62965631216E+01  0.51100000000E-03 0.  1.
        -12    1    3    3    0    0 -0.35565060993E+02  0.18285872818E+01  0.13780843517E+02  0.38185454599E+02  0.00000000000E+00 0.  1.
</event>
<event>
 7    1  0.3568800E-013  0.7246172E+02  0.7816164E-02  0.1226708E+00
        -11   -1    0    0    0    0  0.00000000000E+00  0.00000000000E+00  0.45593999997E+02  0.45594000000E+02  0.51100000000E-03 0. -1.
         11   -1    0    0    0    0 -0.00000000000E+00 -0.00000000000E+00 -0.45593999997E+02  0.45594000000E+02  0.51100000000E-03 0.  1.
    9900012    2    1    2    0    0  0.60380368878E+01  0.47079537937E+01  0.17089497628E+02  0.72461717733E+02  0.70000192065E+02 0.  0.
        -12    1    1    2    0    0 -0.60380368878E+01 -0.47079537937E+01 -0.17089497628E+02  0.18726282267E+02  0.00000000000E+00 0.  1.
         11    1    3    3    0    0 -0.10345422578E+02  0.42096031049E+01 -0.91470814972E-01  0.11169462556E+02  0.51100000000E-03 0. -1.
        -11    1    3    3    0    0  0.17853943696E+01  0.27345805062E+02  0.28893374432E+01  0.27555924203E+02  0.51100000000E-03 0.  1.
         12    1    3    3    0    0  0.14598065097E+02 -0.26847454374E+02  0.14291631000E+02  0.33736330973E+02  0.00000000000E+00 0. -1.
</event>
<event>
 7    1  0.3568800E-013  0.7246166E+02  0.7816164E-02  0.1226708E+00
        -11   -1    0    0    0    0  0.00000000000E+00  0.00000000000E+00  0.45593999997E+02  0.45594000000E+02  0.51100000000E-03 0. -1.
         11   -1    0    0    0    0 -0.00000000000E+00 -0.00000000000E+00 -0.45593999997E+02  0.45594000000E+02  0.51100000000E-03 0.  1.
    9900012    2    1    2    0    0 -0.51733576621E+01 -0.13738957217E+02  0.11625539424E+02  0.72461661816E+02  0.70000119224E+02 0.  0.
        -12    1    1    2    0    0  0.51733576621E+01  0.13738957217E+02 -0.11625539424E+02  0.18726338184E+02  0.00000000000E+00 0.  1.
         11    1    3    3    0    0  0.60831905714E+01 -0.29367066059E+01  0.37180976195E+01  0.77106227626E+01  0.51100000000E-03 0. -1.
        -11    1    3    3    0    0  0.37024264676E+01 -0.34542221787E+02  0.11194744135E+02  0.36499251284E+02  0.51100000000E-03 0.  1.
        -12    1    3    3    0    0 -0.14958974701E+02  0.23739971176E+02 -0.32873023314E+01  0.28251787770E+02  0.00000000000E+00 0.  1.
</event>
<event>
 7    1  0.3568800E-013  0.7246156E+02  0.7816164E-02  0.1226708E+00
        -11   -1    0    0    0    0  0.00000000000E+00  0.00000000000E+00  0.45593999997E+02  0.45594000000E+02  0.51100000000E-03 0. -1.
         11   -1    0    0    0    0 -0.00000000000E+00 -0.00000000000E+00 -0.45593999997E+02  0.45594000000E+02  0.51100000000E-03 0.  1.
    9900012    2    1    2    0    0 -0.81417311164E+01 -0.12942169328E+02  0.10811659394E+02  0.72461561168E+02  0.69999988111E+02 0.  0.
        -12    1    1    2    0    0  0.81417311164E+01  0.12942169328E+02 -0.10811659394E+02  0.18726438832E+02  0.00000000000E+00 0.  1.
         11    1    3    3    0    0 -0.18190465719E+01 -0.32431159628E+02  0.26444552145E+02  0.41885598762E+02  0.51100000000E-03 0. -1.
        -11    1    3    3    0    0  0.34025269493E+01 -0.71202703608E+00 -0.46532356489E+00  0.35072351535E+01  0.51100000000E-03 0.  1.
        -12    1    3    3    0    0 -0.97252114938E+01  0.20201017337E+02 -0.15167569186E+02  0.27068727252E+02  0.00000000000E+00 0.  1.
</event>
<event>
 7    1  0.3568800E-013  0.7246178E+02  0.7816164E-02  0.1226707E+00
        -11   -1    0    0    0    0  0.00000000000E+00  0.00000000000E+00  0.45593999997E+02  0.45594000000E+02  0.51100000000E-03 0.  1.
         11   -1    0    0    0    0 -0.00000000000E+00 -0.00000000000E+00 -0.45593999997E+02  0.45594000000E+02  0.51100000000E-03 0. -1.
    9900012    2    1    2    0    0  0.60044645710E+01  0.17728328259E+02 -0.56943591487E+00  0.72461775744E+02  0.70000267636E+02 0.  0.
        -12    1    1    2    0    0 -0.60044645710E+01 -0.17728328259E+02  0.56943591487E+00  0.18726224256E+02  0.00000000000E+00 0.  1.
         11    1    3    3    0    0 -0.26931592252E+01  0.18136229099E+02 -0.19448399314E+02  0.26728564284E+02  0.51100000000E-03 0. -1.
        -11    1    3    3    0    0 -0.10099965472E+02  0.59589925264E+01 -0.65844782747E+01  0.13448949731E+02  0.51100000000E-03 0.  1.
        -12    1    3    3    0    0  0.18797589268E+02 -0.63668933674E+01  0.25463441674E+02  0.32284261728E+02  0.00000000000E+00 0.  1.
</event>
<event>
 7    1  0.3568800E-013  0.7246166E+02  0.7816164E-02  0.1226708E+00
        -11   -1    0    0    0    0  0.00000000000E+00  0.00000000000E+00  0.45593999997E+02  0.45594000000E+02  0.51100000000E-03 0. -1.
         11   -1    0    0    0    0 -0.00000000000E+00 -0.00000000000E+00 -0.45593999997E+02  0.45594000000E+02  0.51100000000E-03 0.  1.
    9900012    2    1    2    0    0 -0.71791424919E+01 -0.78197721242E+01  0.15426822540E+02  0.72461660884E+02  0.70000118010E+02 0.  0.
        -12    1    1    2    0    0  0.71791424919E+01  0.78197721242E+01 -0.15426822540E+02  0.18726339116E+02  0.00000000000E+00 0.  1.
         11    1    3    3    0    0 -0.19481394452E+01 -0.34890504851E+01 -0.67040367230E+00  0.40519331104E+01  0.51100000000E-03 0. -1.
        -11    1    3    3    0    0  0.29954999993E+02  0.41881474088E+01  0.85086641386E+01  0.31420375061E+02  0.51100000000E-03 0.  1.
         12    1    3    3    0    0 -0.35186003040E+02 -0.85188690479E+01  0.75885620735E+01  0.36989352713E+02  0.00000000000E+00 0. -1.
</event>
<event>
 7    1  0.3568800E-013  0.7246156E+02  0.7816164E-02  0.1226708E+00
        -11   -1    0    0    0    0  0.00000000000E+00  0.00000000000E+00  0.45593999997E+02  0.45594000000E+02  0.51100000000E-03 0.  1.
         11   -1    0    0    0    0 -0.00000000000E+00 -0.00000000000E+00 -0.45593999997E+02  0.45594000000E+02  0.51100000000E-03 0. -1.
    9900012    2    1    2    0    0  0.36056954773E+01 -0.14464278142E+02 -0.11334166628E+02  0.72461555725E+02  0.69999981021E+02 0.  0.
        -12    1    1    2    0    0 -0.36056954773E+01  0.14464278142E+02  0.11334166628E+02  0.18726444275E+02  0.00000000000E+00 0.  1.
         11    1    3    3    0    0  0.75770383356E+01  0.17636099036E+02 -0.17900903867E+02  0.26246635187E+02  0.51100000000E-03 0. -1.
        -11    1    3    3    0    0 -0.54364962653E+01 -0.98637758624E+01 -0.12543745224E+02  0.16858087389E+02  0.51100000000E-03 0.  1.
        -12    1    3    3    0    0  0.14651534069E+01 -0.22236601315E+02  0.19110482463E+02  0.29356833149E+02  0.00000000000E+00 0.  1.
</event>
<event>
 7    1  0.3568800E-013  0.7246155E+02  0.7816164E-02  0.1226708E+00
        -11   -1    0    0    0    0  0.00000000000E+00  0.00000000000E+00  0.45593999997E+02  0.45594000000E+02  0.51100000000E-03 0.  1.
         11   -1    0    0    0    0 -0.00000000000E+00 -0.00000000000E+00 -0.45593999997E+02  0.45594000000E+02  0.51100000000E-03 0. -1.
    9900012    2    1    2    0    0  0.67017191104E+01  0.93734831593E+01 -0.14761591959E+02  0.72461552853E+02  0.69999977280E+02 0.  0.
        -12    1    1    2    0    0 -0.67017191104E+01 -0.93734831593E+01  0.14761591959E+02  0.18726447147E+02  0.00000000000E+00 0.  1.
         11    1    3    3    0    0  0.83441352759E+01 -0.23380959989E+02 -0.15108975644E+02  0.29061573061E+02  0.51100000000E-03 0. -1.
        -11    1    3    3    0    0 -0.37136546639E+00 -0.35230926796E+01  0.56964597798E+01  0.67081851959E+01  0.51100000000E-03 0.  1.
        -12    1    3    3    0    0 -0.12710506992E+01  0.36277535828E+02 -0.53490760944E+01  0.36691794596E+02  0.00000000000E+00 0.  1.
</event>
<event>
 7    1  0.3568800E-013  0.7246169E+02  0.7816164E-02  0.1226708E+00
        -11   -1    0    0    0    0  0.00000000000E+00  0.00000000000E+00  0.45593999997E+02  0.45594000000E+02  0.51100000000E-03 0. -1.
         11   -1    0    0    0    0 -0.00000000000E+00 -0.00000000000E+00 -0.45593999997E+02  0.45594000000E+02  0.51100000000E-03 0.  1.
    9900012    2    1    2    0    0 -0.47592980090E+01  0.16830231665E+02 -0.66908233877E+01  0.72461688750E+02  0.70000154310E+02 0.  0.
        -12    1    1    2    0    0  0.47592980090E+01 -0.16830231665E+02  0.66908233877E+01  0.18726311250E+02  0.00000000000E+00 0.  1.
         11    1    3    3    0    0  0.11300335350E+02  0.17986548469E+02 -0.47058178000E+01  0.21756797244E+02  0.51100000000E-03 0. -1.
        -11    1    3    3    0    0  0.13535393008E+02 -0.11210551796E+02 -0.72437488799E+01  0.19009345953E+02  0.51100000000E-03 0.  1.
         12    1    3    3    0    0 -0.29595026367E+02  0.10054234992E+02  0.52587432921E+01  0.31695545554E+02  0.00000000000E+00 0. -1.
</event>
<event>
 7    1  0.3568800E-013  0.7246164E+02  0.7816164E-02  0.1226708E+00
        -11   -1    0    0    0    0  0.00000000000E+00  0.00000000000E+00  0.45593999997E+02  0.45594000000E+02  0.51100000000E-03 0. -1.
         11   -1    0    0    0    0 -0.00000000000E+00 -0.00000000000E+00 -0.45593999997E+02  0.45594000000E+02  0.51100000000E-03 0.  1.
    9900012    2    1    2    0    0 -0.11235969149E+02 -0.14142339391E+02  0.49420482846E+01  0.72461638703E+02  0.70000089115E+02 0.  0.
        -12    1    1    2    0    0  0.11235969149E+02  0.14142339391E+02 -0.49420482846E+01  0.18726361297E+02  0.00000000000E+00 0.  1.
         11    1    3    3    0    0 -0.85476246003E+01 -0.14735875827E+02 -0.24643018195E+01  0.17212806465E+02  0.51100000000E-03 0. -1.
        -11    1    3    3    0    0  0.10767317727E+02 -0.20962991006E+02 -0.87474695937E+01  0.25137628120E+02  0.51100000000E-03 0.  1.
         12    1    3    3    0    0 -0.13455662276E+02  0.21556527441E+02  0.16153819698E+02  0.30111204118E+02  0.00000000000E+00 0. -1.
</event>
<event>
 7    1  0.3568800E-013  0.7246137E+02  0.7816164E-02  0.1226709E+00
        -11   -1    0    0    0    0  0.00000000000E+00  0.00000000000E+00  0.45593999997E+02  0.45594000000E+02  0.51100000000E-03 0.  1.
         11   -1    0    0    0    0 -0.00000000000E+00 -0.00000000000E+00 -0.45593999997E+02  0.45594000000E+02  0.51100000000E-03 0. -1.
    9900012    2    1    2    0    0  0.13636105809E+02 -0.83647139380E+01  0.97352460455E+01  0.72461365586E+02  0.69999733329E+02 0.  0.
        -12    1    1    2    0    0 -0.13636105809E+02  0.83647139380E+01 -0.97352460455E+01  0.18726634414E+02  0.00000000000E+00 0.  1.
         11    1    3    3    0    0 -0.75801943490E+01 -0.15215914985E+02  0.40399577948E+01  0.17472969823E+02  0.51100000000E-03 0. -1.
        -11    1    3    3    0    0  0.78473056645E+01 -0.21581397680E+02 -0.47820751516E+00  0.22968796545E+02  0.51100000000E-03 0.  1.
        -12    1    3    3    0    0  0.13368994493E+02  0.28432598727E+02  0.61734957659E+01  0.32019599218E+02  0.00000000000E+00 0.  1.
</event>
<event>
 7    1  0.3568800E-013  0.7246161E+02  0.7816164E-02  0.1226708E+00
        -11   -1    0    0    0    0  0.00000000000E+00  0.00000000000E+00  0.45593999997E+02  0.45594000000E+02  0.51100000000E-03 0.  1.
         11   -1    0    0    0    0 -0.00000000000E+00 -0.00000000000E+00 -0.45593999997E+02  0.45594000000E+02  0.51100000000E-03 0. -1.
    9900012    2    1    2    0    0 -0.77124162027E+00  0.66946313037E+01 -0.17471830358E+02  0.72461607983E+02  0.70000049096E+02 0.  0.
        -12    1    1    2    0    0  0.77124162027E+00 -0.66946313037E+01  0.17471830358E+02  0.18726392017E+02  0.00000000000E+00 0.  1.
         11    1    3    3    0    0 -0.14751820122E+02 -0.12927563709E+02  0.16705870915E+02  0.25764786505E+02  0.51100000000E-03 0.  1.
        -11    1    3    3    0    0 -0.47415853391E+01  0.12596980803E+01 -0.94764091540E+01  0.10671073118E+02  0.51100000000E-03 0. -1.
         12    1    3    3    0    0  0.18722163841E+02  0.18362496932E+02 -0.24701292119E+02  0.36025748359E+02  0.00000000000E+00 0. -1.
</event>
<event>
 7    1  0.3568800E-013  0.7246159E+02  0.7816164E-02  0.1226708E+00
        -11   -1    0    0    0    0  0.00000000000E+00  0.00000000000E+00  0.45593999997E+02  0.45594000000E+02  0.51100000000E-03 0.  1.
         11   -1    0    0    0    0 -0.00000000000E+00 -0.00000000000E+00 -0.45593999997E+02  0.45594000000E+02  0.51100000000E-03 0. -1.
    9900012    2    1    2    0    0  0.18282756764E+02  0.22759479293E+01  0.33525338768E+01  0.72461585040E+02  0.70000019209E+02 0.  0.
        -12    1    1    2    0    0 -0.18282756764E+02 -0.22759479293E+01 -0.33525338768E+01  0.18726414960E+02  0.00000000000E+00 0.  1.
         11    1    3    3    0    0  0.40495875360E+01  0.66005558070E+01 -0.53358618060E+01  0.94041436424E+01  0.51100000000E-03 0. -1.
        -11    1    3    3    0    0 -0.45658152065E+01  0.24828991336E+02 -0.50525483276E+01  0.25745945781E+02  0.51100000000E-03 0.  1.
         12    1    3    3    0    0  0.18798984434E+02 -0.29153599214E+02  0.13740944010E+02  0.37311495617E+02  0.00000000000E+00 0. -1.
</event>
<event>
 7    1  0.3568800E-013  0.7246153E+02  0.7816164E-02  0.1226708E+00
        -11   -1    0    0    0    0  0.00000000000E+00  0.00000000000E+00  0.45593999997E+02  0.45594000000E+02  0.51100000000E-03 0.  1.
         11   -1    0    0    0    0 -0.00000000000E+00 -0.00000000000E+00 -0.45593999997E+02  0.45594000000E+02  0.51100000000E-03 0. -1.
    9900012    2    1    2    0    0  0.73106891461E+01 -0.15930462637E+02  0.65920336466E+01  0.72461528810E+02  0.69999945960E+02 0.  0.
        -12    1    1    2    0    0 -0.73106891461E+01  0.15930462637E+02 -0.65920336466E+01  0.18726471190E+02  0.00000000000E+00 0.  1.
         11    1    3    3    0    0  0.13571164582E+02 -0.36433949322E+02 -0.25421942128E+01  0.38962442467E+02  0.51100000000E-03 0. -1.
        -11    1    3    3    0    0  0.20989014101E+01 -0.11623777927E+01 -0.55341298284E+01  0.60318407208E+01  0.51100000000E-03 0.  1.
        -12    1    3    3    0    0 -0.83593768460E+01  0.21665864478E+02  0.14668357688E+02  0.27467245623E+02  0.00000000000E+00 0.  1.
</event>
<event>
 7    1  0.3568800E-013  0.7246155E+02  0.7816164E-02  0.1226708E+00
        -11   -1    0    0    0    0  0.00000000000E+00  0.00000000000E+00  0.45593999997E+02  0.45594000000E+02  0.51100000000E-03 0.  1.
         11   -1    0    0    0    0 -0.00000000000E+00 -0.00000000000E+00 -0.45593999997E+02  0.45594000000E+02  0.51100000000E-03 0. -1.
    9900012    2    1    2    0    0 -0.14355470360E+02  0.81334926338E+01  0.88570059267E+01  0.72461553843E+02  0.69999978569E+02 0.  0.
        -12    1    1    2    0    0  0.14355470360E+02 -0.81334926338E+01 -0.88570059267E+01  0.18726446157E+02  0.00000000000E+00 0.  1.
         11    1    3    3    0    0 -0.55115014372E+01  0.99732095582E+00 -0.18768576335E+02  0.19586494201E+02  0.51100000000E-03 0. -1.
        -11    1    3    3    0    0  0.78144881638E+01 -0.12201697901E+02  0.22623622558E+02  0.26865888313E+02  0.51100000000E-03 0.  1.
         12    1    3    3    0    0 -0.16658457087E+02  0.19337869579E+02  0.50019597032E+01  0.26009171329E+02  0.00000000000E+00 0. -1.
</event>
<event>
 7    1  0.3568800E-013  0.7246151E+02  0.7816164E-02  0.1226708E+00
        -11   -1    0    0    0    0  0.00000000000E+00  0.00000000000E+00  0.45593999997E+02  0.45594000000E+02  0.51100000000E-03 0. -1.
         11   -1    0    0    0    0 -0.00000000000E+00 -0.00000000000E+00 -0.45593999997E+02  0.45594000000E+02  0.51100000000E-03 0.  1.
    9900012    2    1    2    0    0 -0.11248040535E+02  0.12702190361E+02  0.79257510207E+01  0.72461505798E+02  0.69999915982E+02 0.  0.
        -12    1    1    2    0    0  0.11248040535E+02 -0.12702190361E+02 -0.79257510207E+01  0.18726494202E+02  0.00000000000E+00 0.  1.
         11    1    3    3    0    0 -0.82992778797E+01  0.26939605192E+01 -0.50050963889E+01  0.10059146421E+02  0.51100000000E-03 0. -1.
        -11    1    3    3    0    0 -0.21685135324E+02 -0.13512155074E+02  0.18853940120E+02  0.31753653130E+02  0.51100000000E-03 0.  1.
         12    1    3    3    0    0  0.18736372669E+02  0.23520384916E+02 -0.59230927106E+01  0.30648706247E+02  0.00000000000E+00 0. -1.
</event>
<event>
 7    1  0.3568800E-013  0.7246161E+02  0.7816164E-02  0.1226708E+00
        -11   -1    0    0    0    0  0.00000000000E+00  0.00000000000E+00  0.45593999997E+02  0.45594000000E+02  0.51100000000E-03 0.  1.
         11   -1    0    0    0    0 -0.00000000000E+00 -0.00000000000E+00 -0.45593999997E+02  0.45594000000E+02  0.51100000000E-03 0. -1.
    9900012    2    1    2    0    0 -0.17593641864E+02 -0.79705884048E+00 -0.63644404480E+01  0.72461611158E+02  0.70000053233E+02 0.  0.
        -12    1    1    2    0    0  0.17593641864E+02  0.79705884048E+00  0.63644404480E+01  0.18726388842E+02  0.00000000000E+00 0.  1.
         11    1    3    3    0    0 -0.63710767296E-01 -0.40600282915E+01  0.21462850263E+01  0.45928671290E+01  0.51100000000E-03 0. -1.
        -11    1    3    3    0    0 -0.96204032153E+01 -0.61055405520E+00  0.28363761988E+02  0.29957101473E+02  0.51100000000E-03 0.  1.
         12    1    3    3    0    0 -0.79095278814E+01  0.38735235062E+01 -0.36874487463E+02  0.37911642556E+02  0.00000000000E+00 0. -1.
</event>
<event>
 7    1  0.3568800E-013  0.7246166E+02  0.7816164E-02  0.1226708E+00
        -11   -1    0    0    0    0  0.00000000000E+00  0.00000000000E+00  0.45593999997E+02  0.45594000000E+02  0.51100000000E-03 0.  1.
         11   -1    0    0    0    0 -0.00000000000E+00 -0.00000000000E+00 -0.45593999997E+02  0.45594000000E+02  0.51100000000E-03 0. -1.
    9900012    2    1    2    0    0  0.30899062282E+01  0.84604177668E+01 -0.16417966990E+02  0.72461659478E+02  0.70000116178E+02 0.  0.
        -12    1    1    2    0    0 -0.30899062282E+01 -0.84604177668E+01  0.16417966990E+02  0.18726340522E+02  0.00000000000E+00 0.  1.
         11    1    3    3    0    0 -0.12141284149E+02  0.94895377464E+01 -0.35251758445E+02  0.38472699167E+02  0.51100000000E-03 0. -1.
        -11    1    3    3    0    0  0.14425505236E+02 -0.97794139600E+01  0.59934719073E+01  0.18429700065E+02  0.51100000000E-03 0.  1.
        -12    1    3    3    0    0  0.80568514104E+00  0.87502939805E+01  0.12840319548E+02  0.15559260246E+02  0.00000000000E+00 0.  1.
</event>
<event>
 7    1  0.3568800E-013  0.7246170E+02  0.7816164E-02  0.1226708E+00
        -11   -1    0    0    0    0  0.00000000000E+00  0.00000000000E+00  0.45593999997E+02  0.45594000000E+02  0.51100000000E-03 0.  1.
         11   -1    0    0    0    0 -0.00000000000E+00 -0.00000000000E+00 -0.45593999997E+02  0.45594000000E+02  0.51100000000E-03 0. -1.
    9900012    2    1    2    0    0  0.66852228506E+01  0.38291434567E+01 -0.17068095093E+02  0.72461697261E+02  0.70000165398E+02 0.  0.
        -12    1    1    2    0    0 -0.66852228506E+01 -0.38291434567E+01  0.17068095093E+02  0.18726302739E+02  0.00000000000E+00 0.  1.
         11    1    3    3    0    0  0.23123321023E+02 -0.10512790018E+02  0.96426491891E+00  0.25419215884E+02  0.51100000000E-03 0. -1.
        -11    1    3    3    0    0  0.38937899227E+01  0.15659669579E+02 -0.20967134948E+02  0.26457656727E+02  0.51100000000E-03 0.  1.
         12    1    3    3    0    0 -0.20331888095E+02 -0.13177361048E+01  0.29347749365E+01  0.20584824650E+02  0.00000000000E+00 0. -1.
</event>
<event>
 7    1  0.3568800E-013  0.7246135E+02  0.7816164E-02  0.1226709E+00
        -11   -1    0    0    0    0  0.00000000000E+00  0.00000000000E+00  0.45593999997E+02  0.45594000000E+02  0.51100000000E-03 0. -1.
         11   -1    0    0    0    0 -0.00000000000E+00 -0.00000000000E+00 -0.45593999997E+02  0.45594000000E+02  0.51100000000E-03 0.  1.
    9900012    2    1    2    0    0 -0.16162891142E+02 -0.84164920210E+01 -0.43140421229E+01  0.72461351943E+02  0.69999715557E+02 0.  0.
        -12    1    1    2    0    0  0.16162891142E+02  0.84164920210E+01  0.43140421229E+01  0.18726648057E+02  0.00000000000E+00 0.  1.
         11    1    3    3    0    0  0.42595702775E+01 -0.28536971362E+02  0.18227019288E+02  0.34128095550E+02  0.51100000000E-03 0.  1.
        -11    1    3    3    0    0 -0.42135402178E+01  0.74944654504E+01 -0.11519767611E+01  0.86745596012E+01  0.51100000000E-03 0. -1.
        -12    1    3    3    0    0 -0.16208921201E+02  0.12626013890E+02 -0.21389084650E+02  0.29658696793E+02  0.00000000000E+00 0.  1.
</event>
<event>
 7    1  0.3568800E-013  0.7246159E+02  0.7816164E-02  0.1226708E+00
        -11   -1    0    0    0    0  0.00000000000E+00  0.00000000000E+00  0.45593999997E+02  0.45594000000E+02  0.51100000000E-03 0.  1.
         11   -1    0    0    0    0 -0.00000000000E+00 -0.00000000000E+00 -0.45593999997E+02  0.45594000000E+02  0.51100000000E-03 0. -1.
    9900012    2    1    2    0    0 -0.98883157254E+01 -0.15287971510E+02 -0.43792092325E+01  0.72461592595E+02  0.70000029051E+02 0.  0.
        -12    1    1    2    0    0  0.98883157254E+01  0.15287971510E+02  0.43792092325E+01  0.18726407405E+02  0.00000000000E+00 0.  1.
         11    1    3    3    0    0  0.75286468757E+01 -0.36789935079E+01  0.17449779847E+01  0.85592327599E+01  0.51100000000E-03 0. -1.
        -11    1    3    3    0    0  0.72390373584E+01 -0.27429101832E+02 -0.16507621960E+02  0.32821652491E+02  0.51100000000E-03 0.  1.
         12    1    3    3    0    0 -0.24655999959E+02  0.15820123830E+02  0.10383434743E+02  0.31080707345E+02  0.00000000000E+00 0. -1.
</event>
<event>
 7    1  0.3568800E-013  0.7246159E+02  0.7816164E-02  0.1226708E+00
        -11   -1    0    0    0    0  0.00000000000E+00  0.00000000000E+00  0.45593999997E+02  0.45594000000E+02  0.51100000000E-03 0. -1.
         11   -1    0    0    0    0 -0.00000000000E+00 -0.00000000000E+00 -0.45593999997E+02  0.45594000000E+02  0.51100000000E-03 0.  1.
    9900012    2    1    2    0    0 -0.15250314188E+02  0.20402734267E+01  0.10674431248E+02  0.72461594019E+02  0.70000030906E+02 0.  0.
        -12    1    1    2    0    0  0.15250314188E+02 -0.20402734267E+01 -0.10674431248E+02  0.18726405981E+02  0.00000000000E+00 0.  1.
         11    1    3    3    0    0  0.10577487289E+02 -0.11660403677E+02 -0.32689607279E+01  0.16079003569E+02  0.51100000000E-03 0. -1.
        -11    1    3    3    0    0 -0.32284153077E+02 -0.55878838598E+01  0.14957472165E+02  0.36016898253E+02  0.51100000000E-03 0.  1.
         12    1    3    3    0    0  0.64563516008E+01  0.19288560964E+02 -0.10140801894E+01  0.20365692197E+02  0.00000000000E+00 0. -1.
</event>
<event>
 7    1  0.3568800E-013  0.7246161E+02  0.7816164E-02  0.1226708E+00
        -11   -1    0    0    0    0  0.00000000000E+00  0.00000000000E+00  0.45593999997E+02  0.45594000000E+02  0.51100000000E-03 0.  1.
         11   -1    0    0    0    0 -0.00000000000E+00 -0.00000000000E+00 -0.45593999997E+02  0.45594000000E+02  0.51100000000E-03 0. -1.
    9900012    2    1    2    0    0 -0.40335410896E+01 -0.94181804418E+01 -0.15675018964E+02  0.72461606966E+02  0.70000047772E+02 0.  0.
        -12    1    1    2    0    0  0.40335410896E+01  0.94181804418E+01  0.15675018964E+02  0.18726393034E+02  0.00000000000E+00 0.  1.
         11    1    3    3    0    0  0.76127271768E+01 -0.10209656559E+02 -0.16147617248E+02  0.20565413810E+02  0.51100000000E-03 0. -1.
        -11    1    3    3    0    0 -0.14109316402E+02 -0.18773027297E+01 -0.23595193283E+02  0.27555947111E+02  0.51100000000E-03 0.  1.
        -12    1    3    3    0    0  0.24630481354E+01  0.26687788464E+01  0.24067791567E+02  0.24340246046E+02  0.00000000000E+00 0.  1.
</event>
<event>
 7    1  0.3568800E-013  0.7246180E+02  0.7816164E-02  0.1226707E+00
        -11   -1    0    0    0    0  0.00000000000E+00  0.00000000000E+00  0.45593999997E+02  0.45594000000E+02  0.51100000000E-03 0. -1.
         11   -1    0    0    0    0 -0.00000000000E+00 -0.00000000000E+00 -0.45593999997E+02  0.45594000000E+02  0.51100000000E-03 0.  1.
    9900012    2    1    2    0    0  0.83056249286E+01 -0.70335386933E+01  0.15238648412E+02  0.72461802376E+02  0.70000302329E+02 0.  0.
        -12    1    1    2    0    0 -0.83056249286E+01  0.70335386933E+01 -0.15238648412E+02  0.18726197624E+02  0.00000000000E+00 0.  1.
         11    1    3    3    0    0  0.18422294976E+01  0.29353137483E+01  0.11887308706E+01  0.36637354799E+01  0.51100000000E-03 0. -1.
        -11    1    3    3    0    0 -0.17113815283E+01  0.36288772844E+00 -0.26296743348E+02  0.26354870996E+02  0.51100000000E-03 0.  1.
         12    1    3    3    0    0  0.81747769593E+01 -0.10331740170E+02  0.40346660890E+02  0.42443195900E+02  0.00000000000E+00 0. -1.
</event>
<event>
 7    1  0.3568800E-013  0.7246159E+02  0.7816164E-02  0.1226708E+00
        -11   -1    0    0    0    0  0.00000000000E+00  0.00000000000E+00  0.45593999997E+02  0.45594000000E+02  0.51100000000E-03 0.  1.
         11   -1    0    0    0    0 -0.00000000000E+00 -0.00000000000E+00 -0.45593999997E+02  0.45594000000E+02  0.51100000000E-03 0. -1.
    9900012    2    1    2    0    0  0.13231362544E+02  0.77812381018E+01 -0.10726690790E+02  0.72461587731E+02  0.70000022714E+02 0.  0.
        -12    1    1    2    0    0 -0.13231362544E+02 -0.77812381018E+01  0.10726690790E+02  0.18726412269E+02  0.00000000000E+00 0.  1.
         11    1    3    3    0    0  0.19514006756E+02  0.23537661847E+02 -0.22841626849E+02  0.38164877862E+02  0.51100000000E-03 0. -1.
        -11    1    3    3    0    0  0.71290585306E+01 -0.13156624394E+02 -0.14632707942E+01  0.15035338461E+02  0.51100000000E-03 0.  1.
        -12    1    3    3    0    0 -0.13411702743E+02 -0.25997993511E+01  0.13578206854E+02  0.19261371407E+02  0.00000000000E+00 0.  1.
</event>
<event>
 7    1  0.3568800E-013  0.7246170E+02  0.7816164E-02  0.1226708E+00
        -11   -1    0    0    0    0  0.00000000000E+00  0.00000000000E+00  0.45593999997E+02  0.45594000000E+02  0.51100000000E-03 0.  1.
         11   -1    0    0    0    0 -0.00000000000E+00 -0.00000000000E+00 -0.45593999997E+02  0.45594000000E+02  0.51100000000E-03 0. -1.
    9900012    2    1    2    0    0 -0.13753679102E+02 -0.63457515917E+01 -0.11010990295E+02  0.72461704067E+02  0.70000174264E+02 0.  0.
        -12    1    1    2    0    0  0.13753679102E+02  0.63457515917E+01  0.11010990295E+02  0.18726295933E+02  0.00000000000E+00 0.  1.
         11    1    3    3    0    0  0.26941332630E+01  0.38538068399E+01 -0.12290456038E+02  0.13159235961E+02  0.51100000000E-03 0. -1.
        -11    1    3    3    0    0 -0.10093542610E+01  0.15269502103E+02  0.19193436872E+02  0.24547189446E+02  0.51100000000E-03 0.  1.
        -12    1    3    3    0    0 -0.15438458104E+02 -0.25469060535E+02 -0.17913971128E+02  0.34755278660E+02  0.00000000000E+00 0.  1.
</event>
<event>
 7    1  0.3568800E-013  0.7246141E+02  0.7816164E-02  0.1226708E+00
        -11   -1    0    0    0    0  0.00000000000E+00  0.00000000000E+00  0.45593999997E+02  0.45594000000E+02  0.51100000000E-03 0.  1.
         11   -1    0    0    0    0 -0.00000000000E+00 -0.00000000000E+00 -0.45593999997E+02  0.45594000000E+02  0.51100000000E-03 0. -1.
    9900012    2    1    2    0    0 -0.64575464501E+01  0.15543314430E+02 -0.82091729570E+01  0.72461413278E+02  0.69999795457E+02 0.  0.
        -12    1    1    2    0    0  0.64575464501E+01 -0.15543314430E+02  0.82091729570E+01  0.18726586722E+02  0.00000000000E+00 0.  1.
         11    1    3    3    0    0 -0.34422432419E+01  0.48946876265E+01 -0.22090596543E+02  0.22886709274E+02  0.51100000000E-03 0. -1.
        -11    1    3    3    0    0 -0.47797471340E+01 -0.48995368735E+01 -0.15133353148E+02  0.16609329366E+02  0.51100000000E-03 0.  1.
        -12    1    3    3    0    0  0.17644439259E+01  0.15548163677E+02  0.29014776734E+02  0.32965374638E+02  0.00000000000E+00 0.  1.
</event>
<event>
 7    1  0.3568800E-013  0.7246158E+02  0.7816164E-02  0.1226708E+00
        -11   -1    0    0    0    0  0.00000000000E+00  0.00000000000E+00  0.45593999997E+02  0.45594000000E+02  0.51100000000E-03 0. -1.
         11   -1    0    0    0    0 -0.00000000000E+00 -0.00000000000E+00 -0.45593999997E+02  0.45594000000E+02  0.51100000000E-03 0.  1.
    9900012    2    1    2    0    0  0.18247526454E+02 -0.26972417262E+01 -0.32298024846E+01  0.72461575923E+02  0.70000007332E+02 0.  0.
        -12    1    1    2    0    0 -0.18247526454E+02  0.26972417262E+01  0.32298024846E+01  0.18726424077E+02  0.00000000000E+00 0.  1.
         11    1    3    3    0    0 -0.42242201769E+01  0.50664786576E+01  0.62092681204E+01  0.90591529926E+01  0.51100000000E-03 0. -1.
        -11    1    3    3    0    0  0.16998530131E+02  0.17103150626E+02 -0.24041012354E+02  0.34050522216E+02  0.51100000000E-03 0.  1.
         12    1    3    3    0    0  0.54732165004E+01 -0.24866871010E+02  0.14601941749E+02  0.29351900714E+02  0.00000000000E+00 0. -1.
</event>
<event>
 7    1  0.3568800E-013  0.7246141E+02  0.7816164E-02  0.1226708E+00
        -11   -1    0    0    0    0  0.00000000000E+00  0.00000000000E+00  0.45593999997E+02  0.45594000000E+02  0.51100000000E-03 0.  1.
         11   -1    0    0    0    0 -0.00000000000E+00 -0.00000000000E+00 -0.45593999997E+02  0.45594000000E+02  0.51100000000E-03 0. -1.
    9900012    2    1    2    0    0  0.13244439391E+02 -0.13175154085E+02 -0.12981677451E+01  0.72461411964E+02  0.69999793746E+02 0.  0.
        -12    1    1    2    0    0 -0.13244439391E+02  0.13175154085E+02  0.12981677451E+01  0.18726588036E+02  0.00000000000E+00 0.  1.
         11    1    3    3    0    0  0.67681182084E+01  0.48822433806E+00 -0.18389874165E+02  0.19601868767E+02  0.51100000000E-03 0. -1.
        -11    1    3    3    0    0 -0.12588688998E+02 -0.32513829504E+01 -0.11220430764E+02  0.17173952620E+02  0.51100000000E-03 0.  1.
        -12    1    3    3    0    0  0.19065010181E+02 -0.10411995473E+02  0.28312137185E+02  0.35685590578E+02  0.00000000000E+00 0.  1.
</event>
<event>
 7    1  0.3568800E-013  0.7246159E+02  0.7816164E-02  0.1226708E+00
        -11   -1    0    0    0    0  0.00000000000E+00  0.00000000000E+00  0.45593999997E+02  0.45594000000E+02  0.51100000000E-03 0.  1.
         11   -1    0    0    0    0 -0.00000000000E+00 -0.00000000000E+00 -0.45593999997E+02  0.45594000000E+02  0.51100000000E-03 0. -1.
    9900012    2    1    2    0    0 -0.70784854101E+01 -0.87084037839E+01 -0.14991233261E+02  0.72461592794E+02  0.70000029310E+02 0.  0.
        -12    1    1    2    0    0  0.70784854101E+01  0.87084037839E+01  0.14991233261E+02  0.18726407206E+02  0.00000000000E+00 0.  1.
         11    1    3    3    0    0  0.11454078560E+02  0.42466732747E+01 -0.13604237065E+02  0.18284020782E+02  0.51100000000E-03 0. -1.
        -11    1    3    3    0    0 -0.10636014983E+02  0.22778510468E+01  0.22368901048E+02  0.24873302042E+02  0.51100000000E-03 0.  1.
         12    1    3    3    0    0 -0.78965489874E+01 -0.15232928105E+02 -0.23755897244E+02  0.29304269970E+02  0.00000000000E+00 0. -1.
</event>
<event>
 7    1  0.3568800E-013  0.7246153E+02  0.7816164E-02  0.1226708E+00
        -11   -1    0    0    0    0  0.00000000000E+00  0.00000000000E+00  0.45593999997E+02  0.45594000000E+02  0.51100000000E-03 0.  1.
         11   -1    0    0    0    0 -0.00000000000E+00 -0.00000000000E+00 -0.45593999997E+02  0.45594000000E+02  0.51100000000E-03 0. -1.
    9900012    2    1    2    0    0  0.16668140887E+02 -0.78255541388E+01  0.34079768427E+01  0.72461534119E+02  0.69999952875E+02 0.  0.
        -12    1    1    2    0    0 -0.16668140887E+02  0.78255541388E+01 -0.34079768427E+01  0.18726465881E+02  0.00000000000E+00 0.  1.
         11    1    3    3    0    0  0.45129486983E+00 -0.33879964063E+01  0.27069240962E+02  0.27284171111E+02  0.51100000000E-03 0.  1.
        -11    1    3    3    0    0 -0.47526974229E+01 -0.14148743825E+02 -0.59758851498E+01  0.16077508769E+02  0.51100000000E-03 0. -1.
         12    1    3    3    0    0  0.20969543440E+02  0.97111860928E+01 -0.17685378970E+02  0.29099854239E+02  0.00000000000E+00 0. -1.
</event>
<event>
 7    1  0.3568800E-013  0.7246161E+02  0.7816164E-02  0.1226708E+00
        -11   -1    0    0    0    0  0.00000000000E+00  0.00000000000E+00  0.45593999997E+02  0.45594000000E+02  0.51100000000E-03 0.  1.
         11   -1    0    0    0    0 -0.00000000000E+00 -0.00000000000E+00 -0.45593999997E+02  0.45594000000E+02  0.51100000000E-03 0. -1.
    9900012    2    1    2    0    0 -0.41891790339E+01 -0.12972133161E+02 -0.12839485004E+02  0.72461605930E+02  0.70000046421E+02 0.  0.
        -12    1    1    2    0    0  0.41891790339E+01  0.12972133161E+02  0.12839485004E+02  0.18726394070E+02  0.00000000000E+00 0.  1.
         11    1    3    3    0    0 -0.21352004998E+02 -0.90499964338E+01 -0.29265945042E+02  0.37340408305E+02  0.51100000000E-03 0.  1.
        -11    1    3    3    0    0 -0.67540508312E+01 -0.18989903952E+01  0.43100900372E+01  0.82340903287E+01  0.51100000000E-03 0. -1.
        -12    1    3    3    0    0  0.23916876796E+02 -0.20231463318E+01  0.12116370001E+02  0.26887107296E+02  0.00000000000E+00 0.  1.
</event>
<event>
 7    1  0.3568800E-013  0.7246158E+02  0.7816164E-02  0.1226708E+00
        -11   -1    0    0    0    0  0.00000000000E+00  0.00000000000E+00  0.45593999997E+02  0.45594000000E+02  0.51100000000E-03 0.  1.
         11   -1    0    0    0    0 -0.00000000000E+00 -0.00000000000E+00 -0.45593999997E+02  0.45594000000E+02  0.51100000000E-03 0. -1.
    9900012    2    1    2    0    0 -0.26870258332E+01  0.15888252561E+02 -0.95405421888E+01  0.72461584899E+02  0.70000019026E+02 0.  0.
        -12    1    1    2    0    0  0.26870258332E+01 -0.15888252561E+02  0.95405421888E+01  0.18726415101E+02  0.00000000000E+00 0.  1.
         11    1    3    3    0    0 -0.25207996637E+01  0.10063342079E+02 -0.20260721989E+01  0.10570253240E+02  0.51100000000E-03 0. -1.
        -11    1    3    3    0    0  0.30412260081E+02  0.12673579161E+01 -0.21637933659E+01  0.30515467574E+02  0.51100000000E-03 0.  1.
         12    1    3    3    0    0 -0.30578486250E+02  0.45575525660E+01 -0.53506766241E+01  0.31375864085E+02  0.00000000000E+00 0. -1.
</event>
<event>
 7    1  0.3568800E-013  0.7246187E+02  0.7816164E-02  0.1226707E+00
        -11   -1    0    0    0    0  0.00000000000E+00  0.00000000000E+00  0.45593999997E+02  0.45594000000E+02  0.51100000000E-03 0.  1.
         11   -1    0    0    0    0 -0.00000000000E+00 -0.00000000000E+00 -0.45593999997E+02  0.45594000000E+02  0.51100000000E-03 0. -1.
    9900012    2    1    2    0    0  0.14012256128E+02 -0.30819501862E+01 -0.12034382819E+02  0.72461865626E+02  0.70000384724E+02 0.  0.
        -12    1    1    2    0    0 -0.14012256128E+02  0.30819501862E+01  0.12034382819E+02  0.18726134374E+02  0.00000000000E+00 0.  1.
         11    1    3    3    0    0 -0.56134994270E+01 -0.17184842027E+02 -0.30865677599E+02  0.35770381955E+02  0.51100000000E-03 0. -1.
        -11    1    3    3    0    0  0.95092846084E+01  0.33941118615E+01  0.19484680611E+02  0.21945370078E+02  0.51100000000E-03 0.  1.
        -12    1    3    3    0    0  0.10116470947E+02  0.10708779979E+02 -0.65338583054E+00  0.14746113593E+02  0.00000000000E+00 0.  1.
</event>
<event>
 7    1  0.3568800E-013  0.7246160E+02  0.7816164E-02  0.1226708E+00
        -11   -1    0    0    0    0  0.00000000000E+00  0.00000000000E+00  0.45593999997E+02  0.45594000000E+02  0.51100000000E-03 0. -1.
         11   -1    0    0    0    0 -0.00000000000E+00 -0.00000000000E+00 -0.45593999997E+02  0.45594000000E+02  0.51100000000E-03 0.  1.
    9900012    2    1    2    0    0 -0.17895205560E+02 -0.37459198057E+01 -0.40506433825E+01  0.72461601279E+02  0.70000040363E+02 0.  0.
        -12    1    1    2    0    0  0.17895205560E+02  0.37459198057E+01  0.40506433825E+01  0.18726398721E+02  0.00000000000E+00 0.  1.
         11    1    3    3    0    0 -0.81329550623E+01  0.18311187521E+02  0.17772209327E+02  0.26782381729E+02  0.51100000000E-03 0. -1.
        -11    1    3    3    0    0  0.84404900675E+01  0.24007825327E+01 -0.11666294868E+01  0.88524942231E+01  0.51100000000E-03 0.  1.
        -12    1    3    3    0    0 -0.18202740566E+02 -0.24457889859E+02 -0.20656223222E+02  0.36826725327E+02  0.00000000000E+00 0.  1.
</event>
<event>
 7    1  0.3568800E-013  0.7246158E+02  0.7816164E-02  0.1226708E+00
        -11   -1    0    0    0    0  0.00000000000E+00  0.00000000000E+00  0.45593999997E+02  0.45594000000E+02  0.51100000000E-03 0.  1.
         11   -1    0    0    0    0 -0.00000000000E+00 -0.00000000000E+00 -0.45593999997E+02  0.45594000000E+02  0.51100000000E-03 0. -1.
    9900012    2    1    2    0    0 -0.13750474605E+02  0.53717926483E+01 -0.11521588740E+02  0.72461582425E+02  0.70000015802E+02 0.  0.
        -12    1    1    2    0    0  0.13750474605E+02 -0.53717926483E+01  0.11521588740E+02  0.18726417575E+02  0.00000000000E+00 0.  1.
         11    1    3    3    0    0 -0.96263864468E+01 -0.81648830099E+01  0.16873000058E+02  0.21072037438E+02  0.51100000000E-03 0. -1.
        -11    1    3    3    0    0  0.50707574128E+01 -0.12125046224E+02 -0.17277914809E+01  0.13255738015E+02  0.51100000000E-03 0.  1.
         12    1    3    3    0    0 -0.91948455705E+01  0.25661721882E+02 -0.26666797317E+02  0.38133806971E+02  0.00000000000E+00 0. -1.
</event>
<event>
 7    1  0.3568800E-013  0.7246148E+02  0.7816164E-02  0.1226708E+00
        -11   -1    0    0    0    0  0.00000000000E+00  0.00000000000E+00  0.45593999997E+02  0.45594000000E+02  0.51100000000E-03 0.  1.
         11   -1    0    0    0    0 -0.00000000000E+00 -0.00000000000E+00 -0.45593999997E+02  0.45594000000E+02  0.51100000000E-03 0. -1.
    9900012    2    1    2    0    0 -0.63368863178E+01 -0.46073847181E+01 -0.17008773557E+02  0.72461481369E+02  0.69999884158E+02 0.  0.
        -12    1    1    2    0    0  0.63368863178E+01  0.46073847181E+01  0.17008773557E+02  0.18726518631E+02  0.00000000000E+00 0.  1.
         11    1    3    3    0    0 -0.60971862125E+01 -0.14891948485E+02  0.16984086795E+02  0.23396688097E+02  0.51100000000E-03 0. -1.
        -11    1    3    3    0    0 -0.12757398363E+02  0.40768942613E+00 -0.14761002128E+01  0.12848980340E+02  0.51100000000E-03 0.  1.
         12    1    3    3    0    0  0.12517698258E+02  0.98768743404E+01 -0.32516760139E+02  0.36215812932E+02  0.00000000000E+00 0. -1.
</event>
<event>
 7    1  0.3568800E-013  0.7246152E+02  0.7816164E-02  0.1226708E+00
        -11   -1    0    0    0    0  0.00000000000E+00  0.00000000000E+00  0.45593999997E+02  0.45594000000E+02  0.51100000000E-03 0. -1.
         11   -1    0    0    0    0 -0.00000000000E+00 -0.00000000000E+00 -0.45593999997E+02  0.45594000000E+02  0.51100000000E-03 0.  1.
    9900012    2    1    2    0    0 -0.12803968754E+02  0.92655042848E+01  0.10044385793E+02  0.72461524852E+02  0.69999940803E+02 0.  0.
        -12    1    1    2    0    0  0.12803968754E+02 -0.92655042848E+01 -0.10044385793E+02  0.18726475148E+02  0.00000000000E+00 0.  1.
         11    1    3    3    0    0 -0.30357974621E+01 -0.40390136823E+01 -0.40589595615E+00  0.50689692784E+01  0.51100000000E-03 0. -1.
        -11    1    3    3    0    0  0.73151344250E+01 -0.10201528448E+02  0.29898418572E+02  0.32426806931E+02  0.51100000000E-03 0.  1.
         12    1    3    3    0    0 -0.17083305717E+02  0.23506046415E+02 -0.19448136823E+02  0.34965748643E+02  0.00000000000E+00 0. -1.
</event>
<event>
 7    1  0.3568800E-013  0.7246162E+02  0.7816164E-02  0.1226708E+00
        -11   -1    0    0    0    0  0.00000000000E+00  0.00000000000E+00  0.45593999997E+02  0.45594000000E+02  0.51100000000E-03 0.  1.
         11   -1    0    0    0    0 -0.00000000000E+00 -0.00000000000E+00 -0.45593999997E+02  0.45594000000E+02  0.51100000000E-03 0. -1.
    9900012    2    1    2    0    0 -0.11487134260E+02  0.38618131070E+01 -0.14276185309E+02  0.72461619652E+02  0.70000064297E+02 0.  0.
        -12    1    1    2    0    0  0.11487134260E+02 -0.38618131070E+01  0.14276185309E+02  0.18726380348E+02  0.00000000000E+00 0.  1.
         11    1    3    3    0    0 -0.10861179262E+02 -0.25144217083E+00 -0.21171038060E+02  0.23795825074E+02  0.51100000000E-03 0. -1.
        -11    1    3    3    0    0  0.13484308642E+02 -0.95667414626E+01 -0.12749615391E+02  0.20878261772E+02  0.51100000000E-03 0.  1.
         12    1    3    3    0    0 -0.14110263640E+02  0.13679996740E+02  0.19644468143E+02  0.27787532806E+02  0.00000000000E+00 0. -1.
</event>
<event>
 7    1  0.3568800E-013  0.7246158E+02  0.7816164E-02  0.1226708E+00
        -11   -1    0    0    0    0  0.00000000000E+00  0.00000000000E+00  0.45593999997E+02  0.45594000000E+02  0.51100000000E-03 0. -1.
         11   -1    0    0    0    0 -0.00000000000E+00 -0.00000000000E+00 -0.45593999997E+02  0.45594000000E+02  0.51100000000E-03 0.  1.
    9900012    2    1    2    0    0 -0.17499178062E+02  0.57497825304E+01  0.33760365681E+01  0.72461578695E+02  0.70000010943E+02 0.  0.
        -12    1    1    2    0    0  0.17499178062E+02 -0.57497825304E+01 -0.33760365681E+01  0.18726421305E+02  0.00000000000E+00 0.  1.
         11    1    3    3    0    0 -0.20645607360E+01  0.68676701078E+01  0.22705758502E+02  0.23811316074E+02  0.51100000000E-03 0. -1.
        -11    1    3    3    0    0 -0.16208495902E+02  0.14281795410E+02  0.26889302722E+01  0.21769597281E+02  0.51100000000E-03 0.  1.
        -12    1    3    3    0    0  0.77387857596E+00 -0.15399682987E+02 -0.22018652206E+02  0.26880665340E+02  0.00000000000E+00 0.  1.
</event>
<event>
 7    1  0.3568800E-013  0.7246145E+02  0.7816164E-02  0.1226708E+00
        -11   -1    0    0    0    0  0.00000000000E+00  0.00000000000E+00  0.45593999997E+02  0.45594000000E+02  0.51100000000E-03 0. -1.
         11   -1    0    0    0    0 -0.00000000000E+00 -0.00000000000E+00 -0.45593999997E+02  0.45594000000E+02  0.51100000000E-03 0.  1.
    9900012    2    1    2    0    0 -0.73681699530E+01  0.79004672727E+01  0.15296281126E+02  0.72461453926E+02  0.69999848408E+02 0.  0.
        -12    1    1    2    0    0  0.73681699530E+01 -0.79004672727E+01 -0.15296281126E+02  0.18726546074E+02  0.00000000000E+00 0.  1.
         11    1    3    3    0    0 -0.56153138815E+00 -0.99552188880E+01  0.98738000340E+01  0.14032591635E+02  0.51100000000E-03 0. -1.
        -11    1    3    3    0    0 -0.68411009112E+01 -0.12555479735E+02 -0.15827046009E+02  0.21329231554E+02  0.51100000000E-03 0.  1.
         12    1    3    3    0    0  0.34462346365E-01  0.30411165896E+02  0.21249527101E+02  0.37099630737E+02  0.00000000000E+00 0. -1.
</event>
<event>
 7    1  0.3568800E-013  0.7246157E+02  0.7816164E-02  0.1226708E+00
        -11   -1    0    0    0    0  0.00000000000E+00  0.00000000000E+00  0.45593999997E+02  0.45594000000E+02  0.51100000000E-03 0.  1.
         11   -1    0    0    0    0 -0.00000000000E+00 -0.00000000000E+00 -0.45593999997E+02  0.45594000000E+02  0.51100000000E-03 0. -1.
    9900012    2    1    2    0    0  0.17280302378E+02  0.67128634313E+01  0.26471944602E+01  0.72461574173E+02  0.70000005053E+02 0.  0.
        -12    1    1    2    0    0 -0.17280302378E+02 -0.67128634313E+01 -0.26471944602E+01  0.18726425827E+02  0.00000000000E+00 0.  1.
         11    1    3    3    0    0  0.23283937882E+02  0.12303604787E+02 -0.55779810216E+00  0.26340683231E+02  0.51100000000E-03 0. -1.
        -11    1    3    3    0    0 -0.71929295552E+01  0.19546930060E+02  0.86053517585E+00  0.20846132289E+02  0.51100000000E-03 0.  1.
         12    1    3    3    0    0  0.11892940510E+01 -0.25137671416E+02  0.23444573865E+01  0.25274758654E+02  0.00000000000E+00 0. -1.
</event>
<event>
 7    1  0.3568800E-013  0.7246155E+02  0.7816164E-02  0.1226708E+00
        -11   -1    0    0    0    0  0.00000000000E+00  0.00000000000E+00  0.45593999997E+02  0.45594000000E+02  0.51100000000E-03 0.  1.
         11   -1    0    0    0    0 -0.00000000000E+00 -0.00000000000E+00 -0.45593999997E+02  0.45594000000E+02  0.51100000000E-03 0. -1.
    9900012    2    1    2    0    0 -0.17782108156E+02 -0.51456722832E+01  0.28282111433E+01  0.72461545664E+02  0.69999967914E+02 0.  0.
        -12    1    1    2    0    0  0.17782108156E+02  0.51456722832E+01 -0.28282111433E+01  0.18726454336E+02  0.00000000000E+00 0.  1.
         11    1    3    3    0    0  0.19546422894E+01 -0.83850402076E+00 -0.28016378544E+02  0.28096995968E+02  0.51100000000E-03 0. -1.
        -11    1    3    3    0    0 -0.41785586518E+01 -0.61307786703E+01 -0.22473628328E+01  0.77522538319E+01  0.51100000000E-03 0.  1.
        -12    1    3    3    0    0 -0.15558191794E+02  0.18236104079E+01  0.33091952520E+02  0.36612295864E+02  0.00000000000E+00 0.  1.
</event>
<event>
 7    1  0.3568800E-013  0.7246162E+02  0.7816164E-02  0.1226708E+00
        -11   -1    0    0    0    0  0.00000000000E+00  0.00000000000E+00  0.45593999997E+02  0.45594000000E+02  0.51100000000E-03 0.  1.
         11   -1    0    0    0    0 -0.00000000000E+00 -0.00000000000E+00 -0.45593999997E+02  0.45594000000E+02  0.51100000000E-03 0. -1.
    9900012    2    1    2    0    0  0.11933031610E+02 -0.79132591773E+01  0.12068988926E+02  0.72461617330E+02  0.70000061273E+02 0.  0.
        -12    1    1    2    0    0 -0.11933031610E+02  0.79132591773E+01 -0.12068988926E+02  0.18726382670E+02  0.00000000000E+00 0.  1.
         11    1    3    3    0    0 -0.12770405803E+02  0.17966932416E+02  0.86201770798E+01  0.23668573636E+02  0.51100000000E-03 0. -1.
        -11    1    3    3    0    0 -0.75195536730E+01 -0.66934367934E+01 -0.34879872275E+01  0.10654193480E+02  0.51100000000E-03 0.  1.
        -12    1    3    3    0    0  0.32222991086E+02 -0.19186754800E+02  0.69367990732E+01  0.38138850214E+02  0.00000000000E+00 0.  1.
</event>
<event>
 7    1  0.3568800E-013  0.7246159E+02  0.7816164E-02  0.1226708E+00
        -11   -1    0    0    0    0  0.00000000000E+00  0.00000000000E+00  0.45593999997E+02  0.45594000000E+02  0.51100000000E-03 0. -1.
         11   -1    0    0    0    0 -0.00000000000E+00 -0.00000000000E+00 -0.45593999997E+02  0.45594000000E+02  0.51100000000E-03 0.  1.
    9900012    2    1    2    0    0 -0.58452034256E+01 -0.16630454955E+02  0.63198033771E+01  0.72461592180E+02  0.70000028510E+02 0.  0.
        -12    1    1    2    0    0  0.58452034256E+01  0.16630454955E+02 -0.63198033771E+01  0.18726407820E+02  0.00000000000E+00 0.  1.
         11    1    3    3    0    0  0.16856358033E+01 -0.29065965383E+02 -0.78659455484E+01  0.30158660636E+02  0.51100000000E-03 0. -1.
        -11    1    3    3    0    0  0.82661188495E+01  0.10941640744E+02 -0.73455228134E+01  0.15556507599E+02  0.51100000000E-03 0.  1.
         12    1    3    3    0    0 -0.15796958078E+02  0.14938696837E+01  0.21531271739E+02  0.26746423945E+02  0.00000000000E+00 0. -1.
</event>
<event>
 7    1  0.3568800E-013  0.7246143E+02  0.7816164E-02  0.1226708E+00
        -11   -1    0    0    0    0  0.00000000000E+00  0.00000000000E+00  0.45593999997E+02  0.45594000000E+02  0.51100000000E-03 0. -1.
         11   -1    0    0    0    0 -0.00000000000E+00 -0.00000000000E+00 -0.45593999997E+02  0.45594000000E+02  0.51100000000E-03 0.  1.
    9900012    2    1    2    0    0  0.32300388240E+01 -0.14328007851E+02  0.11617212452E+02  0.72461425702E+02  0.69999811641E+02 0.  0.
        -12    1    1    2    0    0 -0.32300388240E+01  0.14328007851E+02 -0.11617212452E+02  0.18726574298E+02  0.00000000000E+00 0.  1.
         11    1    3    3    0    0 -0.67218390493E+01 -0.11513433793E+02 -0.17725608559E+01  0.13449321550E+02  0.51100000000E-03 0. -1.
        -11    1    3    3    0    0  0.89288837981E+01 -0.28608816871E+02  0.83430333363E-01  0.29969923749E+02  0.51100000000E-03 0.  1.
        -12    1    3    3    0    0  0.10229940751E+01  0.25794242813E+02  0.13306342975E+02  0.29042180403E+02  0.00000000000E+00 0.  1.
</event>
<event>
 7    1  0.3568800E-013  0.7246155E+02  0.7816164E-02  0.1226708E+00
        -11   -1    0    0    0    0  0.00000000000E+00  0.00000000000E+00  0.45593999997E+02  0.45594000000E+02  0.51100000000E-03 0. -1.
         11   -1    0    0    0    0 -0.00000000000E+00 -0.00000000000E+00 -0.45593999997E+02  0.45594000000E+02  0.51100000000E-03 0.  1.
    9900012    2    1    2    0    0  0.73612397032E+01  0.14934682333E+02  0.85701491735E+01  0.72461546967E+02  0.69999969611E+02 0.  0.
        -12    1    1    2    0    0 -0.73612397032E+01 -0.14934682333E+02 -0.85701491735E+01  0.18726453033E+02  0.00000000000E+00 0.  1.
         11    1    3    3    0    0  0.31896035278E+01 -0.63048958879E+00 -0.10141991032E+01  0.34058314504E+01  0.51100000000E-03 0. -1.
        -11    1    3    3    0    0 -0.18085015862E+02  0.29466881512E+02 -0.10362665252E+02  0.36093624592E+02  0.51100000000E-03 0.  1.
         12    1    3    3    0    0  0.22256652037E+02 -0.13901709591E+02  0.19947013528E+02  0.32962090925E+02  0.00000000000E+00 0. -1.
</event>
<event>
 7    1  0.3568800E-013  0.7246158E+02  0.7816164E-02  0.1226708E+00
        -11   -1    0    0    0    0  0.00000000000E+00  0.00000000000E+00  0.45593999997E+02  0.45594000000E+02  0.51100000000E-03 0. -1.
         11   -1    0    0    0    0 -0.00000000000E+00 -0.00000000000E+00 -0.45593999997E+02  0.45594000000E+02  0.51100000000E-03 0.  1.
    9900012    2    1    2    0    0  0.10368476180E+02 -0.35886229341E+00 -0.15589889412E+02  0.72461581968E+02  0.70000015207E+02 0.  0.
        -12    1    1    2    0    0 -0.10368476180E+02  0.35886229341E+00  0.15589889412E+02  0.18726418032E+02  0.00000000000E+00 0.  1.
         11    1    3    3    0    0  0.55787329113E+01 -0.12054494526E+02 -0.32702915930E+01  0.13679470258E+02  0.51100000000E-03 0. -1.
        -11    1    3    3    0    0  0.27461261941E+02 -0.12919343295E+01 -0.16878282880E+02  0.32259361974E+02  0.51100000000E-03 0.  1.
        -12    1    3    3    0    0 -0.22671518673E+02  0.12987566562E+02  0.45586850617E+01  0.26522749737E+02  0.00000000000E+00 0.  1.
</event>
<event>
 7    1  0.3568800E-013  0.7246162E+02  0.7816164E-02  0.1226708E+00
        -11   -1    0    0    0    0  0.00000000000E+00  0.00000000000E+00  0.45593999997E+02  0.45594000000E+02  0.51100000000E-03 0. -1.
         11   -1    0    0    0    0 -0.00000000000E+00 -0.00000000000E+00 -0.45593999997E+02  0.45594000000E+02  0.51100000000E-03 0.  1.
    9900012    2    1    2    0    0 -0.12335103248E+02 -0.61393877106E+01  0.12681894286E+02  0.72461620311E+02  0.70000065156E+02 0.  0.
        -12    1    1    2    0    0  0.12335103248E+02  0.61393877106E+01 -0.12681894286E+02  0.18726379689E+02  0.00000000000E+00 0.  1.
         11    1    3    3    0    0 -0.10899540201E+02  0.22698852386E+02  0.10079612382E+02  0.27122619016E+02  0.51100000000E-03 0. -1.
        -11    1    3    3    0    0  0.48378767241E+01 -0.11025149282E+02 -0.15196476512E+02  0.19387930950E+02  0.51100000000E-03 0.  1.
         12    1    3    3    0    0 -0.62734397704E+01 -0.17813090815E+02  0.17798758415E+02  0.25951070345E+02  0.00000000000E+00 0. -1.
</event>
<event>
 7    1  0.3568800E-013  0.7246155E+02  0.7816164E-02  0.1226708E+00
        -11   -1    0    0    0    0  0.00000000000E+00  0.00000000000E+00  0.45593999997E+02  0.45594000000E+02  0.51100000000E-03 0.  1.
         11   -1    0    0    0    0 -0.00000000000E+00 -0.00000000000E+00 -0.45593999997E+02  0.45594000000E+02  0.51100000000E-03 0. -1.
    9900012    2    1    2    0    0 -0.17663086614E+02  0.56375164481E+01 -0.26293634972E+01  0.72461554186E+02  0.69999979016E+02 0.  0.
        -12    1    1    2    0    0  0.17663086614E+02 -0.56375164481E+01  0.26293634972E+01  0.18726445814E+02  0.00000000000E+00 0.  1.
         11    1    3    3    0    0 -0.33059459157E+02 -0.32077895576E+01 -0.78191382566E+01  0.34122671011E+02  0.51100000000E-03 0. -1.
        -11    1    3    3    0    0 -0.64732069173E+01 -0.77344441388E+01 -0.12115187462E+01  0.10158337062E+02  0.51100000000E-03 0.  1.
         12    1    3    3    0    0  0.21869579461E+02  0.16579750145E+02  0.64012935056E+01  0.28180546112E+02  0.00000000000E+00 0. -1.
</event>
<event>
 7    1  0.3568800E-013  0.7246158E+02  0.7816164E-02  0.1226708E+00
        -11   -1    0    0    0    0  0.00000000000E+00  0.00000000000E+00  0.45593999997E+02  0.45594000000E+02  0.51100000000E-03 0. -1.
         11   -1    0    0    0    0 -0.00000000000E+00 -0.00000000000E+00 -0.45593999997E+02  0.45594000000E+02  0.51100000000E-03 0.  1.
    9900012    2    1    2    0    0 -0.95475731070E+01  0.49708389658E+01  0.15323626736E+02  0.72461576727E+02  0.70000008379E+02 0.  0.
        -12    1    1    2    0    0  0.95475731070E+01 -0.49708389658E+01 -0.15323626736E+02  0.18726423273E+02  0.00000000000E+00 0.  1.
         11    1    3    3    0    0  0.15889228608E+02  0.12817644640E+02 -0.24948548847E+01  0.20566572418E+02  0.51100000000E-03 0. -1.
        -11    1    3    3    0    0 -0.18256474826E+02  0.78874900935E+01 -0.74817073262E+01  0.21248230934E+02  0.51100000000E-03 0.  1.
         12    1    3    3    0    0 -0.71803268883E+01 -0.15734295767E+02  0.25300188947E+02  0.30646773375E+02  0.00000000000E+00 0. -1.
</event>
<event>
 7    1  0.3568800E-013  0.7246151E+02  0.7816164E-02  0.1226708E+00
        -11   -1    0    0    0    0  0.00000000000E+00  0.00000000000E+00  0.45593999997E+02  0.45594000000E+02  0.51100000000E-03 0. -1.
         11   -1    0    0    0    0 -0.00000000000E+00 -0.00000000000E+00 -0.45593999997E+02  0.45594000000E+02  0.51100000000E-03 0.  1.
    9900012    2    1    2    0    0  0.14516617255E+02  0.11715087789E+02 -0.16449621356E+01  0.72461511839E+02  0.69999923851E+02 0.  0.
        -12    1    1    2    0    0 -0.14516617255E+02 -0.11715087789E+02  0.16449621356E+01  0.18726488161E+02  0.00000000000E+00 0.  1.
         11    1    3    3    0    0  0.14239922411E+02 -0.10631563126E+02  0.16213220494E+02  0.24055644739E+02  0.51100000000E-03 0. -1.
        -11    1    3    3    0    0 -0.13245376998E+02 -0.97300771759E-01  0.44705979529E+01  0.13979832817E+02  0.51100000000E-03 0.  1.
        -12    1    3    3    0    0  0.13522071842E+02  0.22443951686E+02 -0.22328780583E+02  0.34426034283E+02  0.00000000000E+00 0.  1.
</event>
<event>
 7    1  0.3568800E-013  0.7246166E+02  0.7816164E-02  0.1226708E+00
        -11   -1    0    0    0    0  0.00000000000E+00  0.00000000000E+00  0.45593999997E+02  0.45594000000E+02  0.51100000000E-03 0.  1.
         11   -1    0    0    0    0 -0.00000000000E+00 -0.00000000000E+00 -0.45593999997E+02  0.45594000000E+02  0.51100000000E-03 0. -1.
    9900012    2    1    2    0    0  0.53867726193E+01  0.10559419033E+02 -0.14496804001E+02  0.72461655567E+02  0.70000111084E+02 0.  0.
        -12    1    1    2    0    0 -0.53867726193E+01 -0.10559419033E+02  0.14496804001E+02  0.18726344433E+02  0.00000000000E+00 0.  1.
         11    1    3    3    0    0  0.10291830149E+02  0.92726577461E+01 -0.33337248177E+02  0.36100915027E+02  0.51100000000E-03 0. -1.
        -11    1    3    3    0    0  0.31098449479E+01 -0.70834936936E+01 -0.54394345594E+01  0.94569798083E+01  0.51100000000E-03 0.  1.
         12    1    3    3    0    0 -0.80149024775E+01  0.83702549803E+01  0.24279878735E+02  0.26903760732E+02  0.00000000000E+00 0. -1.
</event>
<event>
 7    1  0.3568800E-013  0.7246155E+02  0.7816164E-02  0.1226708E+00
        -11   -1    0    0    0    0  0.00000000000E+00  0.00000000000E+00  0.45593999997E+02  0.45594000000E+02  0.51100000000E-03 0.  1.
         11   -1    0    0    0    0 -0.00000000000E+00 -0.00000000000E+00 -0.45593999997E+02  0.45594000000E+02  0.51100000000E-03 0. -1.
    9900012    2    1    2    0    0 -0.75811695160E+00 -0.18580869092E+02 -0.22037334517E+01  0.72461551360E+02  0.69999975335E+02 0.  0.
        -12    1    1    2    0    0  0.75811695160E+00  0.18580869092E+02  0.22037334517E+01  0.18726448640E+02  0.00000000000E+00 0.  1.
         11    1    3    3    0    0  0.41644166891E+01  0.42812863186E+01  0.16290264860E+02  0.17350634235E+02  0.51100000000E-03 0. -1.
        -11    1    3    3    0    0 -0.19069465453E+02 -0.92602682383E+00  0.52758034466E+01  0.19807476887E+02  0.51100000000E-03 0.  1.
         12    1    3    3    0    0  0.14146931812E+02 -0.21936128587E+02 -0.23769801758E+02  0.35303440239E+02  0.00000000000E+00 0. -1.
</event>
<event>
 7    1  0.3568800E-013  0.7246160E+02  0.7816164E-02  0.1226708E+00
        -11   -1    0    0    0    0  0.00000000000E+00  0.00000000000E+00  0.45593999997E+02  0.45594000000E+02  0.51100000000E-03 0.  1.
         11   -1    0    0    0    0 -0.00000000000E+00 -0.00000000000E+00 -0.45593999997E+02  0.45594000000E+02  0.51100000000E-03 0. -1.
    9900012    2    1    2    0    0 -0.16627354284E+02  0.75818423420E+01 -0.40895772405E+01  0.72461604571E+02  0.70000044651E+02 0.  0.
        -12    1    1    2    0    0  0.16627354284E+02 -0.75818423420E+01  0.40895772405E+01  0.18726395429E+02  0.00000000000E+00 0.  1.
         11    1    3    3    0    0 -0.60687129883E+01  0.11076708652E+02  0.12741346656E+02  0.17940587135E+02  0.51100000000E-03 0. -1.
        -11    1    3    3    0    0 -0.41770691210E+01 -0.18793120895E+02  0.10966831972E+02  0.22156279092E+02  0.51100000000E-03 0.  1.
         12    1    3    3    0    0 -0.63815721743E+01  0.15298254585E+02 -0.27797755868E+02  0.32364738344E+02  0.00000000000E+00 0. -1.
</event>
<event>
 7    1  0.3568800E-013  0.7246157E+02  0.7816164E-02  0.1226708E+00
        -11   -1    0    0    0    0  0.00000000000E+00  0.00000000000E+00  0.45593999997E+02  0.45594000000E+02  0.51100000000E-03 0. -1.
         11   -1    0    0    0    0 -0.00000000000E+00 -0.00000000000E+00 -0.45593999997E+02  0.45594000000E+02  0.51100000000E-03 0.  1.
    9900012    2    1    2    0    0 -0.10997106549E+02  0.15305898370E+01  0.15079787667E+02  0.72461573385E+02  0.70000004026E+02 0.  0.
        -12    1    1    2    0    0  0.10997106549E+02 -0.15305898370E+01 -0.15079787667E+02  0.18726426615E+02  0.00000000000E+00 0.  1.
         11    1    3    3    0    0 -0.24908872201E+02 -0.10818453241E+02 -0.17054355508E+02  0.32067770220E+02  0.51100000000E-03 0. -1.
        -11    1    3    3    0    0  0.52420952590E+00 -0.31041051768E+01  0.13200739435E+01  0.34136285757E+01  0.51100000000E-03 0.  1.
        -12    1    3    3    0    0  0.13387556126E+02  0.15453148255E+02  0.30814069231E+02  0.36980174589E+02  0.00000000000E+00 0.  1.
</event>
<event>
 7    1  0.3568800E-013  0.7246156E+02  0.7816164E-02  0.1226708E+00
        -11   -1    0    0    0    0  0.00000000000E+00  0.00000000000E+00  0.45593999997E+02  0.45594000000E+02  0.51100000000E-03 0.  1.
         11   -1    0    0    0    0 -0.00000000000E+00 -0.00000000000E+00 -0.45593999997E+02  0.45594000000E+02  0.51100000000E-03 0. -1.
    9900012    2    1    2    0    0  0.12984305536E+02  0.67425392410E+01  0.11688684471E+02  0.72461564933E+02  0.69999993016E+02 0.  0.
        -12    1    1    2    0    0 -0.12984305536E+02 -0.67425392410E+01 -0.11688684471E+02  0.18726435067E+02  0.00000000000E+00 0.  1.
         11    1    3    3    0    0  0.32032505033E+02  0.11672457653E+02  0.22515461240E+02  0.40856745360E+02  0.51100000000E-03 0. -1.
        -11    1    3    3    0    0  0.45240695756E+01  0.21514556738E+01 -0.10334926142E+01  0.51150830185E+01  0.51100000000E-03 0.  1.
        -12    1    3    3    0    0 -0.23572269072E+02 -0.70813740862E+01 -0.97932841552E+01  0.26489736554E+02  0.00000000000E+00 0.  1.
</event>
<event>
 7    1  0.3568800E-013  0.7246152E+02  0.7816164E-02  0.1226708E+00
        -11   -1    0    0    0    0  0.00000000000E+00  0.00000000000E+00  0.45593999997E+02  0.45594000000E+02  0.51100000000E-03 0. -1.
         11   -1    0    0    0    0 -0.00000000000E+00 -0.00000000000E+00 -0.45593999997E+02  0.45594000000E+02  0.51100000000E-03 0.  1.
    9900012    2    1    2    0    0 -0.73121559453E+01 -0.86516647601E+01  0.14911808077E+02  0.72461522813E+02  0.69999938147E+02 0.  0.
        -12    1    1    2    0    0  0.73121559453E+01  0.86516647601E+01 -0.14911808077E+02  0.18726477187E+02  0.00000000000E+00 0.  1.
         11    1    3    3    0    0  0.89625272820E+01 -0.20936788978E+02  0.99167104829E+01  0.24839830415E+02  0.51100000000E-03 0. -1.
        -11    1    3    3    0    0  0.10819395370E+02 -0.18780972028E+00  0.12828612891E+02  0.16782964507E+02  0.51100000000E-03 0.  1.
        -12    1    3    3    0    0 -0.27094078597E+02  0.12472933938E+02 -0.78335152970E+01  0.30838727891E+02  0.00000000000E+00 0.  1.
</event>
<event>
 7    1  0.3568800E-013  0.7246159E+02  0.7816164E-02  0.1226708E+00
        -11   -1    0    0    0    0  0.00000000000E+00  0.00000000000E+00  0.45593999997E+02  0.45594000000E+02  0.51100000000E-03 0.  1.
         11   -1    0    0    0    0 -0.00000000000E+00 -0.00000000000E+00 -0.45593999997E+02  0.45594000000E+02  0.51100000000E-03 0. -1.
    9900012    2    1    2    0    0 -0.15287987345E+02  0.10770979009E+02 -0.97046687190E+00  0.72461592127E+02  0.70000028441E+02 0.  0.
        -12    1    1    2    0    0  0.15287987345E+02 -0.10770979009E+02  0.97046687190E+00  0.18726407873E+02  0.00000000000E+00 0.  1.
         11    1    3    3    0    0 -0.29474428964E+02 -0.21373358296E+02  0.31043291744E+00  0.36409597313E+02  0.51100000000E-03 0. -1.
        -11    1    3    3    0    0  0.12246827238E+01  0.26416002983E+01 -0.24514375932E+01  0.38062378334E+01  0.51100000000E-03 0.  1.
        -12    1    3    3    0    0  0.12961758895E+02  0.29502737006E+02  0.11705378038E+01  0.32245756981E+02  0.00000000000E+00 0.  1.
</event>
<event>
 7    1  0.3568800E-013  0.7246152E+02  0.7816164E-02  0.1226708E+00
        -11   -1    0    0    0    0  0.00000000000E+00  0.00000000000E+00  0.45593999997E+02  0.45594000000E+02  0.51100000000E-03 0.  1.
         11   -1    0    0    0    0 -0.00000000000E+00 -0.00000000000E+00 -0.45593999997E+02  0.45594000000E+02  0.51100000000E-03 0. -1.
    9900012    2    1    2    0    0 -0.16133749369E+02  0.32712469079E+01 -0.89264913943E+01  0.72461516784E+02  0.69999930293E+02 0.  0.
        -12    1    1    2    0    0  0.16133749369E+02 -0.32712469079E+01  0.89264913943E+01  0.18726483216E+02  0.00000000000E+00 0.  1.
         11    1    3    3    0    0 -0.33124495537E+02 -0.38130374182E+01 -0.12791210645E+02  0.35712554221E+02  0.51100000000E-03 0. -1.
        -11    1    3    3    0    0 -0.79179557497E+01  0.87350052214E+00  0.73540888503E+01  0.10841570435E+02  0.51100000000E-03 0.  1.
        -12    1    3    3    0    0  0.24908701918E+02  0.62107838039E+01 -0.34893695994E+01  0.25907392128E+02  0.00000000000E+00 0.  1.
</event>
<event>
 7    1  0.3568800E-013  0.7246159E+02  0.7816164E-02  0.1226708E+00
        -11   -1    0    0    0    0  0.00000000000E+00  0.00000000000E+00  0.45593999997E+02  0.45594000000E+02  0.51100000000E-03 0. -1.
         11   -1    0    0    0    0 -0.00000000000E+00 -0.00000000000E+00 -0.45593999997E+02  0.45594000000E+02  0.51100000000E-03 0.  1.
    9900012    2    1    2    0    0 -0.65316046880E+01 -0.14130090652E+02  0.10409480114E+02  0.72461585557E+02  0.70000019883E+02 0.  0.
        -12    1    1    2    0    0  0.65316046880E+01  0.14130090652E+02 -0.10409480114E+02  0.18726414443E+02  0.00000000000E+00 0.  1.
         11    1    3    3    0    0  0.72088132380E-01 -0.21504374338E+01  0.22296394705E+02  0.22399973101E+02  0.51100000000E-03 0. -1.
        -11    1    3    3    0    0 -0.26106419519E+01 -0.18184074981E+02  0.14029741843E+02  0.23115139860E+02  0.51100000000E-03 0.  1.
        -12    1    3    3    0    0 -0.39930508685E+01  0.62044217626E+01 -0.25916656434E+02  0.26946472596E+02  0.00000000000E+00 0.  1.
</event>
<event>
 7    1  0.3568800E-013  0.7246164E+02  0.7816164E-02  0.1226708E+00
        -11   -1    0    0    0    0  0.00000000000E+00  0.00000000000E+00  0.45593999997E+02  0.45594000000E+02  0.51100000000E-03 0. -1.
         11   -1    0    0    0    0 -0.00000000000E+00 -0.00000000000E+00 -0.45593999997E+02  0.45594000000E+02  0.51100000000E-03 0.  1.
    9900012    2    1    2    0    0  0.49017795936E+01  0.17953410733E+02  0.20794464754E+01  0.72461641631E+02  0.70000092929E+02 0.  0.
        -12    1    1    2    0    0 -0.49017795936E+01 -0.17953410733E+02 -0.20794464754E+01  0.18726358369E+02  0.00000000000E+00 0.  1.
         11    1    3    3    0    0 -0.99140437614E+01  0.17967368861E+02 -0.40221413594E+01  0.20911533393E+02  0.51100000000E-03 0. -1.
        -11    1    3    3    0    0 -0.15968134946E+02  0.36914449496E+01 -0.70865814973E+01  0.17855748012E+02  0.51100000000E-03 0.  1.
         12    1    3    3    0    0  0.30783958301E+02 -0.37054030774E+01  0.13188169332E+02  0.33694360225E+02  0.00000000000E+00 0. -1.
</event>
<event>
 7    1  0.3568800E-013  0.7246148E+02  0.7816164E-02  0.1226708E+00
        -11   -1    0    0    0    0  0.00000000000E+00  0.00000000000E+00  0.45593999997E+02  0.45594000000E+02  0.51100000000E-03 0.  1.
         11   -1    0    0    0    0 -0.00000000000E+00 -0.00000000000E+00 -0.45593999997E+02  0.45594000000E+02  0.51100000000E-03 0. -1.
    9900012    2    1    2    0    0  0.91872641400E+01  0.97266947675E+01 -0.13102220173E+02  0.72461479049E+02  0.69999881135E+02 0.  0.
        -12    1    1    2    0    0 -0.91872641400E+01 -0.97266947675E+01  0.13102220173E+02  0.18726520951E+02  0.00000000000E+00 0.  1.
         11    1    3    3    0    0  0.16026746160E+02 -0.15374855750E+01  0.63997702669E+01  0.17325631708E+02  0.51100000000E-03 0. -1.
        -11    1    3    3    0    0  0.19611640648E+02  0.83416648515E+01  0.13098628349E+01  0.21352179334E+02  0.51100000000E-03 0.  1.
         12    1    3    3    0    0 -0.26451122668E+02  0.29225154910E+01 -0.20811853275E+02  0.33783668006E+02  0.00000000000E+00 0. -1.
</event>
<event>
 7    1  0.3568800E-013  0.7246160E+02  0.7816164E-02  0.1226708E+00
        -11   -1    0    0    0    0  0.00000000000E+00  0.00000000000E+00  0.45593999997E+02  0.45594000000E+02  0.51100000000E-03 0. -1.
         11   -1    0    0    0    0 -0.00000000000E+00 -0.00000000000E+00 -0.45593999997E+02  0.45594000000E+02  0.51100000000E-03 0.  1.
    9900012    2    1    2    0    0 -0.17877098199E+02 -0.49731054698E+01 -0.25210206803E+01  0.72461602501E+02  0.70000041955E+02 0.  0.
        -12    1    1    2    0    0  0.17877098199E+02  0.49731054698E+01  0.25210206803E+01  0.18726397499E+02  0.00000000000E+00 0.  1.
         11    1    3    3    0    0 -0.43215028255E+01 -0.10709870419E+02  0.24332031316E+02  0.26933704893E+02  0.51100000000E-03 0. -1.
        -11    1    3    3    0    0 -0.46706114682E+01 -0.14183552544E+02 -0.10164145994E+02  0.18063710535E+02  0.51100000000E-03 0.  1.
        -12    1    3    3    0    0 -0.88849839049E+01  0.19920317493E+02 -0.16688906002E+02  0.27464187073E+02  0.00000000000E+00 0.  1.
</event>
<event>
 7    1  0.3568800E-013  0.7246159E+02  0.7816164E-02  0.1226708E+00
        -11   -1    0    0    0    0  0.00000000000E+00  0.00000000000E+00  0.45593999997E+02  0.45594000000E+02  0.51100000000E-03 0. -1.
         11   -1    0    0    0    0 -0.00000000000E+00 -0.00000000000E+00 -0.45593999997E+02  0.45594000000E+02  0.51100000000E-03 0.  1.
    9900012    2    1    2    0    0  0.44737686536E+01 -0.15495619719E+02  0.95157456522E+01  0.72461594798E+02  0.70000031921E+02 0.  0.
        -12    1    1    2    0    0 -0.44737686536E+01  0.15495619719E+02 -0.95157456522E+01  0.18726405202E+02  0.00000000000E+00 0.  1.
         11    1    3    3    0    0  0.36545378896E+01  0.68037862139E+01  0.10714521259E+02  0.13207880984E+02  0.51100000000E-03 0. -1.
        -11    1    3    3    0    0 -0.85975171041E+01  0.62228249480E+01  0.19895980251E+02  0.22549742373E+02  0.51100000000E-03 0.  1.
         12    1    3    3    0    0  0.94167478682E+01 -0.28522230881E+02 -0.21094755857E+02  0.36703971441E+02  0.00000000000E+00 0. -1.
</event>
<event>
 7    1  0.3568800E-013  0.7246157E+02  0.7816164E-02  0.1226708E+00
        -11   -1    0    0    0    0  0.00000000000E+00  0.00000000000E+00  0.45593999997E+02  0.45594000000E+02  0.51100000000E-03 0.  1.
         11   -1    0    0    0    0 -0.00000000000E+00 -0.00000000000E+00 -0.45593999997E+02  0.45594000000E+02  0.51100000000E-03 0. -1.
    9900012    2    1    2    0    0  0.58935462920E+01  0.16106070732E+02 -0.75192932020E+01  0.72461570213E+02  0.69999999894E+02 0.  0.
        -12    1    1    2    0    0 -0.58935462920E+01 -0.16106070732E+02  0.75192932020E+01  0.18726429787E+02  0.00000000000E+00 0.  1.
         11    1    3    3    0    0 -0.19019287645E+02 -0.81972128787E+01 -0.24377646672E+02  0.31987454713E+02  0.51100000000E-03 0. -1.
        -11    1    3    3    0    0  0.23832286151E+01 -0.71133594433E+00 -0.59025062100E+00  0.25562029486E+01  0.51100000000E-03 0.  1.
        -12    1    3    3    0    0  0.22529605322E+02  0.25014619555E+02  0.17448604091E+02  0.37917912551E+02  0.00000000000E+00 0.  1.
</event>
<event>
 7    1  0.3568800E-013  0.7246157E+02  0.7816164E-02  0.1226708E+00
        -11   -1    0    0    0    0  0.00000000000E+00  0.00000000000E+00  0.45593999997E+02  0.45594000000E+02  0.51100000000E-03 0.  1.
         11   -1    0    0    0    0 -0.00000000000E+00 -0.00000000000E+00 -0.45593999997E+02  0.45594000000E+02  0.51100000000E-03 0. -1.
    9900012    2    1    2    0    0  0.78282964448E+01  0.13838373843E+02 -0.98942565653E+01  0.72461571381E+02  0.70000001416E+02 0.  0.
        -12    1    1    2    0    0 -0.78282964448E+01 -0.13838373843E+02  0.98942565653E+01  0.18726428619E+02  0.00000000000E+00 0.  1.
         11    1    3    3    0    0  0.12091183462E+02  0.15375957623E+02  0.67922615142E+01  0.20706318047E+02  0.51100000000E-03 0. -1.
        -11    1    3    3    0    0  0.11080494967E+02  0.59430451916E+01  0.12636057839E+02  0.17826023472E+02  0.51100000000E-03 0.  1.
         12    1    3    3    0    0 -0.15343381984E+02 -0.74806289716E+01 -0.29322575919E+02  0.33929229862E+02  0.00000000000E+00 0. -1.
</event>
<event>
 7    1  0.3568800E-013  0.7246152E+02  0.7816164E-02  0.1226708E+00
        -11   -1    0    0    0    0  0.00000000000E+00  0.00000000000E+00  0.45593999997E+02  0.45594000000E+02  0.51100000000E-03 0.  1.
         11   -1    0    0    0    0 -0.00000000000E+00 -0.00000000000E+00 -0.45593999997E+02  0.45594000000E+02  0.51100000000E-03 0. -1.
    9900012    2    1    2    0    0 -0.49866624023E+01  0.84232848676E+01 -0.15964419177E+02  0.72461515826E+02  0.69999929044E+02 0.  0.
        -12    1    1    2    0    0  0.49866624023E+01 -0.84232848676E+01  0.15964419177E+02  0.18726484174E+02  0.00000000000E+00 0.  1.
         11    1    3    3    0    0 -0.97390771630E+01 -0.19910824065E+02 -0.15286759226E+01  0.22217726915E+02  0.51100000000E-03 0. -1.
        -11    1    3    3    0    0  0.15806586416E+02  0.80983000021E+01  0.66827375510E+01  0.18976027468E+02  0.51100000000E-03 0.  1.
         12    1    3    3    0    0 -0.11054171655E+02  0.20235808931E+02 -0.21118480806E+02  0.31267761442E+02  0.00000000000E+00 0. -1.
</event>
<event>
 7    1  0.3568800E-013  0.7246179E+02  0.7816164E-02  0.1226707E+00
        -11   -1    0    0    0    0  0.00000000000E+00  0.00000000000E+00  0.45593999997E+02  0.45594000000E+02  0.51100000000E-03 0.  1.
         11   -1    0    0    0    0 -0.00000000000E+00 -0.00000000000E+00 -0.45593999997E+02  0.45594000000E+02  0.51100000000E-03 0. -1.
    9900012    2    1    2    0    0 -0.16438502113E+02  0.67846888983E+01 -0.58663975999E+01  0.72461789066E+02  0.70000284990E+02 0.  0.
        -12    1    1    2    0    0  0.16438502113E+02 -0.67846888983E+01  0.58663975999E+01  0.18726210934E+02  0.00000000000E+00 0.  1.
         11    1    3    3    0    0  0.66084726658E+01 -0.10726176195E+02 -0.13631249783E+02  0.18561620017E+02  0.51100000000E-03 0. -1.
        -11    1    3    3    0    0 -0.16173583230E+02 -0.52995130477E+01  0.20694471364E+02  0.26794230318E+02  0.51100000000E-03 0.  1.
         12    1    3    3    0    0 -0.68733915486E+01  0.22810378141E+02 -0.12929619181E+02  0.27105938731E+02  0.00000000000E+00 0. -1.
</event>
<event>
 7    1  0.3568800E-013  0.7246160E+02  0.7816164E-02  0.1226708E+00
        -11   -1    0    0    0    0  0.00000000000E+00  0.00000000000E+00  0.45593999997E+02  0.45594000000E+02  0.51100000000E-03 0.  1.
         11   -1    0    0    0    0 -0.00000000000E+00 -0.00000000000E+00 -0.45593999997E+02  0.45594000000E+02  0.51100000000E-03 0. -1.
    9900012    2    1    2    0    0 -0.10876587282E+02 -0.14945286092E+02  0.30027086859E+01  0.72461601876E+02  0.70000041140E+02 0.  0.
        -12    1    1    2    0    0  0.10876587282E+02  0.14945286092E+02 -0.30027086859E+01  0.18726398124E+02  0.00000000000E+00 0.  1.
         11    1    3    3    0    0 -0.11892707319E+02  0.60465348212E+00 -0.28752969200E+02  0.31121300283E+02  0.51100000000E-03 0. -1.
        -11    1    3    3    0    0  0.45117430890E+01 -0.54828679420E-01 -0.12749079059E+01  0.46887335513E+01  0.51100000000E-03 0.  1.
        -12    1    3    3    0    0 -0.34956230517E+01 -0.15495110894E+02  0.33030585792E+02  0.36651568042E+02  0.00000000000E+00 0.  1.
</event>
<event>
 7    1  0.3568800E-013  0.7246156E+02  0.7816164E-02  0.1226708E+00
        -11   -1    0    0    0    0  0.00000000000E+00  0.00000000000E+00  0.45593999997E+02  0.45594000000E+02  0.51100000000E-03 0.  1.
         11   -1    0    0    0    0 -0.00000000000E+00 -0.00000000000E+00 -0.45593999997E+02  0.45594000000E+02  0.51100000000E-03 0. -1.
    9900012    2    1    2    0    0  0.10128547703E+02 -0.15121587468E+02  0.44079072678E+01  0.72461560600E+02  0.69999987371E+02 0.  0.
        -12    1    1    2    0    0 -0.10128547703E+02  0.15121587468E+02 -0.44079072678E+01  0.18726439400E+02  0.00000000000E+00 0.  1.
         11    1    3    3    0    0  0.10387057562E+02 -0.16682597782E+02  0.59891779142E+00  0.19661097028E+02  0.51100000000E-03 0. -1.
        -11    1    3    3    0    0 -0.43503244058E+01 -0.25195725096E+02  0.10122596602E+01  0.25588562981E+02  0.51100000000E-03 0.  1.
        -12    1    3    3    0    0  0.40918145465E+01  0.26756735410E+02  0.27967298162E+01  0.27211900591E+02  0.00000000000E+00 0.  1.
</event>
<event>
 7    1  0.3568800E-013  0.7246151E+02  0.7816164E-02  0.1226708E+00
        -11   -1    0    0    0    0  0.00000000000E+00  0.00000000000E+00  0.45593999997E+02  0.45594000000E+02  0.51100000000E-03 0. -1.
         11   -1    0    0    0    0 -0.00000000000E+00 -0.00000000000E+00 -0.45593999997E+02  0.45594000000E+02  0.51100000000E-03 0.  1.
    9900012    2    1    2    0    0  0.13911164335E+02 -0.25939329214E+01  0.12265087384E+02  0.72461512084E+02  0.69999924170E+02 0.  0.
        -12    1    1    2    0    0 -0.13911164335E+02  0.25939329214E+01 -0.12265087384E+02  0.18726487916E+02  0.00000000000E+00 0.  1.
         11    1    3    3    0    0  0.67081351324E+01  0.52690061659E+01 -0.66574785568E+01  0.10820514032E+02  0.51100000000E-03 0. -1.
        -11    1    3    3    0    0  0.19699667600E+02 -0.40165572837E+01 -0.15131598569E+02  0.25162967064E+02  0.51100000000E-03 0.  1.
         12    1    3    3    0    0 -0.12496638398E+02 -0.38463818037E+01  0.34054164510E+02  0.36478030987E+02  0.00000000000E+00 0. -1.
</event>
<event>
 7    1  0.3568800E-013  0.7246155E+02  0.7816164E-02  0.1226708E+00
        -11   -1    0    0    0    0  0.00000000000E+00  0.00000000000E+00  0.45593999997E+02  0.45594000000E+02  0.51100000000E-03 0.  1.
         11   -1    0    0    0    0 -0.00000000000E+00 -0.00000000000E+00 -0.45593999997E+02  0.45594000000E+02  0.51100000000E-03 0. -1.
    9900012    2    1    2    0    0 -0.11766848147E+01  0.16767779895E+02 -0.82544978958E+01  0.72461554387E+02  0.69999979278E+02 0.  0.
        -12    1    1    2    0    0  0.11766848147E+01 -0.16767779895E+02  0.82544978958E+01  0.18726445613E+02  0.00000000000E+00 0.  1.
         11    1    3    3    0    0 -0.10810123162E+02  0.15289795772E+02 -0.20393322251E+02  0.27686173629E+02  0.51100000000E-03 0. -1.
        -11    1    3    3    0    0  0.39600334557E+01  0.21090673573E+02  0.91916280270E+00  0.21478902143E+02  0.51100000000E-03 0.  1.
        -12    1    3    3    0    0  0.56734048918E+01 -0.19612689450E+02  0.11219661552E+02  0.23296478615E+02  0.00000000000E+00 0.  1.
</event>
<event>
 7    1  0.3568800E-013  0.7246155E+02  0.7816164E-02  0.1226708E+00
        -11   -1    0    0    0    0  0.00000000000E+00  0.00000000000E+00  0.45593999997E+02  0.45594000000E+02  0.51100000000E-03 0.  1.
         11   -1    0    0    0    0 -0.00000000000E+00 -0.00000000000E+00 -0.45593999997E+02  0.45594000000E+02  0.51100000000E-03 0. -1.
    9900012    2    1    2    0    0 -0.40792933679E+01 -0.12904410913E+02 -0.12942771834E+02  0.72461553510E+02  0.69999978135E+02 0.  0.
        -12    1    1    2    0    0  0.40792933679E+01  0.12904410913E+02  0.12942771834E+02  0.18726446490E+02  0.00000000000E+00 0.  1.
         11    1    3    3    0    0 -0.84250918951E+01 -0.13723550231E+02 -0.22860005848E+02  0.27962436804E+02  0.51100000000E-03 0. -1.
        -11    1    3    3    0    0 -0.61411209316E+01  0.15193986471E+02 -0.88603907105E+01  0.18630005770E+02  0.51100000000E-03 0.  1.
         12    1    3    3    0    0  0.10486919459E+02 -0.14374847153E+02  0.18777624724E+02  0.25869110937E+02  0.00000000000E+00 0. -1.
</event>
<event>
 7    1  0.3568800E-013  0.7246155E+02  0.7816164E-02  0.1226708E+00
        -11   -1    0    0    0    0  0.00000000000E+00  0.00000000000E+00  0.45593999997E+02  0.45594000000E+02  0.51100000000E-03 0. -1.
         11   -1    0    0    0    0 -0.00000000000E+00 -0.00000000000E+00 -0.45593999997E+02  0.45594000000E+02  0.51100000000E-03 0.  1.
    9900012    2    1    2    0    0 -0.18248908733E+02  0.23087336927E+01  0.35109710858E+01  0.72461552414E+02  0.69999976708E+02 0.  0.
        -12    1    1    2    0    0  0.18248908733E+02 -0.23087336927E+01 -0.35109710858E+01  0.18726447586E+02  0.00000000000E+00 0.  1.
         11    1    3    3    0    0  0.18576535532E+01  0.11890996768E+02 -0.17524938234E+01  0.12162150949E+02  0.51100000000E-03 0.  1.
        -11    1    3    3    0    0 -0.40117827620E+01  0.15864185586E+02  0.20762072440E+02  0.26435401217E+02  0.51100000000E-03 0. -1.
         12    1    3    3    0    0 -0.16094779524E+02 -0.25446448661E+02 -0.15498607531E+02  0.33864000248E+02  0.00000000000E+00 0. -1.
</event>
<event>
 7    1  0.3568800E-013  0.7246167E+02  0.7816164E-02  0.1226708E+00
        -11   -1    0    0    0    0  0.00000000000E+00  0.00000000000E+00  0.45593999997E+02  0.45594000000E+02  0.51100000000E-03 0.  1.
         11   -1    0    0    0    0 -0.00000000000E+00 -0.00000000000E+00 -0.45593999997E+02  0.45594000000E+02  0.51100000000E-03 0. -1.
    9900012    2    1    2    0    0  0.10050715899E+02  0.35531873288E+01 -0.15395887468E+02  0.72461671444E+02  0.70000131766E+02 0.  0.
        -12    1    1    2    0    0 -0.10050715899E+02 -0.35531873288E+01  0.15395887468E+02  0.18726328556E+02  0.00000000000E+00 0.  1.
         11    1    3    3    0    0 -0.10252071537E+02 -0.91089622883E+01 -0.34457530938E+01  0.14140416522E+02  0.51100000000E-03 0. -1.
        -11    1    3    3    0    0  0.75731806261E+01 -0.11179823309E+02  0.14979711392E+02  0.20167629203E+02  0.51100000000E-03 0.  1.
         12    1    3    3    0    0  0.12729606809E+02  0.23841972926E+02 -0.26929845766E+02  0.38153625719E+02  0.00000000000E+00 0. -1.
</event>
<event>
 7    1  0.3568800E-013  0.7246120E+02  0.7816164E-02  0.1226709E+00
        -11   -1    0    0    0    0  0.00000000000E+00  0.00000000000E+00  0.45593999997E+02  0.45594000000E+02  0.51100000000E-03 0.  1.
         11   -1    0    0    0    0 -0.00000000000E+00 -0.00000000000E+00 -0.45593999997E+02  0.45594000000E+02  0.51100000000E-03 0. -1.
    9900012    2    1    2    0    0 -0.43506990198E+00  0.12698498494E+02 -0.13756884310E+02  0.72461200601E+02  0.69999518404E+02 0.  0.
        -12    1    1    2    0    0  0.43506990198E+00 -0.12698498494E+02  0.13756884310E+02  0.18726799399E+02  0.00000000000E+00 0.  1.
         11    1    3    3    0    0 -0.16248121800E+02 -0.57351856763E+01 -0.31016710588E+02  0.35481405732E+02  0.51100000000E-03 0. -1.
        -11    1    3    3    0    0  0.99325539878E+01  0.16723523943E+02  0.85545188059E+00  0.19469557776E+02  0.51100000000E-03 0.  1.
        -12    1    3    3    0    0  0.58804979100E+01  0.17101602271E+01  0.16404374398E+02  0.17510237093E+02  0.00000000000E+00 0.  1.
</event>
<event>
 7    1  0.3568800E-013  0.7246156E+02  0.7816164E-02  0.1226708E+00
        -11   -1    0    0    0    0  0.00000000000E+00  0.00000000000E+00  0.45593999997E+02  0.45594000000E+02  0.51100000000E-03 0.  1.
         11   -1    0    0    0    0 -0.00000000000E+00 -0.00000000000E+00 -0.45593999997E+02  0.45594000000E+02  0.51100000000E-03 0. -1.
    9900012    2    1    2    0    0 -0.16122333446E+02 -0.33952344570E+01 -0.89006920341E+01  0.72461559563E+02  0.69999986021E+02 0.  0.
        -12    1    1    2    0    0  0.16122333446E+02  0.33952344570E+01  0.89006920341E+01  0.18726440437E+02  0.00000000000E+00 0.  1.
         11    1    3    3    0    0  0.21641069647E+01 -0.43603576795E-01 -0.75027900016E+01  0.78087846875E+01  0.51100000000E-03 0. -1.
        -11    1    3    3    0    0  0.21512384590E+02  0.89477653703E+00  0.89420408056E+01  0.23314017453E+02  0.51100000000E-03 0.  1.
         12    1    3    3    0    0 -0.39798825000E+02 -0.42464074172E+01 -0.10339942838E+02  0.41338757422E+02  0.00000000000E+00 0. -1.
</event>
<event>
 7    1  0.3568800E-013  0.7246154E+02  0.7816164E-02  0.1226708E+00
        -11   -1    0    0    0    0  0.00000000000E+00  0.00000000000E+00  0.45593999997E+02  0.45594000000E+02  0.51100000000E-03 0. -1.
         11   -1    0    0    0    0 -0.00000000000E+00 -0.00000000000E+00 -0.45593999997E+02  0.45594000000E+02  0.51100000000E-03 0.  1.
    9900012    2    1    2    0    0  0.16278632320E+02  0.83825955523E+01 -0.39266663507E+01  0.72461535116E+02  0.69999954174E+02 0.  0.
        -12    1    1    2    0    0 -0.16278632320E+02 -0.83825955523E+01  0.39266663507E+01  0.18726464884E+02  0.00000000000E+00 0.  1.
         11    1    3    3    0    0  0.25266975659E+01 -0.26330555926E+01  0.22035080852E+01  0.42629368381E+01  0.51100000000E-03 0. -1.
        -11    1    3    3    0    0  0.32683366428E+02 -0.76683001602E+01 -0.19080964038E+02  0.38614614556E+02  0.51100000000E-03 0.  1.
         12    1    3    3    0    0 -0.18931431673E+02  0.18683951305E+02  0.12950789603E+02  0.29583983723E+02  0.00000000000E+00 0. -1.
</event>
<event>
 7    1  0.3568800E-013  0.7246163E+02  0.7816164E-02  0.1226708E+00
        -11   -1    0    0    0    0  0.00000000000E+00  0.00000000000E+00  0.45593999997E+02  0.45594000000E+02  0.51100000000E-03 0.  1.
         11   -1    0    0    0    0 -0.00000000000E+00 -0.00000000000E+00 -0.45593999997E+02  0.45594000000E+02  0.51100000000E-03 0. -1.
    9900012    2    1    2    0    0  0.11632442147E+02  0.10178002949E+02 -0.10572195641E+02  0.72461634229E+02  0.70000083286E+02 0.  0.
        -12    1    1    2    0    0 -0.11632442147E+02 -0.10178002949E+02  0.10572195641E+02  0.18726365771E+02  0.00000000000E+00 0.  1.
         11    1    3    3    0    0 -0.15592784833E+02  0.70133333357E+01 -0.59051045430E+01  0.18088450548E+02  0.51100000000E-03 0. -1.
        -11    1    3    3    0    0  0.32361969909E+02  0.17331787141E+02 -0.10548820285E+02  0.38196407574E+02  0.51100000000E-03 0.  1.
         12    1    3    3    0    0 -0.51367429289E+01 -0.14167117528E+02  0.58817291873E+01  0.16176776107E+02  0.00000000000E+00 0. -1.
</event>
<event>
 7    1  0.3568800E-013  0.7246158E+02  0.7816164E-02  0.1226708E+00
        -11   -1    0    0    0    0  0.00000000000E+00  0.00000000000E+00  0.45593999997E+02  0.45594000000E+02  0.51100000000E-03 0.  1.
         11   -1    0    0    0    0 -0.00000000000E+00 -0.00000000000E+00 -0.45593999997E+02  0.45594000000E+02  0.51100000000E-03 0. -1.
    9900012    2    1    2    0    0  0.84382127434E+01  0.46940790699E+01 -0.16044969808E+02  0.72461578325E+02  0.70000010462E+02 0.  0.
        -12    1    1    2    0    0 -0.84382127434E+01 -0.46940790699E+01  0.16044969808E+02  0.18726421675E+02  0.00000000000E+00 0.  1.
         11    1    3    3    0    0 -0.18039616332E+01  0.73579980720E+01 -0.37504031366E+02  0.38261557498E+02  0.51100000000E-03 0. -1.
        -11    1    3    3    0    0 -0.40926243233E+01  0.86153975247E+00 -0.33315922738E+01  0.53470863035E+01  0.51100000000E-03 0.  1.
        -12    1    3    3    0    0  0.14334798700E+02 -0.35254587546E+01  0.24790653832E+02  0.28852934524E+02  0.00000000000E+00 0.  1.
</event>
<event>
 7    1  0.3568800E-013  0.7246156E+02  0.7816164E-02  0.1226708E+00
        -11   -1    0    0    0    0  0.00000000000E+00  0.00000000000E+00  0.45593999997E+02  0.45594000000E+02  0.51100000000E-03 0.  1.
         11   -1    0    0    0    0 -0.00000000000E+00 -0.00000000000E+00 -0.45593999997E+02  0.45594000000E+02  0.51100000000E-03 0. -1.
    9900012    2    1    2    0    0 -0.10532237044E+02  0.44179386824E+01 -0.14840256890E+02  0.72461563502E+02  0.69999991151E+02 0.  0.
        -12    1    1    2    0    0  0.10532237044E+02 -0.44179386824E+01  0.14840256890E+02  0.18726436498E+02  0.00000000000E+00 0.  1.
         11    1    3    3    0    0 -0.20627021196E+01  0.18397100426E+01 -0.13676650435E+02  0.13953137298E+02  0.51100000000E-03 0. -1.
        -11    1    3    3    0    0 -0.30703420707E+02  0.63714793053E+01 -0.11885624988E+02  0.33534517639E+02  0.51100000000E-03 0.  1.
        -12    1    3    3    0    0  0.22233885782E+02 -0.37932506656E+01  0.10722018533E+02  0.24973908565E+02  0.00000000000E+00 0.  1.
</event>
<event>
 7    1  0.3568800E-013  0.7246155E+02  0.7816164E-02  0.1226708E+00
        -11   -1    0    0    0    0  0.00000000000E+00  0.00000000000E+00  0.45593999997E+02  0.45594000000E+02  0.51100000000E-03 0.  1.
         11   -1    0    0    0    0 -0.00000000000E+00 -0.00000000000E+00 -0.45593999997E+02  0.45594000000E+02  0.51100000000E-03 0. -1.
    9900012    2    1    2    0    0  0.11205235900E+02  0.14843318107E+02 -0.21905278009E+01  0.72461553032E+02  0.69999977512E+02 0.  0.
        -12    1    1    2    0    0 -0.11205235900E+02 -0.14843318107E+02  0.21905278009E+01  0.18726446968E+02  0.00000000000E+00 0.  1.
         11    1    3    3    0    0 -0.22532976653E+01  0.69249373975E+01  0.33614728724E+01  0.80206987514E+01  0.51100000000E-03 0. -1.
        -11    1    3    3    0    0 -0.68454520005E+01 -0.54491291669E+01  0.24367468474E+02  0.25890669012E+02  0.51100000000E-03 0.  1.
         12    1    3    3    0    0  0.20303985566E+02  0.13367509877E+02 -0.29919469148E+02  0.38550185269E+02  0.00000000000E+00 0. -1.
</event>
<event>
 7    1  0.3568800E-013  0.7246162E+02  0.7816164E-02  0.1226708E+00
        -11   -1    0    0    0    0  0.00000000000E+00  0.00000000000E+00  0.45593999997E+02  0.45594000000E+02  0.51100000000E-03 0.  1.
         11   -1    0    0    0    0 -0.00000000000E+00 -0.00000000000E+00 -0.45593999997E+02  0.45594000000E+02  0.51100000000E-03 0. -1.
    9900012    2    1    2    0    0 -0.79661444111E+01  0.79391506256E+01 -0.14972894784E+02  0.72461624279E+02  0.70000070325E+02 0.  0.
        -12    1    1    2    0    0  0.79661444111E+01 -0.79391506256E+01  0.14972894784E+02  0.18726375721E+02  0.00000000000E+00 0.  1.
         11    1    3    3    0    0 -0.12575960310E+02  0.19877012290E+01 -0.89086635768E+01  0.15539305676E+02  0.51100000000E-03 0. -1.
        -11    1    3    3    0    0 -0.25028688958E+02  0.43309686101E+01  0.37133385481E+01  0.25670633874E+02  0.51100000000E-03 0.  1.
        -12    1    3    3    0    0  0.29638504857E+02  0.16204807865E+01 -0.97775697552E+01  0.31251684730E+02  0.00000000000E+00 0.  1.
</event>
<event>
 7    1  0.3568800E-013  0.7246154E+02  0.7816164E-02  0.1226708E+00
        -11   -1    0    0    0    0  0.00000000000E+00  0.00000000000E+00  0.45593999997E+02  0.45594000000E+02  0.51100000000E-03 0.  1.
         11   -1    0    0    0    0 -0.00000000000E+00 -0.00000000000E+00 -0.45593999997E+02  0.45594000000E+02  0.51100000000E-03 0. -1.
    9900012    2    1    2    0    0  0.16960508735E+02  0.71985724575E+01  0.33469308555E+01  0.72461541495E+02  0.69999962484E+02 0.  0.
        -12    1    1    2    0    0 -0.16960508735E+02 -0.71985724575E+01 -0.33469308555E+01  0.18726458505E+02  0.00000000000E+00 0.  1.
         11    1    3    3    0    0 -0.11967764695E+02 -0.10322266370E+02 -0.11305788973E+02  0.19431866596E+02  0.51100000000E-03 0. -1.
        -11    1    3    3    0    0  0.46259396170E+01 -0.10643858072E+02  0.10406350164E+02  0.15587916987E+02  0.51100000000E-03 0.  1.
        -12    1    3    3    0    0  0.24302333814E+02  0.28164696900E+02  0.42463696643E+01  0.37441757912E+02  0.00000000000E+00 0.  1.
</event>
<event>
 7    1  0.3568800E-013  0.7246116E+02  0.7816164E-02  0.1226709E+00
        -11   -1    0    0    0    0  0.00000000000E+00  0.00000000000E+00  0.45593999997E+02  0.45594000000E+02  0.51100000000E-03 0.  1.
         11   -1    0    0    0    0 -0.00000000000E+00 -0.00000000000E+00 -0.45593999997E+02  0.45594000000E+02  0.51100000000E-03 0. -1.
    9900012    2    1    2    0    0 -0.69557302976E+01 -0.15368869959E+02 -0.81308136653E+01  0.72461161542E+02  0.69999467522E+02 0.  0.
        -12    1    1    2    0    0  0.69557302976E+01  0.15368869959E+02  0.81308136653E+01  0.18726838458E+02  0.00000000000E+00 0.  1.
         11    1    3    3    0    0  0.14484167649E+02 -0.40981452013E+01 -0.12437247052E+02  0.19526162477E+02  0.51100000000E-03 0. -1.
        -11    1    3    3    0    0  0.12017127413E+02  0.62207274723E+01  0.67120477512E+01  0.15104978875E+02  0.51100000000E-03 0.  1.
        -12    1    3    3    0    0 -0.33457025360E+02 -0.17491452230E+02 -0.24056143641E+01  0.37830020189E+02  0.00000000000E+00 0.  1.
</event>
<event>
 7    1  0.3568800E-013  0.7246155E+02  0.7816164E-02  0.1226708E+00
        -11   -1    0    0    0    0  0.00000000000E+00  0.00000000000E+00  0.45593999997E+02  0.45594000000E+02  0.51100000000E-03 0.  1.
         11   -1    0    0    0    0 -0.00000000000E+00 -0.00000000000E+00 -0.45593999997E+02  0.45594000000E+02  0.51100000000E-03 0. -1.
    9900012    2    1    2    0    0  0.14306748236E+02 -0.83059707037E+01  0.87753951680E+01  0.72461554668E+02  0.69999979644E+02 0.  0.
        -12    1    1    2    0    0 -0.14306748236E+02  0.83059707037E+01 -0.87753951680E+01  0.18726445332E+02  0.00000000000E+00 0.  1.
         11    1    3    3    0    0  0.47277643420E+01  0.14029529046E+02  0.62988982251E+01  0.16088988782E+02  0.51100000000E-03 0. -1.
        -11    1    3    3    0    0  0.47854180431E+01  0.16490529484E+02 -0.39997360168E-01  0.17170887821E+02  0.51100000000E-03 0.  1.
         12    1    3    3    0    0  0.47935658507E+01 -0.38826029233E+02  0.25164943030E+01  0.39201678065E+02  0.00000000000E+00 0. -1.
</event>
<event>
 7    1  0.3568800E-013  0.7246158E+02  0.7816164E-02  0.1226708E+00
        -11   -1    0    0    0    0  0.00000000000E+00  0.00000000000E+00  0.45593999997E+02  0.45594000000E+02  0.51100000000E-03 0. -1.
         11   -1    0    0    0    0 -0.00000000000E+00 -0.00000000000E+00 -0.45593999997E+02  0.45594000000E+02  0.51100000000E-03 0.  1.
    9900012    2    1    2    0    0 -0.10878086274E+01 -0.17759594560E+02  0.58388625395E+01  0.72461579032E+02  0.70000011382E+02 0.  0.
        -12    1    1    2    0    0  0.10878086274E+01  0.17759594560E+02 -0.58388625395E+01  0.18726420968E+02  0.00000000000E+00 0.  1.
         11    1    3    3    0    0  0.44570884367E+01 -0.21658145430E+02  0.66974212241E+01  0.23104033244E+02  0.51100000000E-03 0. -1.
        -11    1    3    3    0    0 -0.11941565317E+02 -0.88914433819E+01  0.19465624296E+02  0.24506514994E+02  0.51100000000E-03 0.  1.
        -12    1    3    3    0    0  0.63966682525E+01  0.12789994252E+02 -0.20324182981E+02  0.24851030794E+02  0.00000000000E+00 0.  1.
</event>
<event>
 7    1  0.4625696E-013  0.7246158E+02  0.7816164E-02  0.1226708E+00
        -11   -1    0    0    0    0  0.00000000000E+00  0.00000000000E+00  0.45593999997E+02  0.45594000000E+02  0.51100000000E-03 0. -1.
         11   -1    0    0    0    0 -0.00000000000E+00 -0.00000000000E+00 -0.45593999997E+02  0.45594000000E+02  0.51100000000E-03 0.  1.
    9900012    2    1    2    0    0 -0.38186053673E+01 -0.30465179299E+01  0.18078048957E+02  0.72461578224E+02  0.70000010330E+02 0.  0.
        -12    1    1    2    0    0  0.38186053673E+01  0.30465179299E+01 -0.18078048957E+02  0.18726421776E+02  0.00000000000E+00 0.  1.
         11    1    3    3    0    0 -0.27153999560E+01  0.25027434829E+00  0.33989866172E+02  0.34099076774E+02  0.51100000000E-03 0. -1.
        -11    1    3    3    0    0  0.78964674622E+01  0.49124155428E+01  0.75158560683E+01  0.11957178494E+02  0.51100000000E-03 0.  1.
        -12    1    3    3    0    0 -0.89996728735E+01 -0.82092078210E+01 -0.23427673284E+02  0.26405322955E+02  0.00000000000E+00 0.  1.
</event>
<event>
 7    1  0.3568800E-013  0.7246221E+02  0.7816164E-02  0.1226706E+00
        -11   -1    0    0    0    0  0.00000000000E+00  0.00000000000E+00  0.45593999997E+02  0.45594000000E+02  0.51100000000E-03 0.  1.
         11   -1    0    0    0    0 -0.00000000000E+00 -0.00000000000E+00 -0.45593999997E+02  0.45594000000E+02  0.51100000000E-03 0. -1.
    9900012    2    1    2    0    0 -0.16966857314E+02 -0.19427072777E+01 -0.76815804681E+01  0.72462214645E+02  0.70000839381E+02 0.  0.
        -12    1    1    2    0    0  0.16966857314E+02  0.19427072777E+01  0.76815804681E+01  0.18725785355E+02  0.00000000000E+00 0.  1.
         11    1    3    3    0    0 -0.34449934104E+01 -0.14384769818E+02 -0.58765366362E+01  0.15916132238E+02  0.51100000000E-03 0. -1.
        -11    1    3    3    0    0 -0.15797306139E+02 -0.38363790313E+00  0.23364032420E+02  0.28206028974E+02  0.51100000000E-03 0.  1.
         12    1    3    3    0    0  0.22754422356E+01  0.12825700444E+02 -0.25169076251E+02  0.28340053433E+02  0.00000000000E+00 0. -1.
</event>
<event>
 7    1  0.3568800E-013  0.7246159E+02  0.7816164E-02  0.1226708E+00
        -11   -1    0    0    0    0  0.00000000000E+00  0.00000000000E+00  0.45593999997E+02  0.45594000000E+02  0.51100000000E-03 0.  1.
         11   -1    0    0    0    0 -0.00000000000E+00 -0.00000000000E+00 -0.45593999997E+02  0.45594000000E+02  0.51100000000E-03 0. -1.
    9900012    2    1    2    0    0  0.10514199686E+02  0.15287153758E+02 -0.25362968458E+01  0.72461594399E+02  0.70000031401E+02 0.  0.
        -12    1    1    2    0    0 -0.10514199686E+02 -0.15287153758E+02  0.25362968458E+01  0.18726405601E+02  0.00000000000E+00 0.  1.
         11    1    3    3    0    0 -0.33686901829E+01  0.55373462402E+01 -0.88867112230E+01  0.10999268774E+02  0.51100000000E-03 0. -1.
        -11    1    3    3    0    0  0.16042991294E+02  0.60357462383E+01 -0.24728232055E+02  0.30088091716E+02  0.51100000000E-03 0.  1.
         12    1    3    3    0    0 -0.21601014251E+01  0.37140612790E+01  0.31078646432E+02  0.31374233909E+02  0.00000000000E+00 0. -1.
</event>
<event>
 7    1  0.3568800E-013  0.7246152E+02  0.7816164E-02  0.1226708E+00
        -11   -1    0    0    0    0  0.00000000000E+00  0.00000000000E+00  0.45593999997E+02  0.45594000000E+02  0.51100000000E-03 0.  1.
         11   -1    0    0    0    0 -0.00000000000E+00 -0.00000000000E+00 -0.45593999997E+02  0.45594000000E+02  0.51100000000E-03 0. -1.
    9900012    2    1    2    0    0  0.18207948732E+02 -0.22360017465E+01  0.37619035205E+01  0.72461520914E+02  0.69999935673E+02 0.  0.
        -12    1    1    2    0    0 -0.18207948732E+02  0.22360017465E+01 -0.37619035205E+01  0.18726479086E+02  0.00000000000E+00 0.  1.
         11    1    3    3    0    0 -0.16411273997E+02 -0.74544677711E+00 -0.64181404839E+01  0.17637407197E+02  0.51100000000E-03 0. -1.
        -11    1    3    3    0    0  0.14297878260E+02  0.38473846876E+00  0.25546532260E+02  0.29278023451E+02  0.51100000000E-03 0.  1.
         12    1    3    3    0    0  0.20321344470E+02 -0.18752934381E+01 -0.15366488256E+02  0.25546090266E+02  0.00000000000E+00 0. -1.
</event>
<event>
 7    1  0.3568800E-013  0.7246156E+02  0.7816164E-02  0.1226708E+00
        -11   -1    0    0    0    0  0.00000000000E+00  0.00000000000E+00  0.45593999997E+02  0.45594000000E+02  0.51100000000E-03 0. -1.
         11   -1    0    0    0    0 -0.00000000000E+00 -0.00000000000E+00 -0.45593999997E+02  0.45594000000E+02  0.51100000000E-03 0.  1.
    9900012    2    1    2    0    0  0.72869954770E+01 -0.60052040905E+01  0.16171484195E+02  0.72461556656E+02  0.69999982233E+02 0.  0.
        -12    1    1    2    0    0 -0.72869954770E+01  0.60052040905E+01 -0.16171484195E+02  0.18726443344E+02  0.00000000000E+00 0.  1.
         11    1    3    3    0    0  0.67007300823E+01 -0.91032661027E+01  0.71709504044E+00  0.11326228981E+02  0.51100000000E-03 0. -1.
        -11    1    3    3    0    0 -0.99694499313E+01 -0.22421063668E+02 -0.70286637537E+01  0.25524422468E+02  0.51100000000E-03 0.  1.
         12    1    3    3    0    0  0.10555715326E+02  0.25519125680E+02  0.22483052909E+02  0.35610905206E+02  0.00000000000E+00 0. -1.
</event>
<event>
 7    1  0.3568800E-013  0.7246157E+02  0.7816164E-02  0.1226708E+00
        -11   -1    0    0    0    0  0.00000000000E+00  0.00000000000E+00  0.45593999997E+02  0.45594000000E+02  0.51100000000E-03 0. -1.
         11   -1    0    0    0    0 -0.00000000000E+00 -0.00000000000E+00 -0.45593999997E+02  0.45594000000E+02  0.51100000000E-03 0.  1.
    9900012    2    1    2    0    0 -0.50872109196E+01 -0.15643687297E+02  0.89484270818E+01  0.72461574436E+02  0.70000005395E+02 0.  0.
        -12    1    1    2    0    0  0.50872109196E+01  0.15643687297E+02 -0.89484270818E+01  0.18726425564E+02  0.00000000000E+00 0.  1.
         11    1    3    3    0    0 -0.38298093772E+01 -0.76721361631E+00  0.58554319429E+01  0.70386177690E+01  0.51100000000E-03 0. -1.
        -11    1    3    3    0    0 -0.12761781219E+02 -0.34412332479E+02  0.15195020785E+02  0.39723548979E+02  0.51100000000E-03 0.  1.
        -12    1    3    3    0    0  0.11504379676E+02  0.19535858799E+02 -0.12102025647E+02  0.25699407688E+02  0.00000000000E+00 0.  1.
</event>
<event>
 7    1  0.3568800E-013  0.7246157E+02  0.7816164E-02  0.1226708E+00
        -11   -1    0    0    0    0  0.00000000000E+00  0.00000000000E+00  0.45593999997E+02  0.45594000000E+02  0.51100000000E-03 0. -1.
         11   -1    0    0    0    0 -0.00000000000E+00 -0.00000000000E+00 -0.45593999997E+02  0.45594000000E+02  0.51100000000E-03 0.  1.
    9900012    2    1    2    0    0  0.15943143199E+01  0.14499664688E+02  0.11742964606E+02  0.72461565958E+02  0.69999994351E+02 0.  0.
        -12    1    1    2    0    0 -0.15943143199E+01 -0.14499664688E+02 -0.11742964606E+02  0.18726434042E+02  0.00000000000E+00 0.  1.
         11    1    3    3    0    0 -0.20525710576E+02 -0.84803535778E+01 -0.10325078204E+02  0.24491395053E+02  0.51100000000E-03 0. -1.
        -11    1    3    3    0    0  0.16139335970E+02 -0.53254316740E+00  0.15980758670E+01  0.16227002635E+02  0.51100000000E-03 0.  1.
         12    1    3    3    0    0  0.59806889267E+01  0.23512561433E+02  0.20469966943E+02  0.31743168270E+02  0.00000000000E+00 0. -1.
</event>
<event>
 7    1  0.3568800E-013  0.7246155E+02  0.7816164E-02  0.1226708E+00
        -11   -1    0    0    0    0  0.00000000000E+00  0.00000000000E+00  0.45593999997E+02  0.45594000000E+02  0.51100000000E-03 0.  1.
         11   -1    0    0    0    0 -0.00000000000E+00 -0.00000000000E+00 -0.45593999997E+02  0.45594000000E+02  0.51100000000E-03 0. -1.
    9900012    2    1    2    0    0  0.14533006928E+02 -0.92197933980E+00 -0.11773774639E+02  0.72461545303E+02  0.69999967444E+02 0.  0.
        -12    1    1    2    0    0 -0.14533006928E+02  0.92197933980E+00  0.11773774639E+02  0.18726454697E+02  0.00000000000E+00 0.  1.
         11    1    3    3    0    0  0.11824891552E+02  0.27368951086E+02 -0.44122155992E+01  0.30138931476E+02  0.51100000000E-03 0. -1.
        -11    1    3    3    0    0  0.29511523575E+01  0.23076508914E+01 -0.10893717885E+02  0.11519880316E+02  0.51100000000E-03 0.  1.
        -12    1    3    3    0    0 -0.24303698200E+00 -0.30598581317E+02  0.35321588452E+01  0.30802733511E+02  0.00000000000E+00 0.  1.
</event>
<event>
 7    1  0.3568800E-013  0.7246158E+02  0.7816164E-02  0.1226708E+00
        -11   -1    0    0    0    0  0.00000000000E+00  0.00000000000E+00  0.45593999997E+02  0.45594000000E+02  0.51100000000E-03 0. -1.
         11   -1    0    0    0    0 -0.00000000000E+00 -0.00000000000E+00 -0.45593999997E+02  0.45594000000E+02  0.51100000000E-03 0.  1.
    9900012    2    1    2    0    0  0.80113342937E+01  0.52626796230E+01  0.16087305856E+02  0.72461583267E+02  0.70000016899E+02 0.  0.
        -12    1    1    2    0    0 -0.80113342937E+01 -0.52626796230E+01 -0.16087305856E+02  0.18726416733E+02  0.00000000000E+00 0.  1.
         11    1    3    3    0    0  0.32141855390E+02 -0.10723677337E+02  0.14071444260E+02  0.36689258201E+02  0.51100000000E-03 0. -1.
        -11    1    3    3    0    0  0.20103168250E+01  0.49263296349E+01 -0.41236888164E+01  0.67316348033E+01  0.51100000000E-03 0.  1.
        -12    1    3    3    0    0 -0.26140837921E+02  0.11060027325E+02  0.61395504120E+01  0.29040690262E+02  0.00000000000E+00 0.  1.
</event>
<event>
 7    1  0.3568800E-013  0.7246156E+02  0.7816164E-02  0.1226708E+00
        -11   -1    0    0    0    0  0.00000000000E+00  0.00000000000E+00  0.45593999997E+02  0.45594000000E+02  0.51100000000E-03 0.  1.
         11   -1    0    0    0    0 -0.00000000000E+00 -0.00000000000E+00 -0.45593999997E+02  0.45594000000E+02  0.51100000000E-03 0. -1.
    9900012    2    1    2    0    0  0.30681925878E+00 -0.11877987109E+02 -0.14474081023E+02  0.72461555135E+02  0.69999980252E+02 0.  0.
        -12    1    1    2    0    0 -0.30681925878E+00  0.11877987109E+02  0.14474081023E+02  0.18726444865E+02  0.00000000000E+00 0.  1.
         11    1    3    3    0    0  0.21903986868E+02 -0.94151371127E+01 -0.77040345271E+01  0.25055570156E+02  0.51100000000E-03 0. -1.
        -11    1    3    3    0    0  0.96953281609E+01 -0.22659659051E+01 -0.12091874724E+02  0.15663569971E+02  0.51100000000E-03 0.  1.
        -12    1    3    3    0    0 -0.31292495770E+02 -0.19688409141E+00  0.53218282285E+01  0.31742415008E+02  0.00000000000E+00 0.  1.
</event>
<event>
 7    1  0.3568800E-013  0.7246159E+02  0.7816164E-02  0.1226708E+00
        -11   -1    0    0    0    0  0.00000000000E+00  0.00000000000E+00  0.45593999997E+02  0.45594000000E+02  0.51100000000E-03 0. -1.
         11   -1    0    0    0    0 -0.00000000000E+00 -0.00000000000E+00 -0.45593999997E+02  0.45594000000E+02  0.51100000000E-03 0.  1.
    9900012    2    1    2    0    0  0.44479462921E+01 -0.15260135999E+02 -0.99006320876E+01  0.72461588367E+02  0.70000023543E+02 0.  0.
        -12    1    1    2    0    0 -0.44479462921E+01  0.15260135999E+02  0.99006320876E+01  0.18726411633E+02  0.00000000000E+00 0.  1.
         11    1    3    3    0    0 -0.26984914015E+01 -0.27359662410E+02 -0.13245837880E+01  0.27524307539E+02  0.51100000000E-03 0. -1.
        -11    1    3    3    0    0  0.12652135495E+02 -0.10767136637E+02  0.55321092947E+01  0.17510339730E+02  0.51100000000E-03 0.  1.
        -12    1    3    3    0    0 -0.55056978013E+01  0.22866663049E+02 -0.14108157594E+02  0.27426941098E+02  0.00000000000E+00 0.  1.
</event>
<event>
 7    1  0.3568800E-013  0.7246163E+02  0.7816164E-02  0.1226708E+00
        -11   -1    0    0    0    0  0.00000000000E+00  0.00000000000E+00  0.45593999997E+02  0.45594000000E+02  0.51100000000E-03 0.  1.
         11   -1    0    0    0    0 -0.00000000000E+00 -0.00000000000E+00 -0.45593999997E+02  0.45594000000E+02  0.51100000000E-03 0. -1.
    9900012    2    1    2    0    0  0.44248810164E+01  0.11526827915E+02 -0.14079399538E+02  0.72461632890E+02  0.70000081542E+02 0.  0.
        -12    1    1    2    0    0 -0.44248810164E+01 -0.11526827915E+02  0.14079399538E+02  0.18726367110E+02  0.00000000000E+00 0.  1.
         11    1    3    3    0    0  0.72429209861E+01  0.69588751029E+01 -0.33414072366E+01  0.10585407394E+02  0.51100000000E-03 0. -1.
        -11    1    3    3    0    0  0.25189565762E+02 -0.10606459892E+02 -0.12326290985E+02  0.29982472621E+02  0.51100000000E-03 0.  1.
         12    1    3    3    0    0 -0.28007605732E+02  0.15174412704E+02  0.15882986841E+01  0.31893752875E+02  0.00000000000E+00 0. -1.
</event>
<event>
 7    1  0.3568800E-013  0.7246215E+02  0.7816164E-02  0.1226706E+00
        -11   -1    0    0    0    0  0.00000000000E+00  0.00000000000E+00  0.45593999997E+02  0.45594000000E+02  0.51100000000E-03 0.  1.
         11   -1    0    0    0    0 -0.00000000000E+00 -0.00000000000E+00 -0.45593999997E+02  0.45594000000E+02  0.51100000000E-03 0. -1.
    9900012    2    1    2    0    0 -0.89308502791E+01 -0.13942140453E+02 -0.87472303801E+01  0.72462151383E+02  0.70000756971E+02 0.  0.
        -12    1    1    2    0    0  0.89308502791E+01  0.13942140453E+02  0.87472303801E+01  0.18725848617E+02  0.00000000000E+00 0.  1.
         11    1    3    3    0    0 -0.17449850770E+02 -0.14115961983E+02  0.86659996611E-01  0.22444713961E+02  0.51100000000E-03 0. -1.
        -11    1    3    3    0    0  0.25432770624E+02  0.81970613587E+00  0.74662991353E+01  0.26518736071E+02  0.51100000000E-03 0.  1.
         12    1    3    3    0    0 -0.16913770133E+02 -0.64588460589E+00 -0.16300189512E+02  0.23498701351E+02  0.00000000000E+00 0. -1.
</event>
<event>
 7    1  0.3568800E-013  0.7246159E+02  0.7816164E-02  0.1226708E+00
        -11   -1    0    0    0    0  0.00000000000E+00  0.00000000000E+00  0.45593999997E+02  0.45594000000E+02  0.51100000000E-03 0.  1.
         11   -1    0    0    0    0 -0.00000000000E+00 -0.00000000000E+00 -0.45593999997E+02  0.45594000000E+02  0.51100000000E-03 0. -1.
    9900012    2    1    2    0    0 -0.10914730371E+02 -0.63452668734E+01 -0.13830570124E+02  0.72461590288E+02  0.70000026045E+02 0.  0.
        -12    1    1    2    0    0  0.10914730371E+02  0.63452668734E+01  0.13830570124E+02  0.18726409712E+02  0.00000000000E+00 0.  1.
         11    1    3    3    0    0 -0.24922070049E+02  0.14077603201E+02 -0.25687825252E+02  0.38459756289E+02  0.51100000000E-03 0. -1.
        -11    1    3    3    0    0  0.88186085923E+01 -0.38370529648E+01 -0.40566504987E+01  0.10437779768E+02  0.51100000000E-03 0.  1.
        -12    1    3    3    0    0  0.51887310861E+01 -0.16585817109E+02  0.15913905627E+02  0.23564054230E+02  0.00000000000E+00 0.  1.
</event>
<event>
 7    1  0.3568800E-013  0.7246152E+02  0.7816164E-02  0.1226708E+00
        -11   -1    0    0    0    0  0.00000000000E+00  0.00000000000E+00  0.45593999997E+02  0.45594000000E+02  0.51100000000E-03 0. -1.
         11   -1    0    0    0    0 -0.00000000000E+00 -0.00000000000E+00 -0.45593999997E+02  0.45594000000E+02  0.51100000000E-03 0.  1.
    9900012    2    1    2    0    0  0.12842182633E+02  0.95561005813E+01  0.97180389537E+01  0.72461521575E+02  0.69999936534E+02 0.  0.
        -12    1    1    2    0    0 -0.12842182633E+02 -0.95561005813E+01 -0.97180389537E+01  0.18726478425E+02  0.00000000000E+00 0.  1.
         11    1    3    3    0    0 -0.13364781216E+01 -0.12799887358E+02  0.18075053804E+01  0.12995782628E+02  0.51100000000E-03 0. -1.
        -11    1    3    3    0    0  0.57322557105E+01 -0.51778980525E+00 -0.20925387967E+02  0.21702505008E+02  0.51100000000E-03 0.  1.
        -12    1    3    3    0    0  0.84464050442E+01  0.22873777744E+02  0.28835921540E+02  0.37763233939E+02  0.00000000000E+00 0.  1.
</event>
<event>
 7    1  0.3568800E-013  0.7246149E+02  0.7816164E-02  0.1226708E+00
        -11   -1    0    0    0    0  0.00000000000E+00  0.00000000000E+00  0.45593999997E+02  0.45594000000E+02  0.51100000000E-03 0.  1.
         11   -1    0    0    0    0 -0.00000000000E+00 -0.00000000000E+00 -0.45593999997E+02  0.45594000000E+02  0.51100000000E-03 0. -1.
    9900012    2    1    2    0    0  0.54029090547E+01 -0.13174151281E+02 -0.12162755756E+02  0.72461486288E+02  0.69999890566E+02 0.  0.
        -12    1    1    2    0    0 -0.54029090547E+01  0.13174151281E+02  0.12162755756E+02  0.18726513712E+02  0.00000000000E+00 0.  1.
         11    1    3    3    0    0 -0.69391599119E+01 -0.85619232321E+01 -0.20434671426E+02  0.23217111497E+02  0.51100000000E-03 0. -1.
        -11    1    3    3    0    0 -0.14165075898E+02 -0.14483413991E+02  0.35474969936E+01  0.20567046244E+02  0.51100000000E-03 0.  1.
        -12    1    3    3    0    0  0.26507144865E+02  0.98711859423E+01  0.47244186766E+01  0.28677328547E+02  0.00000000000E+00 0.  1.
</event>
<event>
 7    1  0.3568800E-013  0.7246159E+02  0.7816164E-02  0.1226708E+00
        -11   -1    0    0    0    0  0.00000000000E+00  0.00000000000E+00  0.45593999997E+02  0.45594000000E+02  0.51100000000E-03 0.  1.
         11   -1    0    0    0    0 -0.00000000000E+00 -0.00000000000E+00 -0.45593999997E+02  0.45594000000E+02  0.51100000000E-03 0. -1.
    9900012    2    1    2    0    0 -0.38794034692E+01  0.15411526500E+02 -0.99052201548E+01  0.72461593333E+02  0.70000030012E+02 0.  0.
        -12    1    1    2    0    0  0.38794034692E+01 -0.15411526500E+02  0.99052201548E+01  0.18726406667E+02  0.00000000000E+00 0.  1.
         11    1    3    3    0    0  0.29056326068E+01  0.44877518504E+01  0.72908686298E+01  0.90409835280E+01  0.51100000000E-03 0. -1.
        -11    1    3    3    0    0 -0.65688865417E+01 -0.18639076759E+02  0.10956660236E+02  0.22596766508E+02  0.51100000000E-03 0.  1.
         12    1    3    3    0    0 -0.21614953426E+00  0.29562851409E+02 -0.28152749021E+02  0.40823843297E+02  0.00000000000E+00 0. -1.
</event>
<event>
 7    1  0.3568800E-013  0.7246162E+02  0.7816164E-02  0.1226708E+00
        -11   -1    0    0    0    0  0.00000000000E+00  0.00000000000E+00  0.45593999997E+02  0.45594000000E+02  0.51100000000E-03 0.  1.
         11   -1    0    0    0    0 -0.00000000000E+00 -0.00000000000E+00 -0.45593999997E+02  0.45594000000E+02  0.51100000000E-03 0. -1.
    9900012    2    1    2    0    0 -0.49029647377E+01 -0.16531948546E+02 -0.73029492739E+01  0.72461616098E+02  0.70000059667E+02 0.  0.
        -12    1    1    2    0    0  0.49029647377E+01  0.16531948546E+02  0.73029492739E+01  0.18726383902E+02  0.00000000000E+00 0.  1.
         11    1    3    3    0    0  0.64559408528E+01 -0.55840571076E+01 -0.22114316661E+02  0.23704511548E+02  0.51100000000E-03 0. -1.
        -11    1    3    3    0    0  0.37467103310E+01  0.14959173315E+02  0.25872465481E+00  0.15423412180E+02  0.51100000000E-03 0.  1.
        -12    1    3    3    0    0 -0.15105615921E+02 -0.25907064753E+02  0.14552642733E+02  0.33333692370E+02  0.00000000000E+00 0.  1.
</event>
<event>
 7    1  0.3568800E-013  0.7246160E+02  0.7816164E-02  0.1226708E+00
        -11   -1    0    0    0    0  0.00000000000E+00  0.00000000000E+00  0.45593999997E+02  0.45594000000E+02  0.51100000000E-03 0.  1.
         11   -1    0    0    0    0 -0.00000000000E+00 -0.00000000000E+00 -0.45593999997E+02  0.45594000000E+02  0.51100000000E-03 0. -1.
    9900012    2    1    2    0    0  0.18358152643E+02  0.25303689869E+01 -0.26932648916E+01  0.72461595875E+02  0.70000033324E+02 0.  0.
        -12    1    1    2    0    0 -0.18358152643E+02 -0.25303689869E+01  0.26932648916E+01  0.18726404125E+02  0.00000000000E+00 0.  1.
         11    1    3    3    0    0  0.16432718847E+02 -0.75262736399E+01 -0.45212599070E+01  0.18631179110E+02  0.51100000000E-03 0. -1.
        -11    1    3    3    0    0  0.25337737485E+02  0.14561586618E+02  0.54116465868E+01  0.29720811979E+02  0.51100000000E-03 0.  1.
         12    1    3    3    0    0 -0.23412303688E+02 -0.45049439910E+01 -0.35836515714E+01  0.24109604786E+02  0.00000000000E+00 0. -1.
</event>
<event>
 7    1  0.3568800E-013  0.7246162E+02  0.7816164E-02  0.1226708E+00
        -11   -1    0    0    0    0  0.00000000000E+00  0.00000000000E+00  0.45593999997E+02  0.45594000000E+02  0.51100000000E-03 0.  1.
         11   -1    0    0    0    0 -0.00000000000E+00 -0.00000000000E+00 -0.45593999997E+02  0.45594000000E+02  0.51100000000E-03 0. -1.
    9900012    2    1    2    0    0  0.84112905899E+01  0.12553695949E+02 -0.11060385663E+02  0.72461622284E+02  0.70000067726E+02 0.  0.
        -12    1    1    2    0    0 -0.84112905899E+01 -0.12553695949E+02  0.11060385663E+02  0.18726377716E+02  0.00000000000E+00 0.  1.
         11    1    3    3    0    0 -0.19725342000E+02  0.18849236629E+02 -0.92343312343E+01  0.28803744759E+02  0.51100000000E-03 0. -1.
        -11    1    3    3    0    0  0.12566621967E+02 -0.70246269901E+01 -0.16744074948E+02  0.22082332715E+02  0.51100000000E-03 0.  1.
        -12    1    3    3    0    0  0.15570010623E+02  0.72908630929E+00  0.14918020520E+02  0.21575544811E+02  0.00000000000E+00 0.  1.
</event>
<event>
 7    1  0.3568800E-013  0.7246152E+02  0.7816164E-02  0.1226708E+00
        -11   -1    0    0    0    0  0.00000000000E+00  0.00000000000E+00  0.45593999997E+02  0.45594000000E+02  0.51100000000E-03 0. -1.
         11   -1    0    0    0    0 -0.00000000000E+00 -0.00000000000E+00 -0.45593999997E+02  0.45594000000E+02  0.51100000000E-03 0.  1.
    9900012    2    1    2    0    0 -0.55361228891E+01  0.39316787268E+01  0.17452061230E+02  0.72461516202E+02  0.69999929535E+02 0.  0.
        -12    1    1    2    0    0  0.55361228891E+01 -0.39316787268E+01 -0.17452061230E+02  0.18726483798E+02  0.00000000000E+00 0.  1.
         11    1    3    3    0    0 -0.98905051772E+01 -0.23017679667E+01 -0.67947111712E+01  0.12218360307E+02  0.51100000000E-03 0. -1.
        -11    1    3    3    0    0 -0.14916086782E+02  0.11175880585E+02 -0.96130752008E+01  0.20971436928E+02  0.51100000000E-03 0.  1.
         12    1    3    3    0    0  0.19270469071E+02 -0.49424338921E+01  0.33859847602E+02  0.39271718967E+02  0.00000000000E+00 0. -1.
</event>
<event>
 7    1  0.3568800E-013  0.7246158E+02  0.7816164E-02  0.1226708E+00
        -11   -1    0    0    0    0  0.00000000000E+00  0.00000000000E+00  0.45593999997E+02  0.45594000000E+02  0.51100000000E-03 0.  1.
         11   -1    0    0    0    0 -0.00000000000E+00 -0.00000000000E+00 -0.45593999997E+02  0.45594000000E+02  0.51100000000E-03 0. -1.
    9900012    2    1    2    0    0 -0.15959522153E+02  0.20627377206E+01 -0.95769245930E+01  0.72461582326E+02  0.70000015673E+02 0.  0.
        -12    1    1    2    0    0  0.15959522153E+02 -0.20627377206E+01  0.95769245930E+01  0.18726417674E+02  0.00000000000E+00 0.  1.
         11    1    3    3    0    0  0.21085153570E+01  0.84631821854E+01 -0.18164811283E+02  0.20150227267E+02  0.51100000000E-03 0. -1.
        -11    1    3    3    0    0  0.84466027768E+01 -0.17715570036E+01 -0.14484116667E+02  0.16860401791E+02  0.51100000000E-03 0.  1.
        -12    1    3    3    0    0 -0.26514640287E+02 -0.46288874613E+01  0.23072003357E+02  0.35450953267E+02  0.00000000000E+00 0.  1.
</event>
<event>
 7    1  0.3568800E-013  0.7246156E+02  0.7816164E-02  0.1226708E+00
        -11   -1    0    0    0    0  0.00000000000E+00  0.00000000000E+00  0.45593999997E+02  0.45594000000E+02  0.51100000000E-03 0.  1.
         11   -1    0    0    0    0 -0.00000000000E+00 -0.00000000000E+00 -0.45593999997E+02  0.45594000000E+02  0.51100000000E-03 0. -1.
    9900012    2    1    2    0    0  0.16440150533E+02  0.65902751763E+01 -0.60802339496E+01  0.72461560901E+02  0.69999987763E+02 0.  0.
        -12    1    1    2    0    0 -0.16440150533E+02 -0.65902751763E+01  0.60802339496E+01  0.18726439099E+02  0.00000000000E+00 0.  1.
         11    1    3    3    0    0 -0.48572272761E+01  0.13836946234E+02  0.10908988300E+02  0.18277301877E+02  0.51100000000E-03 0. -1.
        -11    1    3    3    0    0  0.27149692055E+02  0.19864845972E+01  0.67520536895E+01  0.28047141191E+02  0.51100000000E-03 0.  1.
         12    1    3    3    0    0 -0.58523142453E+01 -0.92331556552E+01 -0.23741275939E+02  0.26137117833E+02  0.00000000000E+00 0. -1.
</event>
<event>
 7    1  0.3568800E-013  0.7246168E+02  0.7816164E-02  0.1226708E+00
        -11   -1    0    0    0    0  0.00000000000E+00  0.00000000000E+00  0.45593999997E+02  0.45594000000E+02  0.51100000000E-03 0.  1.
         11   -1    0    0    0    0 -0.00000000000E+00 -0.00000000000E+00 -0.45593999997E+02  0.45594000000E+02  0.51100000000E-03 0. -1.
    9900012    2    1    2    0    0  0.71244826544E+01  0.17194875684E+02  0.20622521919E+01  0.72461684639E+02  0.70000148955E+02 0.  0.
        -12    1    1    2    0    0 -0.71244826544E+01 -0.17194875684E+02 -0.20622521919E+01  0.18726315361E+02  0.00000000000E+00 0.  1.
         11    1    3    3    0    0  0.26626103801E+02 -0.10752025725E+02  0.94006822164E+01  0.30214703163E+02  0.51100000000E-03 0. -1.
        -11    1    3    3    0    0 -0.10760712011E+02 -0.11646373237E+01  0.57318900234E+00  0.10838719896E+02  0.51100000000E-03 0.  1.
        -12    1    3    3    0    0 -0.87409091357E+01  0.29111538733E+02 -0.79116190268E+01  0.31408261581E+02  0.00000000000E+00 0.  1.
</event>
<event>
 7    1  0.3568800E-013  0.7246158E+02  0.7816164E-02  0.1226708E+00
        -11   -1    0    0    0    0  0.00000000000E+00  0.00000000000E+00  0.45593999997E+02  0.45594000000E+02  0.51100000000E-03 0. -1.
         11   -1    0    0    0    0 -0.00000000000E+00 -0.00000000000E+00 -0.45593999997E+02  0.45594000000E+02  0.51100000000E-03 0.  1.
    9900012    2    1    2    0    0 -0.18635760669E+01  0.14375585640E+01  0.18577923537E+02  0.72461581941E+02  0.70000015171E+02 0.  0.
        -12    1    1    2    0    0  0.18635760669E+01 -0.14375585640E+01 -0.18577923537E+02  0.18726418059E+02  0.00000000000E+00 0.  1.
         11    1    3    3    0    0 -0.19668617401E+01  0.15949416058E+02  0.19137427288E+02  0.24989868770E+02  0.51100000000E-03 0. -1.
        -11    1    3    3    0    0 -0.94188754101E+01  0.35675182460E+01 -0.17987425836E+02  0.20615282896E+02  0.51100000000E-03 0.  1.
        -12    1    3    3    0    0  0.95221610834E+01 -0.18079375740E+02  0.17427922085E+02  0.26856430274E+02  0.00000000000E+00 0.  1.
</event>
<event>
 7    1  0.3568800E-013  0.7246171E+02  0.7816164E-02  0.1226708E+00
        -11   -1    0    0    0    0  0.00000000000E+00  0.00000000000E+00  0.45593999997E+02  0.45594000000E+02  0.51100000000E-03 0.  1.
         11   -1    0    0    0    0 -0.00000000000E+00 -0.00000000000E+00 -0.45593999997E+02  0.45594000000E+02  0.51100000000E-03 0. -1.
    9900012    2    1    2    0    0 -0.34311101038E+01  0.70652684465E+01 -0.16999516145E+02  0.72461706082E+02  0.70000176888E+02 0.  0.
        -12    1    1    2    0    0  0.34311101038E+01 -0.70652684465E+01  0.16999516145E+02  0.18726293918E+02  0.00000000000E+00 0.  1.
         11    1    3    3    0    0 -0.88990516812E+01  0.25221308654E+02  0.49496118766E+01  0.27199378468E+02  0.51100000000E-03 0. -1.
        -11    1    3    3    0    0 -0.13000704354E+02 -0.15684378149E+02 -0.75967638073E+01  0.21742328583E+02  0.51100000000E-03 0.  1.
        -12    1    3    3    0    0  0.18468645931E+02 -0.24716620588E+01 -0.14352364214E+02  0.23519999030E+02  0.00000000000E+00 0.  1.
</event>
<event>
 7    1  0.3568800E-013  0.7246223E+02  0.7816164E-02  0.1226706E+00
        -11   -1    0    0    0    0  0.00000000000E+00  0.00000000000E+00  0.45593999997E+02  0.45594000000E+02  0.51100000000E-03 0. -1.
         11   -1    0    0    0    0 -0.00000000000E+00 -0.00000000000E+00 -0.45593999997E+02  0.45594000000E+02  0.51100000000E-03 0.  1.
    9900012    2    1    2    0    0  0.11617875122E+02 -0.49842221212E+01 -0.13814375893E+02  0.72462229687E+02  0.70000858976E+02 0.  0.
        -12    1    1    2    0    0 -0.11617875122E+02  0.49842221212E+01  0.13814375893E+02  0.18725770313E+02  0.00000000000E+00 0.  1.
         11    1    3    3    0    0  0.12244916407E+01 -0.74709300824E+01  0.11915310948E+02  0.14116968914E+02  0.51100000000E-03 0. -1.
        -11    1    3    3    0    0 -0.10556163263E+02 -0.10117910347E+02  0.80147544221E+01  0.16674560904E+02  0.51100000000E-03 0.  1.
        -12    1    3    3    0    0  0.20949546744E+02  0.12604618308E+02 -0.33744441263E+02  0.41670699870E+02  0.00000000000E+00 0.  1.
</event>
<event>
 7    1  0.3568800E-013  0.7246181E+02  0.7816164E-02  0.1226707E+00
        -11   -1    0    0    0    0  0.00000000000E+00  0.00000000000E+00  0.45593999997E+02  0.45594000000E+02  0.51100000000E-03 0.  1.
         11   -1    0    0    0    0 -0.00000000000E+00 -0.00000000000E+00 -0.45593999997E+02  0.45594000000E+02  0.51100000000E-03 0. -1.
    9900012    2    1    2    0    0  0.28682320279E+01 -0.18310697279E+02  0.26761635073E+01  0.72461808691E+02  0.70000310555E+02 0.  0.
        -12    1    1    2    0    0 -0.28682320279E+01  0.18310697279E+02 -0.26761635073E+01  0.18726191309E+02  0.00000000000E+00 0.  1.
         11    1    3    3    0    0  0.12694639383E+02  0.18525919113E+02  0.69431793131E+01  0.23506834906E+02  0.51100000000E-03 0.  1.
        -11    1    3    3    0    0 -0.23910156069E+01 -0.72343242861E+01 -0.14817054937E+02  0.16661258079E+02  0.51100000000E-03 0. -1.
        -12    1    3    3    0    0 -0.74353917486E+01 -0.29602292106E+02  0.10550039131E+02  0.32293715706E+02  0.00000000000E+00 0.  1.
</event>
<event>
 7    1  0.3568800E-013  0.7246157E+02  0.7816164E-02  0.1226708E+00
        -11   -1    0    0    0    0  0.00000000000E+00  0.00000000000E+00  0.45593999997E+02  0.45594000000E+02  0.51100000000E-03 0.  1.
         11   -1    0    0    0    0 -0.00000000000E+00 -0.00000000000E+00 -0.45593999997E+02  0.45594000000E+02  0.51100000000E-03 0. -1.
    9900012    2    1    2    0    0  0.16043703531E+02 -0.37780828437E+01 -0.88884701592E+01  0.72461568553E+02  0.69999997732E+02 0.  0.
        -12    1    1    2    0    0 -0.16043703531E+02  0.37780828437E+01  0.88884701592E+01  0.18726431447E+02  0.00000000000E+00 0.  1.
         11    1    3    3    0    0  0.22393853277E+02  0.47535862487E+01 -0.81793969826E+01  0.24310158002E+02  0.51100000000E-03 0. -1.
        -11    1    3    3    0    0  0.14441718768E+02  0.90740366550E+01 -0.95008180157E+01  0.19523496752E+02  0.51100000000E-03 0.  1.
        -12    1    3    3    0    0 -0.20791868514E+02 -0.17605705747E+02  0.87917448390E+01  0.28627913799E+02  0.00000000000E+00 0.  1.
</event>
<event>
 7    1  0.3568800E-013  0.7246158E+02  0.7816164E-02  0.1226708E+00
        -11   -1    0    0    0    0  0.00000000000E+00  0.00000000000E+00  0.45593999997E+02  0.45594000000E+02  0.51100000000E-03 0.  1.
         11   -1    0    0    0    0 -0.00000000000E+00 -0.00000000000E+00 -0.45593999997E+02  0.45594000000E+02  0.51100000000E-03 0. -1.
    9900012    2    1    2    0    0  0.15372679276E+02  0.70471269342E+01 -0.80434871843E+01  0.72461576096E+02  0.70000007557E+02 0.  0.
        -12    1    1    2    0    0 -0.15372679276E+02 -0.70471269342E+01  0.80434871843E+01  0.18726423904E+02  0.00000000000E+00 0.  1.
         11    1    3    3    0    0  0.15990988577E+02  0.10747540964E+02  0.35850324782E+01  0.19597801167E+02  0.51100000000E-03 0. -1.
        -11    1    3    3    0    0  0.22391690626E+02  0.79386770265E+01  0.17348142726E+01  0.23820578978E+02  0.51100000000E-03 0.  1.
         12    1    3    3    0    0 -0.23009999926E+02 -0.11639091056E+02 -0.13363333935E+02  0.29043195951E+02  0.00000000000E+00 0. -1.
</event>
<event>
 7    1  0.3568800E-013  0.7246152E+02  0.7816164E-02  0.1226708E+00
        -11   -1    0    0    0    0  0.00000000000E+00  0.00000000000E+00  0.45593999997E+02  0.45594000000E+02  0.51100000000E-03 0.  1.
         11   -1    0    0    0    0 -0.00000000000E+00 -0.00000000000E+00 -0.45593999997E+02  0.45594000000E+02  0.51100000000E-03 0. -1.
    9900012    2    1    2    0    0 -0.10663399906E+02 -0.41210490179E+01 -0.14832050561E+02  0.72461524988E+02  0.69999940979E+02 0.  0.
        -12    1    1    2    0    0  0.10663399906E+02  0.41210490179E+01  0.14832050561E+02  0.18726475012E+02  0.00000000000E+00 0.  1.
         11    1    3    3    0    0  0.14257566801E+02 -0.16363687111E+02 -0.20330777761E+02  0.29738678376E+02  0.51100000000E-03 0. -1.
        -11    1    3    3    0    0 -0.20664411789E+02 -0.72359742441E+01 -0.50426230098E+00  0.21900491286E+02  0.51100000000E-03 0.  1.
        -12    1    3    3    0    0 -0.42565549177E+01  0.19478612337E+02  0.60029895018E+01  0.20822355325E+02  0.00000000000E+00 0.  1.
</event>
<event>
 7    1  0.3568800E-013  0.7246151E+02  0.7816164E-02  0.1226708E+00
        -11   -1    0    0    0    0  0.00000000000E+00  0.00000000000E+00  0.45593999997E+02  0.45594000000E+02  0.51100000000E-03 0. -1.
         11   -1    0    0    0    0 -0.00000000000E+00 -0.00000000000E+00 -0.45593999997E+02  0.45594000000E+02  0.51100000000E-03 0.  1.
    9900012    2    1    2    0    0 -0.39430248256E+01  0.14255888878E+02  0.11484933628E+02  0.72461507725E+02  0.69999918492E+02 0.  0.
        -12    1    1    2    0    0  0.39430248256E+01 -0.14255888878E+02 -0.11484933628E+02  0.18726492275E+02  0.00000000000E+00 0.  1.
         11    1    3    3    0    0 -0.50973893479E+01  0.16105617374E+02 -0.10026737050E+02  0.19644585649E+02  0.51100000000E-03 0. -1.
        -11    1    3    3    0    0  0.40677178509E+01  0.50885977164E+01 -0.14569352972E+02  0.15959517584E+02  0.51100000000E-03 0.  1.
         12    1    3    3    0    0 -0.29133533286E+01 -0.69383262121E+01  0.36081023650E+02  0.36857404492E+02  0.00000000000E+00 0. -1.
</event>
<event>
 7    1  0.3568800E-013  0.7246154E+02  0.7816164E-02  0.1226708E+00
        -11   -1    0    0    0    0  0.00000000000E+00  0.00000000000E+00  0.45593999997E+02  0.45594000000E+02  0.51100000000E-03 0. -1.
         11   -1    0    0    0    0 -0.00000000000E+00 -0.00000000000E+00 -0.45593999997E+02  0.45594000000E+02  0.51100000000E-03 0.  1.
    9900012    2    1    2    0    0  0.10261815464E+02 -0.15493645242E+02  0.23070355057E+01  0.72461539781E+02  0.69999960251E+02 0.  0.
        -12    1    1    2    0    0 -0.10261815464E+02  0.15493645242E+02 -0.23070355057E+01  0.18726460219E+02  0.00000000000E+00 0.  1.
         11    1    3    3    0    0 -0.31593139164E+01 -0.13666321518E+02  0.19783485364E+01  0.14165573460E+02  0.51100000000E-03 0. -1.
        -11    1    3    3    0    0 -0.88100251926E+01 -0.18902562467E+02 -0.15609733988E+02  0.26049706470E+02  0.51100000000E-03 0.  1.
        -12    1    3    3    0    0  0.22231154573E+02  0.17075238744E+02  0.15938420957E+02  0.32246259852E+02  0.00000000000E+00 0.  1.
</event>
<event>
 7    1  0.3568800E-013  0.7246161E+02  0.7816164E-02  0.1226708E+00
        -11   -1    0    0    0    0  0.00000000000E+00  0.00000000000E+00  0.45593999997E+02  0.45594000000E+02  0.51100000000E-03 0. -1.
         11   -1    0    0    0    0 -0.00000000000E+00 -0.00000000000E+00 -0.45593999997E+02  0.45594000000E+02  0.51100000000E-03 0.  1.
    9900012    2    1    2    0    0  0.13049569247E+02  0.12114635975E+02  0.57984449841E+01  0.72461611491E+02  0.70000053667E+02 0.  0.
        -12    1    1    2    0    0 -0.13049569247E+02 -0.12114635975E+02 -0.57984449841E+01  0.18726388509E+02  0.00000000000E+00 0.  1.
         11    1    3    3    0    0  0.44310852919E+01  0.46581464453E+01 -0.35368706869E+01  0.73377312357E+01  0.51100000000E-03 0. -1.
        -11    1    3    3    0    0 -0.27255254747E+02 -0.14613786237E+01  0.14905484353E+01  0.27335074057E+02  0.51100000000E-03 0.  1.
         12    1    3    3    0    0  0.35873738703E+02  0.89178681534E+01  0.78447672357E+01  0.37788806198E+02  0.00000000000E+00 0. -1.
</event>
<event>
 7    1  0.3568800E-013  0.7246116E+02  0.7816164E-02  0.1226709E+00
        -11   -1    0    0    0    0  0.00000000000E+00  0.00000000000E+00  0.45593999997E+02  0.45594000000E+02  0.51100000000E-03 0. -1.
         11   -1    0    0    0    0 -0.00000000000E+00 -0.00000000000E+00 -0.45593999997E+02  0.45594000000E+02  0.51100000000E-03 0.  1.
    9900012    2    1    2    0    0 -0.73214592983E+01  0.13162405781E+01  0.17185995850E+02  0.72461155395E+02  0.69999459514E+02 0.  0.
        -12    1    1    2    0    0  0.73214592983E+01 -0.13162405781E+01 -0.17185995850E+02  0.18726844605E+02  0.00000000000E+00 0.  1.
         11    1    3    3    0    0  0.39223619790E+01  0.28717434576E+01  0.36421011475E+02  0.36744005105E+02  0.51100000000E-03 0. -1.
        -11    1    3    3    0    0 -0.52332629807E+01 -0.13178005270E+02 -0.23769386326E+01  0.14376950367E+02  0.51100000000E-03 0.  1.
        -12    1    3    3    0    0 -0.60105582966E+01  0.11622502391E+02 -0.16858076993E+02  0.21340199923E+02  0.00000000000E+00 0.  1.
</event>
<event>
 7    1  0.3568800E-013  0.7246157E+02  0.7816164E-02  0.1226708E+00
        -11   -1    0    0    0    0  0.00000000000E+00  0.00000000000E+00  0.45593999997E+02  0.45594000000E+02  0.51100000000E-03 0. -1.
         11   -1    0    0    0    0 -0.00000000000E+00 -0.00000000000E+00 -0.45593999997E+02  0.45594000000E+02  0.51100000000E-03 0.  1.
    9900012    2    1    2    0    0 -0.11649682794E+02 -0.79765553897E+01  0.12301970666E+02  0.72461574090E+02  0.70000004945E+02 0.  0.
        -12    1    1    2    0    0  0.11649682794E+02  0.79765553897E+01 -0.12301970666E+02  0.18726425910E+02  0.00000000000E+00 0.  1.
         11    1    3    3    0    0 -0.14603081603E+02 -0.19433209557E+02  0.18955362210E+01  0.24382220650E+02  0.51100000000E-03 0. -1.
        -11    1    3    3    0    0 -0.95303691860E+01 -0.11753430431E+02  0.15024027838E+02  0.21323519326E+02  0.51100000000E-03 0.  1.
         12    1    3    3    0    0  0.12483767995E+02  0.23210084598E+02 -0.46175933931E+01  0.26755834114E+02  0.00000000000E+00 0. -1.
</event>
<event>
 7    1  0.3568800E-013  0.7246148E+02  0.7816164E-02  0.1226708E+00
        -11   -1    0    0    0    0  0.00000000000E+00  0.00000000000E+00  0.45593999997E+02  0.45594000000E+02  0.51100000000E-03 0. -1.
         11   -1    0    0    0    0 -0.00000000000E+00 -0.00000000000E+00 -0.45593999997E+02  0.45594000000E+02  0.51100000000E-03 0.  1.
    9900012    2    1    2    0    0 -0.11059348851E+02 -0.14782865992E+02  0.31369398480E+01  0.72461475614E+02  0.69999876662E+02 0.  0.
        -12    1    1    2    0    0  0.11059348851E+02  0.14782865992E+02 -0.31369398480E+01  0.18726524386E+02  0.00000000000E+00 0.  1.
         11    1    3    3    0    0 -0.56990308427E+01  0.72590233960E+01  0.17411954705E+02  0.19706560840E+02  0.51100000000E-03 0. -1.
        -11    1    3    3    0    0 -0.12006950265E+02 -0.18526724472E+01  0.13251086964E+02  0.17977501379E+02  0.51100000000E-03 0.  1.
        -12    1    3    3    0    0  0.66466322563E+01 -0.20189216941E+02 -0.27526101821E+02  0.34777413395E+02  0.00000000000E+00 0.  1.
</event>
<event>
 7    1  0.3568800E-013  0.7246164E+02  0.7816164E-02  0.1226708E+00
        -11   -1    0    0    0    0  0.00000000000E+00  0.00000000000E+00  0.45593999997E+02  0.45594000000E+02  0.51100000000E-03 0.  1.
         11   -1    0    0    0    0 -0.00000000000E+00 -0.00000000000E+00 -0.45593999997E+02  0.45594000000E+02  0.51100000000E-03 0. -1.
    9900012    2    1    2    0    0  0.10982930237E+02 -0.96982985700E+01  0.11661684082E+02  0.72461638171E+02  0.70000088422E+02 0.  0.
        -12    1    1    2    0    0 -0.10982930237E+02  0.96982985700E+01 -0.11661684082E+02  0.18726361829E+02  0.00000000000E+00 0.  1.
         11    1    3    3    0    0  0.79946058822E+01 -0.13424767197E+01 -0.25760241507E+01  0.85059901035E+01  0.51100000000E-03 0. -1.
        -11    1    3    3    0    0  0.32041926846E+02 -0.87940568402E+01  0.61155823769E+01  0.33784920597E+02  0.51100000000E-03 0.  1.
         12    1    3    3    0    0 -0.29053602491E+02  0.43823498994E+00  0.81221258557E+01  0.30170727470E+02  0.00000000000E+00 0. -1.
</event>
<event>
 7    1  0.3568800E-013  0.7246172E+02  0.7816164E-02  0.1226708E+00
        -11   -1    0    0    0    0  0.00000000000E+00  0.00000000000E+00  0.45593999997E+02  0.45594000000E+02  0.51100000000E-03 0. -1.
         11   -1    0    0    0    0 -0.00000000000E+00 -0.00000000000E+00 -0.45593999997E+02  0.45594000000E+02  0.51100000000E-03 0.  1.
    9900012    2    1    2    0    0 -0.10495728567E+02  0.11050042019E+01  0.15469067648E+02  0.72461724174E+02  0.70000200456E+02 0.  0.
        -12    1    1    2    0    0  0.10495728567E+02 -0.11050042019E+01 -0.15469067648E+02  0.18726275826E+02  0.00000000000E+00 0.  1.
         11    1    3    3    0    0 -0.55472807708E+00  0.23572972476E+02  0.12095801058E+02  0.26500965229E+02  0.51100000000E-03 0. -1.
        -11    1    3    3    0    0  0.10026322295E+02  0.34074815037E+01 -0.57198764989E+01  0.12035574618E+02  0.51100000000E-03 0.  1.
        -12    1    3    3    0    0 -0.19967322784E+02 -0.25875449778E+02  0.90931430883E+01  0.33925184327E+02  0.00000000000E+00 0.  1.
</event>
<event>
 7    1  0.3568800E-013  0.7246153E+02  0.7816164E-02  0.1226708E+00
        -11   -1    0    0    0    0  0.00000000000E+00  0.00000000000E+00  0.45593999997E+02  0.45594000000E+02  0.51100000000E-03 0. -1.
         11   -1    0    0    0    0 -0.00000000000E+00 -0.00000000000E+00 -0.45593999997E+02  0.45594000000E+02  0.51100000000E-03 0.  1.
    9900012    2    1    2    0    0 -0.41688706658E+01 -0.18167777888E+02 -0.17981077407E+01  0.72461526027E+02  0.69999942334E+02 0.  0.
        -12    1    1    2    0    0  0.41688706658E+01  0.18167777888E+02  0.17981077407E+01  0.18726473973E+02  0.00000000000E+00 0.  1.
         11    1    3    3    0    0  0.83657127909E+01 -0.80662680394E+01  0.61365959521E+01  0.13141827907E+02  0.51100000000E-03 0.  1.
        -11    1    3    3    0    0 -0.24515643290E+02 -0.92334374526E+01 -0.26463973545E+02  0.37237280099E+02  0.51100000000E-03 0. -1.
         12    1    3    3    0    0  0.11981059834E+02 -0.86807239572E+00  0.18529269852E+02  0.22082418022E+02  0.00000000000E+00 0. -1.
</event>
<event>
 7    1  0.3568800E-013  0.7246157E+02  0.7816164E-02  0.1226708E+00
        -11   -1    0    0    0    0  0.00000000000E+00  0.00000000000E+00  0.45593999997E+02  0.45594000000E+02  0.51100000000E-03 0. -1.
         11   -1    0    0    0    0 -0.00000000000E+00 -0.00000000000E+00 -0.45593999997E+02  0.45594000000E+02  0.51100000000E-03 0.  1.
    9900012    2    1    2    0    0  0.58940513365E+01  0.97259357754E+01  0.14877681248E+02  0.72461573027E+02  0.70000003559E+02 0.  0.
        -12    1    1    2    0    0 -0.58940513365E+01 -0.97259357754E+01 -0.14877681248E+02  0.18726426973E+02  0.00000000000E+00 0.  1.
         11    1    3    3    0    0 -0.11138774643E+02  0.30579658395E+02  0.76742100887E+01  0.33437722842E+02  0.51100000000E-03 0. -1.
        -11    1    3    3    0    0  0.10432669002E+02  0.43995104355E+01 -0.16921691961E+01  0.11448131351E+02  0.51100000000E-03 0.  1.
        -12    1    3    3    0    0  0.66001569775E+01 -0.25253233055E+02  0.88956403557E+01  0.27575718834E+02  0.00000000000E+00 0.  1.
</event>
<event>
 7    1  0.3568800E-013  0.7246148E+02  0.7816164E-02  0.1226708E+00
        -11   -1    0    0    0    0  0.00000000000E+00  0.00000000000E+00  0.45593999997E+02  0.45594000000E+02  0.51100000000E-03 0. -1.
         11   -1    0    0    0    0 -0.00000000000E+00 -0.00000000000E+00 -0.45593999997E+02  0.45594000000E+02  0.51100000000E-03 0.  1.
    9900012    2    1    2    0    0  0.10874900984E+02 -0.75576888230E+01  0.13240106546E+02  0.72461479952E+02  0.69999882312E+02 0.  0.
        -12    1    1    2    0    0 -0.10874900984E+02  0.75576888230E+01 -0.13240106546E+02  0.18726520048E+02  0.00000000000E+00 0.  1.
         11    1    3    3    0    0 -0.81993385345E+01 -0.28855916951E+02 -0.10239026298E+02  0.31697488154E+02  0.51100000000E-03 0. -1.
        -11    1    3    3    0    0  0.12436821846E+02  0.16211789388E+01  0.94314537150E+01  0.15692516631E+02  0.51100000000E-03 0.  1.
        -12    1    3    3    0    0  0.66374176728E+01  0.19677049189E+02  0.14047679129E+02  0.25071475167E+02  0.00000000000E+00 0.  1.
</event>
<event>
 7    1  0.3568800E-013  0.7246154E+02  0.7816164E-02  0.1226708E+00
        -11   -1    0    0    0    0  0.00000000000E+00  0.00000000000E+00  0.45593999997E+02  0.45594000000E+02  0.51100000000E-03 0.  1.
         11   -1    0    0    0    0 -0.00000000000E+00 -0.00000000000E+00 -0.45593999997E+02  0.45594000000E+02  0.51100000000E-03 0. -1.
    9900012    2    1    2    0    0 -0.60804209015E+01  0.11940424097E+02 -0.13081854835E+02  0.72461543531E+02  0.69999965135E+02 0.  0.
        -12    1    1    2    0    0  0.60804209015E+01 -0.11940424097E+02  0.13081854835E+02  0.18726456469E+02  0.00000000000E+00 0.  1.
         11    1    3    3    0    0  0.85836998134E+01  0.12404343192E+02 -0.60037381140E+01  0.16235532148E+02  0.51100000000E-03 0. -1.
        -11    1    3    3    0    0 -0.87150369484E+00  0.18027211753E+02  0.15615670066E+02  0.23866064488E+02  0.51100000000E-03 0.  1.
         12    1    3    3    0    0 -0.13792617020E+02 -0.18491130848E+02 -0.22693786787E+02  0.32359946895E+02  0.00000000000E+00 0. -1.
</event>
<event>
 7    1  0.3568800E-013  0.7246158E+02  0.7816164E-02  0.1226708E+00
        -11   -1    0    0    0    0  0.00000000000E+00  0.00000000000E+00  0.45593999997E+02  0.45594000000E+02  0.51100000000E-03 0.  1.
         11   -1    0    0    0    0 -0.00000000000E+00 -0.00000000000E+00 -0.45593999997E+02  0.45594000000E+02  0.51100000000E-03 0. -1.
    9900012    2    1    2    0    0  0.58001280790E+01 -0.16893147545E+02 -0.56266365668E+01  0.72461575921E+02  0.70000007330E+02 0.  0.
        -12    1    1    2    0    0 -0.58001280790E+01  0.16893147545E+02  0.56266365668E+01  0.18726424079E+02  0.00000000000E+00 0.  1.
         11    1    3    3    0    0 -0.12356526663E+02 -0.83633168536E+01 -0.82576896727E+01  0.17053394353E+02  0.51100000000E-03 0. -1.
        -11    1    3    3    0    0 -0.12964911101E+01  0.20391612764E+02  0.21955585904E+01  0.20550407249E+02  0.51100000000E-03 0.  1.
        -12    1    3    3    0    0  0.19453145852E+02 -0.28921443455E+02  0.43549451556E+00  0.34857774320E+02  0.00000000000E+00 0.  1.
</event>
<event>
 7    1  0.3568800E-013  0.7246159E+02  0.7816164E-02  0.1226708E+00
        -11   -1    0    0    0    0  0.00000000000E+00  0.00000000000E+00  0.45593999997E+02  0.45594000000E+02  0.51100000000E-03 0.  1.
         11   -1    0    0    0    0 -0.00000000000E+00 -0.00000000000E+00 -0.45593999997E+02  0.45594000000E+02  0.51100000000E-03 0. -1.
    9900012    2    1    2    0    0 -0.16892422617E+02 -0.71880946938E+01  0.36953847162E+01  0.72461587760E+02  0.70000022752E+02 0.  0.
        -12    1    1    2    0    0  0.16892422617E+02  0.71880946938E+01 -0.36953847162E+01  0.18726412240E+02  0.00000000000E+00 0.  1.
         11    1    3    3    0    0 -0.58289343914E+01 -0.17910077829E+02 -0.15793806188E+02  0.24580310782E+02  0.51100000000E-03 0. -1.
        -11    1    3    3    0    0  0.11547738319E+01  0.71988432987E+01 -0.11932753458E+02  0.13983828260E+02  0.51100000000E-03 0.  1.
        -12    1    3    3    0    0 -0.12218262057E+02  0.35231398369E+01  0.31421944363E+02  0.33897448717E+02  0.00000000000E+00 0.  1.
</event>
<event>
 7    1  0.3568800E-013  0.7246157E+02  0.7816164E-02  0.1226708E+00
        -11   -1    0    0    0    0  0.00000000000E+00  0.00000000000E+00  0.45593999997E+02  0.45594000000E+02  0.51100000000E-03 0. -1.
         11   -1    0    0    0    0 -0.00000000000E+00 -0.00000000000E+00 -0.45593999997E+02  0.45594000000E+02  0.51100000000E-03 0.  1.
    9900012    2    1    2    0    0 -0.15579891286E+02  0.88206854151E-01  0.10389334448E+02  0.72461573133E+02  0.70000003698E+02 0.  0.
        -12    1    1    2    0    0  0.15579891286E+02 -0.88206854151E-01 -0.10389334448E+02  0.18726426867E+02  0.00000000000E+00 0.  1.
         11    1    3    3    0    0  0.91370663683E+00  0.19130189314E+01  0.16831604701E+02  0.16964593078E+02  0.51100000000E-03 0. -1.
        -11    1    3    3    0    0  0.86642483908E+01  0.16747966792E+02  0.86838648910E+01  0.20759891656E+02  0.51100000000E-03 0.  1.
         12    1    3    3    0    0 -0.25157846313E+02 -0.18572778870E+02 -0.15126135144E+02  0.34737088399E+02  0.00000000000E+00 0. -1.
</event>
<event>
 7    1  0.3568800E-013  0.7246156E+02  0.7816164E-02  0.1226708E+00
        -11   -1    0    0    0    0  0.00000000000E+00  0.00000000000E+00  0.45593999997E+02  0.45594000000E+02  0.51100000000E-03 0. -1.
         11   -1    0    0    0    0 -0.00000000000E+00 -0.00000000000E+00 -0.45593999997E+02  0.45594000000E+02  0.51100000000E-03 0.  1.
    9900012    2    1    2    0    0 -0.97748765653E+01 -0.15953067565E+02  0.79440334466E+00  0.72461557378E+02  0.69999983174E+02 0.  0.
        -12    1    1    2    0    0  0.97748765653E+01  0.15953067565E+02 -0.79440334466E+00  0.18726442622E+02  0.00000000000E+00 0.  1.
         11    1    3    3    0    0  0.29466044676E+00  0.46815740420E+01 -0.83086627076E+01  0.95413749816E+01  0.51100000000E-03 0. -1.
        -11    1    3    3    0    0 -0.19889590490E+01  0.19718437160E+02 -0.29510175150E+01  0.20036996451E+02  0.51100000000E-03 0.  1.
         12    1    3    3    0    0 -0.80805779631E+01 -0.40353078767E+02  0.12054083567E+02  0.42883185946E+02  0.00000000000E+00 0. -1.
</event>
<event>
 7    1  0.3568800E-013  0.7246153E+02  0.7816164E-02  0.1226708E+00
        -11   -1    0    0    0    0  0.00000000000E+00  0.00000000000E+00  0.45593999997E+02  0.45594000000E+02  0.51100000000E-03 0. -1.
         11   -1    0    0    0    0 -0.00000000000E+00 -0.00000000000E+00 -0.45593999997E+02  0.45594000000E+02  0.51100000000E-03 0.  1.
    9900012    2    1    2    0    0 -0.11310972988E+02 -0.90662591624E+01  0.11855190628E+02  0.72461529165E+02  0.69999946421E+02 0.  0.
        -12    1    1    2    0    0  0.11310972988E+02  0.90662591624E+01 -0.11855190628E+02  0.18726470835E+02  0.00000000000E+00 0.  1.
         11    1    3    3    0    0 -0.23939507604E+02 -0.29366581061E+02  0.16669071716E+02  0.41392681233E+02  0.51100000000E-03 0. -1.
        -11    1    3    3    0    0 -0.34235723003E+01 -0.77338944788E+00 -0.28210406562E+01  0.45030266687E+01  0.51100000000E-03 0.  1.
         12    1    3    3    0    0  0.16052106917E+02  0.21073711346E+02 -0.19928404321E+01  0.26565821263E+02  0.00000000000E+00 0. -1.
</event>
<event>
 7    1  0.3568800E-013  0.7246154E+02  0.7816164E-02  0.1226708E+00
        -11   -1    0    0    0    0  0.00000000000E+00  0.00000000000E+00  0.45593999997E+02  0.45594000000E+02  0.51100000000E-03 0.  1.
         11   -1    0    0    0    0 -0.00000000000E+00 -0.00000000000E+00 -0.45593999997E+02  0.45594000000E+02  0.51100000000E-03 0. -1.
    9900012    2    1    2    0    0 -0.55970024451E+01  0.17488013267E+02  0.36773731062E+01  0.72461544987E+02  0.69999967032E+02 0.  0.
        -12    1    1    2    0    0  0.55970024451E+01 -0.17488013267E+02 -0.36773731062E+01  0.18726455013E+02  0.00000000000E+00 0.  1.
         11    1    3    3    0    0 -0.12915525288E+02  0.83253131996E+01  0.51828203393E+01  0.16216758624E+02  0.51100000000E-03 0. -1.
        -11    1    3    3    0    0  0.20007083886E+01  0.31408628866E+02  0.62619238328E+01  0.32089195871E+02  0.51100000000E-03 0.  1.
         12    1    3    3    0    0  0.53178144547E+01 -0.22245928799E+02 -0.77673710659E+01  0.24155590491E+02  0.00000000000E+00 0. -1.
</event>
<event>
 7    1  0.3568800E-013  0.7246156E+02  0.7816164E-02  0.1226708E+00
        -11   -1    0    0    0    0  0.00000000000E+00  0.00000000000E+00  0.45593999997E+02  0.45594000000E+02  0.51100000000E-03 0.  1.
         11   -1    0    0    0    0 -0.00000000000E+00 -0.00000000000E+00 -0.45593999997E+02  0.45594000000E+02  0.51100000000E-03 0. -1.
    9900012    2    1    2    0    0 -0.51407394856E+00 -0.41003853251E+01 -0.18264774020E+02  0.72461564091E+02  0.69999991919E+02 0.  0.
        -12    1    1    2    0    0  0.51407394856E+00  0.41003853251E+01  0.18264774020E+02  0.18726435909E+02  0.00000000000E+00 0.  1.
         11    1    3    3    0    0 -0.18352003288E+01  0.41579605368E+01 -0.33937530130E+02  0.34240510330E+02  0.51100000000E-03 0. -1.
        -11    1    3    3    0    0 -0.12435821210E+02 -0.61410066768E+01 -0.37112002125E+01  0.14357389019E+02  0.51100000000E-03 0.  1.
         12    1    3    3    0    0  0.13756947590E+02 -0.21173391851E+01  0.19383956322E+02  0.23863664742E+02  0.00000000000E+00 0. -1.
</event>
<event>
 7    1  0.3568800E-013  0.7246141E+02  0.7816164E-02  0.1226708E+00
        -11   -1    0    0    0    0  0.00000000000E+00  0.00000000000E+00  0.45593999997E+02  0.45594000000E+02  0.51100000000E-03 0.  1.
         11   -1    0    0    0    0 -0.00000000000E+00 -0.00000000000E+00 -0.45593999997E+02  0.45594000000E+02  0.51100000000E-03 0. -1.
    9900012    2    1    2    0    0  0.14422327172E+02 -0.19977665388E+01 -0.11776693697E+02  0.72461411773E+02  0.69999793496E+02 0.  0.
        -12    1    1    2    0    0 -0.14422327172E+02  0.19977665388E+01  0.11776693697E+02  0.18726588227E+02  0.00000000000E+00 0.  1.
         11    1    3    3    0    0  0.13246706485E+02  0.75997692626E+01  0.16436559300E+02  0.22436403620E+02  0.51100000000E-03 0. -1.
        -11    1    3    3    0    0  0.12469316483E+02 -0.92904463659E+01  0.38586025284E+01  0.16021393852E+02  0.51100000000E-03 0.  1.
        -12    1    3    3    0    0 -0.11293695796E+02 -0.30708943551E+00 -0.32071855525E+02  0.34003614301E+02  0.00000000000E+00 0.  1.
</event>
<event>
 7    1  0.3568800E-013  0.7246193E+02  0.7816164E-02  0.1226707E+00
        -11   -1    0    0    0    0  0.00000000000E+00  0.00000000000E+00  0.45593999997E+02  0.45594000000E+02  0.51100000000E-03 0.  1.
         11   -1    0    0    0    0 -0.00000000000E+00 -0.00000000000E+00 -0.45593999997E+02  0.45594000000E+02  0.51100000000E-03 0. -1.
    9900012    2    1    2    0    0 -0.11445262264E+02  0.47894787285E+01 -0.14026139298E+02  0.72461929446E+02  0.70000467860E+02 0.  0.
        -12    1    1    2    0    0  0.11445262264E+02 -0.47894787285E+01  0.14026139298E+02  0.18726070554E+02  0.00000000000E+00 0.  1.
         11    1    3    3    0    0 -0.18303666654E+02 -0.19383798983E+02 -0.25086585011E+02  0.36607275558E+02  0.51100000000E-03 0. -1.
        -11    1    3    3    0    0 -0.72553404718E+01  0.26607064202E+01 -0.28964705625E+00  0.77332541465E+01  0.51100000000E-03 0.  1.
        -12    1    3    3    0    0  0.14113744861E+02  0.21512571291E+02  0.11350092769E+02  0.28121399742E+02  0.00000000000E+00 0.  1.
</event>
<event>
 7    1  0.3568800E-013  0.7246211E+02  0.7816164E-02  0.1226707E+00
        -11   -1    0    0    0    0  0.00000000000E+00  0.00000000000E+00  0.45593999997E+02  0.45594000000E+02  0.51100000000E-03 0. -1.
         11   -1    0    0    0    0 -0.00000000000E+00 -0.00000000000E+00 -0.45593999997E+02  0.45594000000E+02  0.51100000000E-03 0.  1.
    9900012    2    1    2    0    0  0.24401478257E+00  0.60717873265E+01  0.17712508783E+02  0.72462105844E+02  0.70000697650E+02 0.  0.
        -12    1    1    2    0    0 -0.24401478257E+00 -0.60717873265E+01 -0.17712508783E+02  0.18725894156E+02  0.00000000000E+00 0.  1.
         11    1    3    3    0    0  0.19777101691E+02  0.67360179716E+01  0.75683954373E+01  0.22221347825E+02  0.51100000000E-03 0.  1.
        -11    1    3    3    0    0 -0.36504949532E+01  0.20366168723E+02  0.11828118687E+02  0.23832988352E+02  0.51100000000E-03 0. -1.
         12    1    3    3    0    0 -0.15882591955E+02 -0.21030399368E+02 -0.16840053416E+01  0.26407769667E+02  0.00000000000E+00 0. -1.
</event>
<event>
 7    1  0.3568800E-013  0.7246158E+02  0.7816164E-02  0.1226708E+00
        -11   -1    0    0    0    0  0.00000000000E+00  0.00000000000E+00  0.45593999997E+02  0.45594000000E+02  0.51100000000E-03 0.  1.
         11   -1    0    0    0    0 -0.00000000000E+00 -0.00000000000E+00 -0.45593999997E+02  0.45594000000E+02  0.51100000000E-03 0. -1.
    9900012    2    1    2    0    0  0.12259169850E+02 -0.78799377546E+00 -0.14134024528E+02  0.72461579387E+02  0.70000011845E+02 0.  0.
        -12    1    1    2    0    0 -0.12259169850E+02  0.78799377546E+00  0.14134024528E+02  0.18726420613E+02  0.00000000000E+00 0.  1.
         11    1    3    3    0    0 -0.18590939389E+01  0.34151756967E+01 -0.23300484729E+02  0.23622706114E+02  0.51100000000E-03 0. -1.
        -11    1    3    3    0    0 -0.88824930706E+01 -0.37286153369E+01 -0.13472450611E+02  0.16562251695E+02  0.51100000000E-03 0.  1.
        -12    1    3    3    0    0  0.23000756860E+02 -0.47455413525E+00  0.22638910811E+02  0.32276621578E+02  0.00000000000E+00 0.  1.
</event>
<event>
 7    1  0.3568800E-013  0.7246219E+02  0.7816164E-02  0.1226706E+00
        -11   -1    0    0    0    0  0.00000000000E+00  0.00000000000E+00  0.45593999997E+02  0.45594000000E+02  0.51100000000E-03 0. -1.
         11   -1    0    0    0    0 -0.00000000000E+00 -0.00000000000E+00 -0.45593999997E+02  0.45594000000E+02  0.51100000000E-03 0.  1.
    9900012    2    1    2    0    0  0.17437319226E+02 -0.41237874600E+00  0.68136367551E+01  0.72462194173E+02  0.70000812714E+02 0.  0.
        -12    1    1    2    0    0 -0.17437319226E+02  0.41237874600E+00 -0.68136367551E+01  0.18725805827E+02  0.00000000000E+00 0.  1.
         11    1    3    3    0    0 -0.14280498849E+01 -0.90108433012E+01 -0.23115088588E+01  0.94115725008E+01  0.51100000000E-03 0. -1.
        -11    1    3    3    0    0  0.10043017611E+02 -0.93615235316E+01 -0.22068464889E+02  0.25990718889E+02  0.51100000000E-03 0.  1.
         12    1    3    3    0    0  0.88223515003E+01  0.17959988087E+02  0.31193610503E+02  0.37059902783E+02  0.00000000000E+00 0. -1.
</event>
<event>
 7    1  0.3568800E-013  0.7246160E+02  0.7816164E-02  0.1226708E+00
        -11   -1    0    0    0    0  0.00000000000E+00  0.00000000000E+00  0.45593999997E+02  0.45594000000E+02  0.51100000000E-03 0. -1.
         11   -1    0    0    0    0 -0.00000000000E+00 -0.00000000000E+00 -0.45593999997E+02  0.45594000000E+02  0.51100000000E-03 0.  1.
    9900012    2    1    2    0    0 -0.97373557481E+01 -0.89275605269E+01  0.13272552407E+02  0.72461599349E+02  0.70000037849E+02 0.  0.
        -12    1    1    2    0    0  0.97373557481E+01  0.89275605269E+01 -0.13272552407E+02  0.18726400651E+02  0.00000000000E+00 0.  1.
         11    1    3    3    0    0  0.15122303424E+02 -0.25252976652E+02  0.53733742354E+01  0.29921063510E+02  0.51100000000E-03 0. -1.
        -11    1    3    3    0    0  0.33582940512E+01 -0.13109019094E+01  0.85278894080E+01  0.92585906468E+01  0.51100000000E-03 0.  1.
        -12    1    3    3    0    0 -0.28217953223E+02  0.17636318035E+02 -0.62871123597E+00  0.33281945192E+02  0.00000000000E+00 0.  1.
</event>
<event>
 7    1  0.3568800E-013  0.7246156E+02  0.7816164E-02  0.1226708E+00
        -11   -1    0    0    0    0  0.00000000000E+00  0.00000000000E+00  0.45593999997E+02  0.45594000000E+02  0.51100000000E-03 0.  1.
         11   -1    0    0    0    0 -0.00000000000E+00 -0.00000000000E+00 -0.45593999997E+02  0.45594000000E+02  0.51100000000E-03 0. -1.
    9900012    2    1    2    0    0 -0.42160024398E+01  0.79207307582E+01 -0.16436750544E+02  0.72461563586E+02  0.69999991261E+02 0.  0.
        -12    1    1    2    0    0  0.42160024398E+01 -0.79207307582E+01  0.16436750544E+02  0.18726436414E+02  0.00000000000E+00 0.  1.
         11    1    3    3    0    0  0.10237443202E+02  0.17713837330E+02 -0.33605760993E+02  0.39343772677E+02  0.51100000000E-03 0. -1.
        -11    1    3    3    0    0 -0.21143930213E+01  0.70876287125E+01  0.49468563154E+01  0.88981192553E+01  0.51100000000E-03 0.  1.
        -12    1    3    3    0    0 -0.12339052621E+02 -0.16880735285E+02  0.12222154134E+02  0.24219671653E+02  0.00000000000E+00 0.  1.
</event>
<event>
 7    1  0.3568800E-013  0.7246159E+02  0.7816164E-02  0.1226708E+00
        -11   -1    0    0    0    0  0.00000000000E+00  0.00000000000E+00  0.45593999997E+02  0.45594000000E+02  0.51100000000E-03 0. -1.
         11   -1    0    0    0    0 -0.00000000000E+00 -0.00000000000E+00 -0.45593999997E+02  0.45594000000E+02  0.51100000000E-03 0.  1.
    9900012    2    1    2    0    0 -0.19162151032E+01  0.17797673861E+02 -0.54999420895E+01  0.72461589822E+02  0.70000025438E+02 0.  0.
        -12    1    1    2    0    0  0.19162151032E+01 -0.17797673861E+02  0.54999420895E+01  0.18726410178E+02  0.00000000000E+00 0.  1.
         11    1    3    3    0    0 -0.68889350818E+01 -0.33104242618E+01  0.11712726403E+02  0.13985860553E+02  0.51100000000E-03 0. -1.
        -11    1    3    3    0    0 -0.19878888154E+02  0.35157005170E+01  0.49865885738E+01  0.20794143652E+02  0.51100000000E-03 0.  1.
         12    1    3    3    0    0  0.24851608132E+02  0.17592397606E+02 -0.22199257066E+02  0.37681585617E+02  0.00000000000E+00 0. -1.
</event>
<event>
 7    1  0.3568800E-013  0.7246160E+02  0.7816164E-02  0.1226708E+00
        -11   -1    0    0    0    0  0.00000000000E+00  0.00000000000E+00  0.45593999997E+02  0.45594000000E+02  0.51100000000E-03 0. -1.
         11   -1    0    0    0    0 -0.00000000000E+00 -0.00000000000E+00 -0.45593999997E+02  0.45594000000E+02  0.51100000000E-03 0.  1.
    9900012    2    1    2    0    0  0.14792248784E+02 -0.40636160086E+01  0.10740324868E+02  0.72461596784E+02  0.70000034508E+02 0.  0.
        -12    1    1    2    0    0 -0.14792248784E+02  0.40636160086E+01 -0.10740324868E+02  0.18726403216E+02  0.00000000000E+00 0.  1.
         11    1    3    3    0    0  0.19785095850E+01 -0.14672245648E+02 -0.78286878693E+01  0.16747466870E+02  0.51100000000E-03 0. -1.
        -11    1    3    3    0    0  0.26976988592E+02 -0.38088883372E+01 -0.14290692586E+01  0.27282004748E+02  0.51100000000E-03 0.  1.
         12    1    3    3    0    0 -0.14163249393E+02  0.14417517976E+02  0.19998081996E+02  0.28432125167E+02  0.00000000000E+00 0. -1.
</event>
<event>
 7    1  0.3568800E-013  0.7246156E+02  0.7816164E-02  0.1226708E+00
        -11   -1    0    0    0    0  0.00000000000E+00  0.00000000000E+00  0.45593999997E+02  0.45594000000E+02  0.51100000000E-03 0.  1.
         11   -1    0    0    0    0 -0.00000000000E+00 -0.00000000000E+00 -0.45593999997E+02  0.45594000000E+02  0.51100000000E-03 0. -1.
    9900012    2    1    2    0    0 -0.46364852300E+01  0.15173208996E+02  0.99476705587E+01  0.72461563712E+02  0.69999991425E+02 0.  0.
        -12    1    1    2    0    0  0.46364852300E+01 -0.15173208996E+02 -0.99476705587E+01  0.18726436288E+02  0.00000000000E+00 0.  1.
         11    1    3    3    0    0  0.94146846429E+01  0.35631035189E+02 -0.71337291889E+01  0.37537941445E+02  0.51100000000E-03 0. -1.
        -11    1    3    3    0    0  0.37167125400E+01 -0.23663742825E+01  0.54982916704E+01  0.70459130639E+01  0.51100000000E-03 0.  1.
        -12    1    3    3    0    0 -0.17767882413E+02 -0.18091451910E+02  0.11583108077E+02  0.27877709203E+02  0.00000000000E+00 0.  1.
</event>
<event>
 7    1  0.3568800E-013  0.7246157E+02  0.7816164E-02  0.1226708E+00
        -11   -1    0    0    0    0  0.00000000000E+00  0.00000000000E+00  0.45593999997E+02  0.45594000000E+02  0.51100000000E-03 0.  1.
         11   -1    0    0    0    0 -0.00000000000E+00 -0.00000000000E+00 -0.45593999997E+02  0.45594000000E+02  0.51100000000E-03 0. -1.
    9900012    2    1    2    0    0  0.11636177662E+02 -0.73591623096E+01 -0.12693360952E+02  0.72461566470E+02  0.69999995019E+02 0.  0.
        -12    1    1    2    0    0 -0.11636177662E+02  0.73591623096E+01  0.12693360952E+02  0.18726433530E+02  0.00000000000E+00 0.  1.
         11    1    3    3    0    0  0.10352755440E+02 -0.67448264502E+01 -0.16170822407E+02  0.20351111189E+02  0.51100000000E-03 0. -1.
        -11    1    3    3    0    0  0.22427736409E+02 -0.10894749628E+02  0.11241156970E+02  0.27350731986E+02  0.51100000000E-03 0.  1.
         12    1    3    3    0    0 -0.21144314186E+02  0.10280413768E+02 -0.77636955146E+01  0.24759723296E+02  0.00000000000E+00 0. -1.
</event>
<event>
 7    1  0.3568800E-013  0.7246155E+02  0.7816164E-02  0.1226708E+00
        -11   -1    0    0    0    0  0.00000000000E+00  0.00000000000E+00  0.45593999997E+02  0.45594000000E+02  0.51100000000E-03 0. -1.
         11   -1    0    0    0    0 -0.00000000000E+00 -0.00000000000E+00 -0.45593999997E+02  0.45594000000E+02  0.51100000000E-03 0.  1.
    9900012    2    1    2    0    0  0.11730223862E+02  0.13283783053E+02  0.60516760896E+01  0.72461552725E+02  0.69999977112E+02 0.  0.
        -12    1    1    2    0    0 -0.11730223862E+02 -0.13283783053E+02 -0.60516760896E+01  0.18726447275E+02  0.00000000000E+00 0.  1.
         11    1    3    3    0    0  0.16045267625E+02  0.68970200863E+01 -0.14478372953E+01  0.17524717753E+02  0.51100000000E-03 0. -1.
        -11    1    3    3    0    0  0.20252322948E+02 -0.30462828211E+01 -0.10538167820E+02  0.23032355613E+02  0.51100000000E-03 0.  1.
         12    1    3    3    0    0 -0.24567366710E+02  0.94330457880E+01  0.18037681205E+02  0.31904479359E+02  0.00000000000E+00 0. -1.
</event>
<event>
 7    1  0.3568800E-013  0.7246159E+02  0.7816164E-02  0.1226708E+00
        -11   -1    0    0    0    0  0.00000000000E+00  0.00000000000E+00  0.45593999997E+02  0.45594000000E+02  0.51100000000E-03 0.  1.
         11   -1    0    0    0    0 -0.00000000000E+00 -0.00000000000E+00 -0.45593999997E+02  0.45594000000E+02  0.51100000000E-03 0. -1.
    9900012    2    1    2    0    0 -0.11073847061E+02  0.13496913410E+02  0.67735900327E+01  0.72461593984E+02  0.70000030861E+02 0.  0.
        -12    1    1    2    0    0  0.11073847061E+02 -0.13496913410E+02 -0.67735900327E+01  0.18726406016E+02  0.00000000000E+00 0.  1.
         11    1    3    3    0    0 -0.23749192780E+02  0.18456099860E+02 -0.20637967936E+02  0.36477081853E+02  0.51100000000E-03 0. -1.
        -11    1    3    3    0    0 -0.49824494860E+01 -0.18405182108E+01  0.51351202720E+01  0.73879476605E+01  0.51100000000E-03 0.  1.
        -12    1    3    3    0    0  0.17657795205E+02 -0.31186682390E+01  0.22276437696E+02  0.28596564471E+02  0.00000000000E+00 0.  1.
</event>
<event>
 7    1  0.3568800E-013  0.7246160E+02  0.7816164E-02  0.1226708E+00
        -11   -1    0    0    0    0  0.00000000000E+00  0.00000000000E+00  0.45593999997E+02  0.45594000000E+02  0.51100000000E-03 0.  1.
         11   -1    0    0    0    0 -0.00000000000E+00 -0.00000000000E+00 -0.45593999997E+02  0.45594000000E+02  0.51100000000E-03 0. -1.
    9900012    2    1    2    0    0  0.14580299954E+02 -0.10663051753E+02  0.49388654273E+01  0.72461595883E+02  0.70000033334E+02 0.  0.
        -12    1    1    2    0    0 -0.14580299954E+02  0.10663051753E+02 -0.49388654273E+01  0.18726404117E+02  0.00000000000E+00 0.  1.
         11    1    3    3    0    0  0.84210544180E+01  0.67394982731E+01  0.48012196812E+01  0.11806214684E+02  0.51100000000E-03 0. -1.
        -11    1    3    3    0    0 -0.12877564658E+02 -0.13094648576E+02 -0.23612505902E+02  0.29914075752E+02  0.51100000000E-03 0.  1.
         12    1    3    3    0    0  0.19036810194E+02 -0.43079014500E+01  0.23750151648E+02  0.30741305447E+02  0.00000000000E+00 0. -1.
</event>
<event>
 7    1  0.3568800E-013  0.7246158E+02  0.7816164E-02  0.1226708E+00
        -11   -1    0    0    0    0  0.00000000000E+00  0.00000000000E+00  0.45593999997E+02  0.45594000000E+02  0.51100000000E-03 0. -1.
         11   -1    0    0    0    0 -0.00000000000E+00 -0.00000000000E+00 -0.45593999997E+02  0.45594000000E+02  0.51100000000E-03 0.  1.
    9900012    2    1    2    0    0 -0.19979471079E+01 -0.16942837080E+02 -0.77218810071E+01  0.72461575695E+02  0.70000007035E+02 0.  0.
        -12    1    1    2    0    0  0.19979471079E+01  0.16942837080E+02  0.77218810071E+01  0.18726424305E+02  0.00000000000E+00 0.  1.
         11    1    3    3    0    0 -0.24617588668E+01 -0.46074999927E+00 -0.30800286492E+01  0.39697763188E+01  0.51100000000E-03 0. -1.
        -11    1    3    3    0    0 -0.55411878164E+01 -0.36641288200E+02 -0.20314229794E+02  0.42260580873E+02  0.51100000000E-03 0.  1.
         12    1    3    3    0    0  0.60049995753E+01  0.20159201119E+02  0.15672377436E+02  0.26231218503E+02  0.00000000000E+00 0. -1.
</event>
<event>
 7    1  0.3568800E-013  0.7246162E+02  0.7816164E-02  0.1226708E+00
        -11   -1    0    0    0    0  0.00000000000E+00  0.00000000000E+00  0.45593999997E+02  0.45594000000E+02  0.51100000000E-03 0.  1.
         11   -1    0    0    0    0 -0.00000000000E+00 -0.00000000000E+00 -0.45593999997E+02  0.45594000000E+02  0.51100000000E-03 0. -1.
    9900012    2    1    2    0    0  0.15867132468E+02 -0.58528617326E+00 -0.99281899533E+01  0.72461617317E+02  0.70000061255E+02 0.  0.
        -12    1    1    2    0    0 -0.15867132468E+02  0.58528617326E+00  0.99281899533E+01  0.18726382683E+02  0.00000000000E+00 0.  1.
         11    1    3    3    0    0 -0.22894434212E+01  0.79575322621E+01 -0.99760582057E+01  0.12964783394E+02  0.51100000000E-03 0. -1.
        -11    1    3    3    0    0  0.57194269368E+01  0.20233402430E+02  0.13919326795E+02  0.25216067836E+02  0.51100000000E-03 0.  1.
         12    1    3    3    0    0  0.12437148952E+02 -0.28776220866E+02 -0.13871458543E+02  0.34280766087E+02  0.00000000000E+00 0. -1.
</event>
<event>
 7    1  0.3568800E-013  0.7246156E+02  0.7816164E-02  0.1226708E+00
        -11   -1    0    0    0    0  0.00000000000E+00  0.00000000000E+00  0.45593999997E+02  0.45594000000E+02  0.51100000000E-03 0. -1.
         11   -1    0    0    0    0 -0.00000000000E+00 -0.00000000000E+00 -0.45593999997E+02  0.45594000000E+02  0.51100000000E-03 0.  1.
    9900012    2    1    2    0    0  0.80247134538E+01  0.93188188651E+01  0.14122430759E+02  0.72461562496E+02  0.69999989841E+02 0.  0.
        -12    1    1    2    0    0 -0.80247134538E+01 -0.93188188651E+01 -0.14122430759E+02  0.18726437504E+02  0.00000000000E+00 0.  1.
         11    1    3    3    0    0  0.48116355411E+01 -0.10729861395E+02 -0.14986011219E+02  0.19048944713E+02  0.51100000000E-03 0. -1.
        -11    1    3    3    0    0 -0.14638692598E+02  0.64708473305E+01 -0.80424499782E+00  0.16025292397E+02  0.51100000000E-03 0.  1.
         12    1    3    3    0    0  0.17851770510E+02  0.13577832930E+02  0.29912686976E+02  0.37387325386E+02  0.00000000000E+00 0. -1.
</event>
<event>
 7    1  0.3568800E-013  0.7246155E+02  0.7816164E-02  0.1226708E+00
        -11   -1    0    0    0    0  0.00000000000E+00  0.00000000000E+00  0.45593999997E+02  0.45594000000E+02  0.51100000000E-03 0. -1.
         11   -1    0    0    0    0 -0.00000000000E+00 -0.00000000000E+00 -0.45593999997E+02  0.45594000000E+02  0.51100000000E-03 0.  1.
    9900012    2    1    2    0    0 -0.86210103423E+01 -0.16753044436E+01  0.16539388894E+02  0.72461552145E+02  0.69999976357E+02 0.  0.
        -12    1    1    2    0    0  0.86210103423E+01  0.16753044436E+01 -0.16539388894E+02  0.18726447855E+02  0.00000000000E+00 0.  1.
         11    1    3    3    0    0  0.26539701285E+02  0.78100366146E+01  0.12294485356E+02  0.30273863094E+02  0.51100000000E-03 0. -1.
        -11    1    3    3    0    0  0.14989305110E+01  0.90730584302E+00 -0.29298630455E+01  0.34138093526E+01  0.51100000000E-03 0.  1.
         12    1    3    3    0    0 -0.36659642138E+02 -0.10392646901E+02  0.71747665826E+01  0.38773879698E+02  0.00000000000E+00 0. -1.
</event>
<event>
 7    1  0.3568800E-013  0.7246158E+02  0.7816164E-02  0.1226708E+00
        -11   -1    0    0    0    0  0.00000000000E+00  0.00000000000E+00  0.45593999997E+02  0.45594000000E+02  0.51100000000E-03 0. -1.
         11   -1    0    0    0    0 -0.00000000000E+00 -0.00000000000E+00 -0.45593999997E+02  0.45594000000E+02  0.51100000000E-03 0.  1.
    9900012    2    1    2    0    0  0.20237937423E+01  0.40570091456E+01  0.18169305357E+02  0.72461582257E+02  0.70000015584E+02 0.  0.
        -12    1    1    2    0    0 -0.20237937423E+01 -0.40570091456E+01 -0.18169305357E+02  0.18726417743E+02  0.00000000000E+00 0.  1.
         11    1    3    3    0    0  0.71919741808E+01  0.10632113029E+02  0.10844347713E+02  0.16803755463E+02  0.51100000000E-03 0. -1.
        -11    1    3    3    0    0  0.18949178556E+02 -0.19879087097E+02  0.14959584574E+01  0.27504315366E+02  0.51100000000E-03 0.  1.
         12    1    3    3    0    0 -0.24117358995E+02  0.13303983213E+02  0.58289991866E+01  0.28153511428E+02  0.00000000000E+00 0. -1.
</event>
<event>
 7    1  0.3568800E-013  0.7246157E+02  0.7816164E-02  0.1226708E+00
        -11   -1    0    0    0    0  0.00000000000E+00  0.00000000000E+00  0.45593999997E+02  0.45594000000E+02  0.51100000000E-03 0. -1.
         11   -1    0    0    0    0 -0.00000000000E+00 -0.00000000000E+00 -0.45593999997E+02  0.45594000000E+02  0.51100000000E-03 0.  1.
    9900012    2    1    2    0    0 -0.11841757125E+02  0.69966747938E+01 -0.12708208861E+02  0.72461568347E+02  0.69999997464E+02 0.  0.
        -12    1    1    2    0    0  0.11841757125E+02 -0.69966747938E+01  0.12708208861E+02  0.18726431653E+02  0.00000000000E+00 0.  1.
         11    1    3    3    0    0 -0.73476573032E+01 -0.49001412111E+01 -0.71165758307E+01  0.11342182486E+02  0.51100000000E-03 0. -1.
        -11    1    3    3    0    0  0.54442121502E+01 -0.12872014777E+02 -0.24641999644E+02  0.28329425640E+02  0.51100000000E-03 0.  1.
         12    1    3    3    0    0 -0.99383119724E+01  0.24768830782E+02  0.19050366614E+02  0.32789960221E+02  0.00000000000E+00 0. -1.
</event>
<event>
 7    1  0.3568800E-013  0.7246157E+02  0.7816164E-02  0.1226708E+00
        -11   -1    0    0    0    0  0.00000000000E+00  0.00000000000E+00  0.45593999997E+02  0.45594000000E+02  0.51100000000E-03 0.  1.
         11   -1    0    0    0    0 -0.00000000000E+00 -0.00000000000E+00 -0.45593999997E+02  0.45594000000E+02  0.51100000000E-03 0. -1.
    9900012    2    1    2    0    0 -0.72050049244E+01  0.28591851770E+01 -0.17046763311E+02  0.72461570142E+02  0.69999999802E+02 0.  0.
        -12    1    1    2    0    0  0.72050049244E+01 -0.28591851770E+01  0.17046763311E+02  0.18726429858E+02  0.00000000000E+00 0.  1.
         11    1    3    3    0    0 -0.71710256645E+01  0.41748070142E+01 -0.15928918789E+02  0.17960597894E+02  0.51100000000E-03 0. -1.
        -11    1    3    3    0    0  0.22379694078E+02 -0.44733391800E+01 -0.15586336348E+02  0.27636847712E+02  0.51100000000E-03 0.  1.
        -12    1    3    3    0    0 -0.22413673338E+02  0.31577173428E+01  0.14468491826E+02  0.26864124535E+02  0.00000000000E+00 0.  1.
</event>
<event>
 7    1  0.3568800E-013  0.7246152E+02  0.7816164E-02  0.1226708E+00
        -11   -1    0    0    0    0  0.00000000000E+00  0.00000000000E+00  0.45593999997E+02  0.45594000000E+02  0.51100000000E-03 0.  1.
         11   -1    0    0    0    0 -0.00000000000E+00 -0.00000000000E+00 -0.45593999997E+02  0.45594000000E+02  0.51100000000E-03 0. -1.
    9900012    2    1    2    0    0 -0.12970231153E+02  0.12984778478E+02  0.37214958112E+01  0.72461524107E+02  0.69999939833E+02 0.  0.
        -12    1    1    2    0    0  0.12970231153E+02 -0.12984778478E+02 -0.37214958112E+01  0.18726475893E+02  0.00000000000E+00 0.  1.
         11    1    3    3    0    0 -0.16415482385E+02 -0.15488863298E+02  0.80139236616E+01  0.23949862649E+02  0.51100000000E-03 0. -1.
        -11    1    3    3    0    0  0.95028895729E+01  0.42498241406E+01  0.14080542222E+02  0.17510784819E+02  0.51100000000E-03 0.  1.
        -12    1    3    3    0    0 -0.60576383404E+01  0.24223817636E+02 -0.18372970072E+02  0.31000876639E+02  0.00000000000E+00 0.  1.
</event>
<event>
 7    1  0.3568800E-013  0.7246147E+02  0.7816164E-02  0.1226708E+00
        -11   -1    0    0    0    0  0.00000000000E+00  0.00000000000E+00  0.45593999997E+02  0.45594000000E+02  0.51100000000E-03 0.  1.
         11   -1    0    0    0    0 -0.00000000000E+00 -0.00000000000E+00 -0.45593999997E+02  0.45594000000E+02  0.51100000000E-03 0. -1.
    9900012    2    1    2    0    0  0.14043833365E+02 -0.35982579250E+01 -0.11853525096E+02  0.72461474084E+02  0.69999874668E+02 0.  0.
        -12    1    1    2    0    0 -0.14043833365E+02  0.35982579250E+01  0.11853525096E+02  0.18726525916E+02  0.00000000000E+00 0.  1.
         11    1    3    3    0    0 -0.37509755883E+01 -0.10493235729E+02  0.53681732365E+01  0.12369118727E+02  0.51100000000E-03 0. -1.
        -11    1    3    3    0    0 -0.12800565434E+02 -0.15799844579E+01  0.11500470906E+02  0.17280383608E+02  0.51100000000E-03 0.  1.
         12    1    3    3    0    0  0.30595374387E+02  0.84749622619E+01 -0.28722169239E+02  0.42811971749E+02  0.00000000000E+00 0. -1.
</event>
<event>
 7    1  0.3568800E-013  0.7246157E+02  0.7816164E-02  0.1226708E+00
        -11   -1    0    0    0    0  0.00000000000E+00  0.00000000000E+00  0.45593999997E+02  0.45594000000E+02  0.51100000000E-03 0.  1.
         11   -1    0    0    0    0 -0.00000000000E+00 -0.00000000000E+00 -0.45593999997E+02  0.45594000000E+02  0.51100000000E-03 0. -1.
    9900012    2    1    2    0    0 -0.12759856543E+02 -0.31958706397E+01 -0.13328601170E+02  0.72461571155E+02  0.70000001121E+02 0.  0.
        -12    1    1    2    0    0  0.12759856543E+02  0.31958706397E+01  0.13328601170E+02  0.18726428845E+02  0.00000000000E+00 0.  1.
         11    1    3    3    0    0  0.44978771106E+01  0.79660573939E+00  0.92888058776E+00  0.46613623130E+01  0.51100000000E-03 0. -1.
        -11    1    3    3    0    0  0.14904475680E+02  0.13362340679E+02 -0.22727307998E+02  0.30285740421E+02  0.51100000000E-03 0.  1.
         12    1    3    3    0    0 -0.32162209334E+02 -0.17354817058E+02  0.84698262405E+01  0.37514468421E+02  0.00000000000E+00 0. -1.
</event>
<event>
 7    1  0.3568800E-013  0.7246160E+02  0.7816164E-02  0.1226708E+00
        -11   -1    0    0    0    0  0.00000000000E+00  0.00000000000E+00  0.45593999997E+02  0.45594000000E+02  0.51100000000E-03 0.  1.
         11   -1    0    0    0    0 -0.00000000000E+00 -0.00000000000E+00 -0.45593999997E+02  0.45594000000E+02  0.51100000000E-03 0. -1.
    9900012    2    1    2    0    0  0.15076676331E+02  0.75356392293E+01  0.81600151097E+01  0.72461604875E+02  0.70000045048E+02 0.  0.
        -12    1    1    2    0    0 -0.15076676331E+02 -0.75356392293E+01 -0.81600151097E+01  0.18726395125E+02  0.00000000000E+00 0.  1.
         11    1    3    3    0    0  0.55617531819E+01  0.11727076167E+02 -0.28368937270E+02  0.31197019344E+02  0.51100000000E-03 0. -1.
        -11    1    3    3    0    0  0.32837237989E+01  0.45062085867E+01  0.35900421878E+01  0.66315278018E+01  0.51100000000E-03 0.  1.
        -12    1    3    3    0    0  0.62311993504E+01 -0.86976455246E+01  0.32938910192E+02  0.34633057729E+02  0.00000000000E+00 0.  1.
</event>
<event>
 7    1  0.3568800E-013  0.7246160E+02  0.7816164E-02  0.1226708E+00
        -11   -1    0    0    0    0  0.00000000000E+00  0.00000000000E+00  0.45593999997E+02  0.45594000000E+02  0.51100000000E-03 0.  1.
         11   -1    0    0    0    0 -0.00000000000E+00 -0.00000000000E+00 -0.45593999997E+02  0.45594000000E+02  0.51100000000E-03 0. -1.
    9900012    2    1    2    0    0  0.50417521526E+01 -0.55170735065E+01 -0.17170345534E+02  0.72461598034E+02  0.70000036136E+02 0.  0.
        -12    1    1    2    0    0 -0.50417521526E+01  0.55170735065E+01  0.17170345534E+02  0.18726401966E+02  0.00000000000E+00 0.  1.
         11    1    3    3    0    0  0.98296041797E+01  0.70425223923E+01  0.22827130864E+02  0.25832075869E+02  0.51100000000E-03 0.  1.
        -11    1    3    3    0    0 -0.84219458855E+01 -0.48420697198E+01 -0.56491194272E+01  0.11237765002E+02  0.51100000000E-03 0. -1.
        -12    1    3    3    0    0  0.36340938584E+01 -0.77175261789E+01 -0.34348356971E+02  0.35391757163E+02  0.00000000000E+00 0.  1.
</event>
<event>
 7    1  0.3568800E-013  0.7246157E+02  0.7816164E-02  0.1226708E+00
        -11   -1    0    0    0    0  0.00000000000E+00  0.00000000000E+00  0.45593999997E+02  0.45594000000E+02  0.51100000000E-03 0.  1.
         11   -1    0    0    0    0 -0.00000000000E+00 -0.00000000000E+00 -0.45593999997E+02  0.45594000000E+02  0.51100000000E-03 0. -1.
    9900012    2    1    2    0    0  0.78545965502E+01 -0.84810929036E+01 -0.14732803811E+02  0.72461571298E+02  0.70000001307E+02 0.  0.
        -12    1    1    2    0    0 -0.78545965502E+01  0.84810929036E+01  0.14732803811E+02  0.18726428702E+02  0.00000000000E+00 0.  1.
         11    1    3    3    0    0 -0.11963363130E+02 -0.70907050679E+01 -0.35753109869E+02  0.38362547117E+02  0.51100000000E-03 0. -1.
        -11    1    3    3    0    0  0.11585174619E+02  0.42359929994E+01  0.18269347457E+01  0.12469867621E+02  0.51100000000E-03 0.  1.
        -12    1    3    3    0    0  0.82327850610E+01 -0.56263808350E+01  0.19193371312E+02  0.21629156560E+02  0.00000000000E+00 0.  1.
</event>
<event>
 7    1  0.3568800E-013  0.7246161E+02  0.7816164E-02  0.1226708E+00
        -11   -1    0    0    0    0  0.00000000000E+00  0.00000000000E+00  0.45593999997E+02  0.45594000000E+02  0.51100000000E-03 0.  1.
         11   -1    0    0    0    0 -0.00000000000E+00 -0.00000000000E+00 -0.45593999997E+02  0.45594000000E+02  0.51100000000E-03 0. -1.
    9900012    2    1    2    0    0  0.94253222171E+01 -0.13720430708E+02 -0.85784965773E+01  0.72461614304E+02  0.70000057330E+02 0.  0.
        -12    1    1    2    0    0 -0.94253222171E+01  0.13720430708E+02  0.85784965773E+01  0.18726385696E+02  0.00000000000E+00 0.  1.
         11    1    3    3    0    0  0.82660430199E+01  0.62389405504E+01 -0.75314577404E+01  0.12805260730E+02  0.51100000000E-03 0. -1.
        -11    1    3    3    0    0  0.18089779078E+02  0.13088712592E+02  0.18885553632E+01  0.22408059845E+02  0.51100000000E-03 0.  1.
         12    1    3    3    0    0 -0.16930499881E+02 -0.33048083851E+02 -0.29355942001E+01  0.37248293729E+02  0.00000000000E+00 0. -1.
</event>
<event>
 7    1  0.3568800E-013  0.7246153E+02  0.7816164E-02  0.1226708E+00
        -11   -1    0    0    0    0  0.00000000000E+00  0.00000000000E+00  0.45593999997E+02  0.45594000000E+02  0.51100000000E-03 0.  1.
         11   -1    0    0    0    0 -0.00000000000E+00 -0.00000000000E+00 -0.45593999997E+02  0.45594000000E+02  0.51100000000E-03 0. -1.
    9900012    2    1    2    0    0 -0.16128586180E+02  0.80197514327E+01  0.51217957890E+01  0.72461534842E+02  0.69999953817E+02 0.  0.
        -12    1    1    2    0    0  0.16128586180E+02 -0.80197514327E+01 -0.51217957890E+01  0.18726465158E+02  0.00000000000E+00 0.  1.
         11    1    3    3    0    0 -0.14053208826E+02  0.11372759174E+02 -0.25293684740E+02  0.31090236692E+02  0.51100000000E-03 0. -1.
        -11    1    3    3    0    0  0.11111143030E+01 -0.77481296000E+01 -0.23394682453E+01  0.81695287027E+01  0.51100000000E-03 0.  1.
         12    1    3    3    0    0 -0.31864916564E+01  0.43951218583E+01  0.32754948775E+02  0.33201769448E+02  0.00000000000E+00 0. -1.
</event>
<event>
 7    1  0.3568800E-013  0.7246158E+02  0.7816164E-02  0.1226708E+00
        -11   -1    0    0    0    0  0.00000000000E+00  0.00000000000E+00  0.45593999997E+02  0.45594000000E+02  0.51100000000E-03 0.  1.
         11   -1    0    0    0    0 -0.00000000000E+00 -0.00000000000E+00 -0.45593999997E+02  0.45594000000E+02  0.51100000000E-03 0. -1.
    9900012    2    1    2    0    0 -0.11341001358E+02  0.36009597352E+01 -0.14460069529E+02  0.72461579264E+02  0.70000011684E+02 0.  0.
        -12    1    1    2    0    0  0.11341001358E+02 -0.36009597352E+01  0.14460069529E+02  0.18726420736E+02  0.00000000000E+00 0.  1.
         11    1    3    3    0    0  0.24111472740E+02  0.15814460826E+01 -0.51930532975E+01  0.24715013498E+02  0.51100000000E-03 0. -1.
        -11    1    3    3    0    0  0.74428651910E-01  0.21534150880E+01  0.79718177692E+01  0.82578819906E+01  0.51100000000E-03 0.  1.
        -12    1    3    3    0    0 -0.35526902750E+02 -0.13390143544E+00 -0.17238834001E+02  0.39488683775E+02  0.00000000000E+00 0.  1.
</event>
<event>
 7    1  0.3568800E-013  0.7246154E+02  0.7816164E-02  0.1226708E+00
        -11   -1    0    0    0    0  0.00000000000E+00  0.00000000000E+00  0.45593999997E+02  0.45594000000E+02  0.51100000000E-03 0. -1.
         11   -1    0    0    0    0 -0.00000000000E+00 -0.00000000000E+00 -0.45593999997E+02  0.45594000000E+02  0.51100000000E-03 0.  1.
    9900012    2    1    2    0    0  0.75984819848E+01 -0.54502892928E+01  0.16224605822E+02  0.72461537015E+02  0.69999956648E+02 0.  0.
        -12    1    1    2    0    0 -0.75984819848E+01  0.54502892928E+01 -0.16224605822E+02  0.18726462985E+02  0.00000000000E+00 0.  1.
         11    1    3    3    0    0  0.91635659733E+01 -0.20643126271E+02  0.79696313350E+01  0.23950461947E+02  0.51100000000E-03 0. -1.
        -11    1    3    3    0    0  0.21694334290E+02  0.69681203692E+01  0.10515618967E+01  0.22810186857E+02  0.51100000000E-03 0.  1.
         12    1    3    3    0    0 -0.23259418278E+02  0.82247166088E+01  0.72034125900E+01  0.25700888212E+02  0.00000000000E+00 0. -1.
</event>
<event>
 7    1  0.3568800E-013  0.7246153E+02  0.7816164E-02  0.1226708E+00
        -11   -1    0    0    0    0  0.00000000000E+00  0.00000000000E+00  0.45593999997E+02  0.45594000000E+02  0.51100000000E-03 0.  1.
         11   -1    0    0    0    0 -0.00000000000E+00 -0.00000000000E+00 -0.45593999997E+02  0.45594000000E+02  0.51100000000E-03 0. -1.
    9900012    2    1    2    0    0 -0.14518011566E+02  0.10480038382E+02  0.54842230587E+01  0.72461532985E+02  0.69999951397E+02 0.  0.
        -12    1    1    2    0    0  0.14518011566E+02 -0.10480038382E+02 -0.54842230587E+01  0.18726467015E+02  0.00000000000E+00 0.  1.
         11    1    3    3    0    0  0.11471734801E+01  0.33580674629E+01 -0.10094928449E+01  0.36894037654E+01  0.51100000000E-03 0. -1.
        -11    1    3    3    0    0  0.18404048515E+02 -0.17287316399E+02  0.89501384918E+01  0.26789275640E+02  0.51100000000E-03 0.  1.
         12    1    3    3    0    0 -0.34069233560E+02  0.24409287318E+02 -0.24564225883E+01  0.41982853580E+02  0.00000000000E+00 0. -1.
</event>
<event>
 7    1  0.3568800E-013  0.7246156E+02  0.7816164E-02  0.1226708E+00
        -11   -1    0    0    0    0  0.00000000000E+00  0.00000000000E+00  0.45593999997E+02  0.45594000000E+02  0.51100000000E-03 0. -1.
         11   -1    0    0    0    0 -0.00000000000E+00 -0.00000000000E+00 -0.45593999997E+02  0.45594000000E+02  0.51100000000E-03 0.  1.
    9900012    2    1    2    0    0  0.51013934895E+01 -0.16884341905E+02  0.62908281694E+01  0.72461555165E+02  0.69999980291E+02 0.  0.
        -12    1    1    2    0    0 -0.51013934895E+01  0.16884341905E+02 -0.62908281694E+01  0.18726444835E+02  0.00000000000E+00 0.  1.
         11    1    3    3    0    0 -0.10794455492E+02 -0.41651523003E+01  0.49525554414E+00  0.11580761692E+02  0.51100000000E-03 0. -1.
        -11    1    3    3    0    0 -0.11341222547E+02  0.11320545800E+02  0.16507345551E+02  0.23005880628E+02  0.51100000000E-03 0.  1.
         12    1    3    3    0    0  0.27237071529E+02 -0.24039735405E+02 -0.10711772926E+02  0.37874912845E+02  0.00000000000E+00 0. -1.
</event>
<event>
 7    1  0.3568800E-013  0.7246158E+02  0.7816164E-02  0.1226708E+00
        -11   -1    0    0    0    0  0.00000000000E+00  0.00000000000E+00  0.45593999997E+02  0.45594000000E+02  0.51100000000E-03 0.  1.
         11   -1    0    0    0    0 -0.00000000000E+00 -0.00000000000E+00 -0.45593999997E+02  0.45594000000E+02  0.51100000000E-03 0. -1.
    9900012    2    1    2    0    0  0.78683543734E+01  0.13750565846E+02 -0.99844706692E+01  0.72461582398E+02  0.70000015768E+02 0.  0.
        -12    1    1    2    0    0 -0.78683543734E+01 -0.13750565846E+02  0.99844706692E+01  0.18726417602E+02  0.00000000000E+00 0.  1.
         11    1    3    3    0    0  0.12977921030E+02  0.10193521110E+02 -0.26222968943E+02  0.30983518318E+02  0.51100000000E-03 0. -1.
        -11    1    3    3    0    0 -0.13492315004E+02  0.15474060107E+01 -0.79934011558E+01  0.15758537109E+02  0.51100000000E-03 0.  1.
        -12    1    3    3    0    0  0.83827483474E+01  0.20096387259E+01  0.24231899430E+02  0.25719526971E+02  0.00000000000E+00 0.  1.
</event>
<event>
 7    1  0.3568800E-013  0.7246143E+02  0.7816164E-02  0.1226708E+00
        -11   -1    0    0    0    0  0.00000000000E+00  0.00000000000E+00  0.45593999997E+02  0.45594000000E+02  0.51100000000E-03 0. -1.
         11   -1    0    0    0    0 -0.00000000000E+00 -0.00000000000E+00 -0.45593999997E+02  0.45594000000E+02  0.51100000000E-03 0.  1.
    9900012    2    1    2    0    0  0.14129019032E+02 -0.52643999835E+01  0.11105915710E+02  0.72461429312E+02  0.69999816343E+02 0.  0.
        -12    1    1    2    0    0 -0.14129019032E+02  0.52643999835E+01 -0.11105915710E+02  0.18726570688E+02  0.00000000000E+00 0.  1.
         11    1    3    3    0    0 -0.14316175227E+02  0.49087487615E+01 -0.19280889614E+02  0.24511250317E+02  0.51100000000E-03 0.  1.
        -11    1    3    3    0    0  0.14814838465E+02  0.28985914296E+01  0.42096713209E+01  0.15671713497E+02  0.51100000000E-03 0. -1.
        -12    1    3    3    0    0  0.13630355794E+02 -0.13071740174E+02  0.26177134003E+02  0.32278465498E+02  0.00000000000E+00 0.  1.
</event>
<event>
 7    1  0.3568800E-013  0.7246165E+02  0.7816164E-02  0.1226708E+00
        -11   -1    0    0    0    0  0.00000000000E+00  0.00000000000E+00  0.45593999997E+02  0.45594000000E+02  0.51100000000E-03 0.  1.
         11   -1    0    0    0    0 -0.00000000000E+00 -0.00000000000E+00 -0.45593999997E+02  0.45594000000E+02  0.51100000000E-03 0. -1.
    9900012    2    1    2    0    0  0.10997382305E+02  0.53866873354E+01 -0.14167475752E+02  0.72461649923E+02  0.70000103731E+02 0.  0.
        -12    1    1    2    0    0 -0.10997382305E+02 -0.53866873354E+01  0.14167475752E+02  0.18726350077E+02  0.00000000000E+00 0.  1.
         11    1    3    3    0    0  0.62391144619E+01 -0.19976859950E+02 -0.28918902099E+02  0.35697400208E+02  0.51100000000E-03 0. -1.
        -11    1    3    3    0    0  0.82678847487E+01  0.26722602080E+00  0.46073363811E+01  0.94687315282E+01  0.51100000000E-03 0.  1.
        -12    1    3    3    0    0 -0.35096169053E+01  0.25096321265E+02  0.10144089966E+02  0.27295518187E+02  0.00000000000E+00 0.  1.
</event>
<event>
 7    1  0.3568800E-013  0.7246110E+02  0.7816164E-02  0.1226709E+00
        -11   -1    0    0    0    0  0.00000000000E+00  0.00000000000E+00  0.45593999997E+02  0.45594000000E+02  0.51100000000E-03 0.  1.
         11   -1    0    0    0    0 -0.00000000000E+00 -0.00000000000E+00 -0.45593999997E+02  0.45594000000E+02  0.51100000000E-03 0. -1.
    9900012    2    1    2    0    0 -0.13537747243E+02  0.74087552002E+01 -0.10608319469E+02  0.72461102339E+02  0.69999390399E+02 0.  0.
        -12    1    1    2    0    0  0.13537747243E+02 -0.74087552002E+01  0.10608319469E+02  0.18726897661E+02  0.00000000000E+00 0.  1.
         11    1    3    3    0    0  0.70174547316E+00 -0.44506958062E+01 -0.25616137510E+02  0.26009376022E+02  0.51100000000E-03 0. -1.
        -11    1    3    3    0    0  0.93866562856E+01  0.72016216236E+01 -0.70694512892E+01  0.13782228123E+02  0.51100000000E-03 0.  1.
        -12    1    3    3    0    0 -0.23626149002E+02  0.46578293828E+01  0.22077269330E+02  0.32669498195E+02  0.00000000000E+00 0.  1.
</event>
<event>
 7    1  0.3568800E-013  0.7246174E+02  0.7816164E-02  0.1226708E+00
        -11   -1    0    0    0    0  0.00000000000E+00  0.00000000000E+00  0.45593999997E+02  0.45594000000E+02  0.51100000000E-03 0. -1.
         11   -1    0    0    0    0 -0.00000000000E+00 -0.00000000000E+00 -0.45593999997E+02  0.45594000000E+02  0.51100000000E-03 0.  1.
    9900012    2    1    2    0    0 -0.13733941095E+02  0.10967062476E+02  0.64633667452E+01  0.72461742845E+02  0.70000224779E+02 0.  0.
        -12    1    1    2    0    0  0.13733941095E+02 -0.10967062476E+02 -0.64633667452E+01  0.18726257155E+02  0.00000000000E+00 0.  1.
         11    1    3    3    0    0 -0.31835025240E+02 -0.23448664194E+01  0.63312642161E+01  0.32543081252E+02  0.51100000000E-03 0. -1.
        -11    1    3    3    0    0  0.56104377104E+01 -0.10502950812E+02 -0.43079940396E+01  0.12662851179E+02  0.51100000000E-03 0.  1.
        -12    1    3    3    0    0  0.12490646435E+02  0.23814879707E+02  0.44400965687E+01  0.27255810415E+02  0.00000000000E+00 0.  1.
</event>
<event>
 7    1  0.3568800E-013  0.7246156E+02  0.7816164E-02  0.1226708E+00
        -11   -1    0    0    0    0  0.00000000000E+00  0.00000000000E+00  0.45593999997E+02  0.45594000000E+02  0.51100000000E-03 0.  1.
         11   -1    0    0    0    0 -0.00000000000E+00 -0.00000000000E+00 -0.45593999997E+02  0.45594000000E+02  0.51100000000E-03 0. -1.
    9900012    2    1    2    0    0  0.14610540671E+02  0.10289033768E+02 -0.55988851125E+01  0.72461558024E+02  0.69999984016E+02 0.  0.
        -12    1    1    2    0    0 -0.14610540671E+02 -0.10289033768E+02  0.55988851125E+01  0.18726441976E+02  0.00000000000E+00 0.  1.
         11    1    3    3    0    0  0.13646156744E+02 -0.86516880470E+00 -0.90901326405E+01  0.16419397755E+02  0.51100000000E-03 0. -1.
        -11    1    3    3    0    0  0.13495424690E+02 -0.16474243757E+02 -0.91470972010E+01  0.23177501643E+02  0.51100000000E-03 0.  1.
        -12    1    3    3    0    0 -0.12531040763E+02  0.27628446329E+02  0.12638344729E+02  0.32864658627E+02  0.00000000000E+00 0.  1.
</event>
<event>
 7    1  0.3568800E-013  0.7246159E+02  0.7816164E-02  0.1226708E+00
        -11   -1    0    0    0    0  0.00000000000E+00  0.00000000000E+00  0.45593999997E+02  0.45594000000E+02  0.51100000000E-03 0.  1.
         11   -1    0    0    0    0 -0.00000000000E+00 -0.00000000000E+00 -0.45593999997E+02  0.45594000000E+02  0.51100000000E-03 0. -1.
    9900012    2    1    2    0    0 -0.73662071008E+01  0.17479396297E+01 -0.17127822639E+02  0.72461585278E+02  0.70000019518E+02 0.  0.
        -12    1    1    2    0    0  0.73662071008E+01 -0.17479396297E+01  0.17127822639E+02  0.18726414722E+02  0.00000000000E+00 0.  1.
         11    1    3    3    0    0 -0.53396582556E+00 -0.10095176017E+02 -0.27951203775E+01  0.10488584104E+02  0.51100000000E-03 0. -1.
        -11    1    3    3    0    0 -0.25084936753E+02 -0.10999409719E+02 -0.17590746134E+02  0.32552656050E+02  0.51100000000E-03 0.  1.
        -12    1    3    3    0    0  0.18252695478E+02  0.22842525366E+02  0.32580438726E+01  0.29420345124E+02  0.00000000000E+00 0.  1.
</event>
<event>
 7    1  0.3568800E-013  0.7246135E+02  0.7816164E-02  0.1226709E+00
        -11   -1    0    0    0    0  0.00000000000E+00  0.00000000000E+00  0.45593999997E+02  0.45594000000E+02  0.51100000000E-03 0.  1.
         11   -1    0    0    0    0 -0.00000000000E+00 -0.00000000000E+00 -0.45593999997E+02  0.45594000000E+02  0.51100000000E-03 0. -1.
    9900012    2    1    2    0    0  0.12606608641E+02  0.10371293494E+02 -0.91758917862E+01  0.72461353203E+02  0.69999717198E+02 0.  0.
        -12    1    1    2    0    0 -0.12606608641E+02 -0.10371293494E+02  0.91758917862E+01  0.18726646797E+02  0.00000000000E+00 0.  1.
         11    1    3    3    0    0 -0.42955555776E+01  0.20475935539E+02  0.16346932269E+01  0.20985422467E+02  0.51100000000E-03 0. -1.
        -11    1    3    3    0    0  0.21601288338E+01  0.17850232121E+02 -0.82073494509E+01  0.19765058275E+02  0.51100000000E-03 0.  1.
        -12    1    3    3    0    0  0.14742035385E+02 -0.27954874165E+02 -0.26032355621E+01  0.31710872462E+02  0.00000000000E+00 0.  1.
</event>
<event>
 7    1  0.3568800E-013  0.7246159E+02  0.7816164E-02  0.1226708E+00
        -11   -1    0    0    0    0  0.00000000000E+00  0.00000000000E+00  0.45593999997E+02  0.45594000000E+02  0.51100000000E-03 0.  1.
         11   -1    0    0    0    0 -0.00000000000E+00 -0.00000000000E+00 -0.45593999997E+02  0.45594000000E+02  0.51100000000E-03 0. -1.
    9900012    2    1    2    0    0 -0.11478348802E+02  0.40289601401E+01 -0.14237048033E+02  0.72461586896E+02  0.70000021627E+02 0.  0.
        -12    1    1    2    0    0  0.11478348802E+02 -0.40289601401E+01  0.14237048033E+02  0.18726413104E+02  0.00000000000E+00 0.  1.
         11    1    3    3    0    0 -0.10828612937E+02  0.19391056949E+02 -0.20641216612E+02  0.30320484350E+02  0.51100000000E-03 0. -1.
        -11    1    3    3    0    0  0.12345188691E+02  0.19803513554E+00 -0.10138013418E+02  0.15975675824E+02  0.51100000000E-03 0.  1.
        -12    1    3    3    0    0 -0.12994924556E+02 -0.15560131944E+02  0.16542181997E+02  0.26165426722E+02  0.00000000000E+00 0.  1.
</event>
<event>
 7    1  0.3568800E-013  0.7246157E+02  0.7816164E-02  0.1226708E+00
        -11   -1    0    0    0    0  0.00000000000E+00  0.00000000000E+00  0.45593999997E+02  0.45594000000E+02  0.51100000000E-03 0. -1.
         11   -1    0    0    0    0 -0.00000000000E+00 -0.00000000000E+00 -0.45593999997E+02  0.45594000000E+02  0.51100000000E-03 0.  1.
    9900012    2    1    2    0    0 -0.16807791915E+02 -0.42229158297E+01 -0.70953785066E+01  0.72461567256E+02  0.69999996042E+02 0.  0.
        -12    1    1    2    0    0  0.16807791915E+02  0.42229158297E+01  0.70953785066E+01  0.18726432744E+02  0.00000000000E+00 0.  1.
         11    1    3    3    0    0 -0.19842609979E+02  0.45721161634E+01  0.15285263847E+02  0.25461200053E+02  0.51100000000E-03 0. -1.
        -11    1    3    3    0    0 -0.86010563362E+01  0.10825668856E+02 -0.19648587205E+02  0.24025824766E+02  0.51100000000E-03 0.  1.
         12    1    3    3    0    0  0.11635874401E+02 -0.19620700849E+02 -0.27320551481E+01  0.22974542437E+02  0.00000000000E+00 0. -1.
</event>
<event>
 7    1  0.3568800E-013  0.7246096E+02  0.7816164E-02  0.1226710E+00
        -11   -1    0    0    0    0  0.00000000000E+00  0.00000000000E+00  0.45593999997E+02  0.45594000000E+02  0.51100000000E-03 0.  1.
         11   -1    0    0    0    0 -0.00000000000E+00 -0.00000000000E+00 -0.45593999997E+02  0.45594000000E+02  0.51100000000E-03 0. -1.
    9900012    2    1    2    0    0 -0.16909261649E+02  0.74175021139E+01 -0.31240433642E+01  0.72460957680E+02  0.69999201951E+02 0.  0.
        -12    1    1    2    0    0  0.16909261649E+02 -0.74175021139E+01  0.31240433642E+01  0.18727042320E+02  0.00000000000E+00 0.  1.
         11    1    3    3    0    0 -0.11184249968E+02 -0.39554739687E+01 -0.11685605869E+02  0.16651925008E+02  0.51100000000E-03 0. -1.
        -11    1    3    3    0    0 -0.13830359438E+02  0.20076605533E+02 -0.15555219457E+02  0.28919090313E+02  0.51100000000E-03 0.  1.
         12    1    3    3    0    0  0.81053477570E+01 -0.87036294506E+01  0.24116781962E+02  0.26889942359E+02  0.00000000000E+00 0. -1.
</event>
<event>
 7    1  0.3568800E-013  0.7246157E+02  0.7816164E-02  0.1226708E+00
        -11   -1    0    0    0    0  0.00000000000E+00  0.00000000000E+00  0.45593999997E+02  0.45594000000E+02  0.51100000000E-03 0. -1.
         11   -1    0    0    0    0 -0.00000000000E+00 -0.00000000000E+00 -0.45593999997E+02  0.45594000000E+02  0.51100000000E-03 0.  1.
    9900012    2    1    2    0    0  0.64706766788E-01  0.12512638550E+01  0.18684464251E+02  0.72461573417E+02  0.70000004068E+02 0.  0.
        -12    1    1    2    0    0 -0.64706766788E-01 -0.12512638550E+01 -0.18684464251E+02  0.18726426583E+02  0.00000000000E+00 0.  1.
         11    1    3    3    0    0  0.99327940389E+01 -0.32047808387E+01 -0.10403890452E+02  0.14736755221E+02  0.51100000000E-03 0.  1.
        -11    1    3    3    0    0 -0.57072163069E+00  0.92468083591E+01 -0.12094247793E+02  0.15234829108E+02  0.51100000000E-03 0. -1.
        -12    1    3    3    0    0 -0.92973656415E+01 -0.47907636654E+01  0.41182602496E+02  0.42489989088E+02  0.00000000000E+00 0.  1.
</event>
<event>
 7    1  0.3568800E-013  0.7246160E+02  0.7816164E-02  0.1226708E+00
        -11   -1    0    0    0    0  0.00000000000E+00  0.00000000000E+00  0.45593999997E+02  0.45594000000E+02  0.51100000000E-03 0. -1.
         11   -1    0    0    0    0 -0.00000000000E+00 -0.00000000000E+00 -0.45593999997E+02  0.45594000000E+02  0.51100000000E-03 0.  1.
    9900012    2    1    2    0    0 -0.12313737218E+02  0.73525695408E+01  0.12041160396E+02  0.72461602941E+02  0.70000042529E+02 0.  0.
        -12    1    1    2    0    0  0.12313737218E+02 -0.73525695408E+01 -0.12041160396E+02  0.18726397059E+02  0.00000000000E+00 0.  1.
         11    1    3    3    0    0 -0.56346568281E+01 -0.18434407058E+01 -0.10910514237E+02  0.12417203888E+02  0.51100000000E-03 0. -1.
        -11    1    3    3    0    0  0.21809784570E+02  0.14887726316E+02  0.10008058936E+02  0.28239552790E+02  0.51100000000E-03 0.  1.
         12    1    3    3    0    0 -0.28488864960E+02 -0.56917160699E+01  0.12943615697E+02  0.31804846263E+02  0.00000000000E+00 0. -1.
</event>
<event>
 7    1  0.3568800E-013  0.7246151E+02  0.7816164E-02  0.1226708E+00
        -11   -1    0    0    0    0  0.00000000000E+00  0.00000000000E+00  0.45593999997E+02  0.45594000000E+02  0.51100000000E-03 0.  1.
         11   -1    0    0    0    0 -0.00000000000E+00 -0.00000000000E+00 -0.45593999997E+02  0.45594000000E+02  0.51100000000E-03 0. -1.
    9900012    2    1    2    0    0 -0.61295065324E+01  0.30983171841E+01 -0.17421564705E+02  0.72461512436E+02  0.69999924629E+02 0.  0.
        -12    1    1    2    0    0  0.61295065324E+01 -0.30983171841E+01  0.17421564705E+02  0.18726487564E+02  0.00000000000E+00 0.  1.
         11    1    3    3    0    0 -0.11886114324E+02 -0.81013795562E+01 -0.65397938377E+01  0.15801296407E+02  0.51100000000E-03 0. -1.
        -11    1    3    3    0    0  0.27343916469E+02  0.13423067038E+02  0.34465438917E+01  0.30655295817E+02  0.51100000000E-03 0.  1.
         12    1    3    3    0    0 -0.21587308678E+02 -0.22233702977E+01 -0.14328314759E+02  0.26004920213E+02  0.00000000000E+00 0. -1.
</event>
<event>
 7    1  0.3568800E-013  0.7246157E+02  0.7816164E-02  0.1226708E+00
        -11   -1    0    0    0    0  0.00000000000E+00  0.00000000000E+00  0.45593999997E+02  0.45594000000E+02  0.51100000000E-03 0. -1.
         11   -1    0    0    0    0 -0.00000000000E+00 -0.00000000000E+00 -0.45593999997E+02  0.45594000000E+02  0.51100000000E-03 0.  1.
    9900012    2    1    2    0    0  0.56961636851E+01  0.88995956329E+01  0.15460602740E+02  0.72461566270E+02  0.69999994757E+02 0.  0.
        -12    1    1    2    0    0 -0.56961636851E+01 -0.88995956329E+01 -0.15460602740E+02  0.18726433730E+02  0.00000000000E+00 0.  1.
         11    1    3    3    0    0 -0.12504206320E+02  0.30920210891E+01  0.14290974162E+02  0.19239223292E+02  0.51100000000E-03 0. -1.
        -11    1    3    3    0    0  0.99184831428E+01  0.22188777705E+02  0.16442120232E+02  0.29343849132E+02  0.51100000000E-03 0.  1.
        -12    1    3    3    0    0  0.82818868625E+01 -0.16381203161E+02 -0.15272491654E+02  0.23878493846E+02  0.00000000000E+00 0.  1.
</event>
<event>
 7    1  0.3568800E-013  0.7246155E+02  0.7816164E-02  0.1226708E+00
        -11   -1    0    0    0    0  0.00000000000E+00  0.00000000000E+00  0.45593999997E+02  0.45594000000E+02  0.51100000000E-03 0.  1.
         11   -1    0    0    0    0 -0.00000000000E+00 -0.00000000000E+00 -0.45593999997E+02  0.45594000000E+02  0.51100000000E-03 0. -1.
    9900012    2    1    2    0    0 -0.14494882162E+02  0.70986821330E+01 -0.94966809163E+01  0.72461552250E+02  0.69999976494E+02 0.  0.
        -12    1    1    2    0    0  0.14494882162E+02 -0.70986821330E+01  0.94966809163E+01  0.18726447750E+02  0.00000000000E+00 0.  1.
         11    1    3    3    0    0 -0.27353282487E+02  0.51403503902E+01 -0.16457614506E+02  0.32333857493E+02  0.51100000000E-03 0. -1.
        -11    1    3    3    0    0 -0.90466310064E+01 -0.96833252588E+01  0.76696183338E+01  0.15311151697E+02  0.51100000000E-03 0.  1.
        -12    1    3    3    0    0  0.21905031331E+02  0.11641657002E+02 -0.70868474435E+00  0.24816543060E+02  0.00000000000E+00 0.  1.
</event>
<event>
 7    1  0.3568800E-013  0.7246156E+02  0.7816164E-02  0.1226708E+00
        -11   -1    0    0    0    0  0.00000000000E+00  0.00000000000E+00  0.45593999997E+02  0.45594000000E+02  0.51100000000E-03 0.  1.
         11   -1    0    0    0    0 -0.00000000000E+00 -0.00000000000E+00 -0.45593999997E+02  0.45594000000E+02  0.51100000000E-03 0. -1.
    9900012    2    1    2    0    0  0.62494865301E+01 -0.98522363632E+01 -0.14647757278E+02  0.72461563165E+02  0.69999990713E+02 0.  0.
        -12    1    1    2    0    0 -0.62494865301E+01  0.98522363632E+01  0.14647757278E+02  0.18726436835E+02  0.00000000000E+00 0.  1.
         11    1    3    3    0    0  0.11077998922E+02 -0.17322643272E+02  0.28752305224E+00  0.20564014681E+02  0.51100000000E-03 0. -1.
        -11    1    3    3    0    0  0.10228279698E+02 -0.72558410390E+01 -0.25439327734E+02  0.28362375263E+02  0.51100000000E-03 0.  1.
        -12    1    3    3    0    0 -0.15056792090E+02  0.14726247948E+02  0.10504047404E+02  0.23535173221E+02  0.00000000000E+00 0.  1.
</event>
<event>
 7    1  0.3568800E-013  0.7246153E+02  0.7816164E-02  0.1226708E+00
        -11   -1    0    0    0    0  0.00000000000E+00  0.00000000000E+00  0.45593999997E+02  0.45594000000E+02  0.51100000000E-03 0.  1.
         11   -1    0    0    0    0 -0.00000000000E+00 -0.00000000000E+00 -0.45593999997E+02  0.45594000000E+02  0.51100000000E-03 0. -1.
    9900012    2    1    2    0    0 -0.11617220851E+02 -0.10874454282E+02 -0.98725387451E+01  0.72461532167E+02  0.69999950332E+02 0.  0.
        -12    1    1    2    0    0  0.11617220851E+02  0.10874454282E+02  0.98725387451E+01  0.18726467833E+02  0.00000000000E+00 0.  1.
         11    1    3    3    0    0  0.66348418259E+01  0.57497304482E+01 -0.90416900782E+01  0.12602884035E+02  0.51100000000E-03 0. -1.
        -11    1    3    3    0    0  0.18563173419E+02 -0.11608861770E+02  0.44148055245E+01  0.22334896173E+02  0.51100000000E-03 0.  1.
         12    1    3    3    0    0 -0.36815236095E+02 -0.50153229610E+01 -0.52456541915E+01  0.37523751959E+02  0.00000000000E+00 0. -1.
</event>
<event>
 7    1  0.3568800E-013  0.7246157E+02  0.7816164E-02  0.1226708E+00
        -11   -1    0    0    0    0  0.00000000000E+00  0.00000000000E+00  0.45593999997E+02  0.45594000000E+02  0.51100000000E-03 0.  1.
         11   -1    0    0    0    0 -0.00000000000E+00 -0.00000000000E+00 -0.45593999997E+02  0.45594000000E+02  0.51100000000E-03 0. -1.
    9900012    2    1    2    0    0  0.17113922205E+02 -0.46821970151E+01 -0.59891369672E+01  0.72461573118E+02  0.70000003679E+02 0.  0.
        -12    1    1    2    0    0 -0.17113922205E+02  0.46821970151E+01  0.59891369672E+01  0.18726426882E+02  0.00000000000E+00 0.  1.
         11    1    3    3    0    0 -0.22616485389E+02  0.10662653391E+02 -0.20881622941E+01  0.25090994614E+02  0.51100000000E-03 0. -1.
        -11    1    3    3    0    0 -0.18564355307E+01 -0.35094835944E+01 -0.23265851695E+00  0.39770539631E+01  0.51100000000E-03 0.  1.
         12    1    3    3    0    0  0.41586843125E+02 -0.11835366812E+02 -0.36683161562E+01  0.43393524541E+02  0.00000000000E+00 0. -1.
</event>
<event>
 7    1  0.3568800E-013  0.7246154E+02  0.7816164E-02  0.1226708E+00
        -11   -1    0    0    0    0  0.00000000000E+00  0.00000000000E+00  0.45593999997E+02  0.45594000000E+02  0.51100000000E-03 0. -1.
         11   -1    0    0    0    0 -0.00000000000E+00 -0.00000000000E+00 -0.45593999997E+02  0.45594000000E+02  0.51100000000E-03 0.  1.
    9900012    2    1    2    0    0 -0.15703525207E+02  0.46988367828E+01  0.90554243577E+01  0.72461535269E+02  0.69999954372E+02 0.  0.
        -12    1    1    2    0    0  0.15703525207E+02 -0.46988367828E+01 -0.90554243577E+01  0.18726464731E+02  0.00000000000E+00 0.  1.
         11    1    3    3    0    0 -0.40347491650E+02 -0.43199281506E+01  0.79728202225E+01  0.41353932391E+02  0.51100000000E-03 0. -1.
        -11    1    3    3    0    0 -0.19459340329E+01 -0.13643467222E+01 -0.78090178898E+00  0.25015813207E+01  0.51100000000E-03 0.  1.
        -12    1    3    3    0    0  0.26589900476E+02  0.10383111656E+02  0.18635059242E+01  0.28606021557E+02  0.00000000000E+00 0.  1.
</event>
<event>
 7    1  0.3568800E-013  0.7246157E+02  0.7816164E-02  0.1226708E+00
        -11   -1    0    0    0    0  0.00000000000E+00  0.00000000000E+00  0.45593999997E+02  0.45594000000E+02  0.51100000000E-03 0. -1.
         11   -1    0    0    0    0 -0.00000000000E+00 -0.00000000000E+00 -0.45593999997E+02  0.45594000000E+02  0.51100000000E-03 0.  1.
    9900012    2    1    2    0    0  0.95225566803E+01 -0.76696015706E+01  0.14183699060E+02  0.72461569667E+02  0.69999999183E+02 0.  0.
        -12    1    1    2    0    0 -0.95225566803E+01  0.76696015706E+01 -0.14183699060E+02  0.18726430333E+02  0.00000000000E+00 0.  1.
         11    1    3    3    0    0 -0.14858302814E+02  0.13460624480E+02  0.36415038952E+01  0.20376901746E+02  0.51100000000E-03 0. -1.
        -11    1    3    3    0    0  0.79374288644E+01 -0.17230341424E+02 -0.13077786226E+02  0.23041613125E+02  0.51100000000E-03 0.  1.
         12    1    3    3    0    0  0.16443430629E+02 -0.38998846265E+01  0.23619981391E+02  0.29043054796E+02  0.00000000000E+00 0. -1.
</event>
<event>
 7    1  0.3568800E-013  0.7246156E+02  0.7816164E-02  0.1226708E+00
        -11   -1    0    0    0    0  0.00000000000E+00  0.00000000000E+00  0.45593999997E+02  0.45594000000E+02  0.51100000000E-03 0.  1.
         11   -1    0    0    0    0 -0.00000000000E+00 -0.00000000000E+00 -0.45593999997E+02  0.45594000000E+02  0.51100000000E-03 0. -1.
    9900012    2    1    2    0    0  0.14191303178E+02 -0.17586870776E+01  0.12091050122E+02  0.72461559890E+02  0.69999986447E+02 0.  0.
        -12    1    1    2    0    0 -0.14191303178E+02  0.17586870776E+01 -0.12091050122E+02  0.18726440110E+02  0.00000000000E+00 0.  1.
         11    1    3    3    0    0 -0.12400018070E+02 -0.22803563433E+02  0.14677925399E+02  0.29819531312E+02  0.51100000000E-03 0.  1.
        -11    1    3    3    0    0  0.17123472946E+02  0.11848200255E+02  0.11125940773E+02  0.23608890981E+02  0.51100000000E-03 0. -1.
        -12    1    3    3    0    0  0.94678483025E+01  0.91966761000E+01 -0.13712816050E+02  0.19033137597E+02  0.00000000000E+00 0.  1.
</event>
<event>
 7    1  0.3568800E-013  0.7246172E+02  0.7816164E-02  0.1226708E+00
        -11   -1    0    0    0    0  0.00000000000E+00  0.00000000000E+00  0.45593999997E+02  0.45594000000E+02  0.51100000000E-03 0.  1.
         11   -1    0    0    0    0 -0.00000000000E+00 -0.00000000000E+00 -0.45593999997E+02  0.45594000000E+02  0.51100000000E-03 0. -1.
    9900012    2    1    2    0    0  0.89874413899E+00 -0.72934223037E+01 -0.17224162034E+02  0.72461721467E+02  0.70000196930E+02 0.  0.
        -12    1    1    2    0    0 -0.89874413899E+00  0.72934223037E+01  0.17224162034E+02  0.18726278533E+02  0.00000000000E+00 0.  1.
         11    1    3    3    0    0  0.59384418171E+01  0.23436372238E+01 -0.91037979022E+01  0.11119211445E+02  0.51100000000E-03 0. -1.
        -11    1    3    3    0    0  0.14106209336E+02 -0.22893079793E+02 -0.21550576450E+02  0.34460202986E+02  0.51100000000E-03 0.  1.
        -12    1    3    3    0    0 -0.19145907014E+02  0.13256020265E+02  0.13430212318E+02  0.26882307036E+02  0.00000000000E+00 0.  1.
</event>
<event>
 7    1  0.3568800E-013  0.7246175E+02  0.7816164E-02  0.1226708E+00
        -11   -1    0    0    0    0  0.00000000000E+00  0.00000000000E+00  0.45593999997E+02  0.45594000000E+02  0.51100000000E-03 0. -1.
         11   -1    0    0    0    0 -0.00000000000E+00 -0.00000000000E+00 -0.45593999997E+02  0.45594000000E+02  0.51100000000E-03 0.  1.
    9900012    2    1    2    0    0 -0.40716622093E+01 -0.37200260148E+01  0.17895678315E+02  0.72461752937E+02  0.70000237926E+02 0.  0.
        -12    1    1    2    0    0  0.40716622093E+01  0.37200260148E+01 -0.17895678315E+02  0.18726247063E+02  0.00000000000E+00 0.  1.
         11    1    3    3    0    0  0.80266472852E+01 -0.16858840194E+01 -0.64632628261E+01  0.10442367461E+02  0.51100000000E-03 0. -1.
        -11    1    3    3    0    0  0.18553370303E+02  0.10591670693E+02  0.85234506541E+00  0.21380774777E+02  0.51100000000E-03 0.  1.
         12    1    3    3    0    0 -0.30651679798E+02 -0.12625812689E+02  0.23506596076E+02  0.40638610699E+02  0.00000000000E+00 0. -1.
</event>
<event>
 7    1  0.3568800E-013  0.7246217E+02  0.7816164E-02  0.1226706E+00
        -11   -1    0    0    0    0  0.00000000000E+00  0.00000000000E+00  0.45593999997E+02  0.45594000000E+02  0.51100000000E-03 0.  1.
         11   -1    0    0    0    0 -0.00000000000E+00 -0.00000000000E+00 -0.45593999997E+02  0.45594000000E+02  0.51100000000E-03 0. -1.
    9900012    2    1    2    0    0  0.10098452159E+02 -0.89367933257E+01 -0.12992751121E+02  0.72462173111E+02  0.70000785277E+02 0.  0.
        -12    1    1    2    0    0 -0.10098452159E+02  0.89367933257E+01  0.12992751121E+02  0.18725826889E+02  0.00000000000E+00 0.  1.
         11    1    3    3    0    0 -0.34429686541E+01  0.29869013211E+01  0.41012167828E+00  0.45764410525E+01  0.51100000000E-03 0. -1.
        -11    1    3    3    0    0 -0.20573965995E+02 -0.12769729768E+02  0.10322247002E+02  0.26323048049E+02  0.51100000000E-03 0.  1.
         12    1    3    3    0    0  0.34115386809E+02  0.84603512167E+00 -0.23725119802E+02  0.41562684010E+02  0.00000000000E+00 0. -1.
</event>
<event>
 7    1  0.3568800E-013  0.7246163E+02  0.7816164E-02  0.1226708E+00
        -11   -1    0    0    0    0  0.00000000000E+00  0.00000000000E+00  0.45593999997E+02  0.45594000000E+02  0.51100000000E-03 0.  1.
         11   -1    0    0    0    0 -0.00000000000E+00 -0.00000000000E+00 -0.45593999997E+02  0.45594000000E+02  0.51100000000E-03 0. -1.
    9900012    2    1    2    0    0  0.10085046057E+02 -0.82335837999E+00 -0.15757250635E+02  0.72461627672E+02  0.70000074745E+02 0.  0.
        -12    1    1    2    0    0 -0.10085046057E+02  0.82335837999E+00  0.15757250635E+02  0.18726372328E+02  0.00000000000E+00 0.  1.
         11    1    3    3    0    0  0.10981014398E+02 -0.52438320789E+01 -0.99511151271E+01  0.15719578385E+02  0.51100000000E-03 0. -1.
        -11    1    3    3    0    0  0.13339817577E+02  0.23987328428E+02  0.83735361548E+01  0.28695971252E+02  0.51100000000E-03 0.  1.
         12    1    3    3    0    0 -0.14235785917E+02 -0.19566854729E+02 -0.14179671662E+02  0.28046078035E+02  0.00000000000E+00 0. -1.
</event>
<event>
 7    1  0.3568800E-013  0.7246155E+02  0.7816164E-02  0.1226708E+00
        -11   -1    0    0    0    0  0.00000000000E+00  0.00000000000E+00  0.45593999997E+02  0.45594000000E+02  0.51100000000E-03 0. -1.
         11   -1    0    0    0    0 -0.00000000000E+00 -0.00000000000E+00 -0.45593999997E+02  0.45594000000E+02  0.51100000000E-03 0.  1.
    9900012    2    1    2    0    0 -0.85576782183E+01  0.12749528782E+02 -0.10718940810E+02  0.72461547246E+02  0.69999969975E+02 0.  0.
        -12    1    1    2    0    0  0.85576782183E+01 -0.12749528782E+02  0.10718940810E+02  0.18726452754E+02  0.00000000000E+00 0.  1.
         11    1    3    3    0    0 -0.14253802528E+02  0.29222410634E+02 -0.23161965671E+02  0.39919880057E+02  0.51100000000E-03 0. -1.
        -11    1    3    3    0    0  0.92946228821E+01 -0.65285692047E+01  0.17465684112E+02  0.20834163102E+02  0.51100000000E-03 0.  1.
        -12    1    3    3    0    0 -0.35984985721E+01 -0.99443126471E+01 -0.50226592507E+01  0.11707504087E+02  0.00000000000E+00 0.  1.
</event>
<event>
 7    1  0.3568800E-013  0.7246155E+02  0.7816164E-02  0.1226708E+00
        -11   -1    0    0    0    0  0.00000000000E+00  0.00000000000E+00  0.45593999997E+02  0.45594000000E+02  0.51100000000E-03 0.  1.
         11   -1    0    0    0    0 -0.00000000000E+00 -0.00000000000E+00 -0.45593999997E+02  0.45594000000E+02  0.51100000000E-03 0. -1.
    9900012    2    1    2    0    0  0.24636103392E-01  0.89473380587E+01 -0.16450667086E+02  0.72461550447E+02  0.69999974146E+02 0.  0.
        -12    1    1    2    0    0 -0.24636103392E-01 -0.89473380587E+01  0.16450667086E+02  0.18726449553E+02  0.00000000000E+00 0.  1.
         11    1    3    3    0    0  0.27835010902E+02 -0.10629554068E+02 -0.16149961546E+02  0.33890950264E+02  0.51100000000E-03 0. -1.
        -11    1    3    3    0    0 -0.94458606650E+01  0.15762144669E+02 -0.53639843235E+01  0.19142670043E+02  0.51100000000E-03 0.  1.
        -12    1    3    3    0    0 -0.18364514133E+02  0.38147474577E+01  0.50632787840E+01  0.19427930141E+02  0.00000000000E+00 0.  1.
</event>
<event>
 7    1  0.3568800E-013  0.7246153E+02  0.7816164E-02  0.1226708E+00
        -11   -1    0    0    0    0  0.00000000000E+00  0.00000000000E+00  0.45593999997E+02  0.45594000000E+02  0.51100000000E-03 0.  1.
         11   -1    0    0    0    0 -0.00000000000E+00 -0.00000000000E+00 -0.45593999997E+02  0.45594000000E+02  0.51100000000E-03 0. -1.
    9900012    2    1    2    0    0 -0.52085977526E+01 -0.12232080641E+01 -0.17945888792E+02  0.72461530684E+02  0.69999948400E+02 0.  0.
        -12    1    1    2    0    0  0.52085977526E+01  0.12232080641E+01  0.17945888792E+02  0.18726469316E+02  0.00000000000E+00 0.  1.
         11    1    3    3    0    0 -0.11031724972E+02  0.29864191830E+02 -0.11739715055E+02  0.33932135497E+02  0.51100000000E-03 0. -1.
        -11    1    3    3    0    0  0.32708621228E+01  0.12853694600E+01 -0.48999073364E+01  0.60299092731E+01  0.51100000000E-03 0.  1.
        -12    1    3    3    0    0  0.25522650963E+01 -0.32372769354E+02 -0.13062664003E+01  0.32499485914E+02  0.00000000000E+00 0.  1.
</event>
<event>
 7    1  0.3568800E-013  0.7246156E+02  0.7816164E-02  0.1226708E+00
        -11   -1    0    0    0    0  0.00000000000E+00  0.00000000000E+00  0.45593999997E+02  0.45594000000E+02  0.51100000000E-03 0. -1.
         11   -1    0    0    0    0 -0.00000000000E+00 -0.00000000000E+00 -0.45593999997E+02  0.45594000000E+02  0.51100000000E-03 0.  1.
    9900012    2    1    2    0    0 -0.42825931557E+01 -0.14661447794E+01  0.18171113963E+02  0.72461559674E+02  0.69999986165E+02 0.  0.
        -12    1    1    2    0    0  0.42825931557E+01  0.14661447794E+01 -0.18171113963E+02  0.18726440326E+02  0.00000000000E+00 0.  1.
         11    1    3    3    0    0  0.11494604820E+02 -0.17613936165E+02 -0.25297557800E+00  0.21034274033E+02  0.51100000000E-03 0. -1.
        -11    1    3    3    0    0 -0.55083719971E+01 -0.87514232607E+01 -0.84689347022E+01  0.13366092413E+02  0.51100000000E-03 0.  1.
         12    1    3    3    0    0 -0.10268825979E+02  0.24899214646E+02  0.26893024243E+02  0.38061193228E+02  0.00000000000E+00 0. -1.
</event>
<event>
 7    1  0.3568800E-013  0.7246167E+02  0.7816164E-02  0.1226708E+00
        -11   -1    0    0    0    0  0.00000000000E+00  0.00000000000E+00  0.45593999997E+02  0.45594000000E+02  0.51100000000E-03 0. -1.
         11   -1    0    0    0    0 -0.00000000000E+00 -0.00000000000E+00 -0.45593999997E+02  0.45594000000E+02  0.51100000000E-03 0.  1.
    9900012    2    1    2    0    0  0.20795805138E+01  0.12817125333E+01  0.18566308606E+02  0.72461674750E+02  0.70000136072E+02 0.  0.
        -12    1    1    2    0    0 -0.20795805138E+01 -0.12817125333E+01 -0.18566308606E+02  0.18726325250E+02  0.00000000000E+00 0.  1.
         11    1    3    3    0    0 -0.63322405782E+01  0.63615812554E+01 -0.11865826194E+02  0.14878333856E+02  0.51100000000E-03 0. -1.
        -11    1    3    3    0    0 -0.19640899571E+02  0.20764063477E+01  0.14809757453E+02  0.24686136096E+02  0.51100000000E-03 0.  1.
        -12    1    3    3    0    0  0.28052720663E+02 -0.71562750698E+01  0.15622377347E+02  0.32897204797E+02  0.00000000000E+00 0.  1.
</event>
<event>
 7    1  0.3568800E-013  0.7246158E+02  0.7816164E-02  0.1226708E+00
        -11   -1    0    0    0    0  0.00000000000E+00  0.00000000000E+00  0.45593999997E+02  0.45594000000E+02  0.51100000000E-03 0. -1.
         11   -1    0    0    0    0 -0.00000000000E+00 -0.00000000000E+00 -0.45593999997E+02  0.45594000000E+02  0.51100000000E-03 0.  1.
    9900012    2    1    2    0    0 -0.11137907232E+02  0.14730038886E+02 -0.31067533947E+01  0.72461576429E+02  0.70000007992E+02 0.  0.
        -12    1    1    2    0    0  0.11137907232E+02 -0.14730038886E+02  0.31067533947E+01  0.18726423571E+02  0.00000000000E+00 0.  1.
         11    1    3    3    0    0  0.81780780650E+01 -0.33676201833E+01  0.17065948747E+02  0.19221561680E+02  0.51100000000E-03 0. -1.
        -11    1    3    3    0    0  0.12657930476E+02  0.11599202541E+01 -0.82047230277E+01  0.15128982093E+02  0.51100000000E-03 0.  1.
        -12    1    3    3    0    0 -0.31973915773E+02  0.16937738815E+02 -0.11967979114E+02  0.38111032656E+02  0.00000000000E+00 0.  1.
</event>
<event>
 7    1  0.3568800E-013  0.7246161E+02  0.7816164E-02  0.1226708E+00
        -11   -1    0    0    0    0  0.00000000000E+00  0.00000000000E+00  0.45593999997E+02  0.45594000000E+02  0.51100000000E-03 0.  1.
         11   -1    0    0    0    0 -0.00000000000E+00 -0.00000000000E+00 -0.45593999997E+02  0.45594000000E+02  0.51100000000E-03 0. -1.
    9900012    2    1    2    0    0  0.14783377202E+02 -0.44103683169E+01 -0.10614990061E+02  0.72461612089E+02  0.70000054446E+02 0.  0.
        -12    1    1    2    0    0 -0.14783377202E+02  0.44103683169E+01  0.10614990061E+02  0.18726387911E+02  0.00000000000E+00 0.  1.
         11    1    3    3    0    0 -0.62753084719E+01 -0.55095944031E+00 -0.18989891157E+02  0.20007474082E+02  0.51100000000E-03 0. -1.
        -11    1    3    3    0    0  0.11547406031E+02  0.20584589416E+02 -0.31369415397E+01  0.23809836412E+02  0.51100000000E-03 0.  1.
         12    1    3    3    0    0  0.95112796429E+01 -0.24443998293E+02  0.11511842636E+02  0.28644301595E+02  0.00000000000E+00 0. -1.
</event>
<event>
 7    1  0.3568800E-013  0.7246164E+02  0.7816164E-02  0.1226708E+00
        -11   -1    0    0    0    0  0.00000000000E+00  0.00000000000E+00  0.45593999997E+02  0.45594000000E+02  0.51100000000E-03 0. -1.
         11   -1    0    0    0    0 -0.00000000000E+00 -0.00000000000E+00 -0.45593999997E+02  0.45594000000E+02  0.51100000000E-03 0.  1.
    9900012    2    1    2    0    0  0.75168970604E+01 -0.17144163247E+02 -0.50035252230E+00  0.72461643507E+02  0.70000095373E+02 0.  0.
        -12    1    1    2    0    0 -0.75168970604E+01  0.17144163247E+02  0.50035252230E+00  0.18726356493E+02  0.00000000000E+00 0.  1.
         11    1    3    3    0    0  0.11357525217E+02 -0.21464858203E+02  0.77027030151E+01  0.25476757068E+02  0.51100000000E-03 0.  1.
        -11    1    3    3    0    0  0.16286508486E+02 -0.10187472040E+02  0.35423379789E+01  0.19534152243E+02  0.51100000000E-03 0. -1.
        -12    1    3    3    0    0 -0.20127136643E+02  0.14508166996E+02 -0.11745393516E+02  0.27450734196E+02  0.00000000000E+00 0.  1.
</event>
<event>
 7    1  0.3568800E-013  0.7246157E+02  0.7816164E-02  0.1226708E+00
        -11   -1    0    0    0    0  0.00000000000E+00  0.00000000000E+00  0.45593999997E+02  0.45594000000E+02  0.51100000000E-03 0. -1.
         11   -1    0    0    0    0 -0.00000000000E+00 -0.00000000000E+00 -0.45593999997E+02  0.45594000000E+02  0.51100000000E-03 0.  1.
    9900012    2    1    2    0    0 -0.84886631524E+01  0.77752308983E+01  0.14770496075E+02  0.72461570230E+02  0.69999999916E+02 0.  0.
        -12    1    1    2    0    0  0.84886631524E+01 -0.77752308983E+01 -0.14770496075E+02  0.18726429770E+02  0.00000000000E+00 0.  1.
         11    1    3    3    0    0  0.14461866175E+01  0.27873662225E+02  0.13927466337E+01  0.27945880645E+02  0.51100000000E-03 0. -1.
        -11    1    3    3    0    0  0.49884315471E+01 -0.35131262842E+01 -0.10306894373E+02  0.11977419483E+02  0.51100000000E-03 0.  1.
         12    1    3    3    0    0 -0.14923281317E+02 -0.16585305043E+02  0.23684643814E+02  0.32538270102E+02  0.00000000000E+00 0. -1.
</event>
<event>
 7    1  0.3568800E-013  0.7246160E+02  0.7816164E-02  0.1226708E+00
        -11   -1    0    0    0    0  0.00000000000E+00  0.00000000000E+00  0.45593999997E+02  0.45594000000E+02  0.51100000000E-03 0.  1.
         11   -1    0    0    0    0 -0.00000000000E+00 -0.00000000000E+00 -0.45593999997E+02  0.45594000000E+02  0.51100000000E-03 0. -1.
    9900012    2    1    2    0    0  0.17355341279E+02 -0.45907630174E+01 -0.53286991142E+01  0.72461601248E+02  0.70000040322E+02 0.  0.
        -12    1    1    2    0    0 -0.17355341279E+02  0.45907630174E+01  0.53286991142E+01  0.18726398752E+02  0.00000000000E+00 0.  1.
         11    1    3    3    0    0  0.32088094525E+01  0.67013077629E+00 -0.82400815327E+01  0.88681721503E+01  0.51100000000E-03 0. -1.
        -11    1    3    3    0    0  0.11603263000E+02 -0.25870787728E+02 -0.18429167524E+02  0.33816676149E+02  0.51100000000E-03 0.  1.
         12    1    3    3    0    0  0.25432688265E+01  0.20609893934E+02  0.21340549942E+02  0.29776752948E+02  0.00000000000E+00 0. -1.
</event>
<event>
 7    1  0.3568800E-013  0.7246102E+02  0.7816164E-02  0.1226709E+00
        -11   -1    0    0    0    0  0.00000000000E+00  0.00000000000E+00  0.45593999997E+02  0.45594000000E+02  0.51100000000E-03 0.  1.
         11   -1    0    0    0    0 -0.00000000000E+00 -0.00000000000E+00 -0.45593999997E+02  0.45594000000E+02  0.51100000000E-03 0. -1.
    9900012    2    1    2    0    0  0.13629867367E+02  0.12804634867E+02 -0.98374493070E+00  0.72461021797E+02  0.69999285477E+02 0.  0.
        -12    1    1    2    0    0 -0.13629867367E+02 -0.12804634867E+02  0.98374493070E+00  0.18726978203E+02  0.00000000000E+00 0.  1.
         11    1    3    3    0    0  0.11325126916E+02  0.21233405959E+02  0.14432080871E+02  0.28060666187E+02  0.51100000000E-03 0. -1.
        -11    1    3    3    0    0  0.14470406415E+02  0.87232581239E+01  0.21079992197E+01  0.17027376636E+02  0.51100000000E-03 0.  1.
         12    1    3    3    0    0 -0.12165665964E+02 -0.17152029217E+02 -0.17523825022E+02  0.27372978975E+02  0.00000000000E+00 0. -1.
</event>
<event>
 7    1  0.3568800E-013  0.7246149E+02  0.7816164E-02  0.1226708E+00
        -11   -1    0    0    0    0  0.00000000000E+00  0.00000000000E+00  0.45593999997E+02  0.45594000000E+02  0.51100000000E-03 0.  1.
         11   -1    0    0    0    0 -0.00000000000E+00 -0.00000000000E+00 -0.45593999997E+02  0.45594000000E+02  0.51100000000E-03 0. -1.
    9900012    2    1    2    0    0 -0.15872094028E+02 -0.59838107023E+01 -0.79342924187E+01  0.72461485227E+02  0.69999889184E+02 0.  0.
        -12    1    1    2    0    0  0.15872094028E+02  0.59838107023E+01  0.79342924187E+01  0.18726514773E+02  0.00000000000E+00 0.  1.
         11    1    3    3    0    0 -0.19813631105E+02  0.12792275575E+02 -0.33147686709E+01  0.23816170632E+02  0.51100000000E-03 0. -1.
        -11    1    3    3    0    0  0.97776443655E+01  0.10285814765E+02  0.81549360561E+01  0.16367751741E+02  0.51100000000E-03 0.  1.
         12    1    3    3    0    0 -0.58361072879E+01 -0.29061901043E+02 -0.12774459804E+02  0.32277562854E+02  0.00000000000E+00 0. -1.
</event>
<event>
 7    1  0.3568800E-013  0.7246157E+02  0.7816164E-02  0.1226708E+00
        -11   -1    0    0    0    0  0.00000000000E+00  0.00000000000E+00  0.45593999997E+02  0.45594000000E+02  0.51100000000E-03 0. -1.
         11   -1    0    0    0    0 -0.00000000000E+00 -0.00000000000E+00 -0.45593999997E+02  0.45594000000E+02  0.51100000000E-03 0.  1.
    9900012    2    1    2    0    0  0.32470525497E+01 -0.12589103748E+02  0.13477770119E+02  0.72461570259E+02  0.69999999954E+02 0.  0.
        -12    1    1    2    0    0 -0.32470525497E+01  0.12589103748E+02 -0.13477770119E+02  0.18726429741E+02  0.00000000000E+00 0.  1.
         11    1    3    3    0    0 -0.10918952943E+02  0.20688223792E+00 -0.13899057720E+02  0.17676259203E+02  0.51100000000E-03 0. -1.
        -11    1    3    3    0    0 -0.15218946487E+02 -0.87653671868E+01  0.76009683919E+01  0.19136946330E+02  0.51100000000E-03 0.  1.
         12    1    3    3    0    0  0.29384951980E+02 -0.40306187995E+01  0.19775859447E+02  0.35648364726E+02  0.00000000000E+00 0. -1.
</event>
<event>
 7    1  0.3568800E-013  0.7246165E+02  0.7816164E-02  0.1226708E+00
        -11   -1    0    0    0    0  0.00000000000E+00  0.00000000000E+00  0.45593999997E+02  0.45594000000E+02  0.51100000000E-03 0. -1.
         11   -1    0    0    0    0 -0.00000000000E+00 -0.00000000000E+00 -0.45593999997E+02  0.45594000000E+02  0.51100000000E-03 0.  1.
    9900012    2    1    2    0    0 -0.34545491002E+00 -0.34293242497E+01  0.18406424537E+02  0.72461653102E+02  0.70000107872E+02 0.  0.
        -12    1    1    2    0    0  0.34545491002E+00  0.34293242497E+01 -0.18406424537E+02  0.18726346898E+02  0.00000000000E+00 0.  1.
         11    1    3    3    0    0 -0.69921782660E+01 -0.94348786464E+01  0.29009852359E+02  0.31296629629E+02  0.51100000000E-03 0. -1.
        -11    1    3    3    0    0 -0.65083034092E+01  0.10028051577E+02  0.10541801245E+02  0.15938927362E+02  0.51100000000E-03 0.  1.
         12    1    3    3    0    0  0.13155026765E+02 -0.40224971801E+01 -0.21145229066E+02  0.25226096111E+02  0.00000000000E+00 0. -1.
</event>
<event>
 7    1  0.3568800E-013  0.7246163E+02  0.7816164E-02  0.1226708E+00
        -11   -1    0    0    0    0  0.00000000000E+00  0.00000000000E+00  0.45593999997E+02  0.45594000000E+02  0.51100000000E-03 0. -1.
         11   -1    0    0    0    0 -0.00000000000E+00 -0.00000000000E+00 -0.45593999997E+02  0.45594000000E+02  0.51100000000E-03 0.  1.
    9900012    2    1    2    0    0 -0.19108223596E+01  0.10909968814E+02  0.15099611832E+02  0.72461629847E+02  0.70000077579E+02 0.  0.
        -12    1    1    2    0    0  0.19108223596E+01 -0.10909968814E+02 -0.15099611832E+02  0.18726370153E+02  0.00000000000E+00 0.  1.
         11    1    3    3    0    0  0.98627697415E+01  0.67526528749E+01  0.33561337900E+02  0.35626337866E+02  0.51100000000E-03 0. -1.
        -11    1    3    3    0    0  0.71633998894E+01 -0.60298730199E+01 -0.15772808760E+01  0.94953400063E+01  0.51100000000E-03 0.  1.
        -12    1    3    3    0    0 -0.18936991990E+02  0.10187188959E+02 -0.16884445192E+02  0.27339951975E+02  0.00000000000E+00 0.  1.
</event>
<event>
 7    1  0.3568800E-013  0.7246159E+02  0.7816164E-02  0.1226708E+00
        -11   -1    0    0    0    0  0.00000000000E+00  0.00000000000E+00  0.45593999997E+02  0.45594000000E+02  0.51100000000E-03 0.  1.
         11   -1    0    0    0    0 -0.00000000000E+00 -0.00000000000E+00 -0.45593999997E+02  0.45594000000E+02  0.51100000000E-03 0. -1.
    9900012    2    1    2    0    0 -0.17854773667E+02  0.53806563650E+01  0.17128897324E+01  0.72461590925E+02  0.70000026875E+02 0.  0.
        -12    1    1    2    0    0  0.17854773667E+02 -0.53806563650E+01 -0.17128897324E+01  0.18726409075E+02  0.00000000000E+00 0.  1.
         11    1    3    3    0    0  0.12530993697E+02  0.32705975237E+01 -0.66739378699E+01  0.14569284751E+02  0.51100000000E-03 0. -1.
        -11    1    3    3    0    0 -0.23362570443E+02  0.15148561284E+02  0.23717926184E+02  0.36576339748E+02  0.51100000000E-03 0.  1.
         12    1    3    3    0    0 -0.70231969211E+01 -0.13038502443E+02 -0.15331098581E+02  0.21315966425E+02  0.00000000000E+00 0. -1.
</event>
<event>
 7    1  0.3568800E-013  0.7246154E+02  0.7816164E-02  0.1226708E+00
        -11   -1    0    0    0    0  0.00000000000E+00  0.00000000000E+00  0.45593999997E+02  0.45594000000E+02  0.51100000000E-03 0. -1.
         11   -1    0    0    0    0 -0.00000000000E+00 -0.00000000000E+00 -0.45593999997E+02  0.45594000000E+02  0.51100000000E-03 0.  1.
    9900012    2    1    2    0    0  0.15263921044E+02 -0.79043943321E+01  0.74305733962E+01  0.72461543945E+02  0.69999965675E+02 0.  0.
        -12    1    1    2    0    0 -0.15263921044E+02  0.79043943321E+01 -0.74305733962E+01  0.18726456055E+02  0.00000000000E+00 0.  1.
         11    1    3    3    0    0 -0.95767122811E+01  0.14747814548E+02 -0.32618829101E+01  0.17884387953E+02  0.51100000000E-03 0. -1.
        -11    1    3    3    0    0 -0.99222401291E+01 -0.64786795160E+01 -0.53667263104E+01  0.13008685137E+02  0.51100000000E-03 0.  1.
         12    1    3    3    0    0  0.34762873454E+02 -0.16173529365E+02  0.16059182617E+02  0.41568470855E+02  0.00000000000E+00 0. -1.
</event>
<event>
 7    1  0.3568800E-013  0.7246156E+02  0.7816164E-02  0.1226708E+00
        -11   -1    0    0    0    0  0.00000000000E+00  0.00000000000E+00  0.45593999997E+02  0.45594000000E+02  0.51100000000E-03 0.  1.
         11   -1    0    0    0    0 -0.00000000000E+00 -0.00000000000E+00 -0.45593999997E+02  0.45594000000E+02  0.51100000000E-03 0. -1.
    9900012    2    1    2    0    0 -0.13686999626E+01  0.18529245327E+02 -0.23394722438E+01  0.72461564077E+02  0.69999991901E+02 0.  0.
        -12    1    1    2    0    0  0.13686999626E+01 -0.18529245327E+02  0.23394722438E+01  0.18726435923E+02  0.00000000000E+00 0.  1.
         11    1    3    3    0    0 -0.83929702657E+01  0.37985866191E+00 -0.88273703778E+01  0.12186414999E+02  0.51100000000E-03 0. -1.
        -11    1    3    3    0    0 -0.13502253463E+02 -0.10949300261E+02  0.15774577271E+02  0.23474141372E+02  0.51100000000E-03 0.  1.
         12    1    3    3    0    0  0.20526523766E+02  0.29098686927E+02 -0.92866791374E+01  0.36801007706E+02  0.00000000000E+00 0. -1.
</event>
<event>
 7    1  0.3568800E-013  0.7246153E+02  0.7816164E-02  0.1226708E+00
        -11   -1    0    0    0    0  0.00000000000E+00  0.00000000000E+00  0.45593999997E+02  0.45594000000E+02  0.51100000000E-03 0.  1.
         11   -1    0    0    0    0 -0.00000000000E+00 -0.00000000000E+00 -0.45593999997E+02  0.45594000000E+02  0.51100000000E-03 0. -1.
    9900012    2    1    2    0    0 -0.13646581174E+02 -0.45463918556E+01 -0.11990907329E+02  0.72461529024E+02  0.69999946238E+02 0.  0.
        -12    1    1    2    0    0  0.13646581174E+02  0.45463918556E+01  0.11990907329E+02  0.18726470976E+02  0.00000000000E+00 0.  1.
         11    1    3    3    0    0 -0.17266761957E-01  0.21102762892E+01  0.32105763899E+01  0.38420522087E+01  0.51100000000E-03 0. -1.
        -11    1    3    3    0    0  0.16533842846E+02 -0.25945844032E+02 -0.35624445679E+01  0.30971693421E+02  0.51100000000E-03 0.  1.
         12    1    3    3    0    0 -0.30163157258E+02  0.19289175887E+02 -0.11639039151E+02  0.37647783395E+02  0.00000000000E+00 0. -1.
</event>
<event>
 7    1  0.3568800E-013  0.7246144E+02  0.7816164E-02  0.1226708E+00
        -11   -1    0    0    0    0  0.00000000000E+00  0.00000000000E+00  0.45593999997E+02  0.45594000000E+02  0.51100000000E-03 0.  1.
         11   -1    0    0    0    0 -0.00000000000E+00 -0.00000000000E+00 -0.45593999997E+02  0.45594000000E+02  0.51100000000E-03 0. -1.
    9900012    2    1    2    0    0  0.13948409568E+02 -0.58887835638E+01 -0.11020358594E+02  0.72461435849E+02  0.69999824860E+02 0.  0.
        -12    1    1    2    0    0 -0.13948409568E+02  0.58887835638E+01  0.11020358594E+02  0.18726564151E+02  0.00000000000E+00 0.  1.
         11    1    3    3    0    0 -0.35539821915E+01  0.28038793083E+01 -0.33338788828E+02  0.33644722756E+02  0.51100000000E-03 0. -1.
        -11    1    3    3    0    0  0.10421212301E+02 -0.31850060736E+00 -0.33112792415E+01  0.10939272322E+02  0.51100000000E-03 0.  1.
        -12    1    3    3    0    0  0.70811794590E+01 -0.83741622647E+01  0.25629709475E+02  0.27877440771E+02  0.00000000000E+00 0.  1.
</event>
<event>
 7    1  0.3568800E-013  0.7246152E+02  0.7816164E-02  0.1226708E+00
        -11   -1    0    0    0    0  0.00000000000E+00  0.00000000000E+00  0.45593999997E+02  0.45594000000E+02  0.51100000000E-03 0. -1.
         11   -1    0    0    0    0 -0.00000000000E+00 -0.00000000000E+00 -0.45593999997E+02  0.45594000000E+02  0.51100000000E-03 0.  1.
    9900012    2    1    2    0    0  0.61706246877E+01 -0.15165406992E+02  0.90892764597E+01  0.72461518087E+02  0.69999931991E+02 0.  0.
        -12    1    1    2    0    0 -0.61706246877E+01  0.15165406992E+02 -0.90892764597E+01  0.18726481913E+02  0.00000000000E+00 0.  1.
         11    1    3    3    0    0  0.10662083197E+02 -0.32691376905E+01  0.41816149789E+01  0.11910213408E+02  0.51100000000E-03 0. -1.
        -11    1    3    3    0    0  0.15386012076E+01  0.23050746392E+02  0.91231538844E+01  0.24838199210E+02  0.51100000000E-03 0.  1.
         12    1    3    3    0    0 -0.60300597166E+01 -0.34947015694E+02 -0.42154924036E+01  0.35713105470E+02  0.00000000000E+00 0. -1.
</event>
<event>
 7    1  0.3568800E-013  0.7246153E+02  0.7816164E-02  0.1226708E+00
        -11   -1    0    0    0    0  0.00000000000E+00  0.00000000000E+00  0.45593999997E+02  0.45594000000E+02  0.51100000000E-03 0. -1.
         11   -1    0    0    0    0 -0.00000000000E+00 -0.00000000000E+00 -0.45593999997E+02  0.45594000000E+02  0.51100000000E-03 0.  1.
    9900012    2    1    2    0    0  0.71240439054E+01 -0.98344837426E+01  0.14255224872E+02  0.72461534551E+02  0.69999953438E+02 0.  0.
        -12    1    1    2    0    0 -0.71240439054E+01  0.98344837426E+01 -0.14255224872E+02  0.18726465449E+02  0.00000000000E+00 0.  1.
         11    1    3    3    0    0  0.38656895023E+00 -0.98154124439E+01  0.78245369176E+01  0.12558468666E+02  0.51100000000E-03 0. -1.
        -11    1    3    3    0    0  0.54829197936E+01 -0.10790106620E+02 -0.24391328850E+02  0.27229133913E+02  0.51100000000E-03 0.  1.
         12    1    3    3    0    0  0.12545551616E+01  0.10771035321E+02  0.30822016805E+02  0.32673931972E+02  0.00000000000E+00 0. -1.
</event>
<event>
 7    1  0.3568800E-013  0.7246140E+02  0.7816164E-02  0.1226708E+00
        -11   -1    0    0    0    0  0.00000000000E+00  0.00000000000E+00  0.45593999997E+02  0.45594000000E+02  0.51100000000E-03 0.  1.
         11   -1    0    0    0    0 -0.00000000000E+00 -0.00000000000E+00 -0.45593999997E+02  0.45594000000E+02  0.51100000000E-03 0. -1.
    9900012    2    1    2    0    0  0.95372500417E+01 -0.62050366532E+01 -0.14873599854E+02  0.72461398845E+02  0.69999776655E+02 0.  0.
        -12    1    1    2    0    0 -0.95372500417E+01  0.62050366532E+01  0.14873599854E+02  0.18726601155E+02  0.00000000000E+00 0.  1.
         11    1    3    3    0    0  0.33014115906E+01  0.13893851499E+02  0.71891426468E+01  0.15988189398E+02  0.51100000000E-03 0.  1.
        -11    1    3    3    0    0  0.14854101527E+00 -0.22077585274E+02  0.96688626821E+01  0.24102463397E+02  0.51100000000E-03 0. -1.
         12    1    3    3    0    0  0.60872974359E+01  0.19786971224E+01 -0.31731605182E+02  0.32370746050E+02  0.00000000000E+00 0. -1.
</event>
<event>
 7    1  0.3568800E-013  0.7246145E+02  0.7816164E-02  0.1226708E+00
        -11   -1    0    0    0    0  0.00000000000E+00  0.00000000000E+00  0.45593999997E+02  0.45594000000E+02  0.51100000000E-03 0.  1.
         11   -1    0    0    0    0 -0.00000000000E+00 -0.00000000000E+00 -0.45593999997E+02  0.45594000000E+02  0.51100000000E-03 0. -1.
    9900012    2    1    2    0    0  0.14078415493E+02 -0.71785572768E+01  0.10047403093E+02  0.72461447293E+02  0.69999839768E+02 0.  0.
        -12    1    1    2    0    0 -0.14078415493E+02  0.71785572768E+01 -0.10047403093E+02  0.18726552707E+02  0.00000000000E+00 0.  1.
         11    1    3    3    0    0  0.36444285357E+01 -0.20051891773E+02  0.13576942209E+02  0.24488641919E+02  0.51100000000E-03 0. -1.
        -11    1    3    3    0    0 -0.16073652483E+02  0.37644083119E+01  0.71336735264E+01  0.17983947629E+02  0.51100000000E-03 0.  1.
         12    1    3    3    0    0  0.26507639441E+02  0.91089261842E+01 -0.10663212643E+02  0.29988857744E+02  0.00000000000E+00 0. -1.
</event>
<event>
 7    1  0.3568800E-013  0.7246156E+02  0.7816164E-02  0.1226708E+00
        -11   -1    0    0    0    0  0.00000000000E+00  0.00000000000E+00  0.45593999997E+02  0.45594000000E+02  0.51100000000E-03 0.  1.
         11   -1    0    0    0    0 -0.00000000000E+00 -0.00000000000E+00 -0.45593999997E+02  0.45594000000E+02  0.51100000000E-03 0. -1.
    9900012    2    1    2    0    0  0.37164605195E+01  0.12733798125E+02 -0.13218082872E+02  0.72461563919E+02  0.69999991695E+02 0.  0.
        -12    1    1    2    0    0 -0.37164605195E+01 -0.12733798125E+02  0.13218082872E+02  0.18726436081E+02  0.00000000000E+00 0.  1.
         11    1    3    3    0    0  0.16216418752E+02  0.17351218913E+02  0.21708991220E+01  0.23848476643E+02  0.51100000000E-03 0. -1.
        -11    1    3    3    0    0  0.14785781937E+02  0.14626298247E+01  0.29924705414E+01  0.15156302772E+02  0.51100000000E-03 0.  1.
        -12    1    3    3    0    0 -0.27285740170E+02 -0.60800506127E+01 -0.18381452536E+02  0.33456784505E+02  0.00000000000E+00 0.  1.
</event>
<event>
 7    1  0.3568800E-013  0.7246156E+02  0.7816164E-02  0.1226708E+00
        -11   -1    0    0    0    0  0.00000000000E+00  0.00000000000E+00  0.45593999997E+02  0.45594000000E+02  0.51100000000E-03 0. -1.
         11   -1    0    0    0    0 -0.00000000000E+00 -0.00000000000E+00 -0.45593999997E+02  0.45594000000E+02  0.51100000000E-03 0.  1.
    9900012    2    1    2    0    0  0.15398865447E+02  0.70061610715E+01  0.80291994036E+01  0.72461564326E+02  0.69999992225E+02 0.  0.
        -12    1    1    2    0    0 -0.15398865447E+02 -0.70061610715E+01 -0.80291994036E+01  0.18726435674E+02  0.00000000000E+00 0.  1.
         11    1    3    3    0    0 -0.10888996595E+02 -0.87016407703E+00  0.10768261591E+02  0.15338933806E+02  0.51100000000E-03 0. -1.
        -11    1    3    3    0    0  0.91886221210E+01 -0.11203036107E+00  0.23252029250E+02  0.25002003756E+02  0.51100000000E-03 0.  1.
        -12    1    3    3    0    0  0.17099239920E+02  0.79883555096E+01 -0.25991091437E+02  0.32120626764E+02  0.00000000000E+00 0.  1.
</event>
<event>
 7    1  0.3568800E-013  0.7246156E+02  0.7816164E-02  0.1226708E+00
        -11   -1    0    0    0    0  0.00000000000E+00  0.00000000000E+00  0.45593999997E+02  0.45594000000E+02  0.51100000000E-03 0.  1.
         11   -1    0    0    0    0 -0.00000000000E+00 -0.00000000000E+00 -0.45593999997E+02  0.45594000000E+02  0.51100000000E-03 0. -1.
    9900012    2    1    2    0    0 -0.11027555083E+02 -0.14884490689E+02 -0.27430641270E+01  0.72461563207E+02  0.69999990767E+02 0.  0.
        -12    1    1    2    0    0  0.11027555083E+02  0.14884490689E+02  0.27430641270E+01  0.18726436793E+02  0.00000000000E+00 0.  1.
         11    1    3    3    0    0  0.59706399131E+01  0.69874966108E+01  0.61254253388E+01  0.11045111394E+02  0.51100000000E-03 0. -1.
        -11    1    3    3    0    0  0.48885722609E+01  0.14376970571E+02 -0.11412889305E+02  0.18996038116E+02  0.51100000000E-03 0.  1.
         12    1    3    3    0    0 -0.21886767257E+02 -0.36248957871E+02  0.25443998388E+01  0.42420413697E+02  0.00000000000E+00 0. -1.
</event>
<event>
 7    1  0.3568800E-013  0.7246164E+02  0.7816164E-02  0.1226708E+00
        -11   -1    0    0    0    0  0.00000000000E+00  0.00000000000E+00  0.45593999997E+02  0.45594000000E+02  0.51100000000E-03 0. -1.
         11   -1    0    0    0    0 -0.00000000000E+00 -0.00000000000E+00 -0.45593999997E+02  0.45594000000E+02  0.51100000000E-03 0.  1.
    9900012    2    1    2    0    0  0.17782335331E+02  0.37169728113E+01  0.45441378832E+01  0.72461640882E+02  0.70000091954E+02 0.  0.
        -12    1    1    2    0    0 -0.17782335331E+02 -0.37169728113E+01 -0.45441378832E+01  0.18726359118E+02  0.00000000000E+00 0.  1.
         11    1    3    3    0    0 -0.83745253257E+01  0.96299894265E+01  0.10303046699E+01  0.12803550240E+02  0.51100000000E-03 0. -1.
        -11    1    3    3    0    0  0.14339792511E+02  0.23680252587E+02  0.20365638726E+01  0.27758451047E+02  0.51100000000E-03 0.  1.
        -12    1    3    3    0    0  0.11817068145E+02 -0.29593269202E+02  0.14772693408E+01  0.31899639596E+02  0.00000000000E+00 0.  1.
</event>
<event>
 7    1  0.3568800E-013  0.7246167E+02  0.7816164E-02  0.1226708E+00
        -11   -1    0    0    0    0  0.00000000000E+00  0.00000000000E+00  0.45593999997E+02  0.45594000000E+02  0.51100000000E-03 0.  1.
         11   -1    0    0    0    0 -0.00000000000E+00 -0.00000000000E+00 -0.45593999997E+02  0.45594000000E+02  0.51100000000E-03 0. -1.
    9900012    2    1    2    0    0 -0.16630463438E+02  0.56130300745E+01 -0.65266440428E+01  0.72461668185E+02  0.70000127521E+02 0.  0.
        -12    1    1    2    0    0  0.16630463438E+02 -0.56130300745E+01  0.65266440428E+01  0.18726331815E+02  0.00000000000E+00 0.  1.
         11    1    3    3    0    0 -0.30514699430E+01  0.39293823284E+01 -0.16793903542E+01  0.52508919736E+01  0.51100000000E-03 0. -1.
        -11    1    3    3    0    0 -0.36256228591E+02  0.68272280282E+01  0.11662200371E+02  0.38692790956E+02  0.51100000000E-03 0.  1.
         12    1    3    3    0    0  0.22677235096E+02 -0.51435802821E+01 -0.16509454060E+02  0.28517985256E+02  0.00000000000E+00 0. -1.
</event>
<event>
 7    1  0.3568800E-013  0.7246158E+02  0.7816164E-02  0.1226708E+00
        -11   -1    0    0    0    0  0.00000000000E+00  0.00000000000E+00  0.45593999997E+02  0.45594000000E+02  0.51100000000E-03 0.  1.
         11   -1    0    0    0    0 -0.00000000000E+00 -0.00000000000E+00 -0.45593999997E+02  0.45594000000E+02  0.51100000000E-03 0. -1.
    9900012    2    1    2    0    0 -0.59912917079E+01 -0.11367335860E+02 -0.13622294568E+02  0.72461579889E+02  0.70000012499E+02 0.  0.
        -12    1    1    2    0    0  0.59912917079E+01  0.11367335860E+02  0.13622294568E+02  0.18726420111E+02  0.00000000000E+00 0.  1.
         11    1    3    3    0    0  0.14078652352E+02 -0.20302758809E+02 -0.30045342822E+02  0.38899011464E+02  0.51100000000E-03 0. -1.
        -11    1    3    3    0    0 -0.16982016136E+02 -0.25596793589E+01  0.77857967392E+01  0.18856284406E+02  0.51100000000E-03 0.  1.
        -12    1    3    3    0    0 -0.30879279239E+01  0.11495102308E+02  0.86372515147E+01  0.14706284020E+02  0.00000000000E+00 0.  1.
</event>
<event>
 7    1  0.3568800E-013  0.7246157E+02  0.7816164E-02  0.1226708E+00
        -11   -1    0    0    0    0  0.00000000000E+00  0.00000000000E+00  0.45593999997E+02  0.45594000000E+02  0.51100000000E-03 0.  1.
         11   -1    0    0    0    0 -0.00000000000E+00 -0.00000000000E+00 -0.45593999997E+02  0.45594000000E+02  0.51100000000E-03 0. -1.
    9900012    2    1    2    0    0  0.41724058054E+01 -0.24368919177E+01 -0.18092317340E+02  0.72461565231E+02  0.69999993404E+02 0.  0.
        -12    1    1    2    0    0 -0.41724058054E+01  0.24368919177E+01  0.18092317340E+02  0.18726434769E+02  0.00000000000E+00 0.  1.
         11    1    3    3    0    0 -0.21099614203E+02  0.21217439366E+01  0.27451519179E+01  0.21382969302E+02  0.51100000000E-03 0. -1.
        -11    1    3    3    0    0  0.81399039849E+01  0.16039208842E+02 -0.15536961853E+02  0.23767865724E+02  0.51100000000E-03 0.  1.
         12    1    3    3    0    0  0.17132116024E+02 -0.20597844697E+02 -0.53005074049E+01  0.27310730205E+02  0.00000000000E+00 0. -1.
</event>
<event>
 7    1  0.3568800E-013  0.7246142E+02  0.7816164E-02  0.1226708E+00
        -11   -1    0    0    0    0  0.00000000000E+00  0.00000000000E+00  0.45593999997E+02  0.45594000000E+02  0.51100000000E-03 0.  1.
         11   -1    0    0    0    0 -0.00000000000E+00 -0.00000000000E+00 -0.45593999997E+02  0.45594000000E+02  0.51100000000E-03 0. -1.
    9900012    2    1    2    0    0 -0.31396992710E+01  0.15114945933E+02 -0.10600266943E+02  0.72461415652E+02  0.69999798549E+02 0.  0.
        -12    1    1    2    0    0  0.31396992710E+01 -0.15114945933E+02  0.10600266943E+02  0.18726584348E+02  0.00000000000E+00 0.  1.
         11    1    3    3    0    0 -0.82279331554E+01 -0.44283921322E+00 -0.44658938584E+00  0.82519351015E+01  0.51100000000E-03 0. -1.
        -11    1    3    3    0    0  0.13266725105E+02 -0.20888884101E+02  0.22575724263E+01  0.24848503124E+02  0.51100000000E-03 0.  1.
         12    1    3    3    0    0 -0.81784912203E+01  0.36446669247E+02 -0.12411249983E+02  0.39360977427E+02  0.00000000000E+00 0. -1.
</event>
<event>
 7    1  0.3568800E-013  0.7246158E+02  0.7816164E-02  0.1226708E+00
        -11   -1    0    0    0    0  0.00000000000E+00  0.00000000000E+00  0.45593999997E+02  0.45594000000E+02  0.51100000000E-03 0. -1.
         11   -1    0    0    0    0 -0.00000000000E+00 -0.00000000000E+00 -0.45593999997E+02  0.45594000000E+02  0.51100000000E-03 0.  1.
    9900012    2    1    2    0    0 -0.19023550535E+01 -0.13118506176E+02  0.13227426500E+02  0.72461575598E+02  0.70000006910E+02 0.  0.
        -12    1    1    2    0    0  0.19023550535E+01  0.13118506176E+02 -0.13227426500E+02  0.18726424402E+02  0.00000000000E+00 0.  1.
         11    1    3    3    0    0  0.33040708981E+01 -0.35192216979E+02  0.12250936713E+02  0.37409817842E+02  0.51100000000E-03 0. -1.
        -11    1    3    3    0    0  0.44307735130E+00 -0.94220217026E+00  0.97315976222E+01  0.97871372224E+01  0.51100000000E-03 0.  1.
        -12    1    3    3    0    0 -0.56495033029E+01  0.23015912972E+02 -0.87551078349E+01  0.25264620534E+02  0.00000000000E+00 0.  1.
</event>
<event>
 7    1  0.3568800E-013  0.7246151E+02  0.7816164E-02  0.1226708E+00
        -11   -1    0    0    0    0  0.00000000000E+00  0.00000000000E+00  0.45593999997E+02  0.45594000000E+02  0.51100000000E-03 0.  1.
         11   -1    0    0    0    0 -0.00000000000E+00 -0.00000000000E+00 -0.45593999997E+02  0.45594000000E+02  0.51100000000E-03 0. -1.
    9900012    2    1    2    0    0  0.31645262629E+00  0.15012099218E+02 -0.11190096141E+02  0.72461507620E+02  0.69999918355E+02 0.  0.
        -12    1    1    2    0    0 -0.31645262629E+00 -0.15012099218E+02  0.11190096141E+02  0.18726492380E+02  0.00000000000E+00 0.  1.
         11    1    3    3    0    0 -0.16151566691E+02 -0.20926078819E+01 -0.86457961994E+01  0.18439140612E+02  0.51100000000E-03 0. -1.
        -11    1    3    3    0    0  0.18482894568E+02 -0.11240508429E+02 -0.11142179110E+02  0.24333404549E+02  0.51100000000E-03 0.  1.
         12    1    3    3    0    0 -0.20148752503E+01  0.28345215530E+02  0.85978791689E+01  0.29688962459E+02  0.00000000000E+00 0. -1.
</event>
<event>
 7    1  0.3568800E-013  0.7246160E+02  0.7816164E-02  0.1226708E+00
        -11   -1    0    0    0    0  0.00000000000E+00  0.00000000000E+00  0.45593999997E+02  0.45594000000E+02  0.51100000000E-03 0. -1.
         11   -1    0    0    0    0 -0.00000000000E+00 -0.00000000000E+00 -0.45593999997E+02  0.45594000000E+02  0.51100000000E-03 0.  1.
    9900012    2    1    2    0    0  0.12632606311E+02 -0.71508165281E+01  0.11830520689E+02  0.72461597810E+02  0.70000035844E+02 0.  0.
        -12    1    1    2    0    0 -0.12632606311E+02  0.71508165281E+01 -0.11830520689E+02  0.18726402190E+02  0.00000000000E+00 0.  1.
         11    1    3    3    0    0  0.13243967079E+02  0.58341671768E+01  0.13146177040E+02  0.19551525303E+02  0.51100000000E-03 0. -1.
        -11    1    3    3    0    0  0.59909529611E+01  0.61698483752E+00  0.23275809803E+02  0.24042369058E+02  0.51100000000E-03 0.  1.
        -12    1    3    3    0    0 -0.66023137293E+01 -0.13601968542E+02 -0.24591466154E+02  0.28867703449E+02  0.00000000000E+00 0.  1.
</event>
<event>
 7    1  0.3568800E-013  0.7246157E+02  0.7816164E-02  0.1226708E+00
        -11   -1    0    0    0    0  0.00000000000E+00  0.00000000000E+00  0.45593999997E+02  0.45594000000E+02  0.51100000000E-03 0.  1.
         11   -1    0    0    0    0 -0.00000000000E+00 -0.00000000000E+00 -0.45593999997E+02  0.45594000000E+02  0.51100000000E-03 0. -1.
    9900012    2    1    2    0    0  0.12651961226E+02  0.13474516590E+02 -0.30074164482E+01  0.72461567507E+02  0.69999996369E+02 0.  0.
        -12    1    1    2    0    0 -0.12651961226E+02 -0.13474516590E+02  0.30074164482E+01  0.18726432493E+02  0.00000000000E+00 0.  1.
         11    1    3    3    0    0  0.25023344700E+02 -0.11060758195E+02  0.56315055588E+01  0.27932454366E+02  0.51100000000E-03 0. -1.
        -11    1    3    3    0    0  0.11507850165E+02  0.44533798576E+01 -0.83909971548E+00  0.12367994833E+02  0.51100000000E-03 0.  1.
        -12    1    3    3    0    0 -0.23879233638E+02  0.20081894928E+02 -0.77998222915E+01  0.32161118308E+02  0.00000000000E+00 0.  1.
</event>
<event>
 7    1  0.3568800E-013  0.7246157E+02  0.7816164E-02  0.1226708E+00
        -11   -1    0    0    0    0  0.00000000000E+00  0.00000000000E+00  0.45593999997E+02  0.45594000000E+02  0.51100000000E-03 0. -1.
         11   -1    0    0    0    0 -0.00000000000E+00 -0.00000000000E+00 -0.45593999997E+02  0.45594000000E+02  0.51100000000E-03 0.  1.
    9900012    2    1    2    0    0 -0.24494405042E+01  0.42834528338E+01  0.18064646425E+02  0.72461570083E+02  0.69999999725E+02 0.  0.
        -12    1    1    2    0    0  0.24494405042E+01 -0.42834528338E+01 -0.18064646425E+02  0.18726429917E+02  0.00000000000E+00 0.  1.
         11    1    3    3    0    0  0.43646078173E+01  0.35375972634E+01  0.86250170161E+01  0.10293459797E+02  0.51100000000E-03 0. -1.
        -11    1    3    3    0    0  0.25519074481E+02  0.10146967551E+02  0.11291792021E+01  0.27485617307E+02  0.51100000000E-03 0.  1.
         12    1    3    3    0    0 -0.32333122802E+02 -0.94011119806E+01  0.83104502072E+01  0.34682492979E+02  0.00000000000E+00 0. -1.
</event>
<event>
 7    1  0.3568800E-013  0.7246160E+02  0.7816164E-02  0.1226708E+00
        -11   -1    0    0    0    0  0.00000000000E+00  0.00000000000E+00  0.45593999997E+02  0.45594000000E+02  0.51100000000E-03 0. -1.
         11   -1    0    0    0    0 -0.00000000000E+00 -0.00000000000E+00 -0.45593999997E+02  0.45594000000E+02  0.51100000000E-03 0.  1.
    9900012    2    1    2    0    0 -0.18790087653E+01 -0.49796730079E+01  0.17954116209E+02  0.72461598689E+02  0.70000036990E+02 0.  0.
        -12    1    1    2    0    0  0.18790087653E+01  0.49796730079E+01 -0.17954116209E+02  0.18726401311E+02  0.00000000000E+00 0.  1.
         11    1    3    3    0    0 -0.78059099807E+01  0.72508683327E+01  0.43080982460E+01  0.11492042158E+02  0.51100000000E-03 0. -1.
        -11    1    3    3    0    0  0.92574279675E+01  0.16477219099E+02 -0.11952803258E+02  0.22362205343E+02  0.51100000000E-03 0.  1.
        -12    1    3    3    0    0 -0.33305267521E+01 -0.28707760440E+02  0.25598821221E+02  0.38607351188E+02  0.00000000000E+00 0.  1.
</event>
<event>
 7    1  0.3568800E-013  0.7246162E+02  0.7816164E-02  0.1226708E+00
        -11   -1    0    0    0    0  0.00000000000E+00  0.00000000000E+00  0.45593999997E+02  0.45594000000E+02  0.51100000000E-03 0.  1.
         11   -1    0    0    0    0 -0.00000000000E+00 -0.00000000000E+00 -0.45593999997E+02  0.45594000000E+02  0.51100000000E-03 0. -1.
    9900012    2    1    2    0    0 -0.17944978317E+02 -0.42124877394E+01 -0.33030036618E+01  0.72461624672E+02  0.70000070837E+02 0.  0.
        -12    1    1    2    0    0  0.17944978317E+02  0.42124877394E+01  0.33030036618E+01  0.18726375328E+02  0.00000000000E+00 0.  1.
         11    1    3    3    0    0 -0.13118861765E+02 -0.40812699675E+01 -0.19414504726E+02  0.23784118495E+02  0.51100000000E-03 0. -1.
        -11    1    3    3    0    0 -0.15334642348E+02  0.14648862937E+02 -0.40172381352E+01  0.21584222103E+02  0.51100000000E-03 0.  1.
        -12    1    3    3    0    0  0.10508525796E+02 -0.14780080709E+02  0.20128739199E+02  0.27093284074E+02  0.00000000000E+00 0.  1.
</event>
<event>
 7    1  0.3568800E-013  0.7246140E+02  0.7816164E-02  0.1226708E+00
        -11   -1    0    0    0    0  0.00000000000E+00  0.00000000000E+00  0.45593999997E+02  0.45594000000E+02  0.51100000000E-03 0. -1.
         11   -1    0    0    0    0 -0.00000000000E+00 -0.00000000000E+00 -0.45593999997E+02  0.45594000000E+02  0.51100000000E-03 0.  1.
    9900012    2    1    2    0    0 -0.18289174170E+02  0.25833615526E+01 -0.30851266517E+01  0.72461397127E+02  0.69999774416E+02 0.  0.
        -12    1    1    2    0    0  0.18289174170E+02 -0.25833615526E+01  0.30851266517E+01  0.18726602873E+02  0.00000000000E+00 0.  1.
         11    1    3    3    0    0 -0.11045522645E+02 -0.20503877433E+02  0.84189852032E+01  0.24764730412E+02  0.51100000000E-03 0. -1.
        -11    1    3    3    0    0 -0.10893905443E+01 -0.34554067309E+01  0.11487664303E+02  0.12045457187E+02  0.51100000000E-03 0.  1.
        -12    1    3    3    0    0 -0.61542609808E+01  0.26542645717E+02 -0.22991776158E+02  0.35651209527E+02  0.00000000000E+00 0.  1.
</event>
<event>
 7    1  0.3568800E-013  0.7246159E+02  0.7816164E-02  0.1226708E+00
        -11   -1    0    0    0    0  0.00000000000E+00  0.00000000000E+00  0.45593999997E+02  0.45594000000E+02  0.51100000000E-03 0. -1.
         11   -1    0    0    0    0 -0.00000000000E+00 -0.00000000000E+00 -0.45593999997E+02  0.45594000000E+02  0.51100000000E-03 0.  1.
    9900012    2    1    2    0    0  0.97057296633E+00  0.13089434656E+02  0.13356769730E+02  0.72461585258E+02  0.70000019492E+02 0.  0.
        -12    1    1    2    0    0 -0.97057296633E+00 -0.13089434656E+02 -0.13356769730E+02  0.18726414742E+02  0.00000000000E+00 0.  1.
         11    1    3    3    0    0 -0.61355103768E+01  0.41409619524E+01 -0.54580196450E+01  0.91968490355E+01  0.51100000000E-03 0. -1.
        -11    1    3    3    0    0 -0.15654088723E+02  0.25519074898E+02  0.10121918141E+01  0.29954936320E+02  0.51100000000E-03 0.  1.
         12    1    3    3    0    0  0.22760172066E+02 -0.16570602195E+02  0.17802597561E+02  0.33309799902E+02  0.00000000000E+00 0. -1.
</event>
<event>
 7    1  0.3568800E-013  0.7246153E+02  0.7816164E-02  0.1226708E+00
        -11   -1    0    0    0    0  0.00000000000E+00  0.00000000000E+00  0.45593999997E+02  0.45594000000E+02  0.51100000000E-03 0.  1.
         11   -1    0    0    0    0 -0.00000000000E+00 -0.00000000000E+00 -0.45593999997E+02  0.45594000000E+02  0.51100000000E-03 0. -1.
    9900012    2    1    2    0    0  0.17134450962E+01 -0.18635900262E+02  0.66941833671E+00  0.72461526932E+02  0.69999943512E+02 0.  0.
        -12    1    1    2    0    0 -0.17134450962E+01  0.18635900262E+02 -0.66941833671E+00  0.18726473068E+02  0.00000000000E+00 0.  1.
         11    1    3    3    0    0 -0.17995741383E+01 -0.85983075390E+01  0.25887640951E+01  0.91581144029E+01  0.51100000000E-03 0. -1.
        -11    1    3    3    0    0 -0.23925926407E+02 -0.22031399641E+02  0.40279695537E+01  0.32772809821E+02  0.51100000000E-03 0.  1.
        -12    1    3    3    0    0  0.27438945641E+02  0.11993806918E+02 -0.59473153122E+01  0.30530602708E+02  0.00000000000E+00 0.  1.
</event>
<event>
 7    1  0.3568800E-013  0.7246150E+02  0.7816164E-02  0.1226708E+00
        -11   -1    0    0    0    0  0.00000000000E+00  0.00000000000E+00  0.45593999997E+02  0.45594000000E+02  0.51100000000E-03 0. -1.
         11   -1    0    0    0    0 -0.00000000000E+00 -0.00000000000E+00 -0.45593999997E+02  0.45594000000E+02  0.51100000000E-03 0.  1.
    9900012    2    1    2    0    0  0.40076986115E+01 -0.24718991062E+00  0.18290954764E+02  0.72461500669E+02  0.69999909300E+02 0.  0.
        -12    1    1    2    0    0 -0.40076986115E+01  0.24718991062E+00 -0.18290954764E+02  0.18726499331E+02  0.00000000000E+00 0.  1.
         11    1    3    3    0    0  0.18443242632E+02  0.10609897272E+02  0.48899790427E+01  0.21831972293E+02  0.51100000000E-03 0. -1.
        -11    1    3    3    0    0 -0.20198383874E+02  0.11401280659E+02 -0.14809241313E+01  0.23241278973E+02  0.51100000000E-03 0.  1.
         12    1    3    3    0    0  0.57628398529E+01 -0.22258367841E+02  0.14881899853E+02  0.27388249403E+02  0.00000000000E+00 0. -1.
</event>
<event>
 7    1  0.3568800E-013  0.7246170E+02  0.7816164E-02  0.1226708E+00
        -11   -1    0    0    0    0  0.00000000000E+00  0.00000000000E+00  0.45593999997E+02  0.45594000000E+02  0.51100000000E-03 0. -1.
         11   -1    0    0    0    0 -0.00000000000E+00 -0.00000000000E+00 -0.45593999997E+02  0.45594000000E+02  0.51100000000E-03 0.  1.
    9900012    2    1    2    0    0  0.51350531393E+01  0.14625370744E+02 -0.10507331578E+02  0.72461701459E+02  0.70000170866E+02 0.  0.
        -12    1    1    2    0    0 -0.51350531393E+01 -0.14625370744E+02  0.10507331578E+02  0.18726298541E+02  0.00000000000E+00 0.  1.
         11    1    3    3    0    0  0.90053321066E+01  0.15991276101E+02  0.89072716550E+01  0.20399911918E+02  0.51100000000E-03 0. -1.
        -11    1    3    3    0    0  0.21169279532E+02 -0.11552266168E+01 -0.16474667209E+02  0.26849350166E+02  0.51100000000E-03 0.  1.
        -12    1    3    3    0    0 -0.25039558500E+02 -0.21067874000E+00 -0.29399360244E+01  0.25212439374E+02  0.00000000000E+00 0.  1.
</event>
<event>
 7    1  0.3568800E-013  0.7246156E+02  0.7816164E-02  0.1226708E+00
        -11   -1    0    0    0    0  0.00000000000E+00  0.00000000000E+00  0.45593999997E+02  0.45594000000E+02  0.51100000000E-03 0. -1.
         11   -1    0    0    0    0 -0.00000000000E+00 -0.00000000000E+00 -0.45593999997E+02  0.45594000000E+02  0.51100000000E-03 0.  1.
    9900012    2    1    2    0    0 -0.95528170274E+01 -0.95754176821E+01  0.12951245197E+02  0.72461556422E+02  0.69999981929E+02 0.  0.
        -12    1    1    2    0    0  0.95528170274E+01  0.95754176821E+01 -0.12951245197E+02  0.18726443578E+02  0.00000000000E+00 0.  1.
         11    1    3    3    0    0 -0.76075655881E+01 -0.15543038046E+01  0.10914335585E+02  0.13394537544E+02  0.51100000000E-03 0. -1.
        -11    1    3    3    0    0 -0.22422368165E+02 -0.24111892856E+02 -0.21503061888E+00  0.32927074113E+02  0.51100000000E-03 0.  1.
        -12    1    3    3    0    0  0.20477116725E+02  0.16090778978E+02  0.22519402302E+01  0.26139944765E+02  0.00000000000E+00 0.  1.
</event>
<event>
 7    1  0.3568800E-013  0.7246161E+02  0.7816164E-02  0.1226708E+00
        -11   -1    0    0    0    0  0.00000000000E+00  0.00000000000E+00  0.45593999997E+02  0.45594000000E+02  0.51100000000E-03 0.  1.
         11   -1    0    0    0    0 -0.00000000000E+00 -0.00000000000E+00 -0.45593999997E+02  0.45594000000E+02  0.51100000000E-03 0. -1.
    9900012    2    1    2    0    0 -0.85296696372E+01 -0.13872075605E+02 -0.92459707629E+01  0.72461608969E+02  0.70000050381E+02 0.  0.
        -12    1    1    2    0    0  0.85296696372E+01  0.13872075605E+02  0.92459707629E+01  0.18726391031E+02  0.00000000000E+00 0.  1.
         11    1    3    3    0    0 -0.30347424850E+01 -0.57057769673E+01  0.24802502341E+01  0.69222246594E+01  0.51100000000E-03 0.  1.
        -11    1    3    3    0    0 -0.23542149171E+02  0.19753619079E+02 -0.97273075370E+01  0.32234434484E+02  0.51100000000E-03 0. -1.
         12    1    3    3    0    0  0.18047222019E+02 -0.27919917716E+02 -0.19989134600E+01  0.33304949826E+02  0.00000000000E+00 0. -1.
</event>
<event>
 7    1  0.3568800E-013  0.7246153E+02  0.7816164E-02  0.1226708E+00
        -11   -1    0    0    0    0  0.00000000000E+00  0.00000000000E+00  0.45593999997E+02  0.45594000000E+02  0.51100000000E-03 0.  1.
         11   -1    0    0    0    0 -0.00000000000E+00 -0.00000000000E+00 -0.45593999997E+02  0.45594000000E+02  0.51100000000E-03 0. -1.
    9900012    2    1    2    0    0 -0.68392579700E+01 -0.16529692735E+02  0.55384626698E+01  0.72461527822E+02  0.69999944671E+02 0.  0.
        -12    1    1    2    0    0  0.68392579700E+01  0.16529692735E+02 -0.55384626698E+01  0.18726472178E+02  0.00000000000E+00 0.  1.
         11    1    3    3    0    0  0.31621657687E+01  0.15086661535E+01  0.11224581791E+02  0.11758682008E+02  0.51100000000E-03 0. -1.
        -11    1    3    3    0    0 -0.16108144153E+02 -0.35141828169E+02  0.59802347061E+01  0.39117561306E+02  0.51100000000E-03 0.  1.
         12    1    3    3    0    0  0.61067204147E+01  0.17103469280E+02 -0.11666353828E+02  0.21585284508E+02  0.00000000000E+00 0. -1.
</event>
<event>
 7    1  0.3568800E-013  0.7246162E+02  0.7816164E-02  0.1226708E+00
        -11   -1    0    0    0    0  0.00000000000E+00  0.00000000000E+00  0.45593999997E+02  0.45594000000E+02  0.51100000000E-03 0. -1.
         11   -1    0    0    0    0 -0.00000000000E+00 -0.00000000000E+00 -0.45593999997E+02  0.45594000000E+02  0.51100000000E-03 0.  1.
    9900012    2    1    2    0    0  0.67556509166E+01  0.16600040133E+02 -0.54293038179E+01  0.72461615093E+02  0.70000058359E+02 0.  0.
        -12    1    1    2    0    0 -0.67556509166E+01 -0.16600040133E+02  0.54293038179E+01  0.18726384907E+02  0.00000000000E+00 0.  1.
         11    1    3    3    0    0 -0.87639424695E+00  0.27192698059E+02 -0.21731099889E+02  0.34820275663E+02  0.51100000000E-03 0. -1.
        -11    1    3    3    0    0  0.13992753846E+02  0.86171811093E+00 -0.29769678418E+01  0.14331854593E+02  0.51100000000E-03 0.  1.
        -12    1    3    3    0    0 -0.63607086824E+01 -0.11454376037E+02  0.19278763913E+02  0.23309484837E+02  0.00000000000E+00 0.  1.
</event>
<event>
 7    1  0.3568800E-013  0.7246158E+02  0.7816164E-02  0.1226708E+00
        -11   -1    0    0    0    0  0.00000000000E+00  0.00000000000E+00  0.45593999997E+02  0.45594000000E+02  0.51100000000E-03 0.  1.
         11   -1    0    0    0    0 -0.00000000000E+00 -0.00000000000E+00 -0.45593999997E+02  0.45594000000E+02  0.51100000000E-03 0. -1.
    9900012    2    1    2    0    0 -0.14600621166E+02  0.88641514169E+01 -0.76764204146E+01  0.72461581518E+02  0.70000014621E+02 0.  0.
        -12    1    1    2    0    0  0.14600621166E+02 -0.88641514169E+01  0.76764204146E+01  0.18726418482E+02  0.00000000000E+00 0.  1.
         11    1    3    3    0    0  0.17684658386E+01 -0.11036287519E+02  0.10776425554E+02  0.15526057503E+02  0.51100000000E-03 0. -1.
        -11    1    3    3    0    0  0.79435183015E+01  0.13272231590E+02  0.10391063582E+02  0.18633996271E+02  0.51100000000E-03 0.  1.
         12    1    3    3    0    0 -0.24312605306E+02  0.66282073463E+01 -0.28843909550E+02  0.38301527744E+02  0.00000000000E+00 0. -1.
</event>
<event>
 7    1  0.3568800E-013  0.7246162E+02  0.7816164E-02  0.1226708E+00
        -11   -1    0    0    0    0  0.00000000000E+00  0.00000000000E+00  0.45593999997E+02  0.45594000000E+02  0.51100000000E-03 0. -1.
         11   -1    0    0    0    0 -0.00000000000E+00 -0.00000000000E+00 -0.45593999997E+02  0.45594000000E+02  0.51100000000E-03 0.  1.
    9900012    2    1    2    0    0 -0.16932246920E+02 -0.39834807664E+01  0.69360060314E+01  0.72461620626E+02  0.70000065566E+02 0.  0.
        -12    1    1    2    0    0  0.16932246920E+02  0.39834807664E+01 -0.69360060314E+01  0.18726379374E+02  0.00000000000E+00 0.  1.
         11    1    3    3    0    0 -0.10209167353E+02  0.77510687730E+01  0.21290398725E+02  0.24851302648E+02  0.51100000000E-03 0. -1.
        -11    1    3    3    0    0  0.95757792989E+01  0.12055460336E+02 -0.10216484419E+02  0.18477181258E+02  0.51100000000E-03 0.  1.
         12    1    3    3    0    0 -0.16298858866E+02 -0.23790009876E+02 -0.41379082747E+01  0.29133136720E+02  0.00000000000E+00 0. -1.
</event>
<event>
 7    1  0.3568800E-013  0.7246170E+02  0.7816164E-02  0.1226708E+00
        -11   -1    0    0    0    0  0.00000000000E+00  0.00000000000E+00  0.45593999997E+02  0.45594000000E+02  0.51100000000E-03 0. -1.
         11   -1    0    0    0    0 -0.00000000000E+00 -0.00000000000E+00 -0.45593999997E+02  0.45594000000E+02  0.51100000000E-03 0.  1.
    9900012    2    1    2    0    0 -0.40654786713E+01  0.13808133350E+02  0.11978381233E+02  0.72461700835E+02  0.70000170054E+02 0.  0.
        -12    1    1    2    0    0  0.40654786713E+01 -0.13808133350E+02 -0.11978381233E+02  0.18726299165E+02  0.00000000000E+00 0.  1.
         11    1    3    3    0    0  0.12526631281E+02  0.21937913425E+02  0.77972354177E+01  0.26438332344E+02  0.51100000000E-03 0. -1.
        -11    1    3    3    0    0 -0.13020144285E+02  0.71636645868E+01 -0.15079407271E+02  0.21171461249E+02  0.51100000000E-03 0.  1.
         12    1    3    3    0    0 -0.35719656676E+01 -0.15293444662E+02  0.19260553086E+02  0.24851907242E+02  0.00000000000E+00 0. -1.
</event>
<event>
 7    1  0.3568800E-013  0.7246161E+02  0.7816164E-02  0.1226708E+00
        -11   -1    0    0    0    0  0.00000000000E+00  0.00000000000E+00  0.45593999997E+02  0.45594000000E+02  0.51100000000E-03 0.  1.
         11   -1    0    0    0    0 -0.00000000000E+00 -0.00000000000E+00 -0.45593999997E+02  0.45594000000E+02  0.51100000000E-03 0. -1.
    9900012    2    1    2    0    0 -0.10144126829E+02 -0.75844088035E+01 -0.13793160156E+02  0.72461605977E+02  0.70000046483E+02 0.  0.
        -12    1    1    2    0    0  0.10144126829E+02  0.75844088035E+01  0.13793160156E+02  0.18726394023E+02  0.00000000000E+00 0.  1.
         11    1    3    3    0    0  0.12539740602E+02 -0.51480272654E+01 -0.38235359414E+01  0.14084271598E+02  0.51100000000E-03 0. -1.
        -11    1    3    3    0    0 -0.28745883928E+02 -0.11845654149E+02  0.12313900058E+02  0.33440656391E+02  0.51100000000E-03 0.  1.
         12    1    3    3    0    0  0.60620164965E+01  0.94092726104E+01 -0.22283524272E+02  0.24936677988E+02  0.00000000000E+00 0. -1.
</event>
<event>
 7    1  0.3568800E-013  0.7246167E+02  0.7816164E-02  0.1226708E+00
        -11   -1    0    0    0    0  0.00000000000E+00  0.00000000000E+00  0.45593999997E+02  0.45594000000E+02  0.51100000000E-03 0.  1.
         11   -1    0    0    0    0 -0.00000000000E+00 -0.00000000000E+00 -0.45593999997E+02  0.45594000000E+02  0.51100000000E-03 0. -1.
    9900012    2    1    2    0    0 -0.98350466715E+01 -0.13799026456E+02 -0.79708321280E+01  0.72461669901E+02  0.70000129756E+02 0.  0.
        -12    1    1    2    0    0  0.98350466715E+01  0.13799026456E+02  0.79708321280E+01  0.18726330099E+02  0.00000000000E+00 0.  1.
         11    1    3    3    0    0  0.34010036394E+00 -0.29534884161E+02 -0.54594186141E+01  0.30037148709E+02  0.51100000000E-03 0. -1.
        -11    1    3    3    0    0 -0.13709211264E+02 -0.58188864134E+01  0.93344967087E+01  0.17576539524E+02  0.51100000000E-03 0.  1.
        -12    1    3    3    0    0  0.35340642287E+01  0.21554744118E+02 -0.11845910223E+02  0.24847981668E+02  0.00000000000E+00 0.  1.
</event>
<event>
 7    1  0.3568800E-013  0.7246161E+02  0.7816164E-02  0.1226708E+00
        -11   -1    0    0    0    0  0.00000000000E+00  0.00000000000E+00  0.45593999997E+02  0.45594000000E+02  0.51100000000E-03 0.  1.
         11   -1    0    0    0    0 -0.00000000000E+00 -0.00000000000E+00 -0.45593999997E+02  0.45594000000E+02  0.51100000000E-03 0. -1.
    9900012    2    1    2    0    0 -0.68454711121E+01  0.14112557973E+02 -0.10230004590E+02  0.72461607897E+02  0.70000048984E+02 0.  0.
        -12    1    1    2    0    0  0.68454711121E+01 -0.14112557973E+02  0.10230004590E+02  0.18726392103E+02  0.00000000000E+00 0.  1.
         11    1    3    3    0    0 -0.25597578315E+02  0.48445028823E+01 -0.18301534331E+02  0.31837892250E+02  0.51100000000E-03 0. -1.
        -11    1    3    3    0    0 -0.76972290192E+01  0.96375887548E+01  0.69289952132E+01  0.14147134922E+02  0.51100000000E-03 0.  1.
        -12    1    3    3    0    0  0.26449336222E+02 -0.36953366391E+00  0.11425345277E+01  0.26476580725E+02  0.00000000000E+00 0.  1.
</event>
<event>
 7    1  0.3568800E-013  0.7246155E+02  0.7816164E-02  0.1226708E+00
        -11   -1    0    0    0    0  0.00000000000E+00  0.00000000000E+00  0.45593999997E+02  0.45594000000E+02  0.51100000000E-03 0. -1.
         11   -1    0    0    0    0 -0.00000000000E+00 -0.00000000000E+00 -0.45593999997E+02  0.45594000000E+02  0.51100000000E-03 0.  1.
    9900012    2    1    2    0    0  0.10662152675E+02  0.95295542614E+01  0.12090736117E+02  0.72461553355E+02  0.69999977934E+02 0.  0.
        -12    1    1    2    0    0 -0.10662152675E+02 -0.95295542614E+01 -0.12090736117E+02  0.18726446645E+02  0.00000000000E+00 0.  1.
         11    1    3    3    0    0  0.14563395044E+02  0.66596089456E+01  0.64208045768E+01  0.17253104016E+02  0.51100000000E-03 0. -1.
        -11    1    3    3    0    0  0.24040664513E+02  0.90537528673E+01  0.67810125016E+01  0.26568893880E+02  0.51100000000E-03 0.  1.
         12    1    3    3    0    0 -0.27941906881E+02 -0.61838075515E+01 -0.11110809616E+01  0.28639555459E+02  0.00000000000E+00 0. -1.
</event>
<event>
 7    1  0.3568800E-013  0.7246163E+02  0.7816164E-02  0.1226708E+00
        -11   -1    0    0    0    0  0.00000000000E+00  0.00000000000E+00  0.45593999997E+02  0.45594000000E+02  0.51100000000E-03 0.  1.
         11   -1    0    0    0    0 -0.00000000000E+00 -0.00000000000E+00 -0.45593999997E+02  0.45594000000E+02  0.51100000000E-03 0. -1.
    9900012    2    1    2    0    0  0.63150775582E+01 -0.17600604716E+02 -0.10076120377E+01  0.72461634283E+02  0.70000083357E+02 0.  0.
        -12    1    1    2    0    0 -0.63150775582E+01  0.17600604716E+02  0.10076120377E+01  0.18726365717E+02  0.00000000000E+00 0.  1.
         11    1    3    3    0    0 -0.70753866005E+01  0.18914164212E+02 -0.10623500975E+02  0.22818095377E+02  0.51100000000E-03 0. -1.
        -11    1    3    3    0    0 -0.34293956008E+01 -0.62872382711E+01  0.13045324587E+02  0.14881888762E+02  0.51100000000E-03 0.  1.
        -12    1    3    3    0    0  0.16819859760E+02 -0.30227530657E+02 -0.34294356497E+01  0.34761650145E+02  0.00000000000E+00 0.  1.
</event>
<event>
 7    1  0.3568800E-013  0.7246156E+02  0.7816164E-02  0.1226708E+00
        -11   -1    0    0    0    0  0.00000000000E+00  0.00000000000E+00  0.45593999997E+02  0.45594000000E+02  0.51100000000E-03 0. -1.
         11   -1    0    0    0    0 -0.00000000000E+00 -0.00000000000E+00 -0.45593999997E+02  0.45594000000E+02  0.51100000000E-03 0.  1.
    9900012    2    1    2    0    0  0.14633381652E+02  0.10179176298E+02 -0.57382849033E+01  0.72461564079E+02  0.69999991903E+02 0.  0.
        -12    1    1    2    0    0 -0.14633381652E+02 -0.10179176298E+02  0.57382849033E+01  0.18726435921E+02  0.00000000000E+00 0.  1.
         11    1    3    3    0    0  0.15759292766E+02  0.74112048490E+01 -0.25788770248E+02  0.31118193022E+02  0.51100000000E-03 0. -1.
        -11    1    3    3    0    0 -0.26473078767E+01  0.26740405435E+01 -0.10294238477E+02  0.10960386758E+02  0.51100000000E-03 0.  1.
         12    1    3    3    0    0  0.15213967625E+01  0.93930905701E-01  0.30344723821E+02  0.30382984299E+02  0.00000000000E+00 0. -1.
</event>
<event>
 7    1  0.3568800E-013  0.7246109E+02  0.7816164E-02  0.1226709E+00
        -11   -1    0    0    0    0  0.00000000000E+00  0.00000000000E+00  0.45593999997E+02  0.45594000000E+02  0.51100000000E-03 0. -1.
         11   -1    0    0    0    0 -0.00000000000E+00 -0.00000000000E+00 -0.45593999997E+02  0.45594000000E+02  0.51100000000E-03 0.  1.
    9900012    2    1    2    0    0  0.54095278052E+00 -0.37960073870E+01  0.18330165755E+02  0.72461086784E+02  0.69999370136E+02 0.  0.
        -12    1    1    2    0    0 -0.54095278052E+00  0.37960073870E+01 -0.18330165755E+02  0.18726913216E+02  0.00000000000E+00 0.  1.
         11    1    3    3    0    0 -0.54088688299E+01 -0.58325186789E+01 -0.93866310147E+00  0.80096956770E+01  0.51100000000E-03 0. -1.
        -11    1    3    3    0    0 -0.71786181469E+01 -0.12153639826E+02 -0.17756309671E+02  0.22683254901E+02  0.51100000000E-03 0.  1.
         12    1    3    3    0    0  0.13128439757E+02  0.14190151118E+02  0.37025138527E+02  0.41768136206E+02  0.00000000000E+00 0. -1.
</event>
<event>
 7    1  0.3757190E-013  0.7246211E+02  0.7816164E-02  0.1226707E+00
        -11   -1    0    0    0    0  0.00000000000E+00  0.00000000000E+00  0.45593999997E+02  0.45594000000E+02  0.51100000000E-03 0. -1.
         11   -1    0    0    0    0 -0.00000000000E+00 -0.00000000000E+00 -0.45593999997E+02  0.45594000000E+02  0.51100000000E-03 0.  1.
    9900012    2    1    2    0    0  0.17670400379E+02 -0.53927335353E+00  0.61745647990E+01  0.72462105742E+02  0.70000697517E+02 0.  0.
        -12    1    1    2    0    0 -0.17670400379E+02  0.53927335353E+00 -0.61745647990E+01  0.18725894258E+02  0.00000000000E+00 0.  1.
         11    1    3    3    0    0 -0.35910192219E+01  0.11820414245E+02  0.13435424225E+02  0.18251800907E+02  0.51100000000E-03 0. -1.
        -11    1    3    3    0    0 -0.14422748781E+02  0.58665687657E+00 -0.74627405595E+01  0.16249687554E+02  0.51100000000E-03 0.  1.
         12    1    3    3    0    0  0.35684168382E+02 -0.12946344475E+02  0.20188113358E+00  0.37960617281E+02  0.00000000000E+00 0. -1.
</event>
<event>
 7    1  0.3568800E-013  0.7246168E+02  0.7816164E-02  0.1226708E+00
        -11   -1    0    0    0    0  0.00000000000E+00  0.00000000000E+00  0.45593999997E+02  0.45594000000E+02  0.51100000000E-03 0.  1.
         11   -1    0    0    0    0 -0.00000000000E+00 -0.00000000000E+00 -0.45593999997E+02  0.45594000000E+02  0.51100000000E-03 0. -1.
    9900012    2    1    2    0    0  0.58535255697E+01 -0.17624151981E+02  0.24084043474E+01  0.72461684127E+02  0.70000148289E+02 0.  0.
        -12    1    1    2    0    0 -0.58535255697E+01  0.17624151981E+02 -0.24084043474E+01  0.18726315873E+02  0.00000000000E+00 0.  1.
         11    1    3    3    0    0  0.48745550079E+01 -0.12528113797E+02  0.11798199839E+02  0.17886096320E+02  0.51100000000E-03 0. -1.
        -11    1    3    3    0    0  0.19282311780E+02 -0.45626877624E+01  0.14443541095E+02  0.24520227300E+02  0.51100000000E-03 0.  1.
         12    1    3    3    0    0 -0.18303341218E+02 -0.53335042160E+00 -0.23833336587E+02  0.30055360508E+02  0.00000000000E+00 0. -1.
</event>
<event>
 7    1  0.4133773E-013  0.7246154E+02  0.7816164E-02  0.1226708E+00
        -11   -1    0    0    0    0  0.00000000000E+00  0.00000000000E+00  0.45593999997E+02  0.45594000000E+02  0.51100000000E-03 0. -1.
         11   -1    0    0    0    0 -0.00000000000E+00 -0.00000000000E+00 -0.45593999997E+02  0.45594000000E+02  0.51100000000E-03 0.  1.
    9900012    2    1    2    0    0 -0.88908974489E+01  0.98231865902E+01  0.13233945341E+02  0.72461538467E+02  0.69999958539E+02 0.  0.
        -12    1    1    2    0    0  0.88908974489E+01 -0.98231865902E+01 -0.13233945341E+02  0.18726461533E+02  0.00000000000E+00 0.  1.
         11    1    3    3    0    0 -0.17904745933E+02  0.27959562332E+02  0.16554961013E+02  0.37099646725E+02  0.51100000000E-03 0. -1.
        -11    1    3    3    0    0 -0.17814909184E+01 -0.18355781218E+01 -0.13207579977E+02  0.13453000633E+02  0.51100000000E-03 0.  1.
        -12    1    3    3    0    0  0.10795339402E+02 -0.16300797620E+02  0.98865643049E+01  0.21908891109E+02  0.00000000000E+00 0.  1.
</event>
<event>
 7    1  0.3568800E-013  0.7246158E+02  0.7816164E-02  0.1226708E+00
        -11   -1    0    0    0    0  0.00000000000E+00  0.00000000000E+00  0.45593999997E+02  0.45594000000E+02  0.51100000000E-03 0.  1.
         11   -1    0    0    0    0 -0.00000000000E+00 -0.00000000000E+00 -0.45593999997E+02  0.45594000000E+02  0.51100000000E-03 0. -1.
    9900012    2    1    2    0    0 -0.34493866436E-01  0.16891986787E+02 -0.80832132188E+01  0.72461581672E+02  0.70000014822E+02 0.  0.
        -12    1    1    2    0    0  0.34493866436E-01 -0.16891986787E+02  0.80832132188E+01  0.18726418328E+02  0.00000000000E+00 0.  1.
         11    1    3    3    0    0  0.97557112354E+01  0.20908069840E+02 -0.26409572109E+01  0.23222746207E+02  0.51100000000E-03 0. -1.
        -11    1    3    3    0    0 -0.52055088488E+01  0.72810018362E+01  0.19511213972E+02  0.21466200899E+02  0.51100000000E-03 0.  1.
        -12    1    3    3    0    0 -0.45846962531E+01 -0.11297084889E+02 -0.24953469980E+02  0.27772634566E+02  0.00000000000E+00 0.  1.
</event>
<event>
 7    1  0.3568800E-013  0.7246159E+02  0.7816164E-02  0.1226708E+00
        -11   -1    0    0    0    0  0.00000000000E+00  0.00000000000E+00  0.45593999997E+02  0.45594000000E+02  0.51100000000E-03 0.  1.
         11   -1    0    0    0    0 -0.00000000000E+00 -0.00000000000E+00 -0.45593999997E+02  0.45594000000E+02  0.51100000000E-03 0. -1.
    9900012    2    1    2    0    0 -0.83956679484E+01  0.16737324400E+02 -0.23053959947E+00  0.72461590390E+02  0.70000026179E+02 0.  0.
        -12    1    1    2    0    0  0.83956679484E+01 -0.16737324400E+02  0.23053959947E+00  0.18726409610E+02  0.00000000000E+00 0.  1.
         11    1    3    3    0    0  0.14342981375E+02  0.17453227118E+02  0.79109593163E+01  0.23935737488E+02  0.51100000000E-03 0. -1.
        -11    1    3    3    0    0  0.66300267320E+01  0.18009464965E+01  0.11293460583E+02  0.13219036082E+02  0.51100000000E-03 0.  1.
         12    1    3    3    0    0 -0.29368676056E+02 -0.25168492143E+01 -0.19434959498E+02  0.35306816819E+02  0.00000000000E+00 0. -1.
</event>
<event>
 7    1  0.3568800E-013  0.7246157E+02  0.7816164E-02  0.1226708E+00
        -11   -1    0    0    0    0  0.00000000000E+00  0.00000000000E+00  0.45593999997E+02  0.45594000000E+02  0.51100000000E-03 0.  1.
         11   -1    0    0    0    0 -0.00000000000E+00 -0.00000000000E+00 -0.45593999997E+02  0.45594000000E+02  0.51100000000E-03 0. -1.
    9900012    2    1    2    0    0  0.14644471324E+02 -0.11665283863E+02  0.37364811252E+00  0.72461574797E+02  0.70000005865E+02 0.  0.
        -12    1    1    2    0    0 -0.14644471324E+02  0.11665283863E+02 -0.37364811252E+00  0.18726425203E+02  0.00000000000E+00 0.  1.
         11    1    3    3    0    0  0.50731758845E+01  0.91558268980E+01 -0.18260983538E+02  0.21048273083E+02  0.51100000000E-03 0. -1.
        -11    1    3    3    0    0  0.18181480918E+00  0.12621745699E+02  0.85391317709E+01  0.15240022729E+02  0.51100000000E-03 0.  1.
        -12    1    3    3    0    0  0.93894806307E+01 -0.33442856460E+02  0.10095499880E+02  0.36173278985E+02  0.00000000000E+00 0.  1.
</event>
<event>
 7    1  0.3568800E-013  0.7246157E+02  0.7816164E-02  0.1226708E+00
        -11   -1    0    0    0    0  0.00000000000E+00  0.00000000000E+00  0.45593999997E+02  0.45594000000E+02  0.51100000000E-03 0. -1.
         11   -1    0    0    0    0 -0.00000000000E+00 -0.00000000000E+00 -0.45593999997E+02  0.45594000000E+02  0.51100000000E-03 0.  1.
    9900012    2    1    2    0    0  0.22282347495E+01 -0.99831484085E+01  0.15686010228E+02  0.72461569504E+02  0.69999998971E+02 0.  0.
        -12    1    1    2    0    0 -0.22282347495E+01  0.99831484085E+01 -0.15686010228E+02  0.18726430496E+02  0.00000000000E+00 0.  1.
         11    1    3    3    0    0 -0.36589738971E+00  0.15211658261E+02 -0.24080783553E+00  0.15217963616E+02  0.51100000000E-03 0.  1.
        -11    1    3    3    0    0 -0.79853653295E+01  0.82212407719E+01  0.18861053512E+02  0.22070210673E+02  0.51100000000E-03 0. -1.
        -12    1    3    3    0    0  0.10579497469E+02 -0.33416047442E+02 -0.29342354492E+01  0.35173395215E+02  0.00000000000E+00 0.  1.
</event>
<event>
 7    1  0.3568800E-013  0.7246156E+02  0.7816164E-02  0.1226708E+00
        -11   -1    0    0    0    0  0.00000000000E+00  0.00000000000E+00  0.45593999997E+02  0.45594000000E+02  0.51100000000E-03 0. -1.
         11   -1    0    0    0    0 -0.00000000000E+00 -0.00000000000E+00 -0.45593999997E+02  0.45594000000E+02  0.51100000000E-03 0.  1.
    9900012    2    1    2    0    0 -0.94626309265E+01  0.15776529726E+02  0.34984668810E+01  0.72461560276E+02  0.69999986949E+02 0.  0.
        -12    1    1    2    0    0  0.94626309265E+01 -0.15776529726E+02 -0.34984668810E+01  0.18726439724E+02  0.00000000000E+00 0.  1.
         11    1    3    3    0    0 -0.90418009004E+01 -0.40463241965E+01 -0.19803583558E+02  0.22142918168E+02  0.51100000000E-03 0. -1.
        -11    1    3    3    0    0 -0.71869735131E+01 -0.47873755907E+01 -0.66991694875E+01  0.10929337830E+02  0.51100000000E-03 0.  1.
         12    1    3    3    0    0  0.67661434871E+01  0.24610229513E+02  0.30001219926E+02  0.39389304277E+02  0.00000000000E+00 0. -1.
</event>
<event>
 7    1  0.3568800E-013  0.7246156E+02  0.7816164E-02  0.1226708E+00
        -11   -1    0    0    0    0  0.00000000000E+00  0.00000000000E+00  0.45593999997E+02  0.45594000000E+02  0.51100000000E-03 0. -1.
         11   -1    0    0    0    0 -0.00000000000E+00 -0.00000000000E+00 -0.45593999997E+02  0.45594000000E+02  0.51100000000E-03 0.  1.
    9900012    2    1    2    0    0  0.12623835198E+02  0.73464553208E+01  0.11719556161E+02  0.72461558334E+02  0.69999984419E+02 0.  0.
        -12    1    1    2    0    0 -0.12623835198E+02 -0.73464553208E+01 -0.11719556161E+02  0.18726441666E+02  0.00000000000E+00 0.  1.
         11    1    3    3    0    0 -0.22939560649E+01  0.31532842637E+01 -0.42180871820E+01  0.57443620892E+01  0.51100000000E-03 0. -1.
        -11    1    3    3    0    0 -0.44582821299E+01  0.30069352017E+02 -0.60425327479E+00  0.30404067697E+02  0.51100000000E-03 0.  1.
         12    1    3    3    0    0  0.19376073392E+02 -0.25876180960E+02  0.16541896618E+02  0.36313128547E+02  0.00000000000E+00 0. -1.
</event>
<event>
 7    1  0.3568800E-013  0.7246152E+02  0.7816164E-02  0.1226708E+00
        -11   -1    0    0    0    0  0.00000000000E+00  0.00000000000E+00  0.45593999997E+02  0.45594000000E+02  0.51100000000E-03 0. -1.
         11   -1    0    0    0    0 -0.00000000000E+00 -0.00000000000E+00 -0.45593999997E+02  0.45594000000E+02  0.51100000000E-03 0.  1.
    9900012    2    1    2    0    0  0.31492430929E+01  0.10153757544E+02  0.15416375954E+02  0.72461516831E+02  0.69999930354E+02 0.  0.
        -12    1    1    2    0    0 -0.31492430929E+01 -0.10153757544E+02 -0.15416375954E+02  0.18726483169E+02  0.00000000000E+00 0.  1.
         11    1    3    3    0    0  0.11871028270E+02  0.24764180699E+02  0.23812383448E+02  0.36348529043E+02  0.51100000000E-03 0. -1.
        -11    1    3    3    0    0  0.11564588657E+02 -0.55790308352E+01 -0.42365750067E+01  0.13520867720E+02  0.51100000000E-03 0.  1.
        -12    1    3    3    0    0 -0.20286373833E+02 -0.90313923200E+01 -0.41594324866E+01  0.22592120068E+02  0.00000000000E+00 0.  1.
</event>
<event>
 7    1  0.3568800E-013  0.7246156E+02  0.7816164E-02  0.1226708E+00
        -11   -1    0    0    0    0  0.00000000000E+00  0.00000000000E+00  0.45593999997E+02  0.45594000000E+02  0.51100000000E-03 0. -1.
         11   -1    0    0    0    0 -0.00000000000E+00 -0.00000000000E+00 -0.45593999997E+02  0.45594000000E+02  0.51100000000E-03 0.  1.
    9900012    2    1    2    0    0 -0.15309337440E+02 -0.99846860265E+01  0.40755044494E+01  0.72461561353E+02  0.69999988352E+02 0.  0.
        -12    1    1    2    0    0  0.15309337440E+02  0.99846860265E+01 -0.40755044494E+01  0.18726438647E+02  0.00000000000E+00 0.  1.
         11    1    3    3    0    0 -0.15278894903E+02 -0.25949676378E+02  0.28668700067E+02  0.41577935222E+02  0.51100000000E-03 0. -1.
        -11    1    3    3    0    0 -0.25821024923E+01  0.15698173495E+01 -0.11055485302E+01  0.32177348563E+01  0.51100000000E-03 0.  1.
        -12    1    3    3    0    0  0.25516599556E+01  0.14395173002E+02 -0.23487647087E+02  0.27665891274E+02  0.00000000000E+00 0.  1.
</event>
<event>
 7    1  0.3568800E-013  0.7246154E+02  0.7816164E-02  0.1226708E+00
        -11   -1    0    0    0    0  0.00000000000E+00  0.00000000000E+00  0.45593999997E+02  0.45594000000E+02  0.51100000000E-03 0. -1.
         11   -1    0    0    0    0 -0.00000000000E+00 -0.00000000000E+00 -0.45593999997E+02  0.45594000000E+02  0.51100000000E-03 0.  1.
    9900012    2    1    2    0    0  0.29480572903E+01 -0.70611624290E+01  0.17091791231E+02  0.72461537865E+02  0.69999957754E+02 0.  0.
        -12    1    1    2    0    0 -0.29480572903E+01  0.70611624290E+01 -0.17091791231E+02  0.18726462135E+02  0.00000000000E+00 0.  1.
         11    1    3    3    0    0  0.18347844983E+02 -0.76474391860E+01  0.25713724409E+02  0.32501113286E+02  0.51100000000E-03 0. -1.
        -11    1    3    3    0    0 -0.36231384729E+01  0.15935310123E+02  0.40461927570E+01  0.16835466052E+02  0.51100000000E-03 0.  1.
        -12    1    3    3    0    0 -0.11776649220E+02 -0.15349033366E+02 -0.12668125935E+02  0.23124958526E+02  0.00000000000E+00 0.  1.
</event>
<event>
 7    1  0.3568800E-013  0.7246154E+02  0.7816164E-02  0.1226708E+00
        -11   -1    0    0    0    0  0.00000000000E+00  0.00000000000E+00  0.45593999997E+02  0.45594000000E+02  0.51100000000E-03 0. -1.
         11   -1    0    0    0    0 -0.00000000000E+00 -0.00000000000E+00 -0.45593999997E+02  0.45594000000E+02  0.51100000000E-03 0.  1.
    9900012    2    1    2    0    0 -0.27999363848E+01 -0.12928323676E+01  0.18470767529E+02  0.72461539779E+02  0.69999960248E+02 0.  0.
        -12    1    1    2    0    0  0.27999363848E+01  0.12928323676E+01 -0.18470767529E+02  0.18726460221E+02  0.00000000000E+00 0.  1.
         11    1    3    3    0    0  0.31512542745E+01 -0.12900751181E+02  0.76697569301E+01  0.15335741135E+02  0.51100000000E-03 0. -1.
        -11    1    3    3    0    0  0.14134394928E+01 -0.21265734874E+02 -0.12435449232E+01  0.21348903840E+02  0.51100000000E-03 0.  1.
        -12    1    3    3    0    0 -0.73646301521E+01  0.32873653688E+02  0.12044555522E+02  0.35776894804E+02  0.00000000000E+00 0.  1.
</event>
<event>
 7    1  0.3568800E-013  0.7246154E+02  0.7816164E-02  0.1226708E+00
        -11   -1    0    0    0    0  0.00000000000E+00  0.00000000000E+00  0.45593999997E+02  0.45594000000E+02  0.51100000000E-03 0. -1.
         11   -1    0    0    0    0 -0.00000000000E+00 -0.00000000000E+00 -0.45593999997E+02  0.45594000000E+02  0.51100000000E-03 0.  1.
    9900012    2    1    2    0    0  0.94701193883E+01  0.23913054079E+01  0.15977443124E+02  0.72461543005E+02  0.69999964451E+02 0.  0.
        -12    1    1    2    0    0 -0.94701193883E+01 -0.23913054079E+01 -0.15977443124E+02  0.18726456995E+02  0.00000000000E+00 0.  1.
         11    1    3    3    0    0  0.13521669934E+02 -0.26316858984E+02  0.10908111461E+02  0.31534100915E+02  0.51100000000E-03 0. -1.
        -11    1    3    3    0    0  0.85297269071E+01  0.11724927871E+02 -0.75128015776E+01  0.16330106016E+02  0.51100000000E-03 0.  1.
        -12    1    3    3    0    0 -0.12581277453E+02  0.16983236521E+02  0.12582133240E+02  0.24597336075E+02  0.00000000000E+00 0.  1.
</event>
<event>
 7    1  0.3568800E-013  0.7246150E+02  0.7816164E-02  0.1226708E+00
        -11   -1    0    0    0    0  0.00000000000E+00  0.00000000000E+00  0.45593999997E+02  0.45594000000E+02  0.51100000000E-03 0. -1.
         11   -1    0    0    0    0 -0.00000000000E+00 -0.00000000000E+00 -0.45593999997E+02  0.45594000000E+02  0.51100000000E-03 0.  1.
    9900012    2    1    2    0    0  0.57012174764E+01  0.82747663044E+01  0.15802093534E+02  0.72461500109E+02  0.69999908571E+02 0.  0.
        -12    1    1    2    0    0 -0.57012174764E+01 -0.82747663044E+01 -0.15802093534E+02  0.18726499891E+02  0.00000000000E+00 0.  1.
         11    1    3    3    0    0 -0.79354871376E+00  0.86176017655E+01  0.30454552967E+02  0.31660268104E+02  0.51100000000E-03 0. -1.
        -11    1    3    3    0    0 -0.78273395504E+01  0.14058734752E+02 -0.59805157402E+00  0.16101954329E+02  0.51100000000E-03 0.  1.
        -12    1    3    3    0    0  0.14322105741E+02 -0.14401570214E+02 -0.14054407859E+02  0.24699277676E+02  0.00000000000E+00 0.  1.
</event>
<event>
 7    1  0.3568800E-013  0.7246158E+02  0.7816164E-02  0.1226708E+00
        -11   -1    0    0    0    0  0.00000000000E+00  0.00000000000E+00  0.45593999997E+02  0.45594000000E+02  0.51100000000E-03 0.  1.
         11   -1    0    0    0    0 -0.00000000000E+00 -0.00000000000E+00 -0.45593999997E+02  0.45594000000E+02  0.51100000000E-03 0. -1.
    9900012    2    1    2    0    0  0.29718119986E+00 -0.10529892499E+02 -0.15482633272E+02  0.72461577871E+02  0.70000009870E+02 0.  0.
        -12    1    1    2    0    0 -0.29718119986E+00  0.10529892499E+02  0.15482633272E+02  0.18726422129E+02  0.00000000000E+00 0.  1.
         11    1    3    3    0    0 -0.16791703757E+02  0.43574595118E+00  0.53282371484E+01  0.17622182072E+02  0.51100000000E-03 0. -1.
        -11    1    3    3    0    0 -0.50454264976E+00  0.49137600765E+01  0.12796015846E+02  0.13716326883E+02  0.51100000000E-03 0.  1.
         12    1    3    3    0    0  0.17593427606E+02 -0.15879398527E+02 -0.33606886267E+02  0.41123068916E+02  0.00000000000E+00 0. -1.
</event>
<event>
 7    1  0.3568800E-013  0.7246159E+02  0.7816164E-02  0.1226708E+00
        -11   -1    0    0    0    0  0.00000000000E+00  0.00000000000E+00  0.45593999997E+02  0.45594000000E+02  0.51100000000E-03 0.  1.
         11   -1    0    0    0    0 -0.00000000000E+00 -0.00000000000E+00 -0.45593999997E+02  0.45594000000E+02  0.51100000000E-03 0. -1.
    9900012    2    1    2    0    0  0.45136290155E+01  0.15290949978E+02 -0.98230606930E+01  0.72461587651E+02  0.70000022610E+02 0.  0.
        -12    1    1    2    0    0 -0.45136290155E+01 -0.15290949978E+02  0.98230606930E+01  0.18726412349E+02  0.00000000000E+00 0.  1.
         11    1    3    3    0    0  0.16865858562E+01  0.13870997153E+02 -0.77395856505E+01  0.15973425437E+02  0.51100000000E-03 0. -1.
        -11    1    3    3    0    0  0.15823359103E+02  0.23635983637E+02  0.68265607465E+01  0.29251330699E+02  0.51100000000E-03 0.  1.
        -12    1    3    3    0    0 -0.12996315944E+02 -0.22216030813E+02 -0.89100357889E+01  0.27236831514E+02  0.00000000000E+00 0.  1.
</event>
<event>
 7    1  0.3568800E-013  0.7246160E+02  0.7816164E-02  0.1226708E+00
        -11   -1    0    0    0    0  0.00000000000E+00  0.00000000000E+00  0.45593999997E+02  0.45594000000E+02  0.51100000000E-03 0. -1.
         11   -1    0    0    0    0 -0.00000000000E+00 -0.00000000000E+00 -0.45593999997E+02  0.45594000000E+02  0.51100000000E-03 0.  1.
    9900012    2    1    2    0    0 -0.72008747489E+01 -0.17227976940E+02 -0.14221285463E+01  0.72461595214E+02  0.70000032463E+02 0.  0.
        -12    1    1    2    0    0  0.72008747489E+01  0.17227976940E+02  0.14221285463E+01  0.18726404786E+02  0.00000000000E+00 0.  1.
         11    1    3    3    0    0 -0.16883431679E+02 -0.19641098300E+02 -0.20866573719E+02  0.33260139908E+02  0.51100000000E-03 0. -1.
        -11    1    3    3    0    0 -0.59975074440E+01  0.74579334713E+01 -0.41458001544E+01  0.10429694453E+02  0.51100000000E-03 0.  1.
        -12    1    3    3    0    0  0.15680064374E+02 -0.50448121115E+01  0.23590245327E+02  0.28771760853E+02  0.00000000000E+00 0.  1.
</event>
<event>
 7    1  0.3568800E-013  0.7246155E+02  0.7816164E-02  0.1226708E+00
        -11   -1    0    0    0    0  0.00000000000E+00  0.00000000000E+00  0.45593999997E+02  0.45594000000E+02  0.51100000000E-03 0.  1.
         11   -1    0    0    0    0 -0.00000000000E+00 -0.00000000000E+00 -0.45593999997E+02  0.45594000000E+02  0.51100000000E-03 0. -1.
    9900012    2    1    2    0    0  0.87834869344E+01  0.99848566706E+01 -0.13184572809E+02  0.72461549039E+02  0.69999972310E+02 0.  0.
        -12    1    1    2    0    0 -0.87834869344E+01 -0.99848566706E+01  0.13184572809E+02  0.18726450961E+02  0.00000000000E+00 0.  1.
         11    1    3    3    0    0 -0.10002364909E+02  0.57700999048E+01 -0.12646124917E+02  0.17125006054E+02  0.51100000000E-03 0. -1.
        -11    1    3    3    0    0  0.50353403512E+01  0.27352304534E+02  0.38125446652E+01  0.28072027231E+02  0.51100000000E-03 0.  1.
        -12    1    3    3    0    0  0.13750511492E+02 -0.23137547768E+02 -0.43509925568E+01  0.27264515753E+02  0.00000000000E+00 0.  1.
</event>
<event>
 7    1  0.3568800E-013  0.7246156E+02  0.7816164E-02  0.1226708E+00
        -11   -1    0    0    0    0  0.00000000000E+00  0.00000000000E+00  0.45593999997E+02  0.45594000000E+02  0.51100000000E-03 0. -1.
         11   -1    0    0    0    0 -0.00000000000E+00 -0.00000000000E+00 -0.45593999997E+02  0.45594000000E+02  0.51100000000E-03 0.  1.
    9900012    2    1    2    0    0 -0.58833790137E+01 -0.16035849016E+02  0.76757500785E+01  0.72461555021E+02  0.69999980104E+02 0.  0.
        -12    1    1    2    0    0  0.58833790137E+01  0.16035849016E+02 -0.76757500785E+01  0.18726444979E+02  0.00000000000E+00 0.  1.
         11    1    3    3    0    0  0.95746928481E+01  0.62231428882E+01  0.30496362131E+02  0.32564249631E+02  0.51100000000E-03 0. -1.
        -11    1    3    3    0    0  0.29147494333E+01  0.47554879428E+00 -0.45567663738E+01  0.54301041391E+01  0.51100000000E-03 0.  1.
        -12    1    3    3    0    0 -0.18372821295E+02 -0.22734540698E+02 -0.18263845679E+02  0.34467201251E+02  0.00000000000E+00 0.  1.
</event>
<event>
 7    1  0.3568800E-013  0.7246157E+02  0.7816164E-02  0.1226708E+00
        -11   -1    0    0    0    0  0.00000000000E+00  0.00000000000E+00  0.45593999997E+02  0.45594000000E+02  0.51100000000E-03 0. -1.
         11   -1    0    0    0    0 -0.00000000000E+00 -0.00000000000E+00 -0.45593999997E+02  0.45594000000E+02  0.51100000000E-03 0.  1.
    9900012    2    1    2    0    0  0.15735485449E+02 -0.17858656162E+01  0.99942136952E+01  0.72461571464E+02  0.70000001524E+02 0.  0.
        -12    1    1    2    0    0 -0.15735485449E+02  0.17858656162E+01 -0.99942136952E+01  0.18726428536E+02  0.00000000000E+00 0.  1.
         11    1    3    3    0    0  0.48391808688E+01  0.43270960311E+01  0.18211497447E+02  0.19333909875E+02  0.51100000000E-03 0. -1.
        -11    1    3    3    0    0  0.15176618132E+02 -0.10089143807E+02  0.18387714184E+02  0.25888773510E+02  0.51100000000E-03 0.  1.
        -12    1    3    3    0    0 -0.42803135513E+01  0.39761821593E+01 -0.26604997936E+02  0.27238888080E+02  0.00000000000E+00 0.  1.
</event>
<event>
 7    1  0.3568800E-013  0.7246158E+02  0.7816164E-02  0.1226708E+00
        -11   -1    0    0    0    0  0.00000000000E+00  0.00000000000E+00  0.45593999997E+02  0.45594000000E+02  0.51100000000E-03 0. -1.
         11   -1    0    0    0    0 -0.00000000000E+00 -0.00000000000E+00 -0.45593999997E+02  0.45594000000E+02  0.51100000000E-03 0.  1.
    9900012    2    1    2    0    0  0.78470293434E+01  0.50689524425E+01  0.16229868970E+02  0.72461580289E+02  0.70000013020E+02 0.  0.
        -12    1    1    2    0    0 -0.78470293434E+01 -0.50689524425E+01 -0.16229868970E+02  0.18726419711E+02  0.00000000000E+00 0.  1.
         11    1    3    3    0    0  0.24733907910E+01  0.92579506687E+01  0.81478753531E+01  0.12578361802E+02  0.51100000000E-03 0. -1.
        -11    1    3    3    0    0  0.27996397480E+02  0.10637192501E+02  0.12543023117E+02  0.32469609874E+02  0.51100000000E-03 0.  1.
        -12    1    3    3    0    0 -0.22622758928E+02 -0.14826190728E+02 -0.44610294999E+01  0.27413608613E+02  0.00000000000E+00 0.  1.
</event>
<event>
 7    1  0.3568800E-013  0.7246161E+02  0.7816164E-02  0.1226708E+00
        -11   -1    0    0    0    0  0.00000000000E+00  0.00000000000E+00  0.45593999997E+02  0.45594000000E+02  0.51100000000E-03 0.  1.
         11   -1    0    0    0    0 -0.00000000000E+00 -0.00000000000E+00 -0.45593999997E+02  0.45594000000E+02  0.51100000000E-03 0. -1.
    9900012    2    1    2    0    0 -0.15577685943E+02  0.35810970852E+01 -0.97564920885E+01  0.72461609703E+02  0.70000051337E+02 0.  0.
        -12    1    1    2    0    0  0.15577685943E+02 -0.35810970852E+01  0.97564920885E+01  0.18726390297E+02  0.00000000000E+00 0.  1.
         11    1    3    3    0    0  0.12861567828E+01  0.26709364141E+02 -0.70700055411E+01  0.27659163232E+02  0.51100000000E-03 0. -1.
        -11    1    3    3    0    0  0.10442087765E+02 -0.95442739183E+01 -0.20752409542E+01  0.14298146271E+02  0.51100000000E-03 0.  1.
        -12    1    3    3    0    0 -0.27305930491E+02 -0.13583993137E+02 -0.61124559326E+00  0.30504300200E+02  0.00000000000E+00 0.  1.
</event>
<event>
 7    1  0.3568800E-013  0.7246161E+02  0.7816164E-02  0.1226708E+00
        -11   -1    0    0    0    0  0.00000000000E+00  0.00000000000E+00  0.45593999997E+02  0.45594000000E+02  0.51100000000E-03 0. -1.
         11   -1    0    0    0    0 -0.00000000000E+00 -0.00000000000E+00 -0.45593999997E+02  0.45594000000E+02  0.51100000000E-03 0.  1.
    9900012    2    1    2    0    0 -0.43565830786E+01 -0.36253097140E+01  0.17848107878E+02  0.72461611093E+02  0.70000053148E+02 0.  0.
        -12    1    1    2    0    0  0.43565830786E+01  0.36253097140E+01 -0.17848107878E+02  0.18726388907E+02  0.00000000000E+00 0.  1.
         11    1    3    3    0    0 -0.96848781444E+01  0.13911183451E+02 -0.14305012092E+02  0.22179974321E+02  0.51100000000E-03 0. -1.
        -11    1    3    3    0    0 -0.13290531800E+02 -0.14089937389E+02  0.12863831430E+02  0.23251725322E+02  0.51100000000E-03 0.  1.
        -12    1    3    3    0    0  0.18618826865E+02 -0.34465557760E+01  0.19289288541E+02  0.27029911450E+02  0.00000000000E+00 0.  1.
</event>
<event>
 7    1  0.3568800E-013  0.7246156E+02  0.7816164E-02  0.1226708E+00
        -11   -1    0    0    0    0  0.00000000000E+00  0.00000000000E+00  0.45593999997E+02  0.45594000000E+02  0.51100000000E-03 0.  1.
         11   -1    0    0    0    0 -0.00000000000E+00 -0.00000000000E+00 -0.45593999997E+02  0.45594000000E+02  0.51100000000E-03 0. -1.
    9900012    2    1    2    0    0 -0.48560458327E+01  0.23330201707E+01 -0.17934751648E+02  0.72461561979E+02  0.69999989168E+02 0.  0.
        -12    1    1    2    0    0  0.48560458327E+01 -0.23330201707E+01  0.17934751648E+02  0.18726438021E+02  0.00000000000E+00 0.  1.
         11    1    3    3    0    0  0.75668515281E+00 -0.37998711491E+01 -0.23940083463E+02  0.24251581178E+02  0.51100000000E-03 0. -1.
        -11    1    3    3    0    0  0.86399185241E+00  0.23803685306E+02 -0.75825638745E+01  0.24997143662E+02  0.51100000000E-03 0.  1.
        -12    1    3    3    0    0 -0.64767228379E+01 -0.17670793986E+02  0.13587895689E+02  0.23212837140E+02  0.00000000000E+00 0.  1.
</event>
<event>
 7    1  0.3568800E-013  0.7246171E+02  0.7816164E-02  0.1226708E+00
        -11   -1    0    0    0    0  0.00000000000E+00  0.00000000000E+00  0.45593999997E+02  0.45594000000E+02  0.51100000000E-03 0. -1.
         11   -1    0    0    0    0 -0.00000000000E+00 -0.00000000000E+00 -0.45593999997E+02  0.45594000000E+02  0.51100000000E-03 0.  1.
    9900012    2    1    2    0    0  0.80341472907E+01  0.61628940950E+01  0.15752621050E+02  0.72461712161E+02  0.70000184807E+02 0.  0.
        -12    1    1    2    0    0 -0.80341472907E+01 -0.61628940950E+01 -0.15752621050E+02  0.18726287839E+02  0.00000000000E+00 0.  1.
         11    1    3    3    0    0 -0.33688809761E+01  0.43545992270E+01  0.11791048087E+02  0.13013097583E+02  0.51100000000E-03 0. -1.
        -11    1    3    3    0    0  0.27479627130E+02 -0.84986644280E+01  0.19565509201E+02  0.34787445362E+02  0.51100000000E-03 0.  1.
         12    1    3    3    0    0 -0.16076598863E+02  0.10306959296E+02 -0.15603936238E+02  0.24661169215E+02  0.00000000000E+00 0. -1.
</event>
<event>
 7    1  0.3568800E-013  0.7246157E+02  0.7816164E-02  0.1226708E+00
        -11   -1    0    0    0    0  0.00000000000E+00  0.00000000000E+00  0.45593999997E+02  0.45594000000E+02  0.51100000000E-03 0. -1.
         11   -1    0    0    0    0 -0.00000000000E+00 -0.00000000000E+00 -0.45593999997E+02  0.45594000000E+02  0.51100000000E-03 0.  1.
    9900012    2    1    2    0    0 -0.12158689378E+02 -0.56153162932E+00  0.14231301978E+02  0.72461574790E+02  0.70000005856E+02 0.  0.
        -12    1    1    2    0    0  0.12158689378E+02  0.56153162932E+00 -0.14231301978E+02  0.18726425210E+02  0.00000000000E+00 0.  1.
         11    1    3    3    0    0 -0.37739113234E+00 -0.48467187742E+01 -0.23878158844E+01  0.54161584081E+01  0.51100000000E-03 0. -1.
        -11    1    3    3    0    0 -0.18818220735E+02  0.85988836127E+01 -0.20436781721E+02  0.29081407778E+02  0.51100000000E-03 0.  1.
         12    1    3    3    0    0  0.70369224891E+01 -0.43136964678E+01  0.37055899583E+02  0.37964008604E+02  0.00000000000E+00 0. -1.
</event>
<event>
 7    1  0.3568800E-013  0.7246152E+02  0.7816164E-02  0.1226708E+00
        -11   -1    0    0    0    0  0.00000000000E+00  0.00000000000E+00  0.45593999997E+02  0.45594000000E+02  0.51100000000E-03 0.  1.
         11   -1    0    0    0    0 -0.00000000000E+00 -0.00000000000E+00 -0.45593999997E+02  0.45594000000E+02  0.51100000000E-03 0. -1.
    9900012    2    1    2    0    0  0.15253956935E+02  0.10832036091E+02 -0.81546864096E+00  0.72461516156E+02  0.69999929475E+02 0.  0.
        -12    1    1    2    0    0 -0.15253956935E+02 -0.10832036091E+02  0.81546864096E+00  0.18726483844E+02  0.00000000000E+00 0.  1.
         11    1    3    3    0    0  0.50526409132E+01  0.69769306156E+01  0.15150684116E+02  0.17428424210E+02  0.51100000000E-03 0. -1.
        -11    1    3    3    0    0 -0.19333525385E+02 -0.54495227208E+01  0.22842722840E+00  0.20088172664E+02  0.51100000000E-03 0.  1.
         12    1    3    3    0    0  0.29534841407E+02  0.93046281957E+01 -0.16194579985E+02  0.34944919283E+02  0.00000000000E+00 0. -1.
</event>
<event>
 7    1  0.3568800E-013  0.7246155E+02  0.7816164E-02  0.1226708E+00
        -11   -1    0    0    0    0  0.00000000000E+00  0.00000000000E+00  0.45593999997E+02  0.45594000000E+02  0.51100000000E-03 0. -1.
         11   -1    0    0    0    0 -0.00000000000E+00 -0.00000000000E+00 -0.45593999997E+02  0.45594000000E+02  0.51100000000E-03 0.  1.
    9900012    2    1    2    0    0 -0.13438531777E+01 -0.11691546939E+02  0.14566453195E+02  0.72461554265E+02  0.69999979119E+02 0.  0.
        -12    1    1    2    0    0  0.13438531777E+01  0.11691546939E+02 -0.14566453195E+02  0.18726445735E+02  0.00000000000E+00 0.  1.
         11    1    3    3    0    0 -0.94449523660E+00  0.10011199328E+02  0.55575413481E+01  0.11489231886E+02  0.51100000000E-03 0. -1.
        -11    1    3    3    0    0 -0.13877950741E+02  0.11384942748E+02 -0.99525093167E+01  0.20524786969E+02  0.51100000000E-03 0.  1.
        -12    1    3    3    0    0  0.13478592800E+02 -0.33087689015E+02  0.18961421164E+02  0.40447535410E+02  0.00000000000E+00 0.  1.
</event>
<event>
 7    1  0.3568800E-013  0.7246160E+02  0.7816164E-02  0.1226708E+00
        -11   -1    0    0    0    0  0.00000000000E+00  0.00000000000E+00  0.45593999997E+02  0.45594000000E+02  0.51100000000E-03 0.  1.
         11   -1    0    0    0    0 -0.00000000000E+00 -0.00000000000E+00 -0.45593999997E+02  0.45594000000E+02  0.51100000000E-03 0. -1.
    9900012    2    1    2    0    0  0.10401236476E+02  0.76367156794E+01 -0.13571036140E+02  0.72461597021E+02  0.70000034817E+02 0.  0.
        -12    1    1    2    0    0 -0.10401236476E+02 -0.76367156794E+01  0.13571036140E+02  0.18726402979E+02  0.00000000000E+00 0.  1.
         11    1    3    3    0    0 -0.97505372766E+01 -0.26628077262E+01 -0.14711592463E+02  0.17849214975E+02  0.51100000000E-03 0. -1.
        -11    1    3    3    0    0 -0.11686797812E+02  0.32170749314E+01  0.14903688837E+02  0.19210693778E+02  0.51100000000E-03 0.  1.
        -12    1    3    3    0    0  0.31838571565E+02  0.70824484742E+01 -0.13763132514E+02  0.35401688269E+02  0.00000000000E+00 0.  1.
</event>
<event>
 7    1  0.3568800E-013  0.7246147E+02  0.7816164E-02  0.1226708E+00
        -11   -1    0    0    0    0  0.00000000000E+00  0.00000000000E+00  0.45593999997E+02  0.45594000000E+02  0.51100000000E-03 0.  1.
         11   -1    0    0    0    0 -0.00000000000E+00 -0.00000000000E+00 -0.45593999997E+02  0.45594000000E+02  0.51100000000E-03 0. -1.
    9900012    2    1    2    0    0 -0.10096138284E+02 -0.95757900219E+01 -0.12532163958E+02  0.72461470790E+02  0.69999870377E+02 0.  0.
        -12    1    1    2    0    0  0.10096138284E+02  0.95757900219E+01  0.12532163958E+02  0.18726529210E+02  0.00000000000E+00 0.  1.
         11    1    3    3    0    0 -0.17320961671E+01  0.21283954092E+01 -0.28199044562E+02  0.28332249092E+02  0.51100000000E-03 0. -1.
        -11    1    3    3    0    0  0.90208579197E+01  0.93680907637E+01  0.95491594788E+01  0.16134542112E+02  0.51100000000E-03 0.  1.
         12    1    3    3    0    0 -0.17384900037E+02 -0.21072276195E+02  0.61177211257E+01  0.27994679585E+02  0.00000000000E+00 0. -1.
</event>
<event>
 7    1  0.3568800E-013  0.7246154E+02  0.7816164E-02  0.1226708E+00
        -11   -1    0    0    0    0  0.00000000000E+00  0.00000000000E+00  0.45593999997E+02  0.45594000000E+02  0.51100000000E-03 0.  1.
         11   -1    0    0    0    0 -0.00000000000E+00 -0.00000000000E+00 -0.45593999997E+02  0.45594000000E+02  0.51100000000E-03 0. -1.
    9900012    2    1    2    0    0  0.13247686784E+02 -0.12819879437E+02  0.32908770881E+01  0.72461537817E+02  0.69999957692E+02 0.  0.
        -12    1    1    2    0    0 -0.13247686784E+02  0.12819879437E+02 -0.32908770881E+01  0.18726462183E+02  0.00000000000E+00 0.  1.
         11    1    3    3    0    0  0.34203097445E+02 -0.11103889584E+02 -0.11506136191E+02  0.37756316147E+02  0.51100000000E-03 0. -1.
        -11    1    3    3    0    0 -0.53958272546E+01 -0.93889944748E+01 -0.14635173380E+01  0.10927490667E+02  0.51100000000E-03 0.  1.
        -12    1    3    3    0    0 -0.15559583406E+02  0.76730046215E+01  0.16260530617E+02  0.23777731003E+02  0.00000000000E+00 0.  1.
</event>
<event>
 7    1  0.3568800E-013  0.7246145E+02  0.7816164E-02  0.1226708E+00
        -11   -1    0    0    0    0  0.00000000000E+00  0.00000000000E+00  0.45593999997E+02  0.45594000000E+02  0.51100000000E-03 0.  1.
         11   -1    0    0    0    0 -0.00000000000E+00 -0.00000000000E+00 -0.45593999997E+02  0.45594000000E+02  0.51100000000E-03 0. -1.
    9900012    2    1    2    0    0 -0.93177352007E+01 -0.15016050057E+02 -0.61952975740E+01  0.72461450382E+02  0.69999843791E+02 0.  0.
        -12    1    1    2    0    0  0.93177352007E+01  0.15016050057E+02  0.61952975740E+01  0.18726549618E+02  0.00000000000E+00 0.  1.
         11    1    3    3    0    0 -0.11688939774E+01 -0.20808750627E+02 -0.42551842516E+01  0.21271506977E+02  0.51100000000E-03 0. -1.
        -11    1    3    3    0    0  0.21347674845E+01 -0.26041376429E+01  0.22834943624E+02  0.23081885011E+02  0.51100000000E-03 0.  1.
         12    1    3    3    0    0 -0.10283608708E+02  0.83968382130E+01 -0.24775056946E+02  0.28108058395E+02  0.00000000000E+00 0. -1.
</event>
<event>
 7    1  0.3568800E-013  0.7246155E+02  0.7816164E-02  0.1226708E+00
        -11   -1    0    0    0    0  0.00000000000E+00  0.00000000000E+00  0.45593999997E+02  0.45594000000E+02  0.51100000000E-03 0. -1.
         11   -1    0    0    0    0 -0.00000000000E+00 -0.00000000000E+00 -0.45593999997E+02  0.45594000000E+02  0.51100000000E-03 0.  1.
    9900012    2    1    2    0    0  0.16504274804E+02 -0.73717005236E+01  0.48935539973E+01  0.72461550093E+02  0.69999973683E+02 0.  0.
        -12    1    1    2    0    0 -0.16504274804E+02  0.73717005236E+01 -0.48935539973E+01  0.18726449907E+02  0.00000000000E+00 0.  1.
         11    1    3    3    0    0  0.72845490088E+01  0.43383964695E-01  0.15127763197E+02  0.16790347109E+02  0.51100000000E-03 0. -1.
        -11    1    3    3    0    0 -0.15688352000E+02  0.46949195568E+01  0.11878738669E+02  0.20230449593E+02  0.51100000000E-03 0.  1.
        -12    1    3    3    0    0  0.24908077795E+02 -0.12110004045E+02 -0.22112947869E+02  0.35440753390E+02  0.00000000000E+00 0.  1.
</event>
<event>
 7    1  0.3568800E-013  0.7246158E+02  0.7816164E-02  0.1226708E+00
        -11   -1    0    0    0    0  0.00000000000E+00  0.00000000000E+00  0.45593999997E+02  0.45594000000E+02  0.51100000000E-03 0. -1.
         11   -1    0    0    0    0 -0.00000000000E+00 -0.00000000000E+00 -0.45593999997E+02  0.45594000000E+02  0.51100000000E-03 0.  1.
    9900012    2    1    2    0    0  0.14828863630E+02  0.11202408958E+02  0.22999204211E+01  0.72461580242E+02  0.70000012959E+02 0.  0.
        -12    1    1    2    0    0 -0.14828863630E+02 -0.11202408958E+02 -0.22999204211E+01  0.18726419758E+02  0.00000000000E+00 0.  1.
         11    1    3    3    0    0  0.61462470734E+01  0.11590585181E+02  0.60691036537E+01  0.14455173376E+02  0.51100000000E-03 0. -1.
        -11    1    3    3    0    0  0.16106347149E+02  0.25494068594E+02 -0.67930242934E+01  0.30911278383E+02  0.51100000000E-03 0.  1.
         12    1    3    3    0    0 -0.74237305928E+01 -0.25882244817E+02  0.30238410608E+01  0.27095128482E+02  0.00000000000E+00 0. -1.
</event>
<event>
 7    1  0.3568800E-013  0.7246169E+02  0.7816164E-02  0.1226708E+00
        -11   -1    0    0    0    0  0.00000000000E+00  0.00000000000E+00  0.45593999997E+02  0.45594000000E+02  0.51100000000E-03 0.  1.
         11   -1    0    0    0    0 -0.00000000000E+00 -0.00000000000E+00 -0.45593999997E+02  0.45594000000E+02  0.51100000000E-03 0. -1.
    9900012    2    1    2    0    0 -0.11029072930E+02 -0.48545603542E+01 -0.14334135325E+02  0.72461691196E+02  0.70000157497E+02 0.  0.
        -12    1    1    2    0    0  0.11029072930E+02  0.48545603542E+01  0.14334135325E+02  0.18726308804E+02  0.00000000000E+00 0.  1.
         11    1    3    3    0    0 -0.20017574394E+02  0.41639278811E+01  0.64810339878E+01  0.21448668532E+02  0.51100000000E-03 0. -1.
        -11    1    3    3    0    0  0.12806425925E+02 -0.80455282858E+01  0.11160168590E+02  0.18795862140E+02  0.51100000000E-03 0.  1.
         12    1    3    3    0    0 -0.38179244609E+01 -0.97295994952E+00 -0.31975337902E+02  0.32217160524E+02  0.00000000000E+00 0. -1.
</event>
<event>
 7    1  0.3568800E-013  0.7246147E+02  0.7816164E-02  0.1226708E+00
        -11   -1    0    0    0    0  0.00000000000E+00  0.00000000000E+00  0.45593999997E+02  0.45594000000E+02  0.51100000000E-03 0.  1.
         11   -1    0    0    0    0 -0.00000000000E+00 -0.00000000000E+00 -0.45593999997E+02  0.45594000000E+02  0.51100000000E-03 0. -1.
    9900012    2    1    2    0    0 -0.61601122685E+01 -0.83671900301E+01 -0.15579663103E+02  0.72461474573E+02  0.69999875305E+02 0.  0.
        -12    1    1    2    0    0  0.61601122685E+01  0.83671900301E+01  0.15579663103E+02  0.18726525427E+02  0.00000000000E+00 0.  1.
         11    1    3    3    0    0 -0.10467023864E+02 -0.87665525550E+01  0.17791154260E+02  0.22426239151E+02  0.51100000000E-03 0. -1.
        -11    1    3    3    0    0  0.40069472042E+01 -0.13342778114E+02  0.14003489892E-01  0.13931459007E+02  0.51100000000E-03 0.  1.
         12    1    3    3    0    0  0.29996439120E+00  0.13742140639E+02 -0.33384820854E+02  0.36103776415E+02  0.00000000000E+00 0. -1.
</event>
<event>
 7    1  0.3568800E-013  0.7246157E+02  0.7816164E-02  0.1226708E+00
        -11   -1    0    0    0    0  0.00000000000E+00  0.00000000000E+00  0.45593999997E+02  0.45594000000E+02  0.51100000000E-03 0.  1.
         11   -1    0    0    0    0 -0.00000000000E+00 -0.00000000000E+00 -0.45593999997E+02  0.45594000000E+02  0.51100000000E-03 0. -1.
    9900012    2    1    2    0    0 -0.13603673608E+02 -0.11014618239E+02  0.66556243404E+01  0.72461572526E+02  0.70000002907E+02 0.  0.
        -12    1    1    2    0    0  0.13603673608E+02  0.11014618239E+02 -0.66556243404E+01  0.18726427474E+02  0.00000000000E+00 0.  1.
         11    1    3    3    0    0 -0.41134114425E+01  0.97312626612E+00 -0.59526488275E+01  0.73007641209E+01  0.51100000000E-03 0. -1.
        -11    1    3    3    0    0 -0.23473363784E+02  0.17129418880E+02 -0.31354854525E+01  0.29227505329E+02  0.51100000000E-03 0.  1.
         12    1    3    3    0    0  0.13983101619E+02 -0.29117163384E+02  0.15743758620E+02  0.35933303076E+02  0.00000000000E+00 0. -1.
</event>
<event>
 7    1  0.3568800E-013  0.7246157E+02  0.7816164E-02  0.1226708E+00
        -11   -1    0    0    0    0  0.00000000000E+00  0.00000000000E+00  0.45593999997E+02  0.45594000000E+02  0.51100000000E-03 0.  1.
         11   -1    0    0    0    0 -0.00000000000E+00 -0.00000000000E+00 -0.45593999997E+02  0.45594000000E+02  0.51100000000E-03 0. -1.
    9900012    2    1    2    0    0  0.16031770179E+02 -0.24420639607E+01 -0.93647187273E+01  0.72461567123E+02  0.69999995869E+02 0.  0.
        -12    1    1    2    0    0 -0.16031770179E+02  0.24420639607E+01  0.93647187273E+01  0.18726432877E+02  0.00000000000E+00 0.  1.
         11    1    3    3    0    0 -0.38450164497E+01 -0.14557172139E+02 -0.16595103743E+02  0.22407429141E+02  0.51100000000E-03 0. -1.
        -11    1    3    3    0    0  0.21175444209E+02  0.26908382135E+02  0.19628882885E+01  0.34297425520E+02  0.51100000000E-03 0.  1.
         12    1    3    3    0    0 -0.12986575807E+01 -0.14793273956E+02  0.52674967272E+01  0.15756712463E+02  0.00000000000E+00 0. -1.
</event>
<event>
 7    1  0.3568800E-013  0.7246168E+02  0.7816164E-02  0.1226708E+00
        -11   -1    0    0    0    0  0.00000000000E+00  0.00000000000E+00  0.45593999997E+02  0.45594000000E+02  0.51100000000E-03 0.  1.
         11   -1    0    0    0    0 -0.00000000000E+00 -0.00000000000E+00 -0.45593999997E+02  0.45594000000E+02  0.51100000000E-03 0. -1.
    9900012    2    1    2    0    0 -0.18440724093E+02 -0.19165899773E+01 -0.26346437222E+01  0.72461682429E+02  0.70000146076E+02 0.  0.
        -12    1    1    2    0    0  0.18440724093E+02  0.19165899773E+01  0.26346437222E+01  0.18726317571E+02  0.00000000000E+00 0.  1.
         11    1    3    3    0    0  0.97367603841E+01  0.10942460983E+02  0.68214685627E+01  0.16157796532E+02  0.51100000000E-03 0.  1.
        -11    1    3    3    0    0  0.52445358103E+00 -0.21303141546E+02 -0.14755936802E+02  0.25919810232E+02  0.51100000000E-03 0. -1.
         12    1    3    3    0    0 -0.28701938058E+02  0.84440905859E+01  0.52998245169E+01  0.30384075665E+02  0.00000000000E+00 0. -1.
</event>
<event>
 7    1  0.3568800E-013  0.7246161E+02  0.7816164E-02  0.1226708E+00
        -11   -1    0    0    0    0  0.00000000000E+00  0.00000000000E+00  0.45593999997E+02  0.45594000000E+02  0.51100000000E-03 0. -1.
         11   -1    0    0    0    0 -0.00000000000E+00 -0.00000000000E+00 -0.45593999997E+02  0.45594000000E+02  0.51100000000E-03 0.  1.
    9900012    2    1    2    0    0 -0.95022640679E+01 -0.95083726289E+01  0.13037466853E+02  0.72461609146E+02  0.70000050612E+02 0.  0.
        -12    1    1    2    0    0  0.95022640679E+01  0.95083726289E+01 -0.13037466853E+02  0.18726390854E+02  0.00000000000E+00 0.  1.
         11    1    3    3    0    0 -0.14147002805E+01  0.94224850534E+00  0.16225049241E+02  0.16313841739E+02  0.51100000000E-03 0. -1.
        -11    1    3    3    0    0  0.58425720140E+00  0.90475161295E+01  0.21608532627E+02  0.23433471513E+02  0.51100000000E-03 0.  1.
        -12    1    3    3    0    0 -0.86718209888E+01 -0.19498137264E+02 -0.24796115016E+02  0.32714295895E+02  0.00000000000E+00 0.  1.
</event>
<event>
 7    1  0.3568800E-013  0.7246098E+02  0.7816164E-02  0.1226710E+00
        -11   -1    0    0    0    0  0.00000000000E+00  0.00000000000E+00  0.45593999997E+02  0.45594000000E+02  0.51100000000E-03 0. -1.
         11   -1    0    0    0    0 -0.00000000000E+00 -0.00000000000E+00 -0.45593999997E+02  0.45594000000E+02  0.51100000000E-03 0.  1.
    9900012    2    1    2    0    0 -0.10275657430E+02 -0.68902232542E+01  0.14058337109E+02  0.72460983303E+02  0.69999235330E+02 0.  0.
        -12    1    1    2    0    0  0.10275657430E+02  0.68902232542E+01 -0.14058337109E+02  0.18727016697E+02  0.00000000000E+00 0.  1.
         11    1    3    3    0    0  0.10358385034E+02 -0.10540020834E+02  0.35881213928E+02  0.38805279189E+02  0.51100000000E-03 0. -1.
        -11    1    3    3    0    0 -0.56515144993E+01  0.22977688775E+01  0.11376501908E+01  0.62059331424E+01  0.51100000000E-03 0.  1.
        -12    1    3    3    0    0 -0.14982527965E+02  0.13520287021E+01 -0.22960527010E+02  0.27449770972E+02  0.00000000000E+00 0.  1.
</event>
<event>
 7    1  0.3568800E-013  0.7246194E+02  0.7816164E-02  0.1226707E+00
        -11   -1    0    0    0    0  0.00000000000E+00  0.00000000000E+00  0.45593999997E+02  0.45594000000E+02  0.51100000000E-03 0.  1.
         11   -1    0    0    0    0 -0.00000000000E+00 -0.00000000000E+00 -0.45593999997E+02  0.45594000000E+02  0.51100000000E-03 0. -1.
    9900012    2    1    2    0    0  0.18543014892E+01 -0.75859506346E+01 -0.17019994909E+02  0.72461940411E+02  0.70000482144E+02 0.  0.
        -12    1    1    2    0    0 -0.18543014892E+01  0.75859506346E+01  0.17019994909E+02  0.18726059589E+02  0.00000000000E+00 0.  1.
         11    1    3    3    0    0  0.10777099016E+02 -0.39081395388E+01 -0.24946925397E+02  0.27454844834E+02  0.51100000000E-03 0. -1.
        -11    1    3    3    0    0  0.86471569374E+01  0.14235911259E+02 -0.41418401717E+01  0.17163604888E+02  0.51100000000E-03 0.  1.
         12    1    3    3    0    0 -0.17569954464E+02 -0.17913722355E+02  0.12068770660E+02  0.27843490688E+02  0.00000000000E+00 0. -1.
</event>
<event>
 7    1  0.3568800E-013  0.7246154E+02  0.7816164E-02  0.1226708E+00
        -11   -1    0    0    0    0  0.00000000000E+00  0.00000000000E+00  0.45593999997E+02  0.45594000000E+02  0.51100000000E-03 0. -1.
         11   -1    0    0    0    0 -0.00000000000E+00 -0.00000000000E+00 -0.45593999997E+02  0.45594000000E+02  0.51100000000E-03 0.  1.
    9900012    2    1    2    0    0 -0.68809071440E+01  0.28354502929E+01  0.17184109318E+02  0.72461540790E+02  0.69999961565E+02 0.  0.
        -12    1    1    2    0    0  0.68809071440E+01 -0.28354502929E+01 -0.17184109318E+02  0.18726459210E+02  0.00000000000E+00 0.  1.
         11    1    3    3    0    0 -0.80708968947E+01  0.14096051078E+02 -0.17960807752E+02  0.24216288899E+02  0.51100000000E-03 0. -1.
        -11    1    3    3    0    0  0.50447466447E+01 -0.65850291376E+01 -0.35902832713E+01  0.90389275736E+01  0.51100000000E-03 0.  1.
         12    1    3    3    0    0 -0.38547568941E+01 -0.46755716475E+01  0.38735200342E+02  0.39206324317E+02  0.00000000000E+00 0. -1.
</event>
<event>
 7    1  0.3568800E-013  0.7246161E+02  0.7816164E-02  0.1226708E+00
        -11   -1    0    0    0    0  0.00000000000E+00  0.00000000000E+00  0.45593999997E+02  0.45594000000E+02  0.51100000000E-03 0.  1.
         11   -1    0    0    0    0 -0.00000000000E+00 -0.00000000000E+00 -0.45593999997E+02  0.45594000000E+02  0.51100000000E-03 0. -1.
    9900012    2    1    2    0    0  0.14820226148E+02 -0.96616233253E+01  0.61393368699E+01  0.72461614189E+02  0.70000057181E+02 0.  0.
        -12    1    1    2    0    0 -0.14820226148E+02  0.96616233253E+01 -0.61393368699E+01  0.18726385811E+02  0.00000000000E+00 0.  1.
         11    1    3    3    0    0  0.14256986319E+02  0.24247392725E+02 -0.15280440486E+02  0.32010772789E+02  0.51100000000E-03 0. -1.
        -11    1    3    3    0    0  0.99678760585E+00 -0.18208469918E+01  0.47482606197E+00  0.21294434365E+01  0.51100000000E-03 0.  1.
        -12    1    3    3    0    0 -0.43354777718E+00 -0.32088169058E+02  0.20944951294E+02  0.38321397963E+02  0.00000000000E+00 0.  1.
</event>
<event>
 7    1  0.3568800E-013  0.7246158E+02  0.7816164E-02  0.1226708E+00
        -11   -1    0    0    0    0  0.00000000000E+00  0.00000000000E+00  0.45593999997E+02  0.45594000000E+02  0.51100000000E-03 0.  1.
         11   -1    0    0    0    0 -0.00000000000E+00 -0.00000000000E+00 -0.45593999997E+02  0.45594000000E+02  0.51100000000E-03 0. -1.
    9900012    2    1    2    0    0 -0.16810040931E+02  0.29677539773E+01 -0.77002472159E+01  0.72461578907E+02  0.70000011219E+02 0.  0.
        -12    1    1    2    0    0  0.16810040931E+02 -0.29677539773E+01  0.77002472159E+01  0.18726421093E+02  0.00000000000E+00 0.  1.
         11    1    3    3    0    0 -0.31298000381E+02  0.84779442341E+01  0.17002963170E+01  0.32470469262E+02  0.51100000000E-03 0. -1.
        -11    1    3    3    0    0 -0.71142118720E+01  0.97519828279E+01 -0.49113030718E+00  0.12081158424E+02  0.51100000000E-03 0.  1.
        -12    1    3    3    0    0  0.21602171322E+02 -0.15262173085E+02 -0.89094132256E+01  0.27909951220E+02  0.00000000000E+00 0.  1.
</event>
<event>
 7    1  0.3568800E-013  0.7246157E+02  0.7816164E-02  0.1226708E+00
        -11   -1    0    0    0    0  0.00000000000E+00  0.00000000000E+00  0.45593999997E+02  0.45594000000E+02  0.51100000000E-03 0.  1.
         11   -1    0    0    0    0 -0.00000000000E+00 -0.00000000000E+00 -0.45593999997E+02  0.45594000000E+02  0.51100000000E-03 0. -1.
    9900012    2    1    2    0    0  0.14553287630E+02  0.10088434837E+02 -0.60913379304E+01  0.72461572255E+02  0.70000002554E+02 0.  0.
        -12    1    1    2    0    0 -0.14553287630E+02 -0.10088434837E+02  0.60913379304E+01  0.18726427745E+02  0.00000000000E+00 0.  1.
         11    1    3    3    0    0  0.17826845891E+02 -0.14420797882E+02 -0.88508618302E+01  0.24578315673E+02  0.51100000000E-03 0. -1.
        -11    1    3    3    0    0 -0.67388566611E+01  0.14979374536E+01 -0.16365507728E+02  0.17761921326E+02  0.51100000000E-03 0.  1.
        -12    1    3    3    0    0  0.34652984010E+01  0.23011295265E+02  0.19125031628E+02  0.30121335255E+02  0.00000000000E+00 0.  1.
</event>
<event>
 7    1  0.3568800E-013  0.7246183E+02  0.7816164E-02  0.1226707E+00
        -11   -1    0    0    0    0  0.00000000000E+00  0.00000000000E+00  0.45593999997E+02  0.45594000000E+02  0.51100000000E-03 0. -1.
         11   -1    0    0    0    0 -0.00000000000E+00 -0.00000000000E+00 -0.45593999997E+02  0.45594000000E+02  0.51100000000E-03 0.  1.
    9900012    2    1    2    0    0 -0.12762821460E+02  0.19194212521E+01  0.13568187691E+02  0.72461828294E+02  0.70000336091E+02 0.  0.
        -12    1    1    2    0    0  0.12762821460E+02 -0.19194212521E+01 -0.13568187691E+02  0.18726171706E+02  0.00000000000E+00 0.  1.
         11    1    3    3    0    0  0.15172743610E+01  0.11600621864E+02  0.10501821975E+02  0.15721476208E+02  0.51100000000E-03 0. -1.
        -11    1    3    3    0    0 -0.30387459257E+02 -0.20395880786E+02  0.62712619116E+01  0.37131096931E+02  0.51100000000E-03 0.  1.
         12    1    3    3    0    0  0.16107363436E+02  0.10714680173E+02 -0.32048961955E+01  0.19609255154E+02  0.00000000000E+00 0. -1.
</event>
<event>
 7    1  0.3568800E-013  0.7246159E+02  0.7816164E-02  0.1226708E+00
        -11   -1    0    0    0    0  0.00000000000E+00  0.00000000000E+00  0.45593999997E+02  0.45594000000E+02  0.51100000000E-03 0. -1.
         11   -1    0    0    0    0 -0.00000000000E+00 -0.00000000000E+00 -0.45593999997E+02  0.45594000000E+02  0.51100000000E-03 0.  1.
    9900012    2    1    2    0    0  0.30919712695E+01 -0.14092840191E+02  0.11937750344E+02  0.72461593130E+02  0.70000029748E+02 0.  0.
        -12    1    1    2    0    0 -0.30919712695E+01  0.14092840191E+02 -0.11937750344E+02  0.18726406870E+02  0.00000000000E+00 0.  1.
         11    1    3    3    0    0 -0.60066308832E+01  0.74720611686E+01  0.60389509179E+01  0.11330500480E+02  0.51100000000E-03 0. -1.
        -11    1    3    3    0    0  0.26899550615E+02 -0.23722038853E+01 -0.11865284867E+02  0.29495731213E+02  0.51100000000E-03 0.  1.
         12    1    3    3    0    0 -0.17800948463E+02 -0.19192697474E+02  0.17764084293E+02  0.31635361437E+02  0.00000000000E+00 0. -1.
</event>
<event>
 7    1  0.3568800E-013  0.7246172E+02  0.7816164E-02  0.1226708E+00
        -11   -1    0    0    0    0  0.00000000000E+00  0.00000000000E+00  0.45593999997E+02  0.45594000000E+02  0.51100000000E-03 0. -1.
         11   -1    0    0    0    0 -0.00000000000E+00 -0.00000000000E+00 -0.45593999997E+02  0.45594000000E+02  0.51100000000E-03 0.  1.
    9900012    2    1    2    0    0 -0.79924982757E+01  0.16268137223E+02  0.47054463974E+01  0.72461720520E+02  0.70000195696E+02 0.  0.
        -12    1    1    2    0    0  0.79924982757E+01 -0.16268137223E+02 -0.47054463974E+01  0.18726279480E+02  0.00000000000E+00 0.  1.
         11    1    3    3    0    0 -0.76760078995E+01  0.73277394879E+01  0.19002616065E+02  0.21765024255E+02  0.51100000000E-03 0. -1.
        -11    1    3    3    0    0  0.16719990018E+02  0.20319117917E+02 -0.14825324775E+02  0.30202895128E+02  0.51100000000E-03 0.  1.
        -12    1    3    3    0    0 -0.17036480394E+02 -0.11378720183E+02  0.52815510816E+00  0.20493801137E+02  0.00000000000E+00 0.  1.
</event>
<event>
 7    1  0.3568800E-013  0.7246155E+02  0.7816164E-02  0.1226708E+00
        -11   -1    0    0    0    0  0.00000000000E+00  0.00000000000E+00  0.45593999997E+02  0.45594000000E+02  0.51100000000E-03 0.  1.
         11   -1    0    0    0    0 -0.00000000000E+00 -0.00000000000E+00 -0.45593999997E+02  0.45594000000E+02  0.51100000000E-03 0. -1.
    9900012    2    1    2    0    0 -0.87266061959E+01 -0.10689734708E+01 -0.16534310126E+02  0.72461554226E+02  0.69999979068E+02 0.  0.
        -12    1    1    2    0    0  0.87266061959E+01  0.10689734708E+01  0.16534310126E+02  0.18726445774E+02  0.00000000000E+00 0.  1.
         11    1    3    3    0    0 -0.20434787650E+02 -0.68557729010E+01 -0.11593579275E+02  0.24474338582E+02  0.51100000000E-03 0. -1.
        -11    1    3    3    0    0  0.10611754870E+02  0.93959911965E+00  0.19944076477E+02  0.22611023300E+02  0.51100000000E-03 0.  1.
         12    1    3    3    0    0  0.10964265843E+01  0.48472003106E+01 -0.24884807328E+02  0.25376192343E+02  0.00000000000E+00 0. -1.
</event>
<event>
 7    1  0.3568800E-013  0.7246158E+02  0.7816164E-02  0.1226708E+00
        -11   -1    0    0    0    0  0.00000000000E+00  0.00000000000E+00  0.45593999997E+02  0.45594000000E+02  0.51100000000E-03 0.  1.
         11   -1    0    0    0    0 -0.00000000000E+00 -0.00000000000E+00 -0.45593999997E+02  0.45594000000E+02  0.51100000000E-03 0. -1.
    9900012    2    1    2    0    0 -0.69792209157E+01 -0.37180321124E+01  0.16974847273E+02  0.72461582101E+02  0.70000015380E+02 0.  0.
        -12    1    1    2    0    0  0.69792209157E+01  0.37180321124E+01 -0.16974847273E+02  0.18726417899E+02  0.00000000000E+00 0.  1.
         11    1    3    3    0    0 -0.82903034419E+01 -0.14527719973E+01  0.43548054889E+01  0.94764977045E+01  0.51100000000E-03 0. -1.
        -11    1    3    3    0    0  0.89536332534E+01  0.22956319272E+02 -0.11561360536E+02  0.27218104281E+02  0.51100000000E-03 0.  1.
         12    1    3    3    0    0 -0.76425507271E+01 -0.25221579387E+02  0.24181402321E+02  0.35766980115E+02  0.00000000000E+00 0. -1.
</event>
<event>
 7    1  0.3568800E-013  0.7246151E+02  0.7816164E-02  0.1226708E+00
        -11   -1    0    0    0    0  0.00000000000E+00  0.00000000000E+00  0.45593999997E+02  0.45594000000E+02  0.51100000000E-03 0.  1.
         11   -1    0    0    0    0 -0.00000000000E+00 -0.00000000000E+00 -0.45593999997E+02  0.45594000000E+02  0.51100000000E-03 0. -1.
    9900012    2    1    2    0    0  0.18642281092E+02 -0.55583691216E+00  0.16845469292E+01  0.72461513481E+02  0.69999925990E+02 0.  0.
        -12    1    1    2    0    0 -0.18642281092E+02  0.55583691216E+00 -0.16845469292E+01  0.18726486519E+02  0.00000000000E+00 0.  1.
         11    1    3    3    0    0  0.25071446953E+02  0.48739337895E+01  0.16575512844E+02  0.30447993517E+02  0.51100000000E-03 0. -1.
        -11    1    3    3    0    0 -0.13685621989E+02  0.13002345673E+02 -0.10926641494E+02  0.21811665155E+02  0.51100000000E-03 0.  1.
         12    1    3    3    0    0  0.72564561277E+01 -0.18432116375E+02 -0.39643244211E+01  0.20201854809E+02  0.00000000000E+00 0. -1.
</event>
<event>
 7    1  0.3568800E-013  0.7246164E+02  0.7816164E-02  0.1226708E+00
        -11   -1    0    0    0    0  0.00000000000E+00  0.00000000000E+00  0.45593999997E+02  0.45594000000E+02  0.51100000000E-03 0. -1.
         11   -1    0    0    0    0 -0.00000000000E+00 -0.00000000000E+00 -0.45593999997E+02  0.45594000000E+02  0.51100000000E-03 0.  1.
    9900012    2    1    2    0    0 -0.39956008578E+01 -0.87467737794E+01 -0.16068783324E+02  0.72461636891E+02  0.70000086755E+02 0.  0.
        -12    1    1    2    0    0  0.39956008578E+01  0.87467737794E+01  0.16068783324E+02  0.18726363109E+02  0.00000000000E+00 0.  1.
         11    1    3    3    0    0  0.73569737667E+01  0.98580671811E+01  0.16960336721E+02  0.20951362092E+02  0.51100000000E-03 0. -1.
        -11    1    3    3    0    0 -0.41115627772E+01  0.75260653054E+01  0.25417798254E+00  0.85796977895E+01  0.51100000000E-03 0.  1.
        -12    1    3    3    0    0 -0.72410118473E+01 -0.26130906266E+02 -0.33283298027E+02  0.42930577010E+02  0.00000000000E+00 0.  1.
</event>
<event>
 7    1  0.3568800E-013  0.7246172E+02  0.7816164E-02  0.1226708E+00
        -11   -1    0    0    0    0  0.00000000000E+00  0.00000000000E+00  0.45593999997E+02  0.45594000000E+02  0.51100000000E-03 0.  1.
         11   -1    0    0    0    0 -0.00000000000E+00 -0.00000000000E+00 -0.45593999997E+02  0.45594000000E+02  0.51100000000E-03 0. -1.
    9900012    2    1    2    0    0 -0.55609391146E+01  0.17881502295E+02 -0.35607250416E-01  0.72461723380E+02  0.70000199423E+02 0.  0.
        -12    1    1    2    0    0  0.55609391146E+01 -0.17881502295E+02  0.35607250416E-01  0.18726276620E+02  0.00000000000E+00 0.  1.
         11    1    3    3    0    0  0.55410585827E+01  0.21177938323E+02  0.90914932185E-01  0.21891017966E+02  0.51100000000E-03 0. -1.
        -11    1    3    3    0    0 -0.10325055766E+02 -0.10522720443E+02  0.22447448837E+02  0.26855583808E+02  0.51100000000E-03 0.  1.
         12    1    3    3    0    0 -0.77694193174E+00  0.72262844156E+01 -0.22573971020E+02  0.23715121607E+02  0.00000000000E+00 0. -1.
</event>
<event>
 7    1  0.3568800E-013  0.7246180E+02  0.7816164E-02  0.1226707E+00
        -11   -1    0    0    0    0  0.00000000000E+00  0.00000000000E+00  0.45593999997E+02  0.45594000000E+02  0.51100000000E-03 0. -1.
         11   -1    0    0    0    0 -0.00000000000E+00 -0.00000000000E+00 -0.45593999997E+02  0.45594000000E+02  0.51100000000E-03 0.  1.
    9900012    2    1    2    0    0 -0.90472415604E+01  0.17672008874E+01  0.16300152958E+02  0.72461800031E+02  0.70000299274E+02 0.  0.
        -12    1    1    2    0    0  0.90472415604E+01 -0.17672008874E+01 -0.16300152958E+02  0.18726199969E+02  0.00000000000E+00 0.  1.
         11    1    3    3    0    0 -0.13935992886E+02 -0.10874226405E+02  0.24950096022E+02  0.30577246269E+02  0.51100000000E-03 0. -1.
        -11    1    3    3    0    0 -0.69222752707E+01 -0.11508431490E+02  0.62973520872E+00  0.13444644175E+02  0.51100000000E-03 0.  1.
        -12    1    3    3    0    0  0.11811026596E+02  0.24149858782E+02 -0.92796782733E+01  0.28439909587E+02  0.00000000000E+00 0.  1.
</event>
<event>
 7    1  0.3568800E-013  0.7246156E+02  0.7816164E-02  0.1226708E+00
        -11   -1    0    0    0    0  0.00000000000E+00  0.00000000000E+00  0.45593999997E+02  0.45594000000E+02  0.51100000000E-03 0.  1.
         11   -1    0    0    0    0 -0.00000000000E+00 -0.00000000000E+00 -0.45593999997E+02  0.45594000000E+02  0.51100000000E-03 0. -1.
    9900012    2    1    2    0    0 -0.41681635358E+01  0.71046086119E+01 -0.16817566091E+02  0.72461559334E+02  0.69999985722E+02 0.  0.
        -12    1    1    2    0    0  0.41681635358E+01 -0.71046086119E+01  0.16817566091E+02  0.18726440666E+02  0.00000000000E+00 0.  1.
         11    1    3    3    0    0  0.39424350004E+01  0.14979379450E+00 -0.10723079305E+02  0.11425833096E+02  0.51100000000E-03 0. -1.
        -11    1    3    3    0    0 -0.79214707326E+01 -0.19218816406E+02 -0.22112370640E+02  0.30349127470E+02  0.51100000000E-03 0.  1.
         12    1    3    3    0    0 -0.18912780352E+00  0.26173631224E+02  0.16017883854E+02  0.30686598768E+02  0.00000000000E+00 0. -1.
</event>
<event>
 7    1  0.3568800E-013  0.7246150E+02  0.7816164E-02  0.1226708E+00
        -11   -1    0    0    0    0  0.00000000000E+00  0.00000000000E+00  0.45593999997E+02  0.45594000000E+02  0.51100000000E-03 0. -1.
         11   -1    0    0    0    0 -0.00000000000E+00 -0.00000000000E+00 -0.45593999997E+02  0.45594000000E+02  0.51100000000E-03 0.  1.
    9900012    2    1    2    0    0  0.95821368409E+01  0.16088497947E+02  0.15716452780E+00  0.72461499705E+02  0.69999908044E+02 0.  0.
        -12    1    1    2    0    0 -0.95821368409E+01 -0.16088497947E+02 -0.15716452780E+00  0.18726500295E+02  0.00000000000E+00 0.  1.
         11    1    3    3    0    0  0.13632887961E+02  0.28407071350E+01  0.17442047146E+02  0.22319280008E+02  0.51100000000E-03 0. -1.
        -11    1    3    3    0    0  0.19730266104E+02  0.11087971389E+02 -0.12262278023E+02  0.25740823076E+02  0.51100000000E-03 0.  1.
         12    1    3    3    0    0 -0.23781017223E+02  0.21598194230E+01 -0.50226045958E+01  0.24401396621E+02  0.00000000000E+00 0. -1.
</event>
<event>
 7    1  0.3568800E-013  0.7246154E+02  0.7816164E-02  0.1226708E+00
        -11   -1    0    0    0    0  0.00000000000E+00  0.00000000000E+00  0.45593999997E+02  0.45594000000E+02  0.51100000000E-03 0.  1.
         11   -1    0    0    0    0 -0.00000000000E+00 -0.00000000000E+00 -0.45593999997E+02  0.45594000000E+02  0.51100000000E-03 0. -1.
    9900012    2    1    2    0    0  0.89228802711E+01 -0.12855681090E+02 -0.10285612197E+02  0.72461544198E+02  0.69999966005E+02 0.  0.
        -12    1    1    2    0    0 -0.89228802711E+01  0.12855681090E+02  0.10285612197E+02  0.18726455802E+02  0.00000000000E+00 0.  1.
         11    1    3    3    0    0  0.39254295226E+01 -0.77932570528E+01 -0.13910671339E-01  0.87260555921E+01  0.51100000000E-03 0. -1.
        -11    1    3    3    0    0  0.32239728126E+02 -0.11923049717E+02 -0.19197378700E+01  0.34427381224E+02  0.51100000000E-03 0.  1.
         12    1    3    3    0    0 -0.27242277377E+02  0.68606256802E+01 -0.83519636555E+01  0.29308107382E+02  0.00000000000E+00 0. -1.
</event>
<event>
 7    1  0.3568800E-013  0.7246158E+02  0.7816164E-02  0.1226708E+00
        -11   -1    0    0    0    0  0.00000000000E+00  0.00000000000E+00  0.45593999997E+02  0.45594000000E+02  0.51100000000E-03 0.  1.
         11   -1    0    0    0    0 -0.00000000000E+00 -0.00000000000E+00 -0.45593999997E+02  0.45594000000E+02  0.51100000000E-03 0. -1.
    9900012    2    1    2    0    0 -0.51604055026E+01 -0.11395297022E+02 -0.13935435137E+02  0.72461576646E+02  0.70000008274E+02 0.  0.
        -12    1    1    2    0    0  0.51604055026E+01  0.11395297022E+02  0.13935435137E+02  0.18726423354E+02  0.00000000000E+00 0.  1.
         11    1    3    3    0    0 -0.19274703069E+02 -0.62769779654E+01  0.18025908924E+01  0.20351018770E+02  0.51100000000E-03 0. -1.
        -11    1    3    3    0    0  0.56043452574E+01  0.38485262399E+01  0.16358856180E+02  0.17715304563E+02  0.51100000000E-03 0.  1.
         12    1    3    3    0    0  0.85099523094E+01 -0.89668452966E+01 -0.32096882210E+02  0.34395253313E+02  0.00000000000E+00 0. -1.
</event>
<event>
 7    1  0.3568800E-013  0.7246176E+02  0.7816164E-02  0.1226708E+00
        -11   -1    0    0    0    0  0.00000000000E+00  0.00000000000E+00  0.45593999997E+02  0.45594000000E+02  0.51100000000E-03 0.  1.
         11   -1    0    0    0    0 -0.00000000000E+00 -0.00000000000E+00 -0.45593999997E+02  0.45594000000E+02  0.51100000000E-03 0. -1.
    9900012    2    1    2    0    0 -0.17028474945E+02  0.74999870331E+01  0.21103091604E+01  0.72461757206E+02  0.70000243486E+02 0.  0.
        -12    1    1    2    0    0  0.17028474945E+02 -0.74999870331E+01 -0.21103091604E+01  0.18726242794E+02  0.00000000000E+00 0.  1.
         11    1    3    3    0    0 -0.55619711129E+01  0.32416218525E+01 -0.39349282573E+01  0.75450179289E+01  0.51100000000E-03 0. -1.
        -11    1    3    3    0    0 -0.79823061057E+01 -0.28705001228E+02  0.10241296577E+02  0.31505213253E+02  0.51100000000E-03 0.  1.
         12    1    3    3    0    0 -0.34841977260E+01  0.32963366409E+02 -0.41960591597E+01  0.33411526024E+02  0.00000000000E+00 0. -1.
</event>
<event>
 7    1  0.3568800E-013  0.7246160E+02  0.7816164E-02  0.1226708E+00
        -11   -1    0    0    0    0  0.00000000000E+00  0.00000000000E+00  0.45593999997E+02  0.45594000000E+02  0.51100000000E-03 0. -1.
         11   -1    0    0    0    0 -0.00000000000E+00 -0.00000000000E+00 -0.45593999997E+02  0.45594000000E+02  0.51100000000E-03 0.  1.
    9900012    2    1    2    0    0  0.41092513123E+01  0.37972058928E+01  0.17871020710E+02  0.72461598847E+02  0.70000037195E+02 0.  0.
        -12    1    1    2    0    0 -0.41092513123E+01 -0.37972058928E+01 -0.17871020710E+02  0.18726401153E+02  0.00000000000E+00 0.  1.
         11    1    3    3    0    0  0.20343228724E+02 -0.60007414546E+00  0.17437344514E+02  0.26800522903E+02  0.51100000000E-03 0. -1.
        -11    1    3    3    0    0  0.95332593960E+01 -0.24186348548E+01 -0.12605990025E+02  0.15988865314E+02  0.51100000000E-03 0.  1.
        -12    1    3    3    0    0 -0.25767236808E+02  0.68159148930E+01  0.13039666221E+02  0.29672210630E+02  0.00000000000E+00 0.  1.
</event>
<event>
 7    1  0.3568800E-013  0.7246159E+02  0.7816164E-02  0.1226708E+00
        -11   -1    0    0    0    0  0.00000000000E+00  0.00000000000E+00  0.45593999997E+02  0.45594000000E+02  0.51100000000E-03 0. -1.
         11   -1    0    0    0    0 -0.00000000000E+00 -0.00000000000E+00 -0.45593999997E+02  0.45594000000E+02  0.51100000000E-03 0.  1.
    9900012    2    1    2    0    0 -0.12199709368E+01  0.14332664917E+02  0.11990192371E+02  0.72461592822E+02  0.70000029346E+02 0.  0.
        -12    1    1    2    0    0  0.12199709368E+01 -0.14332664917E+02 -0.11990192371E+02  0.18726407178E+02  0.00000000000E+00 0.  1.
         11    1    3    3    0    0  0.11300126772E+02 -0.95186007745E+01  0.15657968130E+02  0.21528320696E+02  0.51100000000E-03 0. -1.
        -11    1    3    3    0    0  0.99528437020E+01  0.13066372366E+02 -0.16168096955E+02  0.23047701490E+02  0.51100000000E-03 0.  1.
         12    1    3    3    0    0 -0.22472941411E+02  0.10784893326E+02  0.12500321196E+02  0.27885570636E+02  0.00000000000E+00 0. -1.
</event>
<event>
 7    1  0.3568800E-013  0.7246158E+02  0.7816164E-02  0.1226708E+00
        -11   -1    0    0    0    0  0.00000000000E+00  0.00000000000E+00  0.45593999997E+02  0.45594000000E+02  0.51100000000E-03 0.  1.
         11   -1    0    0    0    0 -0.00000000000E+00 -0.00000000000E+00 -0.45593999997E+02  0.45594000000E+02  0.51100000000E-03 0. -1.
    9900012    2    1    2    0    0 -0.47347981651E+01  0.11777151517E+02 -0.13768052770E+02  0.72461577795E+02  0.70000009771E+02 0.  0.
        -12    1    1    2    0    0  0.47347981651E+01 -0.11777151517E+02  0.13768052770E+02  0.18726422205E+02  0.00000000000E+00 0.  1.
         11    1    3    3    0    0  0.51585717272E+01 -0.53070983994E+01 -0.14385644757E+02  0.16177853103E+02  0.51100000000E-03 0. -1.
        -11    1    3    3    0    0 -0.22406520575E+01 -0.18509262275E+02  0.57636264079E+01  0.19514935338E+02  0.51100000000E-03 0.  1.
         12    1    3    3    0    0 -0.76527178348E+01  0.35593512191E+02 -0.51460344208E+01  0.36768789355E+02  0.00000000000E+00 0. -1.
</event>
<event>
 7    1  0.3568800E-013  0.7246142E+02  0.7816164E-02  0.1226708E+00
        -11   -1    0    0    0    0  0.00000000000E+00  0.00000000000E+00  0.45593999997E+02  0.45594000000E+02  0.51100000000E-03 0.  1.
         11   -1    0    0    0    0 -0.00000000000E+00 -0.00000000000E+00 -0.45593999997E+02  0.45594000000E+02  0.51100000000E-03 0. -1.
    9900012    2    1    2    0    0 -0.39157337126E+01 -0.10318309591E+02 -0.15128927181E+02  0.72461416730E+02  0.69999799953E+02 0.  0.
        -12    1    1    2    0    0  0.39157337126E+01  0.10318309591E+02  0.15128927181E+02  0.18726583270E+02  0.00000000000E+00 0.  1.
         11    1    3    3    0    0  0.67469996138E+01 -0.27103217458E+02  0.39266606822E+00  0.27933144958E+02  0.51100000000E-03 0. -1.
        -11    1    3    3    0    0 -0.82818060155E+01 -0.10916809477E+02 -0.29615913673E+01  0.14019132061E+02  0.51100000000E-03 0.  1.
        -12    1    3    3    0    0 -0.23809273108E+01  0.27701717344E+02 -0.12560001882E+02  0.30509139711E+02  0.00000000000E+00 0.  1.
</event>
<event>
 7    1  0.3568800E-013  0.7246144E+02  0.7816164E-02  0.1226708E+00
        -11   -1    0    0    0    0  0.00000000000E+00  0.00000000000E+00  0.45593999997E+02  0.45594000000E+02  0.51100000000E-03 0.  1.
         11   -1    0    0    0    0 -0.00000000000E+00 -0.00000000000E+00 -0.45593999997E+02  0.45594000000E+02  0.51100000000E-03 0. -1.
    9900012    2    1    2    0    0  0.12758289000E+01 -0.14234008429E+02 -0.12101617849E+02  0.72461444259E+02  0.69999835816E+02 0.  0.
        -12    1    1    2    0    0 -0.12758289000E+01  0.14234008429E+02  0.12101617849E+02  0.18726555741E+02  0.00000000000E+00 0.  1.
         11    1    3    3    0    0 -0.19498194860E+02 -0.61126182638E+01 -0.18020665954E+02  0.27244964792E+02  0.51100000000E-03 0. -1.
        -11    1    3    3    0    0  0.10730125534E+02 -0.13032624824E+02 -0.14292158592E+02  0.22119012213E+02  0.51100000000E-03 0.  1.
        -12    1    3    3    0    0  0.10043898225E+02  0.49112346587E+01  0.20211206697E+02  0.23097467254E+02  0.00000000000E+00 0.  1.
</event>
<event>
 7    1  0.3568800E-013  0.7246146E+02  0.7816164E-02  0.1226708E+00
        -11   -1    0    0    0    0  0.00000000000E+00  0.00000000000E+00  0.45593999997E+02  0.45594000000E+02  0.51100000000E-03 0.  1.
         11   -1    0    0    0    0 -0.00000000000E+00 -0.00000000000E+00 -0.45593999997E+02  0.45594000000E+02  0.51100000000E-03 0. -1.
    9900012    2    1    2    0    0  0.88260274626E+01  0.16219348670E+02 -0.31172283846E+01  0.72461464152E+02  0.69999861730E+02 0.  0.
        -12    1    1    2    0    0 -0.88260274626E+01 -0.16219348670E+02  0.31172283846E+01  0.18726535848E+02  0.00000000000E+00 0.  1.
         11    1    3    3    0    0  0.12481718933E+02  0.81164658032E+01  0.82737041799E+01  0.17033041589E+02  0.51100000000E-03 0. -1.
        -11    1    3    3    0    0 -0.53922281026E+01  0.83794706040E+01  0.20866217579E+02  0.23123379680E+02  0.51100000000E-03 0.  1.
        -12    1    3    3    0    0  0.17365366324E+01 -0.27658773717E+00 -0.32257150144E+02  0.32305042883E+02  0.00000000000E+00 0.  1.
</event>
<event>
 7    1  0.3568800E-013  0.7246139E+02  0.7816164E-02  0.1226708E+00
        -11   -1    0    0    0    0  0.00000000000E+00  0.00000000000E+00  0.45593999997E+02  0.45594000000E+02  0.51100000000E-03 0.  1.
         11   -1    0    0    0    0 -0.00000000000E+00 -0.00000000000E+00 -0.45593999997E+02  0.45594000000E+02  0.51100000000E-03 0. -1.
    9900012    2    1    2    0    0 -0.41790793555E+01 -0.18232669798E+02 -0.88931335772E+00  0.72461392446E+02  0.69999768320E+02 0.  0.
        -12    1    1    2    0    0  0.41790793555E+01  0.18232669798E+02  0.88931335772E+00  0.18726607554E+02  0.00000000000E+00 0.  1.
         11    1    3    3    0    0 -0.14969622975E+02  0.36204759733E+01 -0.18939435280E+01  0.15517231732E+02  0.51100000000E-03 0. -1.
        -11    1    3    3    0    0 -0.64973065228E+01 -0.66319639940E+01  0.23180324959E+02  0.24970490662E+02  0.51100000000E-03 0.  1.
         12    1    3    3    0    0  0.17287850142E+02 -0.15221181777E+02 -0.22175694788E+02  0.31973670052E+02  0.00000000000E+00 0. -1.
</event>
<event>
 7    1  0.3568800E-013  0.7246162E+02  0.7816164E-02  0.1226708E+00
        -11   -1    0    0    0    0  0.00000000000E+00  0.00000000000E+00  0.45593999997E+02  0.45594000000E+02  0.51100000000E-03 0. -1.
         11   -1    0    0    0    0 -0.00000000000E+00 -0.00000000000E+00 -0.45593999997E+02  0.45594000000E+02  0.51100000000E-03 0.  1.
    9900012    2    1    2    0    0 -0.11786453329E+02  0.14522564983E+02 -0.92292824902E+00  0.72461623620E+02  0.70000069467E+02 0.  0.
        -12    1    1    2    0    0  0.11786453329E+02 -0.14522564983E+02  0.92292824902E+00  0.18726376380E+02  0.00000000000E+00 0.  1.
         11    1    3    3    0    0  0.57388971575E+01 -0.46936802856E+01 -0.15393933671E+01  0.75720081489E+01  0.51100000000E-03 0. -1.
        -11    1    3    3    0    0  0.21939494363E+02  0.42805295528E+01 -0.29295379283E+01  0.22544323873E+02  0.51100000000E-03 0.  1.
         12    1    3    3    0    0 -0.39464844849E+02  0.14935715716E+02  0.35460030464E+01  0.42345291598E+02  0.00000000000E+00 0. -1.
</event>
<event>
 7    1  0.3568800E-013  0.7246160E+02  0.7816164E-02  0.1226708E+00
        -11   -1    0    0    0    0  0.00000000000E+00  0.00000000000E+00  0.45593999997E+02  0.45594000000E+02  0.51100000000E-03 0.  1.
         11   -1    0    0    0    0 -0.00000000000E+00 -0.00000000000E+00 -0.45593999997E+02  0.45594000000E+02  0.51100000000E-03 0. -1.
    9900012    2    1    2    0    0  0.10466802141E+02  0.15527232256E+02  0.17106367231E+00  0.72461597479E+02  0.70000035413E+02 0.  0.
        -12    1    1    2    0    0 -0.10466802141E+02 -0.15527232256E+02 -0.17106367231E+00  0.18726402521E+02  0.00000000000E+00 0.  1.
         11    1    3    3    0    0  0.93752851800E+01 -0.36798397297E+01  0.90868430462E+01  0.13564951509E+02  0.51100000000E-03 0. -1.
        -11    1    3    3    0    0 -0.74814434428E+01  0.37265388770E+02 -0.82589146359E+01  0.38895897822E+02  0.51100000000E-03 0.  1.
         12    1    3    3    0    0  0.85729604042E+01 -0.18058316784E+02 -0.65686473802E+00  0.20000748147E+02  0.00000000000E+00 0. -1.
</event>
<event>
 7    1  0.3568800E-013  0.7246159E+02  0.7816164E-02  0.1226708E+00
        -11   -1    0    0    0    0  0.00000000000E+00  0.00000000000E+00  0.45593999997E+02  0.45594000000E+02  0.51100000000E-03 0.  1.
         11   -1    0    0    0    0 -0.00000000000E+00 -0.00000000000E+00 -0.45593999997E+02  0.45594000000E+02  0.51100000000E-03 0. -1.
    9900012    2    1    2    0    0  0.84474914437E+01  0.15039695085E+02 -0.72887605114E+01  0.72461586308E+02  0.70000020861E+02 0.  0.
        -12    1    1    2    0    0 -0.84474914437E+01 -0.15039695085E+02  0.72887605114E+01  0.18726413692E+02  0.00000000000E+00 0.  1.
         11    1    3    3    0    0 -0.41919298479E+01 -0.36550246801E+01  0.32371594544E+01  0.64351132745E+01  0.51100000000E-03 0. -1.
        -11    1    3    3    0    0  0.37279076592E+02  0.92423695334E+01 -0.27114129849E+01  0.38503281766E+02  0.51100000000E-03 0.  1.
         12    1    3    3    0    0 -0.24639655300E+02  0.94523502322E+01 -0.78145069810E+01  0.27523191268E+02  0.00000000000E+00 0. -1.
</event>
<event>
 7    1  0.3568800E-013  0.7246159E+02  0.7816164E-02  0.1226708E+00
        -11   -1    0    0    0    0  0.00000000000E+00  0.00000000000E+00  0.45593999997E+02  0.45594000000E+02  0.51100000000E-03 0.  1.
         11   -1    0    0    0    0 -0.00000000000E+00 -0.00000000000E+00 -0.45593999997E+02  0.45594000000E+02  0.51100000000E-03 0. -1.
    9900012    2    1    2    0    0  0.11342183048E+02  0.14626467002E+02 -0.28460392850E+01  0.72461585691E+02  0.70000020057E+02 0.  0.
        -12    1    1    2    0    0 -0.11342183048E+02 -0.14626467002E+02  0.28460392850E+01  0.18726414309E+02  0.00000000000E+00 0.  1.
         11    1    3    3    0    0  0.63452945201E+01  0.19535940976E+01  0.65223101288E+01  0.93069770668E+01  0.51100000000E-03 0. -1.
        -11    1    3    3    0    0 -0.14946660388E+02 -0.17476202405E+02  0.61678718626E+01  0.23808883864E+02  0.51100000000E-03 0.  1.
         12    1    3    3    0    0  0.19943548916E+02  0.30149075309E+02 -0.15536221276E+02  0.39345724761E+02  0.00000000000E+00 0. -1.
</event>
<event>
 7    1  0.3568800E-013  0.7246156E+02  0.7816164E-02  0.1226708E+00
        -11   -1    0    0    0    0  0.00000000000E+00  0.00000000000E+00  0.45593999997E+02  0.45594000000E+02  0.51100000000E-03 0. -1.
         11   -1    0    0    0    0 -0.00000000000E+00 -0.00000000000E+00 -0.45593999997E+02  0.45594000000E+02  0.51100000000E-03 0.  1.
    9900012    2    1    2    0    0 -0.16918778014E+01  0.57309064409E+01  0.17747506837E+02  0.72461555114E+02  0.69999980225E+02 0.  0.
        -12    1    1    2    0    0  0.16918778014E+01 -0.57309064409E+01 -0.17747506837E+02  0.18726444886E+02  0.00000000000E+00 0.  1.
         11    1    3    3    0    0  0.66259201002E+01 -0.33870953989E+01 -0.45051570574E+01  0.86989466482E+01  0.51100000000E-03 0. -1.
        -11    1    3    3    0    0  0.18517236825E+02  0.12638781438E+02 -0.74060770568E+01  0.23610947323E+02  0.51100000000E-03 0.  1.
         12    1    3    3    0    0 -0.26835034726E+02 -0.35207795979E+01  0.29658740951E+02  0.40151661143E+02  0.00000000000E+00 0. -1.
</event>
<event>
 7    1  0.3568800E-013  0.7246151E+02  0.7816164E-02  0.1226708E+00
        -11   -1    0    0    0    0  0.00000000000E+00  0.00000000000E+00  0.45593999997E+02  0.45594000000E+02  0.51100000000E-03 0.  1.
         11   -1    0    0    0    0 -0.00000000000E+00 -0.00000000000E+00 -0.45593999997E+02  0.45594000000E+02  0.51100000000E-03 0. -1.
    9900012    2    1    2    0    0  0.55971184016E+01 -0.17408384954E+02 -0.40375396730E+01  0.72461512670E+02  0.69999924934E+02 0.  0.
        -12    1    1    2    0    0 -0.55971184016E+01  0.17408384954E+02  0.40375396730E+01  0.18726487330E+02  0.00000000000E+00 0.  1.
         11    1    3    3    0    0 -0.32839952677E+01 -0.10202530703E+02 -0.57527972727E+01  0.12164330413E+02  0.51100000000E-03 0. -1.
        -11    1    3    3    0    0 -0.34182764840E+01 -0.22979159411E+02  0.21866798343E+02  0.31904282650E+02  0.51100000000E-03 0.  1.
         12    1    3    3    0    0  0.12299390153E+02  0.15773305160E+02 -0.20151540743E+02  0.28392899608E+02  0.00000000000E+00 0. -1.
</event>
<event>
 7    1  0.3568800E-013  0.7246164E+02  0.7816164E-02  0.1226708E+00
        -11   -1    0    0    0    0  0.00000000000E+00  0.00000000000E+00  0.45593999997E+02  0.45594000000E+02  0.51100000000E-03 0. -1.
         11   -1    0    0    0    0 -0.00000000000E+00 -0.00000000000E+00 -0.45593999997E+02  0.45594000000E+02  0.51100000000E-03 0.  1.
    9900012    2    1    2    0    0  0.13498749012E+02 -0.16474962868E+01  0.12874243798E+02  0.72461638306E+02  0.70000088598E+02 0.  0.
        -12    1    1    2    0    0 -0.13498749012E+02  0.16474962868E+01 -0.12874243798E+02  0.18726361694E+02  0.00000000000E+00 0.  1.
         11    1    3    3    0    0 -0.13840888645E+02 -0.14989964881E+02  0.18669103199E+02  0.27655101883E+02  0.51100000000E-03 0. -1.
        -11    1    3    3    0    0  0.19765854906E+01 -0.90838179821E+01  0.31035696534E+01  0.98007542663E+01  0.51100000000E-03 0.  1.
        -12    1    3    3    0    0  0.25363052167E+02  0.22426286576E+02 -0.88984290543E+01  0.35005782157E+02  0.00000000000E+00 0.  1.
</event>
<event>
 7    1  0.3568800E-013  0.7246154E+02  0.7816164E-02  0.1226708E+00
        -11   -1    0    0    0    0  0.00000000000E+00  0.00000000000E+00  0.45593999997E+02  0.45594000000E+02  0.51100000000E-03 0.  1.
         11   -1    0    0    0    0 -0.00000000000E+00 -0.00000000000E+00 -0.45593999997E+02  0.45594000000E+02  0.51100000000E-03 0. -1.
    9900012    2    1    2    0    0  0.44315233089E+01  0.82449892060E+01 -0.16219187146E+02  0.72461540711E+02  0.69999961462E+02 0.  0.
        -12    1    1    2    0    0 -0.44315233089E+01 -0.82449892060E+01  0.16219187146E+02  0.18726459289E+02  0.00000000000E+00 0.  1.
         11    1    3    3    0    0  0.65060816923E+01  0.48657864617E+01 -0.23856680999E+02  0.25202107162E+02  0.51100000000E-03 0. -1.
        -11    1    3    3    0    0 -0.11056440373E+02 -0.15391699996E+02 -0.86519500740E+01  0.20832799688E+02  0.51100000000E-03 0.  1.
         12    1    3    3    0    0  0.89818819891E+01  0.18770902740E+02  0.16289443927E+02  0.26426633861E+02  0.00000000000E+00 0. -1.
</event>
<event>
 7    1  0.3568800E-013  0.7246159E+02  0.7816164E-02  0.1226708E+00
        -11   -1    0    0    0    0  0.00000000000E+00  0.00000000000E+00  0.45593999997E+02  0.45594000000E+02  0.51100000000E-03 0. -1.
         11   -1    0    0    0    0 -0.00000000000E+00 -0.00000000000E+00 -0.45593999997E+02  0.45594000000E+02  0.51100000000E-03 0.  1.
    9900012    2    1    2    0    0  0.12671414222E+02  0.11951309937E+02  0.68760382773E+01  0.72461589506E+02  0.70000025026E+02 0.  0.
        -12    1    1    2    0    0 -0.12671414222E+02 -0.11951309937E+02 -0.68760382773E+01  0.18726410494E+02  0.00000000000E+00 0.  1.
         11    1    3    3    0    0 -0.63428201681E+01  0.18016378943E+02 -0.11013760330E+02  0.22048224299E+02  0.51100000000E-03 0. -1.
        -11    1    3    3    0    0  0.49349396562E+01  0.11155660345E+02 -0.92600193187E+01  0.15315036571E+02  0.51100000000E-03 0.  1.
        -12    1    3    3    0    0  0.14079294734E+02 -0.17220729351E+02  0.27149817926E+02  0.35098328635E+02  0.00000000000E+00 0.  1.
</event>
<event>
 7    1  0.3568800E-013  0.7246157E+02  0.7816164E-02  0.1226708E+00
        -11   -1    0    0    0    0  0.00000000000E+00  0.00000000000E+00  0.45593999997E+02  0.45594000000E+02  0.51100000000E-03 0. -1.
         11   -1    0    0    0    0 -0.00000000000E+00 -0.00000000000E+00 -0.45593999997E+02  0.45594000000E+02  0.51100000000E-03 0.  1.
    9900012    2    1    2    0    0 -0.26143792463E+01  0.54249243807E+01  0.17731732765E+02  0.72461571344E+02  0.70000001367E+02 0.  0.
        -12    1    1    2    0    0  0.26143792463E+01 -0.54249243807E+01 -0.17731732765E+02  0.18726428656E+02  0.00000000000E+00 0.  1.
         11    1    3    3    0    0  0.54227041822E+01 -0.15099265627E+02  0.75122858378E+01  0.17715190710E+02  0.51100000000E-03 0. -1.
        -11    1    3    3    0    0  0.14670163498E+02  0.28924076848E+01 -0.11377557018E+02  0.18789053282E+02  0.51100000000E-03 0.  1.
        -12    1    3    3    0    0 -0.22707246927E+02  0.17631782323E+02  0.21597003945E+02  0.35957327352E+02  0.00000000000E+00 0.  1.
</event>
<event>
 7    1  0.3568800E-013  0.7246158E+02  0.7816164E-02  0.1226708E+00
        -11   -1    0    0    0    0  0.00000000000E+00  0.00000000000E+00  0.45593999997E+02  0.45594000000E+02  0.51100000000E-03 0.  1.
         11   -1    0    0    0    0 -0.00000000000E+00 -0.00000000000E+00 -0.45593999997E+02  0.45594000000E+02  0.51100000000E-03 0. -1.
    9900012    2    1    2    0    0  0.16871218067E+02 -0.40984318047E+01 -0.70173927838E+01  0.72461576321E+02  0.70000007851E+02 0.  0.
        -12    1    1    2    0    0 -0.16871218067E+02  0.40984318047E+01  0.70173927838E+01  0.18726423679E+02  0.00000000000E+00 0.  1.
         11    1    3    3    0    0  0.71648512292E+01  0.19363043374E+01 -0.10938567579E+02  0.13218798303E+02  0.51100000000E-03 0. -1.
        -11    1    3    3    0    0 -0.16257726502E+02 -0.21023134020E+02 -0.67510368219E+01  0.27420108196E+02  0.51100000000E-03 0.  1.
        -12    1    3    3    0    0  0.25964093339E+02  0.14988397878E+02  0.10672211617E+02  0.31822669823E+02  0.00000000000E+00 0.  1.
</event>
<event>
 7    1  0.3568800E-013  0.7246157E+02  0.7816164E-02  0.1226708E+00
        -11   -1    0    0    0    0  0.00000000000E+00  0.00000000000E+00  0.45593999997E+02  0.45594000000E+02  0.51100000000E-03 0. -1.
         11   -1    0    0    0    0 -0.00000000000E+00 -0.00000000000E+00 -0.45593999997E+02  0.45594000000E+02  0.51100000000E-03 0.  1.
    9900012    2    1    2    0    0  0.52134003612E+01  0.88146686688E+01  0.15678044703E+02  0.72461574480E+02  0.70000005452E+02 0.  0.
        -12    1    1    2    0    0 -0.52134003612E+01 -0.88146686688E+01 -0.15678044703E+02  0.18726425520E+02  0.00000000000E+00 0.  1.
         11    1    3    3    0    0  0.11274374217E+02  0.69332905958E+01  0.32769622821E+01  0.13635267307E+02  0.51100000000E-03 0. -1.
        -11    1    3    3    0    0  0.94900647335E+01 -0.24229274546E+02  0.49949849732E-01  0.26021559694E+02  0.51100000000E-03 0.  1.
        -12    1    3    3    0    0 -0.15551038590E+02  0.26110652619E+02  0.12351132571E+02  0.32804747479E+02  0.00000000000E+00 0.  1.
</event>
<event>
 7    1  0.3568800E-013  0.7246161E+02  0.7816164E-02  0.1226708E+00
        -11   -1    0    0    0    0  0.00000000000E+00  0.00000000000E+00  0.45593999997E+02  0.45594000000E+02  0.51100000000E-03 0. -1.
         11   -1    0    0    0    0 -0.00000000000E+00 -0.00000000000E+00 -0.45593999997E+02  0.45594000000E+02  0.51100000000E-03 0.  1.
    9900012    2    1    2    0    0  0.18625305949E+02  0.11502280877E+01  0.15660947721E+01  0.72461609553E+02  0.70000051141E+02 0.  0.
        -12    1    1    2    0    0 -0.18625305949E+02 -0.11502280877E+01 -0.15660947721E+01  0.18726390447E+02  0.00000000000E+00 0.  1.
         11    1    3    3    0    0  0.21692911325E+02 -0.85461191913E+01  0.46922989912E+01  0.23783107978E+02  0.51100000000E-03 0. -1.
        -11    1    3    3    0    0  0.27750686067E+01  0.22724689563E+02  0.13645787783E+02  0.26651830068E+02  0.51100000000E-03 0.  1.
         12    1    3    3    0    0 -0.58426739826E+01 -0.13028342284E+02 -0.16771992002E+02  0.22026671507E+02  0.00000000000E+00 0. -1.
</event>
<event>
 7    1  0.3568800E-013  0.7246159E+02  0.7816164E-02  0.1226708E+00
        -11   -1    0    0    0    0  0.00000000000E+00  0.00000000000E+00  0.45593999997E+02  0.45594000000E+02  0.51100000000E-03 0. -1.
         11   -1    0    0    0    0 -0.00000000000E+00 -0.00000000000E+00 -0.45593999997E+02  0.45594000000E+02  0.51100000000E-03 0.  1.
    9900012    2    1    2    0    0 -0.68840903146E+01  0.14874237384E+02  0.90578596186E+01  0.72461589290E+02  0.70000024745E+02 0.  0.
        -12    1    1    2    0    0  0.68840903146E+01 -0.14874237384E+02 -0.90578596186E+01  0.18726410710E+02  0.00000000000E+00 0.  1.
         11    1    3    3    0    0 -0.17635068495E+02  0.61604005915E+01 -0.84949781936E+01  0.20520985138E+02  0.51100000000E-03 0. -1.
        -11    1    3    3    0    0 -0.11584745242E+02 -0.13193901178E+02  0.73273487476E+01  0.19025650857E+02  0.51100000000E-03 0.  1.
         12    1    3    3    0    0  0.22335723423E+02  0.21907737970E+02  0.10225489065E+02  0.32914953295E+02  0.00000000000E+00 0. -1.
</event>
<event>
 7    1  0.3568800E-013  0.7246151E+02  0.7816164E-02  0.1226708E+00
        -11   -1    0    0    0    0  0.00000000000E+00  0.00000000000E+00  0.45593999997E+02  0.45594000000E+02  0.51100000000E-03 0.  1.
         11   -1    0    0    0    0 -0.00000000000E+00 -0.00000000000E+00 -0.45593999997E+02  0.45594000000E+02  0.51100000000E-03 0. -1.
    9900012    2    1    2    0    0 -0.86825878232E+01 -0.13279103768E+02 -0.99478434386E+01  0.72461507609E+02  0.69999918341E+02 0.  0.
        -12    1    1    2    0    0  0.86825878232E+01  0.13279103768E+02  0.99478434386E+01  0.18726492391E+02  0.00000000000E+00 0.  1.
         11    1    3    3    0    0 -0.15347522701E+02  0.39080166776E+01 -0.75935190077E+01  0.17563615191E+02  0.51100000000E-03 0. -1.
        -11    1    3    3    0    0  0.44055788465E+01  0.99712235480E+01  0.17889718466E+02  0.20949378298E+02  0.51100000000E-03 0.  1.
         12    1    3    3    0    0  0.22593560312E+01 -0.27158343993E+02 -0.20244042897E+02  0.33948514120E+02  0.00000000000E+00 0. -1.
</event>
<event>
 7    1  0.3568800E-013  0.7246137E+02  0.7816164E-02  0.1226709E+00
        -11   -1    0    0    0    0  0.00000000000E+00  0.00000000000E+00  0.45593999997E+02  0.45594000000E+02  0.51100000000E-03 0. -1.
         11   -1    0    0    0    0 -0.00000000000E+00 -0.00000000000E+00 -0.45593999997E+02  0.45594000000E+02  0.51100000000E-03 0.  1.
    9900012    2    1    2    0    0 -0.69785050636E+01 -0.10649144070E+02  0.13732541017E+02  0.72461374967E+02  0.69999745550E+02 0.  0.
        -12    1    1    2    0    0  0.69785050636E+01  0.10649144070E+02 -0.13732541017E+02  0.18726625033E+02  0.00000000000E+00 0.  1.
         11    1    3    3    0    0  0.21986660274E+02  0.10180950683E+01  0.57108621256E+01  0.22739034589E+02  0.51100000000E-03 0. -1.
        -11    1    3    3    0    0 -0.97739590459E+01 -0.57401746947E+01 -0.15237376850E+02  0.18990985611E+02  0.51100000000E-03 0.  1.
         12    1    3    3    0    0 -0.19191206292E+02 -0.59270644435E+01  0.23259055741E+02  0.30731354767E+02  0.00000000000E+00 0. -1.
</event>
<event>
 7    1  0.3568800E-013  0.7246157E+02  0.7816164E-02  0.1226708E+00
        -11   -1    0    0    0    0  0.00000000000E+00  0.00000000000E+00  0.45593999997E+02  0.45594000000E+02  0.51100000000E-03 0.  1.
         11   -1    0    0    0    0 -0.00000000000E+00 -0.00000000000E+00 -0.45593999997E+02  0.45594000000E+02  0.51100000000E-03 0. -1.
    9900012    2    1    2    0    0 -0.16154015311E+02 -0.50664181427E+01 -0.80036588407E+01  0.72461565254E+02  0.69999993434E+02 0.  0.
        -12    1    1    2    0    0  0.16154015311E+02  0.50664181427E+01  0.80036588407E+01  0.18726434746E+02  0.00000000000E+00 0.  1.
         11    1    3    3    0    0 -0.15788834911E+02  0.17298976734E+02  0.20646712541E+01  0.23511800686E+02  0.51100000000E-03 0. -1.
        -11    1    3    3    0    0  0.19535665867E+02 -0.52209422754E+01 -0.10273899394E+02  0.22681567144E+02  0.51100000000E-03 0.  1.
         12    1    3    3    0    0 -0.19900846267E+02 -0.17144452601E+02  0.20556929894E+00  0.26268197423E+02  0.00000000000E+00 0. -1.
</event>
<event>
 7    1  0.3568800E-013  0.7246171E+02  0.7816164E-02  0.1226708E+00
        -11   -1    0    0    0    0  0.00000000000E+00  0.00000000000E+00  0.45593999997E+02  0.45594000000E+02  0.51100000000E-03 0. -1.
         11   -1    0    0    0    0 -0.00000000000E+00 -0.00000000000E+00 -0.45593999997E+02  0.45594000000E+02  0.51100000000E-03 0.  1.
    9900012    2    1    2    0    0  0.88186935090E+01 -0.16048327142E+02  0.39186329819E+01  0.72461712495E+02  0.70000185242E+02 0.  0.
        -12    1    1    2    0    0 -0.88186935090E+01  0.16048327142E+02 -0.39186329819E+01  0.18726287505E+02  0.00000000000E+00 0.  1.
         11    1    3    3    0    0 -0.63331942430E+01  0.42178711834E+01 -0.45625498926E+01  0.88722403272E+01  0.51100000000E-03 0. -1.
        -11    1    3    3    0    0 -0.17887131581E+02  0.35646605983E+01  0.13293660013E+02  0.22569396939E+02  0.51100000000E-03 0.  1.
         12    1    3    3    0    0  0.33039019334E+02 -0.23830858924E+02 -0.48124771380E+01  0.41020075229E+02  0.00000000000E+00 0. -1.
</event>
<event>
 7    1  0.3568800E-013  0.7246158E+02  0.7816164E-02  0.1226708E+00
        -11   -1    0    0    0    0  0.00000000000E+00  0.00000000000E+00  0.45593999997E+02  0.45594000000E+02  0.51100000000E-03 0.  1.
         11   -1    0    0    0    0 -0.00000000000E+00 -0.00000000000E+00 -0.45593999997E+02  0.45594000000E+02  0.51100000000E-03 0. -1.
    9900012    2    1    2    0    0 -0.34347081729E-01 -0.15270148798E+02 -0.10839754755E+02  0.72461577299E+02  0.70000009124E+02 0.  0.
        -12    1    1    2    0    0  0.34347081729E-01  0.15270148798E+02  0.10839754755E+02  0.18726422701E+02  0.00000000000E+00 0.  1.
         11    1    3    3    0    0  0.11846051318E+02 -0.17940914863E+02  0.10153308460E+02  0.23775933859E+02  0.51100000000E-03 0.  1.
        -11    1    3    3    0    0  0.15554484791E+02  0.63973770520E+00 -0.12282625707E+02  0.19829628235E+02  0.51100000000E-03 0. -1.
         12    1    3    3    0    0 -0.27434883190E+02  0.20310283590E+01 -0.87104375086E+01  0.28856015204E+02  0.00000000000E+00 0. -1.
</event>
<event>
 7    1  0.3568800E-013  0.7246162E+02  0.7816164E-02  0.1226708E+00
        -11   -1    0    0    0    0  0.00000000000E+00  0.00000000000E+00  0.45593999997E+02  0.45594000000E+02  0.51100000000E-03 0. -1.
         11   -1    0    0    0    0 -0.00000000000E+00 -0.00000000000E+00 -0.45593999997E+02  0.45594000000E+02  0.51100000000E-03 0.  1.
    9900012    2    1    2    0    0 -0.35639196031E+01 -0.46907750578E+01  0.17775613133E+02  0.72461619789E+02  0.70000064475E+02 0.  0.
        -12    1    1    2    0    0  0.35639196031E+01  0.46907750578E+01 -0.17775613133E+02  0.18726380211E+02  0.00000000000E+00 0.  1.
         11    1    3    3    0    0 -0.93984985781E+01  0.18219421025E+02  0.97551866657E+01  0.22703364182E+02  0.51100000000E-03 0. -1.
        -11    1    3    3    0    0  0.15465016985E+02 -0.13695703961E+02  0.22181618433E+02  0.30311107764E+02  0.51100000000E-03 0.  1.
        -12    1    3    3    0    0 -0.96304380095E+01 -0.92144921226E+01 -0.14161191966E+02  0.19447147843E+02  0.00000000000E+00 0.  1.
</event>
<event>
 7    1  0.3568800E-013  0.7246166E+02  0.7816164E-02  0.1226708E+00
        -11   -1    0    0    0    0  0.00000000000E+00  0.00000000000E+00  0.45593999997E+02  0.45594000000E+02  0.51100000000E-03 0.  1.
         11   -1    0    0    0    0 -0.00000000000E+00 -0.00000000000E+00 -0.45593999997E+02  0.45594000000E+02  0.51100000000E-03 0. -1.
    9900012    2    1    2    0    0 -0.16590926949E+01 -0.41011533468E+01 -0.18196254354E+02  0.72461662402E+02  0.70000119987E+02 0.  0.
        -12    1    1    2    0    0  0.16590926949E+01  0.41011533468E+01  0.18196254354E+02  0.18726337598E+02  0.00000000000E+00 0.  1.
         11    1    3    3    0    0  0.12312996875E+02  0.13160985020E+01 -0.15826184150E+02  0.20095027054E+02  0.51100000000E-03 0. -1.
        -11    1    3    3    0    0  0.16347958192E+02  0.25023072964E+01  0.92439275358E+01  0.18946437011E+02  0.51100000000E-03 0.  1.
         12    1    3    3    0    0 -0.30320047762E+02 -0.79195591452E+01 -0.11613997740E+02  0.33420198337E+02  0.00000000000E+00 0. -1.
</event>
<event>
 7    1  0.3568800E-013  0.7246147E+02  0.7816164E-02  0.1226708E+00
        -11   -1    0    0    0    0  0.00000000000E+00  0.00000000000E+00  0.45593999997E+02  0.45594000000E+02  0.51100000000E-03 0.  1.
         11   -1    0    0    0    0 -0.00000000000E+00 -0.00000000000E+00 -0.45593999997E+02  0.45594000000E+02  0.51100000000E-03 0. -1.
    9900012    2    1    2    0    0  0.82141832024E+01  0.14319408049E+02  0.88410755558E+01  0.72461471503E+02  0.69999871306E+02 0.  0.
        -12    1    1    2    0    0 -0.82141832024E+01 -0.14319408049E+02 -0.88410755558E+01  0.18726528497E+02  0.00000000000E+00 0.  1.
         11    1    3    3    0    0  0.14173604803E+02 -0.59736233498E+01  0.13876893088E+01  0.15443475351E+02  0.51100000000E-03 0. -1.
        -11    1    3    3    0    0  0.11773862041E+02 -0.45426201342E+01  0.20303592084E+02  0.23905963206E+02  0.51100000000E-03 0.  1.
         12    1    3    3    0    0 -0.17733283641E+02  0.24835651534E+02 -0.12850205837E+02  0.33112032946E+02  0.00000000000E+00 0. -1.
</event>
<event>
 7    1  0.3568800E-013  0.7246155E+02  0.7816164E-02  0.1226708E+00
        -11   -1    0    0    0    0  0.00000000000E+00  0.00000000000E+00  0.45593999997E+02  0.45594000000E+02  0.51100000000E-03 0.  1.
         11   -1    0    0    0    0 -0.00000000000E+00 -0.00000000000E+00 -0.45593999997E+02  0.45594000000E+02  0.51100000000E-03 0. -1.
    9900012    2    1    2    0    0 -0.14800574697E+02 -0.45608382027E+01 -0.10527192895E+02  0.72461546873E+02  0.69999969489E+02 0.  0.
        -12    1    1    2    0    0  0.14800574697E+02  0.45608382027E+01  0.10527192895E+02  0.18726453127E+02  0.00000000000E+00 0.  1.
         11    1    3    3    0    0 -0.74120025657E+01 -0.11434243864E+02 -0.71598125109E+01  0.15392940922E+02  0.51100000000E-03 0. -1.
        -11    1    3    3    0    0  0.23347549156E+02 -0.13803069056E+01  0.55100452432E+01  0.24028605819E+02  0.51100000000E-03 0.  1.
         12    1    3    3    0    0 -0.30736121288E+02  0.82537125670E+01 -0.88774256270E+01  0.33040000132E+02  0.00000000000E+00 0. -1.
</event>
<event>
 7    1  0.3568800E-013  0.7246153E+02  0.7816164E-02  0.1226708E+00
        -11   -1    0    0    0    0  0.00000000000E+00  0.00000000000E+00  0.45593999997E+02  0.45594000000E+02  0.51100000000E-03 0.  1.
         11   -1    0    0    0    0 -0.00000000000E+00 -0.00000000000E+00 -0.45593999997E+02  0.45594000000E+02  0.51100000000E-03 0. -1.
    9900012    2    1    2    0    0  0.12602059098E+02 -0.13548772747E+02 -0.28808825243E+01  0.72461531551E+02  0.69999949530E+02 0.  0.
        -12    1    1    2    0    0 -0.12602059098E+02  0.13548772747E+02  0.28808825243E+01  0.18726468449E+02  0.00000000000E+00 0.  1.
         11    1    3    3    0    0  0.18429799930E+02 -0.75401915017E+01 -0.20918628310E+02  0.28880807191E+02  0.51100000000E-03 0. -1.
        -11    1    3    3    0    0 -0.87433105780E+01 -0.12630446782E+02 -0.74594691810E+01  0.17076807269E+02  0.51100000000E-03 0.  1.
        -12    1    3    3    0    0  0.29155697459E+01  0.66218655370E+01  0.25497214967E+02  0.26503917091E+02  0.00000000000E+00 0.  1.
</event>
<event>
 7    1  0.3568800E-013  0.7246160E+02  0.7816164E-02  0.1226708E+00
        -11   -1    0    0    0    0  0.00000000000E+00  0.00000000000E+00  0.45593999997E+02  0.45594000000E+02  0.51100000000E-03 0. -1.
         11   -1    0    0    0    0 -0.00000000000E+00 -0.00000000000E+00 -0.45593999997E+02  0.45594000000E+02  0.51100000000E-03 0.  1.
    9900012    2    1    2    0    0  0.17912264197E+01 -0.26725687204E+01  0.18447949988E+02  0.72461602204E+02  0.70000041569E+02 0.  0.
        -12    1    1    2    0    0 -0.17912264197E+01  0.26725687204E+01 -0.18447949988E+02  0.18726397796E+02  0.00000000000E+00 0.  1.
         11    1    3    3    0    0  0.29415786346E+01 -0.13761738879E+01  0.73596169097E+01  0.80442961626E+01  0.51100000000E-03 0. -1.
        -11    1    3    3    0    0  0.76767834436E+01  0.20969581934E+02 -0.16586666852E+02  0.27816791477E+02  0.51100000000E-03 0.  1.
         12    1    3    3    0    0 -0.88271356584E+01 -0.22265976767E+02  0.27674999930E+02  0.36600514565E+02  0.00000000000E+00 0. -1.
</event>
<event>
 7    1  0.3568800E-013  0.7246156E+02  0.7816164E-02  0.1226708E+00
        -11   -1    0    0    0    0  0.00000000000E+00  0.00000000000E+00  0.45593999997E+02  0.45594000000E+02  0.51100000000E-03 0.  1.
         11   -1    0    0    0    0 -0.00000000000E+00 -0.00000000000E+00 -0.45593999997E+02  0.45594000000E+02  0.51100000000E-03 0. -1.
    9900012    2    1    2    0    0  0.13771186864E+02  0.10510552642E+02  0.71107251895E+01  0.72461555671E+02  0.69999980950E+02 0.  0.
        -12    1    1    2    0    0 -0.13771186864E+02 -0.10510552642E+02 -0.71107251895E+01  0.18726444329E+02  0.00000000000E+00 0.  1.
         11    1    3    3    0    0  0.31607034598E+01 -0.35692691716E+01  0.14900447947E+02  0.15644586222E+02  0.51100000000E-03 0. -1.
        -11    1    3    3    0    0 -0.70852396511E+01  0.24280905487E+02  0.12336631894E+02  0.28141703554E+02  0.51100000000E-03 0.  1.
         12    1    3    3    0    0  0.17695723055E+02 -0.10201083673E+02 -0.20126354652E+02  0.28675265895E+02  0.00000000000E+00 0. -1.
</event>
<event>
 7    1  0.3891908E-013  0.7246157E+02  0.7816164E-02  0.1226708E+00
        -11   -1    0    0    0    0  0.00000000000E+00  0.00000000000E+00  0.45593999997E+02  0.45594000000E+02  0.51100000000E-03 0. -1.
         11   -1    0    0    0    0 -0.00000000000E+00 -0.00000000000E+00 -0.45593999997E+02  0.45594000000E+02  0.51100000000E-03 0.  1.
    9900012    2    1    2    0    0 -0.10568237804E+02  0.13538050092E+02  0.74640925561E+01  0.72461571396E+02  0.70000001436E+02 0.  0.
        -12    1    1    2    0    0  0.10568237804E+02 -0.13538050092E+02 -0.74640925561E+01  0.18726428604E+02  0.00000000000E+00 0.  1.
         11    1    3    3    0    0  0.96656191554E+01  0.97621609250E+00  0.11259660111E+01  0.97798257262E+01  0.51100000000E-03 0. -1.
        -11    1    3    3    0    0 -0.97359313577E+01 -0.22922797230E+02 -0.11318073547E+01  0.24930382677E+02  0.51100000000E-03 0.  1.
         12    1    3    3    0    0 -0.10497925601E+02  0.35484631229E+02  0.74699338997E+01  0.37751362994E+02  0.00000000000E+00 0. -1.
</event>
<event>
 7    1  0.3568800E-013  0.7246157E+02  0.7816164E-02  0.1226708E+00
        -11   -1    0    0    0    0  0.00000000000E+00  0.00000000000E+00  0.45593999997E+02  0.45594000000E+02  0.51100000000E-03 0.  1.
         11   -1    0    0    0    0 -0.00000000000E+00 -0.00000000000E+00 -0.45593999997E+02  0.45594000000E+02  0.51100000000E-03 0. -1.
    9900012    2    1    2    0    0  0.12824027840E+02 -0.12236341504E+02 -0.60411409256E+01  0.72461571426E+02  0.70000001474E+02 0.  0.
        -12    1    1    2    0    0 -0.12824027840E+02  0.12236341504E+02  0.60411409256E+01  0.18726428574E+02  0.00000000000E+00 0.  1.
         11    1    3    3    0    0  0.70104925449E+01 -0.21277491272E+02 -0.31093638355E+01  0.22617400034E+02  0.51100000000E-03 0.  1.
        -11    1    3    3    0    0  0.16330211601E+02  0.34532645438E+01 -0.21846211251E+02  0.27492868043E+02  0.51100000000E-03 0. -1.
         12    1    3    3    0    0 -0.10516676305E+02  0.55878852245E+01  0.18914434161E+02  0.22351303349E+02  0.00000000000E+00 0. -1.
</event>
<event>
 7    1  0.3568800E-013  0.7246151E+02  0.7816164E-02  0.1226708E+00
        -11   -1    0    0    0    0  0.00000000000E+00  0.00000000000E+00  0.45593999997E+02  0.45594000000E+02  0.51100000000E-03 0.  1.
         11   -1    0    0    0    0 -0.00000000000E+00 -0.00000000000E+00 -0.45593999997E+02  0.45594000000E+02  0.51100000000E-03 0. -1.
    9900012    2    1    2    0    0  0.40178705801E+01 -0.12265753793E+02  0.13567956459E+02  0.72461509603E+02  0.69999920939E+02 0.  0.
        -12    1    1    2    0    0 -0.40178705801E+01  0.12265753793E+02 -0.13567956459E+02  0.18726490397E+02  0.00000000000E+00 0.  1.
         11    1    3    3    0    0 -0.39872391045E+01  0.14320481586E+02 -0.25084507536E+01  0.15075363809E+02  0.51100000000E-03 0. -1.
        -11    1    3    3    0    0 -0.50628464196E+01  0.11632150903E+02  0.10783509875E+02  0.16650028048E+02  0.51100000000E-03 0.  1.
         12    1    3    3    0    0  0.13067956104E+02 -0.38218386283E+02  0.52928973375E+01  0.40736117746E+02  0.00000000000E+00 0. -1.
</event>
<event>
 7    1  0.3568800E-013  0.7246158E+02  0.7816164E-02  0.1226708E+00
        -11   -1    0    0    0    0  0.00000000000E+00  0.00000000000E+00  0.45593999997E+02  0.45594000000E+02  0.51100000000E-03 0. -1.
         11   -1    0    0    0    0 -0.00000000000E+00 -0.00000000000E+00 -0.45593999997E+02  0.45594000000E+02  0.51100000000E-03 0.  1.
    9900012    2    1    2    0    0 -0.16744238217E+02  0.55462129493E+01  0.62887850093E+01  0.72461579935E+02  0.70000012559E+02 0.  0.
        -12    1    1    2    0    0  0.16744238217E+02 -0.55462129493E+01 -0.62887850093E+01  0.18726420065E+02  0.00000000000E+00 0.  1.
         11    1    3    3    0    0 -0.36900034359E+02 -0.57852458540E+01  0.20673158016E+02  0.42690292432E+02  0.51100000000E-03 0. -1.
        -11    1    3    3    0    0  0.14182537002E+01  0.14230962963E+01  0.21100392946E+01  0.29135738728E+01  0.51100000000E-03 0.  1.
        -12    1    3    3    0    0  0.18737542442E+02  0.99083625070E+01 -0.16494412301E+02  0.26857713631E+02  0.00000000000E+00 0.  1.
</event>
<event>
 7    1  0.3568800E-013  0.7246158E+02  0.7816164E-02  0.1226708E+00
        -11   -1    0    0    0    0  0.00000000000E+00  0.00000000000E+00  0.45593999997E+02  0.45594000000E+02  0.51100000000E-03 0.  1.
         11   -1    0    0    0    0 -0.00000000000E+00 -0.00000000000E+00 -0.45593999997E+02  0.45594000000E+02  0.51100000000E-03 0. -1.
    9900012    2    1    2    0    0  0.13403257462E+02 -0.38575541917E+01 -0.12496024234E+02  0.72461583989E+02  0.70000017840E+02 0.  0.
        -12    1    1    2    0    0 -0.13403257462E+02  0.38575541917E+01  0.12496024234E+02  0.18726416011E+02  0.00000000000E+00 0.  1.
         11    1    3    3    0    0  0.77728786323E+01  0.75807670369E+01  0.94713018742E+01  0.14408026602E+02  0.51100000000E-03 0.  1.
        -11    1    3    3    0    0 -0.10117674163E+02  0.15472805240E+02  0.21813390262E+01  0.18615404177E+02  0.51100000000E-03 0. -1.
         12    1    3    3    0    0  0.15748052993E+02 -0.26911126469E+02 -0.24148665135E+02  0.39438153211E+02  0.00000000000E+00 0. -1.
</event>
<event>
 7    1  0.3568800E-013  0.7246154E+02  0.7816164E-02  0.1226708E+00
        -11   -1    0    0    0    0  0.00000000000E+00  0.00000000000E+00  0.45593999997E+02  0.45594000000E+02  0.51100000000E-03 0.  1.
         11   -1    0    0    0    0 -0.00000000000E+00 -0.00000000000E+00 -0.45593999997E+02  0.45594000000E+02  0.51100000000E-03 0. -1.
    9900012    2    1    2    0    0 -0.12278671415E+02 -0.11753702753E+02 -0.78590667545E+01  0.72461541969E+02  0.69999963102E+02 0.  0.
        -12    1    1    2    0    0  0.12278671415E+02  0.11753702753E+02  0.78590667545E+01  0.18726458031E+02  0.00000000000E+00 0.  1.
         11    1    3    3    0    0 -0.43606843482E+01  0.14418053217E+02  0.13020510126E+02  0.19910537681E+02  0.51100000000E-03 0. -1.
        -11    1    3    3    0    0  0.99427171621E+01 -0.16474834965E+02  0.47708260553E+01  0.19825200963E+02  0.51100000000E-03 0.  1.
         12    1    3    3    0    0 -0.17860704228E+02 -0.96969210045E+01 -0.25650402936E+02  0.32725803325E+02  0.00000000000E+00 0. -1.
</event>
<event>
 7    1  0.3568800E-013  0.7246159E+02  0.7816164E-02  0.1226708E+00
        -11   -1    0    0    0    0  0.00000000000E+00  0.00000000000E+00  0.45593999997E+02  0.45594000000E+02  0.51100000000E-03 0.  1.
         11   -1    0    0    0    0 -0.00000000000E+00 -0.00000000000E+00 -0.45593999997E+02  0.45594000000E+02  0.51100000000E-03 0. -1.
    9900012    2    1    2    0    0 -0.14666736752E+02  0.78908391879E+01 -0.85615472695E+01  0.72461585456E+02  0.70000019750E+02 0.  0.
        -12    1    1    2    0    0  0.14666736752E+02 -0.78908391879E+01  0.85615472695E+01  0.18726414544E+02  0.00000000000E+00 0.  1.
         11    1    3    3    0    0  0.13077952990E+02 -0.32761928200E+01  0.44106865243E+01  0.14185219409E+02  0.51100000000E-03 0. -1.
        -11    1    3    3    0    0 -0.96312170060E+01 -0.97298804752E+01  0.14045917939E+02  0.19614248038E+02  0.51100000000E-03 0.  1.
        -12    1    3    3    0    0 -0.18113472736E+02  0.20896912483E+02 -0.27018151733E+02  0.38662118009E+02  0.00000000000E+00 0.  1.
</event>
<event>
 7    1  0.3568800E-013  0.7246156E+02  0.7816164E-02  0.1226708E+00
        -11   -1    0    0    0    0  0.00000000000E+00  0.00000000000E+00  0.45593999997E+02  0.45594000000E+02  0.51100000000E-03 0.  1.
         11   -1    0    0    0    0 -0.00000000000E+00 -0.00000000000E+00 -0.45593999997E+02  0.45594000000E+02  0.51100000000E-03 0. -1.
    9900012    2    1    2    0    0  0.64222982784E+01  0.10695160439E+02 -0.13965926248E+02  0.72461562326E+02  0.69999989619E+02 0.  0.
        -12    1    1    2    0    0 -0.64222982784E+01 -0.10695160439E+02  0.13965926248E+02  0.18726437674E+02  0.00000000000E+00 0.  1.
         11    1    3    3    0    0 -0.19991987095E+02 -0.98887046756E+01 -0.45152167579E+01  0.22756388352E+02  0.51100000000E-03 0.  1.
        -11    1    3    3    0    0  0.14825323557E+02  0.63476801546E+01  0.12993380514E+02  0.20710171398E+02  0.51100000000E-03 0. -1.
         12    1    3    3    0    0  0.11588961817E+02  0.14236184960E+02 -0.22444090005E+02  0.28995002576E+02  0.00000000000E+00 0. -1.
</event>
<event>
 7    1  0.3568800E-013  0.7246157E+02  0.7816164E-02  0.1226708E+00
        -11   -1    0    0    0    0  0.00000000000E+00  0.00000000000E+00  0.45593999997E+02  0.45594000000E+02  0.51100000000E-03 0.  1.
         11   -1    0    0    0    0 -0.00000000000E+00 -0.00000000000E+00 -0.45593999997E+02  0.45594000000E+02  0.51100000000E-03 0. -1.
    9900012    2    1    2    0    0 -0.51716676087E+01  0.14693283428E+02 -0.10394256064E+02  0.72461567268E+02  0.69999996057E+02 0.  0.
        -12    1    1    2    0    0  0.51716676087E+01 -0.14693283428E+02  0.10394256064E+02  0.18726432732E+02  0.00000000000E+00 0.  1.
         11    1    3    3    0    0  0.68555260818E+01  0.25779732538E+01  0.52832794302E+01  0.90309039279E+01  0.51100000000E-03 0. -1.
        -11    1    3    3    0    0 -0.22671800590E+01 -0.97920708971E+01  0.18866792239E+02  0.21377104751E+02  0.51100000000E-03 0.  1.
        -12    1    3    3    0    0 -0.97600136315E+01  0.21907381071E+02 -0.34544327733E+02  0.42053558589E+02  0.00000000000E+00 0.  1.
</event>
<event>
 7    1  0.3568800E-013  0.7246105E+02  0.7816164E-02  0.1226709E+00
        -11   -1    0    0    0    0  0.00000000000E+00  0.00000000000E+00  0.45593999997E+02  0.45594000000E+02  0.51100000000E-03 0. -1.
         11   -1    0    0    0    0 -0.00000000000E+00 -0.00000000000E+00 -0.45593999997E+02  0.45594000000E+02  0.51100000000E-03 0.  1.
    9900012    2    1    2    0    0  0.78935818762E+01  0.61803400665E+01  0.15817498020E+02  0.72461054659E+02  0.69999328286E+02 0.  0.
        -12    1    1    2    0    0 -0.78935818762E+01 -0.61803400665E+01 -0.15817498020E+02  0.18726945341E+02  0.00000000000E+00 0.  1.
         11    1    3    3    0    0  0.18399798477E+02  0.31777978475E+02  0.49519473678E+01  0.37052857959E+02  0.51100000000E-03 0. -1.
        -11    1    3    3    0    0  0.11088013777E+01 -0.16223462123E+00  0.71070082063E+01  0.71948124696E+01  0.51100000000E-03 0.  1.
        -12    1    3    3    0    0 -0.11615017978E+02 -0.25435403787E+02  0.37585424462E+01  0.28213384231E+02  0.00000000000E+00 0.  1.
</event>
<event>
 7    1  0.3568800E-013  0.7246157E+02  0.7816164E-02  0.1226708E+00
        -11   -1    0    0    0    0  0.00000000000E+00  0.00000000000E+00  0.45593999997E+02  0.45594000000E+02  0.51100000000E-03 0.  1.
         11   -1    0    0    0    0 -0.00000000000E+00 -0.00000000000E+00 -0.45593999997E+02  0.45594000000E+02  0.51100000000E-03 0. -1.
    9900012    2    1    2    0    0  0.64860495350E+01  0.12010648629E+02  0.12820085442E+02  0.72461571889E+02  0.70000002077E+02 0.  0.
        -12    1    1    2    0    0 -0.64860495350E+01 -0.12010648629E+02 -0.12820085442E+02  0.18726428111E+02  0.00000000000E+00 0.  1.
         11    1    3    3    0    0  0.15709850165E+01  0.29337423696E+00 -0.42785017988E+01  0.45672355171E+01  0.51100000000E-03 0. -1.
        -11    1    3    3    0    0  0.32671060108E+02 -0.53666936109E+01  0.82056366444E+01  0.34110585482E+02  0.51100000000E-03 0.  1.
         12    1    3    3    0    0 -0.27755995590E+02  0.17083968003E+02  0.88929505966E+01  0.33783750890E+02  0.00000000000E+00 0. -1.
</event>
<event>
 7    1  0.3568800E-013  0.7246158E+02  0.7816164E-02  0.1226708E+00
        -11   -1    0    0    0    0  0.00000000000E+00  0.00000000000E+00  0.45593999997E+02  0.45594000000E+02  0.51100000000E-03 0. -1.
         11   -1    0    0    0    0 -0.00000000000E+00 -0.00000000000E+00 -0.45593999997E+02  0.45594000000E+02  0.51100000000E-03 0.  1.
    9900012    2    1    2    0    0 -0.15448510447E+02  0.97098647169E+01  0.42120011055E+01  0.72461577459E+02  0.70000009334E+02 0.  0.
        -12    1    1    2    0    0  0.15448510447E+02 -0.97098647169E+01 -0.42120011055E+01  0.18726422541E+02  0.00000000000E+00 0.  1.
         11    1    3    3    0    0 -0.93464304817E+01 -0.49176114319E+01  0.11388055569E+02  0.15531467247E+02  0.51100000000E-03 0. -1.
        -11    1    3    3    0    0  0.14954285232E+02 -0.10133870621E+02 -0.15020178975E+02  0.23493227903E+02  0.51100000000E-03 0.  1.
         12    1    3    3    0    0 -0.21056365198E+02  0.24761346770E+02  0.78441245114E+01  0.33436882309E+02  0.00000000000E+00 0. -1.
</event>
<event>
 7    1  0.3568800E-013  0.7246156E+02  0.7816164E-02  0.1226708E+00
        -11   -1    0    0    0    0  0.00000000000E+00  0.00000000000E+00  0.45593999997E+02  0.45594000000E+02  0.51100000000E-03 0.  1.
         11   -1    0    0    0    0 -0.00000000000E+00 -0.00000000000E+00 -0.45593999997E+02  0.45594000000E+02  0.51100000000E-03 0. -1.
    9900012    2    1    2    0    0  0.12679034301E+02  0.30723349688E+01 -0.13434380496E+02  0.72461555268E+02  0.69999980426E+02 0.  0.
        -12    1    1    2    0    0 -0.12679034301E+02 -0.30723349688E+01  0.13434380496E+02  0.18726444732E+02  0.00000000000E+00 0.  1.
         11    1    3    3    0    0  0.23590312129E+02 -0.20845197982E+02 -0.12994213682E+02  0.34056933138E+02  0.51100000000E-03 0. -1.
        -11    1    3    3    0    0 -0.49326248731E+00 -0.60368423196E+01 -0.26544237597E+01  0.66130733271E+01  0.51100000000E-03 0.  1.
        -12    1    3    3    0    0 -0.10418015341E+02  0.29954375271E+02  0.22142569456E+01  0.31791548803E+02  0.00000000000E+00 0.  1.
</event>
<event>
 7    1  0.3568800E-013  0.7246153E+02  0.7816164E-02  0.1226708E+00
        -11   -1    0    0    0    0  0.00000000000E+00  0.00000000000E+00  0.45593999997E+02  0.45594000000E+02  0.51100000000E-03 0. -1.
         11   -1    0    0    0    0 -0.00000000000E+00 -0.00000000000E+00 -0.45593999997E+02  0.45594000000E+02  0.51100000000E-03 0.  1.
    9900012    2    1    2    0    0  0.11937842399E+02 -0.57809315346E+01  0.13219275778E+02  0.72461534699E+02  0.69999953630E+02 0.  0.
        -12    1    1    2    0    0 -0.11937842399E+02  0.57809315346E+01 -0.13219275778E+02  0.18726465301E+02  0.00000000000E+00 0.  1.
         11    1    3    3    0    0  0.24855803088E+01  0.10903774130E+02  0.38436047697E+00  0.11190090839E+02  0.51100000000E-03 0. -1.
        -11    1    3    3    0    0  0.68791740154E+01 -0.60312445347E+01 -0.22493087685E+02  0.24282461564E+02  0.51100000000E-03 0.  1.
         12    1    3    3    0    0  0.25730880753E+01 -0.10653461130E+02  0.35328002986E+02  0.36988982296E+02  0.00000000000E+00 0. -1.
</event>
<event>
 7    1  0.3568800E-013  0.7246159E+02  0.7816164E-02  0.1226708E+00
        -11   -1    0    0    0    0  0.00000000000E+00  0.00000000000E+00  0.45593999997E+02  0.45594000000E+02  0.51100000000E-03 0.  1.
         11   -1    0    0    0    0 -0.00000000000E+00 -0.00000000000E+00 -0.45593999997E+02  0.45594000000E+02  0.51100000000E-03 0. -1.
    9900012    2    1    2    0    0  0.43195477905E+01 -0.13060469927E+02  0.12706069309E+02  0.72461586432E+02  0.70000021023E+02 0.  0.
        -12    1    1    2    0    0 -0.43195477905E+01  0.13060469927E+02 -0.12706069309E+02  0.18726413568E+02  0.00000000000E+00 0.  1.
         11    1    3    3    0    0 -0.99706948239E+01  0.39937270436E+01 -0.31876147791E+01  0.11203816279E+02  0.51100000000E-03 0. -1.
        -11    1    3    3    0    0  0.18011086514E+02  0.17071722115E+02  0.73646905331E+01  0.25885934411E+02  0.51100000000E-03 0.  1.
         12    1    3    3    0    0 -0.37208438998E+01 -0.34125919085E+02  0.85289935552E+01  0.35371835743E+02  0.00000000000E+00 0. -1.
</event>
<event>
 7    1  0.3568800E-013  0.7246148E+02  0.7816164E-02  0.1226708E+00
        -11   -1    0    0    0    0  0.00000000000E+00  0.00000000000E+00  0.45593999997E+02  0.45594000000E+02  0.51100000000E-03 0. -1.
         11   -1    0    0    0    0 -0.00000000000E+00 -0.00000000000E+00 -0.45593999997E+02  0.45594000000E+02  0.51100000000E-03 0.  1.
    9900012    2    1    2    0    0 -0.78776321711E+01  0.15618566522E+02  0.66847422170E+01  0.72461481708E+02  0.69999884600E+02 0.  0.
        -12    1    1    2    0    0  0.78776321711E+01 -0.15618566522E+02 -0.66847422170E+01  0.18726518292E+02  0.00000000000E+00 0.  1.
         11    1    3    3    0    0  0.15462771908E+02 -0.62489139390E+01  0.31660371033E+01  0.16975571616E+02  0.51100000000E-03 0. -1.
        -11    1    3    3    0    0  0.11829283735E+02 -0.39784461398E+00  0.69397425731E+01  0.13720432255E+02  0.51100000000E-03 0.  1.
         12    1    3    3    0    0 -0.35169687814E+02  0.22265325075E+02 -0.34210374595E+01  0.41765477837E+02  0.00000000000E+00 0. -1.
</event>
<event>
 7    1  0.3568800E-013  0.7246159E+02  0.7816164E-02  0.1226708E+00
        -11   -1    0    0    0    0  0.00000000000E+00  0.00000000000E+00  0.45593999997E+02  0.45594000000E+02  0.51100000000E-03 0.  1.
         11   -1    0    0    0    0 -0.00000000000E+00 -0.00000000000E+00 -0.45593999997E+02  0.45594000000E+02  0.51100000000E-03 0. -1.
    9900012    2    1    2    0    0 -0.12301319580E+02 -0.10511273250E+02 -0.94270444301E+01  0.72461588293E+02  0.70000023446E+02 0.  0.
        -12    1    1    2    0    0  0.12301319580E+02  0.10511273250E+02  0.94270444301E+01  0.18726411707E+02  0.00000000000E+00 0.  1.
         11    1    3    3    0    0  0.12491546479E+02  0.22059315481E+01  0.42462761817E+01  0.13376686029E+02  0.51100000000E-03 0. -1.
        -11    1    3    3    0    0  0.27982303459E+01 -0.25059277423E+01  0.16512121097E+02  0.16933986840E+02  0.51100000000E-03 0.  1.
         12    1    3    3    0    0 -0.27591096405E+02 -0.10211277056E+02 -0.30185441709E+02  0.42150915424E+02  0.00000000000E+00 0. -1.
</event>
<event>
 7    1  0.3568800E-013  0.7246155E+02  0.7816164E-02  0.1226708E+00
        -11   -1    0    0    0    0  0.00000000000E+00  0.00000000000E+00  0.45593999997E+02  0.45594000000E+02  0.51100000000E-03 0. -1.
         11   -1    0    0    0    0 -0.00000000000E+00 -0.00000000000E+00 -0.45593999997E+02  0.45594000000E+02  0.51100000000E-03 0.  1.
    9900012    2    1    2    0    0 -0.92160002650E+00 -0.18493433808E+02  0.27970520921E+01  0.72461549695E+02  0.69999973165E+02 0.  0.
        -12    1    1    2    0    0  0.92160002650E+00  0.18493433808E+02 -0.27970520921E+01  0.18726450305E+02  0.00000000000E+00 0.  1.
         11    1    3    3    0    0  0.11406037450E+02  0.36180426898E+01  0.53646746443E+01  0.13113643945E+02  0.51100000000E-03 0. -1.
        -11    1    3    3    0    0 -0.25677445067E+01  0.13814661514E+02 -0.14561304067E+02  0.20235359176E+02  0.51100000000E-03 0.  1.
         12    1    3    3    0    0 -0.97598929695E+01 -0.35926138012E+02  0.11993681514E+02  0.39112546574E+02  0.00000000000E+00 0. -1.
</event>
<event>
 7    1  0.3568800E-013  0.7246165E+02  0.7816164E-02  0.1226708E+00
        -11   -1    0    0    0    0  0.00000000000E+00  0.00000000000E+00  0.45593999997E+02  0.45594000000E+02  0.51100000000E-03 0.  1.
         11   -1    0    0    0    0 -0.00000000000E+00 -0.00000000000E+00 -0.45593999997E+02  0.45594000000E+02  0.51100000000E-03 0. -1.
    9900012    2    1    2    0    0 -0.74854956174E+01  0.40898686756E+01  0.16670833704E+02  0.72461645128E+02  0.70000097484E+02 0.  0.
        -12    1    1    2    0    0  0.74854956174E+01 -0.40898686756E+01 -0.16670833704E+02  0.18726354872E+02  0.00000000000E+00 0.  1.
         11    1    3    3    0    0 -0.18286837476E+02  0.28213721602E+02  0.13478010707E+02  0.36222634973E+02  0.51100000000E-03 0. -1.
        -11    1    3    3    0    0  0.57741183940E+01  0.41024264016E+01 -0.13507594773E+01  0.72107487152E+01  0.51100000000E-03 0.  1.
        -12    1    3    3    0    0  0.50272234649E+01 -0.28226279328E+02  0.45435824742E+01  0.29028261439E+02  0.00000000000E+00 0.  1.
</event>
<event>
 7    1  0.3568800E-013  0.7246164E+02  0.7816164E-02  0.1226708E+00
        -11   -1    0    0    0    0  0.00000000000E+00  0.00000000000E+00  0.45593999997E+02  0.45594000000E+02  0.51100000000E-03 0.  1.
         11   -1    0    0    0    0 -0.00000000000E+00 -0.00000000000E+00 -0.45593999997E+02  0.45594000000E+02  0.51100000000E-03 0. -1.
    9900012    2    1    2    0    0 -0.10676798025E+02 -0.13128392462E+02 -0.80204696979E+01  0.72461637863E+02  0.70000088021E+02 0.  0.
        -12    1    1    2    0    0  0.10676798025E+02  0.13128392462E+02  0.80204696979E+01  0.18726362137E+02  0.00000000000E+00 0.  1.
         11    1    3    3    0    0  0.14765966992E+02  0.19318265933E+01 -0.88152694782E+00  0.14917869326E+02  0.51100000000E-03 0. -1.
        -11    1    3    3    0    0 -0.24749844888E+01  0.13712914168E+02 -0.14378542821E+02  0.20022788445E+02  0.51100000000E-03 0.  1.
        -12    1    3    3    0    0 -0.22967780529E+02 -0.28773133223E+02  0.72396000708E+01  0.37520980092E+02  0.00000000000E+00 0.  1.
</event>
<event>
 7    1  0.3568800E-013  0.7246158E+02  0.7816164E-02  0.1226708E+00
        -11   -1    0    0    0    0  0.00000000000E+00  0.00000000000E+00  0.45593999997E+02  0.45594000000E+02  0.51100000000E-03 0. -1.
         11   -1    0    0    0    0 -0.00000000000E+00 -0.00000000000E+00 -0.45593999997E+02  0.45594000000E+02  0.51100000000E-03 0.  1.
    9900012    2    1    2    0    0 -0.24806494340E+01  0.13886750308E+02  0.12315972896E+02  0.72461584323E+02  0.70000018275E+02 0.  0.
        -12    1    1    2    0    0  0.24806494340E+01 -0.13886750308E+02 -0.12315972896E+02  0.18726415677E+02  0.00000000000E+00 0.  1.
         11    1    3    3    0    0 -0.78303602385E+01  0.29499517568E+00  0.86365654572E+01  0.11661553360E+02  0.51100000000E-03 0. -1.
        -11    1    3    3    0    0 -0.43901534618E+01  0.93207189496E+01 -0.26696792743E+02  0.28615869586E+02  0.51100000000E-03 0.  1.
         12    1    3    3    0    0  0.97398642663E+01  0.42710361824E+01  0.30376200182E+02  0.32184161376E+02  0.00000000000E+00 0. -1.
</event>
<event>
 7    1  0.3568800E-013  0.7246158E+02  0.7816164E-02  0.1226708E+00
        -11   -1    0    0    0    0  0.00000000000E+00  0.00000000000E+00  0.45593999997E+02  0.45594000000E+02  0.51100000000E-03 0.  1.
         11   -1    0    0    0    0 -0.00000000000E+00 -0.00000000000E+00 -0.45593999997E+02  0.45594000000E+02  0.51100000000E-03 0. -1.
    9900012    2    1    2    0    0 -0.10493885419E+02  0.15333891062E+02  0.23300082543E+01  0.72461580568E+02  0.70000013383E+02 0.  0.
        -12    1    1    2    0    0  0.10493885419E+02 -0.15333891062E+02 -0.23300082543E+01  0.18726419432E+02  0.00000000000E+00 0.  1.
         11    1    3    3    0    0 -0.99141926190E+01  0.52963604688E+01 -0.22641737656E+02  0.25278269993E+02  0.51100000000E-03 0. -1.
        -11    1    3    3    0    0  0.73791558447E+01 -0.10949035733E+02 -0.52598603698E+00  0.13214007191E+02  0.51100000000E-03 0.  1.
         12    1    3    3    0    0 -0.79588486443E+01  0.20986566327E+02  0.25497731947E+02  0.33969303384E+02  0.00000000000E+00 0. -1.
</event>
<event>
 7    1  0.3568800E-013  0.7246161E+02  0.7816164E-02  0.1226708E+00
        -11   -1    0    0    0    0  0.00000000000E+00  0.00000000000E+00  0.45593999997E+02  0.45594000000E+02  0.51100000000E-03 0.  1.
         11   -1    0    0    0    0 -0.00000000000E+00 -0.00000000000E+00 -0.45593999997E+02  0.45594000000E+02  0.51100000000E-03 0. -1.
    9900012    2    1    2    0    0  0.16093188835E+01 -0.12143517684E+01 -0.18617548501E+02  0.72461610341E+02  0.70000052168E+02 0.  0.
        -12    1    1    2    0    0 -0.16093188835E+01  0.12143517684E+01  0.18617548501E+02  0.18726389659E+02  0.00000000000E+00 0.  1.
         11    1    3    3    0    0 -0.19386388640E+02  0.98167192200E+01 -0.12694270957E+02  0.25166337758E+02  0.51100000000E-03 0. -1.
        -11    1    3    3    0    0 -0.91258379839E+01  0.62436208106E+01  0.29734804189E+01  0.11450122523E+02  0.51100000000E-03 0.  1.
         12    1    3    3    0    0  0.30121545508E+02 -0.17274691799E+02 -0.88967579630E+01  0.35845150059E+02  0.00000000000E+00 0. -1.
</event>
<event>
 7    1  0.3568800E-013  0.7246155E+02  0.7816164E-02  0.1226708E+00
        -11   -1    0    0    0    0  0.00000000000E+00  0.00000000000E+00  0.45593999997E+02  0.45594000000E+02  0.51100000000E-03 0. -1.
         11   -1    0    0    0    0 -0.00000000000E+00 -0.00000000000E+00 -0.45593999997E+02  0.45594000000E+02  0.51100000000E-03 0.  1.
    9900012    2    1    2    0    0 -0.12555750353E+02  0.12611541540E+02  0.58294215736E+01  0.72461548045E+02  0.69999971015E+02 0.  0.
        -12    1    1    2    0    0  0.12555750353E+02 -0.12611541540E+02 -0.58294215736E+01  0.18726451955E+02  0.00000000000E+00 0.  1.
         11    1    3    3    0    0  0.35003369087E+01  0.17597083897E+01  0.13270627038E+02  0.13836852039E+02  0.51100000000E-03 0. -1.
        -11    1    3    3    0    0  0.19372664757E+02  0.51603547468E+01  0.49715789571E+01  0.20655410877E+02  0.51100000000E-03 0.  1.
         12    1    3    3    0    0 -0.35428752019E+02  0.56914784037E+01 -0.12412784422E+02  0.37969285129E+02  0.00000000000E+00 0. -1.
</event>
<event>
 7    1  0.3568800E-013  0.7246168E+02  0.7816164E-02  0.1226708E+00
        -11   -1    0    0    0    0  0.00000000000E+00  0.00000000000E+00  0.45593999997E+02  0.45594000000E+02  0.51100000000E-03 0.  1.
         11   -1    0    0    0    0 -0.00000000000E+00 -0.00000000000E+00 -0.45593999997E+02  0.45594000000E+02  0.51100000000E-03 0. -1.
    9900012    2    1    2    0    0  0.10557666051E+02  0.10115631313E+02  0.11699774613E+02  0.72461680680E+02  0.70000143797E+02 0.  0.
        -12    1    1    2    0    0 -0.10557666051E+02 -0.10115631313E+02 -0.11699774613E+02  0.18726319320E+02  0.00000000000E+00 0.  1.
         11    1    3    3    0    0 -0.21469114035E+01  0.20519999075E+02 -0.14767137461E+02  0.25372188311E+02  0.51100000000E-03 0. -1.
        -11    1    3    3    0    0 -0.32043657013E+01 -0.13624340648E+01 -0.76331426092E+01  0.83898183820E+01  0.51100000000E-03 0.  1.
        -12    1    3    3    0    0  0.15908943155E+02 -0.90419336971E+01  0.34100054683E+02  0.38699673987E+02  0.00000000000E+00 0.  1.
</event>
<event>
 7    1  0.3568800E-013  0.7246149E+02  0.7816164E-02  0.1226708E+00
        -11   -1    0    0    0    0  0.00000000000E+00  0.00000000000E+00  0.45593999997E+02  0.45594000000E+02  0.51100000000E-03 0.  1.
         11   -1    0    0    0    0 -0.00000000000E+00 -0.00000000000E+00 -0.45593999997E+02  0.45594000000E+02  0.51100000000E-03 0. -1.
    9900012    2    1    2    0    0 -0.13029329658E+02  0.10353745494E+02 -0.85859631867E+01  0.72461488287E+02  0.69999893170E+02 0.  0.
        -12    1    1    2    0    0  0.13029329658E+02 -0.10353745494E+02  0.85859631867E+01  0.18726511713E+02  0.00000000000E+00 0.  1.
         11    1    3    3    0    0 -0.56296729406E+01 -0.18617324828E+02 -0.16221367697E+02  0.25326483597E+02  0.51100000000E-03 0. -1.
        -11    1    3    3    0    0  0.21112811191E+01  0.13176035709E+02 -0.13572164237E+02  0.19033367209E+02  0.51100000000E-03 0.  1.
        -12    1    3    3    0    0 -0.95109378368E+01  0.15795034613E+02  0.21207568747E+02  0.28101637481E+02  0.00000000000E+00 0.  1.
</event>
<event>
 7    1  0.3568800E-013  0.7246156E+02  0.7816164E-02  0.1226708E+00
        -11   -1    0    0    0    0  0.00000000000E+00  0.00000000000E+00  0.45593999997E+02  0.45594000000E+02  0.51100000000E-03 0.  1.
         11   -1    0    0    0    0 -0.00000000000E+00 -0.00000000000E+00 -0.45593999997E+02  0.45594000000E+02  0.51100000000E-03 0. -1.
    9900012    2    1    2    0    0  0.30362402193E+01  0.18468630880E+02  0.60866485940E+00  0.72461560024E+02  0.69999986621E+02 0.  0.
        -12    1    1    2    0    0 -0.30362402193E+01 -0.18468630880E+02 -0.60866485940E+00  0.18726439976E+02  0.00000000000E+00 0.  1.
         11    1    3    3    0    0 -0.11118104791E+02 -0.90843738641E+01  0.25264792630E+01  0.14578106886E+02  0.51100000000E-03 0.  1.
        -11    1    3    3    0    0 -0.95994587304E+01  0.26590580693E+01 -0.17480281302E+02  0.20119155857E+02  0.51100000000E-03 0. -1.
        -12    1    3    3    0    0  0.23753803741E+02  0.24893946675E+02  0.15562466898E+02  0.37764297282E+02  0.00000000000E+00 0.  1.
</event>
<event>
 7    1  0.3568800E-013  0.7246192E+02  0.7816164E-02  0.1226707E+00
        -11   -1    0    0    0    0  0.00000000000E+00  0.00000000000E+00  0.45593999997E+02  0.45594000000E+02  0.51100000000E-03 0.  1.
         11   -1    0    0    0    0 -0.00000000000E+00 -0.00000000000E+00 -0.45593999997E+02  0.45594000000E+02  0.51100000000E-03 0. -1.
    9900012    2    1    2    0    0  0.85884510515E+01 -0.37425611242E+01 -0.16214128671E+02  0.72461915952E+02  0.70000450281E+02 0.  0.
        -12    1    1    2    0    0 -0.85884510515E+01  0.37425611242E+01  0.16214128671E+02  0.18726084048E+02  0.00000000000E+00 0.  1.
         11    1    3    3    0    0 -0.84289383821E+01 -0.64372181460E+01 -0.39301834003E+01  0.11310664062E+02  0.51100000000E-03 0. -1.
        -11    1    3    3    0    0  0.81069446509E+01 -0.10044914734E+02  0.20866534930E+02  0.24536404460E+02  0.51100000000E-03 0.  1.
         12    1    3    3    0    0  0.89104447826E+01  0.12739571756E+02 -0.33150480200E+02  0.36614847429E+02  0.00000000000E+00 0. -1.
</event>
<event>
 7    1  0.3568800E-013  0.7246156E+02  0.7816164E-02  0.1226708E+00
        -11   -1    0    0    0    0  0.00000000000E+00  0.00000000000E+00  0.45593999997E+02  0.45594000000E+02  0.51100000000E-03 0.  1.
         11   -1    0    0    0    0 -0.00000000000E+00 -0.00000000000E+00 -0.45593999997E+02  0.45594000000E+02  0.51100000000E-03 0. -1.
    9900012    2    1    2    0    0  0.92262854401E+01  0.14076224768E+02 -0.82106708752E+01  0.72461559790E+02  0.69999986316E+02 0.  0.
        -12    1    1    2    0    0 -0.92262854401E+01 -0.14076224768E+02  0.82106708752E+01  0.18726440210E+02  0.00000000000E+00 0.  1.
         11    1    3    3    0    0  0.29928104445E+02  0.84148825840E+01 -0.77795458113E+01  0.32047199844E+02  0.51100000000E-03 0. -1.
        -11    1    3    3    0    0  0.70827024384E+01  0.99270251177E+01 -0.14835562799E+01  0.12284601785E+02  0.51100000000E-03 0.  1.
        -12    1    3    3    0    0 -0.27784521443E+02 -0.42656829342E+01  0.10524312160E+01  0.28129758161E+02  0.00000000000E+00 0.  1.
</event>
<event>
 7    1  0.3568800E-013  0.7246159E+02  0.7816164E-02  0.1226708E+00
        -11   -1    0    0    0    0  0.00000000000E+00  0.00000000000E+00  0.45593999997E+02  0.45594000000E+02  0.51100000000E-03 0.  1.
         11   -1    0    0    0    0 -0.00000000000E+00 -0.00000000000E+00 -0.45593999997E+02  0.45594000000E+02  0.51100000000E-03 0. -1.
    9900012    2    1    2    0    0  0.15182457349E+01  0.17872411424E+02  0.53805530648E+01  0.72461587864E+02  0.70000022888E+02 0.  0.
        -12    1    1    2    0    0 -0.15182457349E+01 -0.17872411424E+02 -0.53805530648E+01  0.18726412136E+02  0.00000000000E+00 0.  1.
         11    1    3    3    0    0 -0.27883954408E+02  0.13045587232E+02  0.85862087948E+01  0.31959744076E+02  0.51100000000E-03 0. -1.
        -11    1    3    3    0    0 -0.49351461527E+01 -0.20424505218E+01 -0.38930342703E-01  0.53412346434E+01  0.51100000000E-03 0.  1.
        -12    1    3    3    0    0  0.34337346296E+02  0.68692747131E+01 -0.31667253873E+01  0.35160609145E+02  0.00000000000E+00 0.  1.
</event>
<event>
 7    1  0.3568800E-013  0.7246157E+02  0.7816164E-02  0.1226708E+00
        -11   -1    0    0    0    0  0.00000000000E+00  0.00000000000E+00  0.45593999997E+02  0.45594000000E+02  0.51100000000E-03 0.  1.
         11   -1    0    0    0    0 -0.00000000000E+00 -0.00000000000E+00 -0.45593999997E+02  0.45594000000E+02  0.51100000000E-03 0. -1.
    9900012    2    1    2    0    0  0.12319763656E+02  0.14076656016E+02  0.86621320438E+00  0.72461570910E+02  0.70000000802E+02 0.  0.
        -12    1    1    2    0    0 -0.12319763656E+02 -0.14076656016E+02 -0.86621320438E+00  0.18726429090E+02  0.00000000000E+00 0.  1.
         11    1    3    3    0    0 -0.15381116462E+02 -0.86682883360E-01 -0.63249802134E+01  0.16631044239E+02  0.51100000000E-03 0. -1.
        -11    1    3    3    0    0  0.63794779402E+01 -0.11583618536E+02 -0.11505014111E+02  0.17528357228E+02  0.51100000000E-03 0.  1.
         12    1    3    3    0    0  0.21321402178E+02  0.25746957435E+02  0.18696207529E+02  0.38302169442E+02  0.00000000000E+00 0. -1.
</event>
<event>
 7    1  0.3568800E-013  0.7246160E+02  0.7816164E-02  0.1226708E+00
        -11   -1    0    0    0    0  0.00000000000E+00  0.00000000000E+00  0.45593999997E+02  0.45594000000E+02  0.51100000000E-03 0.  1.
         11   -1    0    0    0    0 -0.00000000000E+00 -0.00000000000E+00 -0.45593999997E+02  0.45594000000E+02  0.51100000000E-03 0. -1.
    9900012    2    1    2    0    0  0.92455810585E+01  0.15345915454E+02 -0.54497874194E+01  0.72461599568E+02  0.70000038134E+02 0.  0.
        -12    1    1    2    0    0 -0.92455810585E+01 -0.15345915454E+02  0.54497874194E+01  0.18726400432E+02  0.00000000000E+00 0.  1.
         11    1    3    3    0    0  0.12844146257E+02 -0.22182182883E+02  0.29116428227E+01  0.25797267195E+02  0.51100000000E-03 0. -1.
        -11    1    3    3    0    0  0.25563552757E+01  0.28502681495E+02  0.53709004528E+01  0.29116737053E+02  0.51100000000E-03 0.  1.
        -12    1    3    3    0    0 -0.61549204739E+01  0.90254168422E+01 -0.13732330695E+02  0.17547595320E+02  0.00000000000E+00 0.  1.
</event>
<event>
 7    1  0.3568800E-013  0.7246156E+02  0.7816164E-02  0.1226708E+00
        -11   -1    0    0    0    0  0.00000000000E+00  0.00000000000E+00  0.45593999997E+02  0.45594000000E+02  0.51100000000E-03 0.  1.
         11   -1    0    0    0    0 -0.00000000000E+00 -0.00000000000E+00 -0.45593999997E+02  0.45594000000E+02  0.51100000000E-03 0. -1.
    9900012    2    1    2    0    0  0.15779164597E+02 -0.10081838257E+02 -0.23279367888E+00  0.72461556373E+02  0.69999981865E+02 0.  0.
        -12    1    1    2    0    0 -0.15779164597E+02  0.10081838257E+02  0.23279367888E+00  0.18726443627E+02  0.00000000000E+00 0.  1.
         11    1    3    3    0    0 -0.68625720775E+01 -0.69154026888E+01  0.25156381890E+02  0.26977050245E+02  0.51100000000E-03 0. -1.
        -11    1    3    3    0    0  0.39496601184E+01 -0.36129724215E+01  0.65597228258E+01  0.84666019501E+01  0.51100000000E-03 0.  1.
         12    1    3    3    0    0  0.18692076556E+02  0.44653685292E+00 -0.31948898394E+02  0.37017904178E+02  0.00000000000E+00 0. -1.
</event>
<event>
 7    1  0.3568800E-013  0.7246147E+02  0.7816164E-02  0.1226708E+00
        -11   -1    0    0    0    0  0.00000000000E+00  0.00000000000E+00  0.45593999997E+02  0.45594000000E+02  0.51100000000E-03 0. -1.
         11   -1    0    0    0    0 -0.00000000000E+00 -0.00000000000E+00 -0.45593999997E+02  0.45594000000E+02  0.51100000000E-03 0.  1.
    9900012    2    1    2    0    0  0.12194298214E+02 -0.75297345316E+01  0.12053430487E+02  0.72461468085E+02  0.69999866853E+02 0.  0.
        -12    1    1    2    0    0 -0.12194298214E+02  0.75297345316E+01 -0.12053430487E+02  0.18726531915E+02  0.00000000000E+00 0.  1.
         11    1    3    3    0    0  0.28246071833E+01  0.45396231798E+01  0.56346522370E+01  0.77676180678E+01  0.51100000000E-03 0. -1.
        -11    1    3    3    0    0  0.18997416064E+02  0.10248223037E+02 -0.19551638079E+02  0.29123777989E+02  0.51100000000E-03 0.  1.
        -12    1    3    3    0    0 -0.96277250333E+01 -0.22317580749E+02  0.25970416329E+02  0.35570072028E+02  0.00000000000E+00 0.  1.
</event>
<event>
 7    1  0.3568800E-013  0.7246159E+02  0.7816164E-02  0.1226708E+00
        -11   -1    0    0    0    0  0.00000000000E+00  0.00000000000E+00  0.45593999997E+02  0.45594000000E+02  0.51100000000E-03 0.  1.
         11   -1    0    0    0    0 -0.00000000000E+00 -0.00000000000E+00 -0.45593999997E+02  0.45594000000E+02  0.51100000000E-03 0. -1.
    9900012    2    1    2    0    0 -0.16417986606E+01 -0.17193732554E+02 -0.72359245914E+01  0.72461586924E+02  0.70000021663E+02 0.  0.
        -12    1    1    2    0    0  0.16417986606E+01  0.17193732554E+02  0.72359245914E+01  0.18726413076E+02  0.00000000000E+00 0.  1.
         11    1    3    3    0    0  0.11039264113E+02 -0.67833602394E+01 -0.19073003166E+01  0.13096454599E+02  0.51100000000E-03 0. -1.
        -11    1    3    3    0    0  0.20668402579E+02  0.33938449806E+01  0.55496045415E+01  0.21667929291E+02  0.51100000000E-03 0.  1.
         12    1    3    3    0    0 -0.33349465353E+02 -0.13804217296E+02 -0.10878228816E+02  0.37697203035E+02  0.00000000000E+00 0. -1.
</event>
<event>
 7    1  0.3568800E-013  0.7246160E+02  0.7816164E-02  0.1226708E+00
        -11   -1    0    0    0    0  0.00000000000E+00  0.00000000000E+00  0.45593999997E+02  0.45594000000E+02  0.51100000000E-03 0.  1.
         11   -1    0    0    0    0 -0.00000000000E+00 -0.00000000000E+00 -0.45593999997E+02  0.45594000000E+02  0.51100000000E-03 0. -1.
    9900012    2    1    2    0    0 -0.13313469719E+02 -0.21090793331E+01 -0.12999285857E+02  0.72461598199E+02  0.70000036351E+02 0.  0.
        -12    1    1    2    0    0  0.13313469719E+02  0.21090793331E+01  0.12999285857E+02  0.18726401801E+02  0.00000000000E+00 0.  1.
         11    1    3    3    0    0  0.81740112452E+01 -0.97871170239E+01  0.19071615556E-01  0.12751567883E+02  0.51100000000E-03 0. -1.
        -11    1    3    3    0    0  0.52870639053E+01 -0.11824186312E+02  0.12419998603E+02  0.17944937788E+02  0.51100000000E-03 0.  1.
         12    1    3    3    0    0 -0.26774544870E+02  0.19502224002E+02 -0.25438356076E+02  0.41765092528E+02  0.00000000000E+00 0. -1.
</event>
<event>
 7    1  0.3568800E-013  0.7246157E+02  0.7816164E-02  0.1226708E+00
        -11   -1    0    0    0    0  0.00000000000E+00  0.00000000000E+00  0.45593999997E+02  0.45594000000E+02  0.51100000000E-03 0. -1.
         11   -1    0    0    0    0 -0.00000000000E+00 -0.00000000000E+00 -0.45593999997E+02  0.45594000000E+02  0.51100000000E-03 0.  1.
    9900012    2    1    2    0    0  0.16924350799E+02  0.19867138660E+01 -0.77652088532E+01  0.72461570802E+02  0.70000000662E+02 0.  0.
        -12    1    1    2    0    0 -0.16924350799E+02 -0.19867138660E+01  0.77652088532E+01  0.18726429198E+02  0.00000000000E+00 0.  1.
         11    1    3    3    0    0 -0.12143400678E+02 -0.11333219326E+02 -0.29860436252E+01  0.16876625762E+02  0.51100000000E-03 0. -1.
        -11    1    3    3    0    0  0.85315380778E+01  0.28556736974E+02 -0.22483656588E+01  0.29888618519E+02  0.51100000000E-03 0.  1.
         12    1    3    3    0    0  0.20536213399E+02 -0.15236803782E+02 -0.25307995693E+01  0.25696326522E+02  0.00000000000E+00 0. -1.
</event>
<event>
 7    1  0.3568800E-013  0.7246154E+02  0.7816164E-02  0.1226708E+00
        -11   -1    0    0    0    0  0.00000000000E+00  0.00000000000E+00  0.45593999997E+02  0.45594000000E+02  0.51100000000E-03 0. -1.
         11   -1    0    0    0    0 -0.00000000000E+00 -0.00000000000E+00 -0.45593999997E+02  0.45594000000E+02  0.51100000000E-03 0.  1.
    9900012    2    1    2    0    0  0.18587893306E+02  0.19434549882E+01  0.11805380738E+01  0.72461535705E+02  0.69999954941E+02 0.  0.
        -12    1    1    2    0    0 -0.18587893306E+02 -0.19434549882E+01 -0.11805380738E+01  0.18726464295E+02  0.00000000000E+00 0.  1.
         11    1    3    3    0    0  0.91123428402E+00  0.61973282513E+01  0.35945683926E+01  0.72220597869E+01  0.51100000000E-03 0. -1.
        -11    1    3    3    0    0 -0.16171857054E+02  0.17596868588E+02  0.46188337515E+01  0.24341576986E+02  0.51100000000E-03 0.  1.
         12    1    3    3    0    0  0.33848516076E+02 -0.21850741851E+02 -0.70328640703E+01  0.40897898932E+02  0.00000000000E+00 0. -1.
</event>
<event>
 7    1  0.3568800E-013  0.7246161E+02  0.7816164E-02  0.1226708E+00
        -11   -1    0    0    0    0  0.00000000000E+00  0.00000000000E+00  0.45593999997E+02  0.45594000000E+02  0.51100000000E-03 0.  1.
         11   -1    0    0    0    0 -0.00000000000E+00 -0.00000000000E+00 -0.45593999997E+02  0.45594000000E+02  0.51100000000E-03 0. -1.
    9900012    2    1    2    0    0 -0.60803295994E+01  0.13081623356E+02 -0.11940626685E+02  0.72461605705E+02  0.70000046129E+02 0.  0.
        -12    1    1    2    0    0  0.60803295994E+01 -0.13081623356E+02  0.11940626685E+02  0.18726394295E+02  0.00000000000E+00 0.  1.
         11    1    3    3    0    0  0.17776076002E+02 -0.10853817755E+02 -0.43863413732E+01  0.21284600743E+02  0.51100000000E-03 0. -1.
        -11    1    3    3    0    0  0.49931667597E+01  0.19845032558E+02 -0.81653909922E+01  0.22032490595E+02  0.51100000000E-03 0.  1.
         12    1    3    3    0    0 -0.28849572361E+02  0.40904085532E+01  0.61110568078E+00  0.29144514367E+02  0.00000000000E+00 0. -1.
</event>
<event>
 7    1  0.3568800E-013  0.7246148E+02  0.7816164E-02  0.1226708E+00
        -11   -1    0    0    0    0  0.00000000000E+00  0.00000000000E+00  0.45593999997E+02  0.45594000000E+02  0.51100000000E-03 0. -1.
         11   -1    0    0    0    0 -0.00000000000E+00 -0.00000000000E+00 -0.45593999997E+02  0.45594000000E+02  0.51100000000E-03 0.  1.
    9900012    2    1    2    0    0  0.92542498070E+01 -0.27024437923E+01  0.16054221431E+02  0.72461484903E+02  0.69999888761E+02 0.  0.
        -12    1    1    2    0    0 -0.92542498070E+01  0.27024437923E+01 -0.16054221431E+02  0.18726515097E+02  0.00000000000E+00 0.  1.
         11    1    3    3    0    0  0.23128172729E+00 -0.20817188629E+02  0.19826890275E+01  0.20912672945E+02  0.51100000000E-03 0. -1.
        -11    1    3    3    0    0 -0.25122344450E+01 -0.11212964395E+02 -0.71694818986E+01  0.13544126527E+02  0.51100000000E-03 0.  1.
        -12    1    3    3    0    0  0.11535202525E+02  0.29327709232E+02  0.21241014302E+02  0.38004685430E+02  0.00000000000E+00 0.  1.
</event>
<event>
 7    1  0.3568800E-013  0.7246153E+02  0.7816164E-02  0.1226708E+00
        -11   -1    0    0    0    0  0.00000000000E+00  0.00000000000E+00  0.45593999997E+02  0.45594000000E+02  0.51100000000E-03 0.  1.
         11   -1    0    0    0    0 -0.00000000000E+00 -0.00000000000E+00 -0.45593999997E+02  0.45594000000E+02  0.51100000000E-03 0. -1.
    9900012    2    1    2    0    0  0.38848251544E+00  0.14423251129E+02  0.11937314186E+02  0.72461533121E+02  0.69999951575E+02 0.  0.
        -12    1    1    2    0    0 -0.38848251544E+00 -0.14423251129E+02 -0.11937314186E+02  0.18726466879E+02  0.00000000000E+00 0.  1.
         11    1    3    3    0    0  0.39502251205E+01 -0.17991294693E+02  0.15174396698E+02  0.23865315390E+02  0.51100000000E-03 0. -1.
        -11    1    3    3    0    0 -0.90749626277E+01 -0.50479892398E+01  0.12743755272E+01  0.10462369488E+02  0.51100000000E-03 0.  1.
        -12    1    3    3    0    0  0.55132200226E+01  0.37462535061E+02 -0.45114580396E+01  0.38133848244E+02  0.00000000000E+00 0.  1.
</event>
<event>
 7    1  0.3568800E-013  0.7246158E+02  0.7816164E-02  0.1226708E+00
        -11   -1    0    0    0    0  0.00000000000E+00  0.00000000000E+00  0.45593999997E+02  0.45594000000E+02  0.51100000000E-03 0.  1.
         11   -1    0    0    0    0 -0.00000000000E+00 -0.00000000000E+00 -0.45593999997E+02  0.45594000000E+02  0.51100000000E-03 0. -1.
    9900012    2    1    2    0    0 -0.58199464902E+00 -0.18151748683E+02 -0.45666424302E+01  0.72461576927E+02  0.70000008640E+02 0.  0.
        -12    1    1    2    0    0  0.58199464902E+00  0.18151748683E+02  0.45666424302E+01  0.18726423073E+02  0.00000000000E+00 0.  1.
         11    1    3    3    0    0 -0.97043926375E+01 -0.84471623642E+01 -0.63200068404E+00  0.12881351389E+02  0.51100000000E-03 0. -1.
        -11    1    3    3    0    0 -0.38545920000E+01 -0.23240961462E+02  0.18778180748E+02  0.30126736325E+02  0.51100000000E-03 0.  1.
         12    1    3    3    0    0  0.12976989988E+02  0.13536375143E+02 -0.22712822494E+02  0.29453489213E+02  0.00000000000E+00 0. -1.
</event>
<event>
 7    1  0.3568800E-013  0.7246156E+02  0.7816164E-02  0.1226708E+00
        -11   -1    0    0    0    0  0.00000000000E+00  0.00000000000E+00  0.45593999997E+02  0.45594000000E+02  0.51100000000E-03 0. -1.
         11   -1    0    0    0    0 -0.00000000000E+00 -0.00000000000E+00 -0.45593999997E+02  0.45594000000E+02  0.51100000000E-03 0.  1.
    9900012    2    1    2    0    0 -0.16948776389E+02  0.78740560528E+01 -0.11907038219E+01  0.72461559992E+02  0.69999986579E+02 0.  0.
        -12    1    1    2    0    0  0.16948776389E+02 -0.78740560528E+01  0.11907038219E+01  0.18726440008E+02  0.00000000000E+00 0.  1.
         11    1    3    3    0    0 -0.28568049968E+02  0.16735489206E+02  0.37755200984E+01  0.33323634709E+02  0.51100000000E-03 0. -1.
        -11    1    3    3    0    0  0.24587884241E+01  0.17894367964E+00 -0.19539899716E+02  0.19694804963E+02  0.51100000000E-03 0.  1.
        -12    1    3    3    0    0  0.91604851549E+01 -0.90403768332E+01  0.14573675796E+02  0.19443120320E+02  0.00000000000E+00 0.  1.
</event>
<event>
 7    1  0.3568800E-013  0.7246157E+02  0.7816164E-02  0.1226708E+00
        -11   -1    0    0    0    0  0.00000000000E+00  0.00000000000E+00  0.45593999997E+02  0.45594000000E+02  0.51100000000E-03 0.  1.
         11   -1    0    0    0    0 -0.00000000000E+00 -0.00000000000E+00 -0.45593999997E+02  0.45594000000E+02  0.51100000000E-03 0. -1.
    9900012    2    1    2    0    0  0.85726289843E+00  0.12961225095E+02 -0.13488922763E+02  0.72461566999E+02  0.69999995708E+02 0.  0.
        -12    1    1    2    0    0 -0.85726289843E+00 -0.12961225095E+02  0.13488922763E+02  0.18726433001E+02  0.00000000000E+00 0.  1.
         11    1    3    3    0    0  0.76199721120E+01  0.13824635972E+02 -0.23136016600E+02  0.28008209495E+02  0.51100000000E-03 0. -1.
        -11    1    3    3    0    0  0.98700704308E+00  0.15417971757E+02 -0.95123915051E+01  0.18143142738E+02  0.51100000000E-03 0.  1.
        -12    1    3    3    0    0 -0.77497162567E+01 -0.16281382633E+02  0.19159485342E+02  0.26310214767E+02  0.00000000000E+00 0.  1.
</event>
<event>
 7    1  0.3568800E-013  0.7246152E+02  0.7816164E-02  0.1226708E+00
        -11   -1    0    0    0    0  0.00000000000E+00  0.00000000000E+00  0.45593999997E+02  0.45594000000E+02  0.51100000000E-03 0.  1.
         11   -1    0    0    0    0 -0.00000000000E+00 -0.00000000000E+00 -0.45593999997E+02  0.45594000000E+02  0.51100000000E-03 0. -1.
    9900012    2    1    2    0    0  0.18296288324E+02 -0.39138163780E-01  0.39906779536E+01  0.72461515846E+02  0.69999929071E+02 0.  0.
        -12    1    1    2    0    0 -0.18296288324E+02  0.39138163780E-01 -0.39906779536E+01  0.18726484154E+02  0.00000000000E+00 0.  1.
         11    1    3    3    0    0 -0.54699703370E+01  0.22619616769E+02  0.59190276174E+01  0.24012549353E+02  0.51100000000E-03 0. -1.
        -11    1    3    3    0    0 -0.32138372394E+01 -0.51207212305E+01  0.11959463603E+02  0.13400720341E+02  0.51100000000E-03 0.  1.
        -12    1    3    3    0    0  0.26980095901E+02 -0.17538033702E+02 -0.13887813267E+02  0.35048246151E+02  0.00000000000E+00 0.  1.
</event>
<event>
 7    1  0.3568800E-013  0.7246161E+02  0.7816164E-02  0.1226708E+00
        -11   -1    0    0    0    0  0.00000000000E+00  0.00000000000E+00  0.45593999997E+02  0.45594000000E+02  0.51100000000E-03 0.  1.
         11   -1    0    0    0    0 -0.00000000000E+00 -0.00000000000E+00 -0.45593999997E+02  0.45594000000E+02  0.51100000000E-03 0. -1.
    9900012    2    1    2    0    0  0.21207801777E+01 -0.10162403747E+02 -0.15585430626E+02  0.72461606694E+02  0.70000047417E+02 0.  0.
        -12    1    1    2    0    0 -0.21207801777E+01  0.10162403747E+02  0.15585430626E+02  0.18726393306E+02  0.00000000000E+00 0.  1.
         11    1    3    3    0    0 -0.84153452275E+01  0.88508689657E+01  0.67165817916E+01  0.13938019514E+02  0.51100000000E-03 0. -1.
        -11    1    3    3    0    0  0.14354699332E+02 -0.57883550500E+01  0.13265888556E+02  0.20384951472E+02  0.51100000000E-03 0.  1.
         12    1    3    3    0    0 -0.38185739266E+01 -0.13224917662E+02 -0.35567900973E+02  0.38138635708E+02  0.00000000000E+00 0. -1.
</event>
<event>
 7    1  0.3568800E-013  0.7246152E+02  0.7816164E-02  0.1226708E+00
        -11   -1    0    0    0    0  0.00000000000E+00  0.00000000000E+00  0.45593999997E+02  0.45594000000E+02  0.51100000000E-03 0. -1.
         11   -1    0    0    0    0 -0.00000000000E+00 -0.00000000000E+00 -0.45593999997E+02  0.45594000000E+02  0.51100000000E-03 0.  1.
    9900012    2    1    2    0    0 -0.57037286741E+00 -0.17835452513E+02  0.56791138285E+01  0.72461520741E+02  0.69999935448E+02 0.  0.
        -12    1    1    2    0    0  0.57037286741E+00  0.17835452513E+02 -0.56791138285E+01  0.18726479259E+02  0.00000000000E+00 0.  1.
         11    1    3    3    0    0 -0.25911038278E+02 -0.41015795475E+01  0.21707403374E+02  0.34050201482E+02  0.51100000000E-03 0. -1.
        -11    1    3    3    0    0  0.11543482331E+02  0.39128068356E-01  0.21660537937E+01  0.11745011904E+02  0.51100000000E-03 0.  1.
        -12    1    3    3    0    0  0.13797183080E+02 -0.13773001034E+02 -0.18194343339E+02  0.26666307355E+02  0.00000000000E+00 0.  1.
</event>
<event>
 7    1  0.3568800E-013  0.7246160E+02  0.7816164E-02  0.1226708E+00
        -11   -1    0    0    0    0  0.00000000000E+00  0.00000000000E+00  0.45593999997E+02  0.45594000000E+02  0.51100000000E-03 0. -1.
         11   -1    0    0    0    0 -0.00000000000E+00 -0.00000000000E+00 -0.45593999997E+02  0.45594000000E+02  0.51100000000E-03 0.  1.
    9900012    2    1    2    0    0 -0.42677261729E+01  0.60009562713E+01  0.17217815236E+02  0.72461598201E+02  0.70000036353E+02 0.  0.
        -12    1    1    2    0    0  0.42677261729E+01 -0.60009562713E+01 -0.17217815236E+02  0.18726401799E+02  0.00000000000E+00 0.  1.
         11    1    3    3    0    0 -0.20615790147E+02  0.29367763275E+01  0.17979715668E+02  0.27511918042E+02  0.51100000000E-03 0. -1.
        -11    1    3    3    0    0  0.15673561322E+01  0.21314002719E+02  0.10338623949E+01  0.21396546190E+02  0.51100000000E-03 0.  1.
        -12    1    3    3    0    0  0.14780707842E+02 -0.18249822775E+02 -0.17957628273E+01  0.23553133969E+02  0.00000000000E+00 0.  1.
</event>
<event>
 7    1  0.3568800E-013  0.7246161E+02  0.7816164E-02  0.1226708E+00
        -11   -1    0    0    0    0  0.00000000000E+00  0.00000000000E+00  0.45593999997E+02  0.45594000000E+02  0.51100000000E-03 0.  1.
         11   -1    0    0    0    0 -0.00000000000E+00 -0.00000000000E+00 -0.45593999997E+02  0.45594000000E+02  0.51100000000E-03 0. -1.
    9900012    2    1    2    0    0 -0.28096857335E+01  0.57559101303E+01 -0.17596950952E+02  0.72461614386E+02  0.70000057437E+02 0.  0.
        -12    1    1    2    0    0  0.28096857335E+01 -0.57559101303E+01  0.17596950952E+02  0.18726385614E+02  0.00000000000E+00 0.  1.
         11    1    3    3    0    0  0.23467600054E+02 -0.13313798004E+02 -0.23225295104E+02  0.35600559020E+02  0.51100000000E-03 0. -1.
        -11    1    3    3    0    0 -0.46859693757E+01 -0.23585258797E+01 -0.18023359261E+01  0.55470143652E+01  0.51100000000E-03 0.  1.
        -12    1    3    3    0    0 -0.21591316412E+02  0.21428234014E+02  0.74306800781E+01  0.31314041001E+02  0.00000000000E+00 0.  1.
</event>
<event>
 7    1  0.3568800E-013  0.7246158E+02  0.7816164E-02  0.1226708E+00
        -11   -1    0    0    0    0  0.00000000000E+00  0.00000000000E+00  0.45593999997E+02  0.45594000000E+02  0.51100000000E-03 0.  1.
         11   -1    0    0    0    0 -0.00000000000E+00 -0.00000000000E+00 -0.45593999997E+02  0.45594000000E+02  0.51100000000E-03 0. -1.
    9900012    2    1    2    0    0  0.10057070234E+02 -0.15581861924E+02 -0.25961008508E+01  0.72461579564E+02  0.70000012076E+02 0.  0.
        -12    1    1    2    0    0 -0.10057070234E+02  0.15581861924E+02  0.25961008508E+01  0.18726420436E+02  0.00000000000E+00 0.  1.
         11    1    3    3    0    0 -0.86428384901E+00  0.61922488756E+01  0.89385947708E+01  0.10908226687E+02  0.51100000000E-03 0. -1.
        -11    1    3    3    0    0 -0.75920476571E+01 -0.34551085666E+02  0.17686256724E+01  0.35419553150E+02  0.51100000000E-03 0.  1.
         12    1    3    3    0    0  0.18513401740E+02  0.12776974866E+02 -0.13303321294E+02  0.26133799727E+02  0.00000000000E+00 0. -1.
</event>
<event>
 7    1  0.3568800E-013  0.7246156E+02  0.7816164E-02  0.1226708E+00
        -11   -1    0    0    0    0  0.00000000000E+00  0.00000000000E+00  0.45593999997E+02  0.45594000000E+02  0.51100000000E-03 0.  1.
         11   -1    0    0    0    0 -0.00000000000E+00 -0.00000000000E+00 -0.45593999997E+02  0.45594000000E+02  0.51100000000E-03 0. -1.
    9900012    2    1    2    0    0 -0.11545334067E+02  0.34193493802E+01 -0.14341993902E+02  0.72461562058E+02  0.69999989270E+02 0.  0.
        -12    1    1    2    0    0  0.11545334067E+02 -0.34193493802E+01  0.14341993902E+02  0.18726437942E+02  0.00000000000E+00 0.  1.
         11    1    3    3    0    0 -0.22818915340E+02 -0.23701005015E+02 -0.15572586148E+01  0.32937297865E+02  0.51100000000E-03 0. -1.
        -11    1    3    3    0    0 -0.54046721671E+01  0.58342862370E+01  0.26558693483E+01  0.83846895819E+01  0.51100000000E-03 0.  1.
        -12    1    3    3    0    0  0.16678253440E+02  0.21286068158E+02 -0.15440604636E+02  0.31139574611E+02  0.00000000000E+00 0.  1.
</event>
<event>
 7    1  0.3568800E-013  0.7246154E+02  0.7816164E-02  0.1226708E+00
        -11   -1    0    0    0    0  0.00000000000E+00  0.00000000000E+00  0.45593999997E+02  0.45594000000E+02  0.51100000000E-03 0.  1.
         11   -1    0    0    0    0 -0.00000000000E+00 -0.00000000000E+00 -0.45593999997E+02  0.45594000000E+02  0.51100000000E-03 0. -1.
    9900012    2    1    2    0    0  0.52008573076E+01 -0.86805329679E+01 -0.15756896830E+02  0.72461538320E+02  0.69999958348E+02 0.  0.
        -12    1    1    2    0    0 -0.52008573076E+01  0.86805329679E+01  0.15756896830E+02  0.18726461680E+02  0.00000000000E+00 0.  1.
         11    1    3    3    0    0 -0.28366698505E+01 -0.10018299348E+02 -0.27709691716E+02  0.29601351876E+02  0.51100000000E-03 0. -1.
        -11    1    3    3    0    0 -0.16369970211E+02 -0.49009253333E-01  0.21067910664E+01  0.16505056664E+02  0.51100000000E-03 0.  1.
        -12    1    3    3    0    0  0.24407497369E+02  0.13867756334E+01  0.98460038197E+01  0.26355129780E+02  0.00000000000E+00 0.  1.
</event>
<event>
 7    1  0.3568800E-013  0.7246149E+02  0.7816164E-02  0.1226708E+00
        -11   -1    0    0    0    0  0.00000000000E+00  0.00000000000E+00  0.45593999997E+02  0.45594000000E+02  0.51100000000E-03 0.  1.
         11   -1    0    0    0    0 -0.00000000000E+00 -0.00000000000E+00 -0.45593999997E+02  0.45594000000E+02  0.51100000000E-03 0. -1.
    9900012    2    1    2    0    0 -0.28138077129E+01  0.64154946760E+00 -0.18502783341E+02  0.72461492292E+02  0.69999898387E+02 0.  0.
        -12    1    1    2    0    0  0.28138077129E+01 -0.64154946760E+00  0.18502783341E+02  0.18726507708E+02  0.00000000000E+00 0.  1.
         11    1    3    3    0    0  0.15072899666E+02 -0.29702320479E+01 -0.15727410303E+02  0.21985586593E+02  0.51100000000E-03 0. -1.
        -11    1    3    3    0    0  0.11737172884E+02 -0.11935738777E+02  0.12094303998E+01  0.16783498134E+02  0.51100000000E-03 0.  1.
        -12    1    3    3    0    0 -0.29623880263E+02  0.15547520292E+02 -0.39848034380E+01  0.33692407565E+02  0.00000000000E+00 0.  1.
</event>
<event>
 7    1  0.3568800E-013  0.7246157E+02  0.7816164E-02  0.1226708E+00
        -11   -1    0    0    0    0  0.00000000000E+00  0.00000000000E+00  0.45593999997E+02  0.45594000000E+02  0.51100000000E-03 0.  1.
         11   -1    0    0    0    0 -0.00000000000E+00 -0.00000000000E+00 -0.45593999997E+02  0.45594000000E+02  0.51100000000E-03 0. -1.
    9900012    2    1    2    0    0  0.47597558384E+01  0.14035486013E+02 -0.11446788402E+02  0.72461571937E+02  0.70000002140E+02 0.  0.
        -12    1    1    2    0    0 -0.47597558384E+01 -0.14035486013E+02  0.11446788402E+02  0.18726428063E+02  0.00000000000E+00 0.  1.
         11    1    3    3    0    0  0.24272814228E+01 -0.22714116907E+02 -0.10014225798E+02  0.24942083324E+02  0.51100000000E-03 0. -1.
        -11    1    3    3    0    0  0.47898075403E+01 -0.41388039518E+01  0.13145570434E+01  0.64652931029E+01  0.51100000000E-03 0.  1.
        -12    1    3    3    0    0 -0.24573331247E+01  0.40888406872E+02 -0.27471196475E+01  0.41054195510E+02  0.00000000000E+00 0.  1.
</event>
<event>
 7    1  0.3568800E-013  0.7246160E+02  0.7816164E-02  0.1226708E+00
        -11   -1    0    0    0    0  0.00000000000E+00  0.00000000000E+00  0.45593999997E+02  0.45594000000E+02  0.51100000000E-03 0. -1.
         11   -1    0    0    0    0 -0.00000000000E+00 -0.00000000000E+00 -0.45593999997E+02  0.45594000000E+02  0.51100000000E-03 0.  1.
    9900012    2    1    2    0    0  0.18141934947E+01  0.16884366235E+02  0.78933369422E+01  0.72461604478E+02  0.70000044530E+02 0.  0.
        -12    1    1    2    0    0 -0.18141934947E+01 -0.16884366235E+02 -0.78933369422E+01  0.18726395522E+02  0.00000000000E+00 0.  1.
         11    1    3    3    0    0 -0.10065154580E+02 -0.10741001810E+02  0.84429813419E+01  0.16969395711E+02  0.51100000000E-03 0. -1.
        -11    1    3    3    0    0 -0.27916850359E+01 -0.41765246202E+01 -0.16325001588E+02  0.17080472487E+02  0.51100000000E-03 0.  1.
         12    1    3    3    0    0  0.14671033111E+02  0.31801892665E+02  0.15775357189E+02  0.38411736280E+02  0.00000000000E+00 0. -1.
</event>
<event>
 7    1  0.3568800E-013  0.7246154E+02  0.7816164E-02  0.1226708E+00
        -11   -1    0    0    0    0  0.00000000000E+00  0.00000000000E+00  0.45593999997E+02  0.45594000000E+02  0.51100000000E-03 0.  1.
         11   -1    0    0    0    0 -0.00000000000E+00 -0.00000000000E+00 -0.45593999997E+02  0.45594000000E+02  0.51100000000E-03 0. -1.
    9900012    2    1    2    0    0 -0.16231278633E+00 -0.56234031067E+01 -0.17861443132E+02  0.72461543883E+02  0.69999965595E+02 0.  0.
        -12    1    1    2    0    0  0.16231278633E+00  0.56234031067E+01  0.17861443132E+02  0.18726456117E+02  0.00000000000E+00 0.  1.
         11    1    3    3    0    0  0.17835699643E+02  0.78935444662E+01  0.56073566192E+01  0.20294400077E+02  0.51100000000E-03 0. -1.
        -11    1    3    3    0    0  0.12870893146E+02 -0.41342347918E+01 -0.26670226401E+01  0.13779143577E+02  0.51100000000E-03 0.  1.
        -12    1    3    3    0    0 -0.30868905576E+02 -0.93827127811E+01 -0.20801777111E+02  0.38388000228E+02  0.00000000000E+00 0.  1.
</event>
<event>
 7    1  0.3568800E-013  0.7246159E+02  0.7816164E-02  0.1226708E+00
        -11   -1    0    0    0    0  0.00000000000E+00  0.00000000000E+00  0.45593999997E+02  0.45594000000E+02  0.51100000000E-03 0.  1.
         11   -1    0    0    0    0 -0.00000000000E+00 -0.00000000000E+00 -0.45593999997E+02  0.45594000000E+02  0.51100000000E-03 0. -1.
    9900012    2    1    2    0    0  0.15150879793E+02 -0.95896060744E+01 -0.54008162391E+01  0.72461587658E+02  0.70000022619E+02 0.  0.
        -12    1    1    2    0    0 -0.15150879793E+02  0.95896060744E+01  0.54008162391E+01  0.18726412342E+02  0.00000000000E+00 0.  1.
         11    1    3    3    0    0  0.52499351115E+01 -0.80983621365E+01 -0.38404823497E+01  0.10387232206E+02  0.51100000000E-03 0. -1.
        -11    1    3    3    0    0  0.12499871042E+02 -0.29846817314E+02  0.52883263906E+01  0.32787889168E+02  0.51100000000E-03 0.  1.
         12    1    3    3    0    0 -0.25989263600E+01  0.28355573376E+02 -0.68486602800E+01  0.29286466283E+02  0.00000000000E+00 0. -1.
</event>
<event>
 7    1  0.3568800E-013  0.7246163E+02  0.7816164E-02  0.1226708E+00
        -11   -1    0    0    0    0  0.00000000000E+00  0.00000000000E+00  0.45593999997E+02  0.45594000000E+02  0.51100000000E-03 0. -1.
         11   -1    0    0    0    0 -0.00000000000E+00 -0.00000000000E+00 -0.45593999997E+02  0.45594000000E+02  0.51100000000E-03 0.  1.
    9900012    2    1    2    0    0  0.85986559635E+01 -0.14687222841E+02  0.78118934007E+01  0.72461626147E+02  0.70000072759E+02 0.  0.
        -12    1    1    2    0    0 -0.85986559635E+01  0.14687222841E+02 -0.78118934007E+01  0.18726373853E+02  0.00000000000E+00 0.  1.
         11    1    3    3    0    0  0.23429309984E+02  0.10251578749E+02  0.18061993760E+02  0.31309152847E+02  0.51100000000E-03 0. -1.
        -11    1    3    3    0    0  0.49611897396E+01 -0.12824400739E+02 -0.11482887485E+02  0.17914668939E+02  0.51100000000E-03 0.  1.
        -12    1    3    3    0    0 -0.19791843760E+02 -0.12114400852E+02  0.12327871261E+01  0.23237804361E+02  0.00000000000E+00 0.  1.
</event>
<event>
 7    1  0.3568800E-013  0.7246140E+02  0.7816164E-02  0.1226708E+00
        -11   -1    0    0    0    0  0.00000000000E+00  0.00000000000E+00  0.45593999997E+02  0.45594000000E+02  0.51100000000E-03 0. -1.
         11   -1    0    0    0    0 -0.00000000000E+00 -0.00000000000E+00 -0.45593999997E+02  0.45594000000E+02  0.51100000000E-03 0.  1.
    9900012    2    1    2    0    0  0.18126315337E+02 -0.53325702106E+00 -0.46731050305E+01  0.72461399097E+02  0.69999776983E+02 0.  0.
        -12    1    1    2    0    0 -0.18126315337E+02  0.53325702106E+00  0.46731050305E+01  0.18726600903E+02  0.00000000000E+00 0.  1.
         11    1    3    3    0    0  0.21699102686E+02  0.13883714186E+01  0.23726615055E+01  0.21872543415E+02  0.51100000000E-03 0. -1.
        -11    1    3    3    0    0  0.28639133997E+01 -0.13634256657E+02 -0.24752868867E+02  0.28404215743E+02  0.51100000000E-03 0.  1.
         12    1    3    3    0    0 -0.64367007479E+01  0.11712628218E+02  0.17707102331E+02  0.22184639939E+02  0.00000000000E+00 0. -1.
</event>
<event>
 7    1  0.3568800E-013  0.7246159E+02  0.7816164E-02  0.1226708E+00
        -11   -1    0    0    0    0  0.00000000000E+00  0.00000000000E+00  0.45593999997E+02  0.45594000000E+02  0.51100000000E-03 0.  1.
         11   -1    0    0    0    0 -0.00000000000E+00 -0.00000000000E+00 -0.45593999997E+02  0.45594000000E+02  0.51100000000E-03 0. -1.
    9900012    2    1    2    0    0 -0.95956299679E+01 -0.13194846992E+02 -0.91923016861E+01  0.72461587852E+02  0.70000022873E+02 0.  0.
        -12    1    1    2    0    0  0.95956299679E+01  0.13194846992E+02  0.91923016861E+01  0.18726412148E+02  0.00000000000E+00 0.  1.
         11    1    3    3    0    0  0.24859216848E+02 -0.58386936953E-01  0.25602403998E+01  0.24990776348E+02  0.51100000000E-03 0. -1.
        -11    1    3    3    0    0 -0.57295591798E+01 -0.14218890215E+02  0.22533504706E+01  0.15494588602E+02  0.51100000000E-03 0.  1.
        -12    1    3    3    0    0 -0.28725287636E+02  0.10824301593E+01 -0.14005892557E+02  0.31976222902E+02  0.00000000000E+00 0.  1.
</event>
<event>
 7    1  0.3568800E-013  0.7246157E+02  0.7816164E-02  0.1226708E+00
        -11   -1    0    0    0    0  0.00000000000E+00  0.00000000000E+00  0.45593999997E+02  0.45594000000E+02  0.51100000000E-03 0.  1.
         11   -1    0    0    0    0 -0.00000000000E+00 -0.00000000000E+00 -0.45593999997E+02  0.45594000000E+02  0.51100000000E-03 0. -1.
    9900012    2    1    2    0    0 -0.92052993353E+01 -0.14805496162E+02  0.68366003733E+01  0.72461565286E+02  0.69999993475E+02 0.  0.
        -12    1    1    2    0    0  0.92052993353E+01  0.14805496162E+02 -0.68366003733E+01  0.18726434714E+02  0.00000000000E+00 0.  1.
         11    1    3    3    0    0 -0.18293733136E+02 -0.76630713979E+01 -0.27587721059E+01  0.20024838554E+02  0.51100000000E-03 0. -1.
        -11    1    3    3    0    0  0.24779104816E+01 -0.86577384393E+01 -0.20074363627E+02  0.22001739716E+02  0.51100000000E-03 0.  1.
        -12    1    3    3    0    0  0.66105233193E+01  0.15153136754E+01  0.29669736106E+02  0.30434987016E+02  0.00000000000E+00 0.  1.
</event>
<event>
 7    1  0.3568800E-013  0.7246153E+02  0.7816164E-02  0.1226708E+00
        -11   -1    0    0    0    0  0.00000000000E+00  0.00000000000E+00  0.45593999997E+02  0.45594000000E+02  0.51100000000E-03 0.  1.
         11   -1    0    0    0    0 -0.00000000000E+00 -0.00000000000E+00 -0.45593999997E+02  0.45594000000E+02  0.51100000000E-03 0. -1.
    9900012    2    1    2    0    0  0.16336837974E+02 -0.62926026720E+01  0.66476811515E+01  0.72461527078E+02  0.69999943703E+02 0.  0.
        -12    1    1    2    0    0 -0.16336837974E+02  0.62926026720E+01 -0.66476811515E+01  0.18726472922E+02  0.00000000000E+00 0.  1.
         11    1    3    3    0    0 -0.34160774673E+01  0.23023369869E+02  0.16696280541E+02  0.28644561954E+02  0.51100000000E-03 0. -1.
        -11    1    3    3    0    0  0.40835903665E+01  0.29432786086E+01 -0.58359613265E+01  0.77069477820E+01  0.51100000000E-03 0.  1.
        -12    1    3    3    0    0  0.15669325075E+02 -0.32259251149E+02 -0.42126380629E+01  0.36110017343E+02  0.00000000000E+00 0.  1.
</event>
<event>
 7    1  0.3568800E-013  0.7246153E+02  0.7816164E-02  0.1226708E+00
        -11   -1    0    0    0    0  0.00000000000E+00  0.00000000000E+00  0.45593999997E+02  0.45594000000E+02  0.51100000000E-03 0.  1.
         11   -1    0    0    0    0 -0.00000000000E+00 -0.00000000000E+00 -0.45593999997E+02  0.45594000000E+02  0.51100000000E-03 0. -1.
    9900012    2    1    2    0    0  0.10172346699E+01  0.25296115566E+01 -0.18526925359E+02  0.72461530385E+02  0.69999948011E+02 0.  0.
        -12    1    1    2    0    0 -0.10172346699E+01 -0.25296115566E+01  0.18526925359E+02  0.18726469615E+02  0.00000000000E+00 0.  1.
         11    1    3    3    0    0  0.18068950704E+02  0.19043211579E+02 -0.14886688466E+02  0.30178541723E+02  0.51100000000E-03 0. -1.
        -11    1    3    3    0    0  0.69733011250E+01  0.36003147481E+01  0.55706183456E+01  0.96239796279E+01  0.51100000000E-03 0.  1.
         12    1    3    3    0    0 -0.24025017159E+02 -0.20113914771E+02 -0.92108552386E+01  0.32659009034E+02  0.00000000000E+00 0. -1.
</event>
<event>
 7    1  0.3568800E-013  0.7246157E+02  0.7816164E-02  0.1226708E+00
        -11   -1    0    0    0    0  0.00000000000E+00  0.00000000000E+00  0.45593999997E+02  0.45594000000E+02  0.51100000000E-03 0.  1.
         11   -1    0    0    0    0 -0.00000000000E+00 -0.00000000000E+00 -0.45593999997E+02  0.45594000000E+02  0.51100000000E-03 0. -1.
    9900012    2    1    2    0    0 -0.18282222222E+02  0.82634112943E+00  0.39694615785E+01  0.72461571769E+02  0.70000001922E+02 0.  0.
        -12    1    1    2    0    0  0.18282222222E+02 -0.82634112943E+00 -0.39694615785E+01  0.18726428231E+02  0.00000000000E+00 0.  1.
         11    1    3    3    0    0 -0.50632846116E+00  0.64371523843E+01 -0.50099038310E+01  0.81726639467E+01  0.51100000000E-03 0. -1.
        -11    1    3    3    0    0  0.85283928486E+01 -0.56922265443E+01  0.29304700444E+02  0.31046745336E+02  0.51100000000E-03 0.  1.
         12    1    3    3    0    0 -0.26304286610E+02  0.81415289457E-01 -0.20325335035E+02  0.33242162486E+02  0.00000000000E+00 0. -1.
</event>
<event>
 7    1  0.3568800E-013  0.7246153E+02  0.7816164E-02  0.1226708E+00
        -11   -1    0    0    0    0  0.00000000000E+00  0.00000000000E+00  0.45593999997E+02  0.45594000000E+02  0.51100000000E-03 0.  1.
         11   -1    0    0    0    0 -0.00000000000E+00 -0.00000000000E+00 -0.45593999997E+02  0.45594000000E+02  0.51100000000E-03 0. -1.
    9900012    2    1    2    0    0  0.84164377151E+01 -0.80740178267E+01 -0.14651091466E+02  0.72461530263E+02  0.69999947852E+02 0.  0.
        -12    1    1    2    0    0 -0.84164377151E+01  0.80740178267E+01  0.14651091466E+02  0.18726469737E+02  0.00000000000E+00 0.  1.
         11    1    3    3    0    0  0.80919112839E+01 -0.15582133177E+02  0.17078850565E+02  0.24494265440E+02  0.51100000000E-03 0. -1.
        -11    1    3    3    0    0 -0.37760205639E+01 -0.19920594313E+01  0.68237090310E+01  0.80492010335E+01  0.51100000000E-03 0.  1.
        -12    1    3    3    0    0  0.41005469951E+01  0.95001747812E+01 -0.38553651062E+02  0.39918063790E+02  0.00000000000E+00 0.  1.
</event>
<event>
 7    1  0.3568800E-013  0.7246158E+02  0.7816164E-02  0.1226708E+00
        -11   -1    0    0    0    0  0.00000000000E+00  0.00000000000E+00  0.45593999997E+02  0.45594000000E+02  0.51100000000E-03 0. -1.
         11   -1    0    0    0    0 -0.00000000000E+00 -0.00000000000E+00 -0.45593999997E+02  0.45594000000E+02  0.51100000000E-03 0.  1.
    9900012    2    1    2    0    0 -0.17396482875E+02 -0.58920979905E+01  0.36502791467E+01  0.72461575541E+02  0.70000006835E+02 0.  0.
        -12    1    1    2    0    0  0.17396482875E+02  0.58920979905E+01 -0.36502791467E+01  0.18726424459E+02  0.00000000000E+00 0.  1.
         11    1    3    3    0    0 -0.73824615661E-01  0.33809212107E+01 -0.64838697556E+01  0.73127727694E+01  0.51100000000E-03 0. -1.
        -11    1    3    3    0    0  0.71413717341E+01 -0.24590596991E+02 -0.12475488330E+02  0.28483933365E+02  0.51100000000E-03 0.  1.
         12    1    3    3    0    0 -0.24464029994E+02  0.15317577790E+02  0.22609637232E+02  0.36664869407E+02  0.00000000000E+00 0. -1.
</event>
<event>
 7    1  0.3568800E-013  0.7246159E+02  0.7816164E-02  0.1226708E+00
        -11   -1    0    0    0    0  0.00000000000E+00  0.00000000000E+00  0.45593999997E+02  0.45594000000E+02  0.51100000000E-03 0.  1.
         11   -1    0    0    0    0 -0.00000000000E+00 -0.00000000000E+00 -0.45593999997E+02  0.45594000000E+02  0.51100000000E-03 0. -1.
    9900012    2    1    2    0    0  0.16957612037E+02  0.79088893729E+01 -0.75329742279E+00  0.72461585658E+02  0.70000020014E+02 0.  0.
        -12    1    1    2    0    0 -0.16957612037E+02 -0.79088893729E+01  0.75329742279E+00  0.18726414342E+02  0.00000000000E+00 0.  1.
         11    1    3    3    0    0  0.36249354151E+01 -0.13592565196E+02 -0.17198412054E+02  0.22218986539E+02  0.51100000000E-03 0. -1.
        -11    1    3    3    0    0  0.16716245572E+02 -0.68695782550E+01  0.10997490548E+02  0.21155821186E+02  0.51100000000E-03 0.  1.
        -12    1    3    3    0    0 -0.33835689504E+01  0.28371032824E+02  0.54476240835E+01  0.29086777933E+02  0.00000000000E+00 0.  1.
</event>
<event>
 7    1  0.3568800E-013  0.7246161E+02  0.7816164E-02  0.1226708E+00
        -11   -1    0    0    0    0  0.00000000000E+00  0.00000000000E+00  0.45593999997E+02  0.45594000000E+02  0.51100000000E-03 0.  1.
         11   -1    0    0    0    0 -0.00000000000E+00 -0.00000000000E+00 -0.45593999997E+02  0.45594000000E+02  0.51100000000E-03 0. -1.
    9900012    2    1    2    0    0  0.13545976333E+02 -0.28809090757E+01 -0.12604940886E+02  0.72461610955E+02  0.70000052968E+02 0.  0.
        -12    1    1    2    0    0 -0.13545976333E+02  0.28809090757E+01  0.12604940886E+02  0.18726389045E+02  0.00000000000E+00 0.  1.
         11    1    3    3    0    0  0.14713623291E+02 -0.19456709019E+02 -0.32271300915E+02  0.40453567200E+02  0.51100000000E-03 0. -1.
        -11    1    3    3    0    0  0.72868133877E+01  0.25733758435E+01  0.21056038886E+01  0.80095867918E+01  0.51100000000E-03 0.  1.
        -12    1    3    3    0    0 -0.84544603454E+01  0.14002424099E+02  0.17560756141E+02  0.23998456963E+02  0.00000000000E+00 0.  1.
</event>
<event>
 7    1  0.3568800E-013  0.7246158E+02  0.7816164E-02  0.1226708E+00
        -11   -1    0    0    0    0  0.00000000000E+00  0.00000000000E+00  0.45593999997E+02  0.45594000000E+02  0.51100000000E-03 0. -1.
         11   -1    0    0    0    0 -0.00000000000E+00 -0.00000000000E+00 -0.45593999997E+02  0.45594000000E+02  0.51100000000E-03 0.  1.
    9900012    2    1    2    0    0 -0.46929491001E+01 -0.17085286016E+02 -0.60620217092E+01  0.72461578113E+02  0.70000010185E+02 0.  0.
        -12    1    1    2    0    0  0.46929491001E+01  0.17085286016E+02  0.60620217092E+01  0.18726421887E+02  0.00000000000E+00 0.  1.
         11    1    3    3    0    0  0.75579600617E+01  0.13806067320E+02  0.22302213618E+02  0.27296867727E+02  0.51100000000E-03 0. -1.
        -11    1    3    3    0    0 -0.23028169940E+01  0.26109154446E+00 -0.29311878038E+01  0.37367093953E+01  0.51100000000E-03 0.  1.
        -12    1    3    3    0    0 -0.99480921678E+01 -0.31152444880E+02 -0.25433047524E+02  0.41428000991E+02  0.00000000000E+00 0.  1.
</event>
<event>
 7    1  0.3568800E-013  0.7246145E+02  0.7816164E-02  0.1226708E+00
        -11   -1    0    0    0    0  0.00000000000E+00  0.00000000000E+00  0.45593999997E+02  0.45594000000E+02  0.51100000000E-03 0.  1.
         11   -1    0    0    0    0 -0.00000000000E+00 -0.00000000000E+00 -0.45593999997E+02  0.45594000000E+02  0.51100000000E-03 0. -1.
    9900012    2    1    2    0    0 -0.54679828893E+01  0.16883348425E+02 -0.59780815700E+01  0.72461447990E+02  0.69999840676E+02 0.  0.
        -12    1    1    2    0    0  0.54679828893E+01 -0.16883348425E+02  0.59780815700E+01  0.18726552010E+02  0.00000000000E+00 0.  1.
         11    1    3    3    0    0 -0.24009749145E+02  0.14329185581E+02  0.45613360484E+01  0.28330185319E+02  0.51100000000E-03 0. -1.
        -11    1    3    3    0    0  0.17485801634E+02 -0.33410987338E-01  0.12135747366E+02  0.21284518775E+02  0.51100000000E-03 0.  1.
        -12    1    3    3    0    0  0.10559646213E+01  0.25875738317E+01 -0.22675164984E+02  0.22846743897E+02  0.00000000000E+00 0.  1.
</event>
<event>
 7    1  0.3568800E-013  0.7246113E+02  0.7816164E-02  0.1226709E+00
        -11   -1    0    0    0    0  0.00000000000E+00  0.00000000000E+00  0.45593999997E+02  0.45594000000E+02  0.51100000000E-03 0. -1.
         11   -1    0    0    0    0 -0.00000000000E+00 -0.00000000000E+00 -0.45593999997E+02  0.45594000000E+02  0.51100000000E-03 0.  1.
    9900012    2    1    2    0    0 -0.42375070665E+01 -0.18217749716E+02 -0.92341310004E+00  0.72461132601E+02  0.69999429820E+02 0.  0.
        -12    1    1    2    0    0  0.42375070665E+01  0.18217749716E+02  0.92341310004E+00  0.18726867399E+02  0.00000000000E+00 0.  1.
         11    1    3    3    0    0 -0.45649353598E+01 -0.15077665841E+02  0.29960910697E+02  0.33850122778E+02  0.51100000000E-03 0. -1.
        -11    1    3    3    0    0 -0.76878719615E+01  0.67001401446E+01 -0.16792425181E+02  0.19646393994E+02  0.51100000000E-03 0.  1.
        -12    1    3    3    0    0  0.80153002548E+01 -0.98402240186E+01 -0.14091898616E+02  0.18964615829E+02  0.00000000000E+00 0.  1.
</event>
<event>
 7    1  0.3568800E-013  0.7246156E+02  0.7816164E-02  0.1226708E+00
        -11   -1    0    0    0    0  0.00000000000E+00  0.00000000000E+00  0.45593999997E+02  0.45594000000E+02  0.51100000000E-03 0.  1.
         11   -1    0    0    0    0 -0.00000000000E+00 -0.00000000000E+00 -0.45593999997E+02  0.45594000000E+02  0.51100000000E-03 0. -1.
    9900012    2    1    2    0    0 -0.71983378094E+00 -0.75264577344E+01 -0.17132245905E+02  0.72461559429E+02  0.69999985846E+02 0.  0.
        -12    1    1    2    0    0  0.71983378094E+00  0.75264577344E+01  0.17132245905E+02  0.18726440571E+02  0.00000000000E+00 0.  1.
         11    1    3    3    0    0  0.78220673699E+01 -0.26211493697E+02 -0.50663982422E+01  0.27818977896E+02  0.51100000000E-03 0. -1.
        -11    1    3    3    0    0  0.78394638838E+00 -0.69814384137E+01  0.80802632275E+01  0.10707273619E+02  0.51100000000E-03 0.  1.
         12    1    3    3    0    0 -0.93258475392E+01  0.25666474376E+02 -0.20146110891E+02  0.33935307914E+02  0.00000000000E+00 0. -1.
</event>
<event>
 7    1  0.3568800E-013  0.7246158E+02  0.7816164E-02  0.1226708E+00
        -11   -1    0    0    0    0  0.00000000000E+00  0.00000000000E+00  0.45593999997E+02  0.45594000000E+02  0.51100000000E-03 0.  1.
         11   -1    0    0    0    0 -0.00000000000E+00 -0.00000000000E+00 -0.45593999997E+02  0.45594000000E+02  0.51100000000E-03 0. -1.
    9900012    2    1    2    0    0 -0.21324686146E+01 -0.17906920378E+02 -0.50471502448E+01  0.72461576278E+02  0.70000007795E+02 0.  0.
        -12    1    1    2    0    0  0.21324686146E+01  0.17906920378E+02  0.50471502448E+01  0.18726423722E+02  0.00000000000E+00 0.  1.
         11    1    3    3    0    0 -0.21852290299E+02  0.15905212302E+02 -0.20068602360E+01  0.27102137516E+02  0.51100000000E-03 0. -1.
        -11    1    3    3    0    0  0.49570657917E+01  0.24664395828E+01 -0.27705280162E+01  0.61912560300E+01  0.51100000000E-03 0.  1.
        -12    1    3    3    0    0  0.14762755892E+02 -0.36278572263E+02 -0.26976199259E+00  0.39168182732E+02  0.00000000000E+00 0.  1.
</event>
<event>
 7    1  0.3568800E-013  0.7246158E+02  0.7816164E-02  0.1226708E+00
        -11   -1    0    0    0    0  0.00000000000E+00  0.00000000000E+00  0.45593999997E+02  0.45594000000E+02  0.51100000000E-03 0.  1.
         11   -1    0    0    0    0 -0.00000000000E+00 -0.00000000000E+00 -0.45593999997E+02  0.45594000000E+02  0.51100000000E-03 0. -1.
    9900012    2    1    2    0    0  0.12625075323E+02  0.57631481793E+00 -0.13818621623E+02  0.72461575642E+02  0.70000006966E+02 0.  0.
        -12    1    1    2    0    0 -0.12625075323E+02 -0.57631481793E+00  0.13818621623E+02  0.18726424358E+02  0.00000000000E+00 0.  1.
         11    1    3    3    0    0  0.50496485569E+01  0.10691340680E+02 -0.81640216368E+01  0.14368540832E+02  0.51100000000E-03 0. -1.
        -11    1    3    3    0    0 -0.18907552668E+02 -0.33169527377E+01  0.14557349834E+02  0.24091786106E+02  0.51100000000E-03 0.  1.
         12    1    3    3    0    0  0.26482979434E+02 -0.67980731246E+01 -0.20211949820E+02  0.34001248704E+02  0.00000000000E+00 0. -1.
</event>
<event>
 7    1  0.3568800E-013  0.7246158E+02  0.7816164E-02  0.1226708E+00
        -11   -1    0    0    0    0  0.00000000000E+00  0.00000000000E+00  0.45593999997E+02  0.45594000000E+02  0.51100000000E-03 0. -1.
         11   -1    0    0    0    0 -0.00000000000E+00 -0.00000000000E+00 -0.45593999997E+02  0.45594000000E+02  0.51100000000E-03 0.  1.
    9900012    2    1    2    0    0 -0.11725467346E+02  0.11934327551E+02  0.84121411379E+01  0.72461578102E+02  0.70000010171E+02 0.  0.
        -12    1    1    2    0    0  0.11725467346E+02 -0.11934327551E+02 -0.84121411379E+01  0.18726421898E+02  0.00000000000E+00 0.  1.
         11    1    3    3    0    0  0.13948843972E+02  0.81424472378E+01 -0.12220321651E+02  0.20253541831E+02  0.51100000000E-03 0. -1.
        -11    1    3    3    0    0  0.71850933229E+01  0.10681743964E+02  0.11867243037E+02  0.17508760029E+02  0.51100000000E-03 0.  1.
         12    1    3    3    0    0 -0.32859404641E+02 -0.68898636512E+01  0.87652197515E+01  0.34699276243E+02  0.00000000000E+00 0. -1.
</event>
<event>
 7    1  0.3568800E-013  0.7246156E+02  0.7816164E-02  0.1226708E+00
        -11   -1    0    0    0    0  0.00000000000E+00  0.00000000000E+00  0.45593999997E+02  0.45594000000E+02  0.51100000000E-03 0. -1.
         11   -1    0    0    0    0 -0.00000000000E+00 -0.00000000000E+00 -0.45593999997E+02  0.45594000000E+02  0.51100000000E-03 0.  1.
    9900012    2    1    2    0    0  0.99630037101E+00  0.15996685102E+02 -0.96846785797E+01  0.72461560192E+02  0.69999986840E+02 0.  0.
        -12    1    1    2    0    0 -0.99630037101E+00 -0.15996685102E+02  0.96846785797E+01  0.18726439808E+02  0.00000000000E+00 0.  1.
         11    1    3    3    0    0  0.27802957914E+02  0.13117030613E+02  0.54905310996E+01  0.31228302754E+02  0.51100000000E-03 0. -1.
        -11    1    3    3    0    0  0.55545977433E+01 -0.12775045425E+01 -0.18867600337E+01  0.60037852753E+01  0.51100000000E-03 0.  1.
        -12    1    3    3    0    0 -0.32361255286E+02  0.41571590313E+01 -0.13288449646E+02  0.35229472163E+02  0.00000000000E+00 0.  1.
</event>
<event>
 7    1  0.3568800E-013  0.7246167E+02  0.7816164E-02  0.1226708E+00
        -11   -1    0    0    0    0  0.00000000000E+00  0.00000000000E+00  0.45593999997E+02  0.45594000000E+02  0.51100000000E-03 0.  1.
         11   -1    0    0    0    0 -0.00000000000E+00 -0.00000000000E+00 -0.45593999997E+02  0.45594000000E+02  0.51100000000E-03 0. -1.
    9900012    2    1    2    0    0  0.82958377845E+01 -0.89956219310E+01 -0.14175099732E+02  0.72461665845E+02  0.70000124473E+02 0.  0.
        -12    1    1    2    0    0 -0.82958377845E+01  0.89956219310E+01  0.14175099732E+02  0.18726334155E+02  0.00000000000E+00 0.  1.
         11    1    3    3    0    0 -0.17796573143E+00 -0.12227150286E+02 -0.73402396529E+01  0.14262327803E+02  0.51100000000E-03 0. -1.
        -11    1    3    3    0    0 -0.22296553758E+02  0.13021767745E+01 -0.14244928003E+02  0.26490563375E+02  0.51100000000E-03 0.  1.
         12    1    3    3    0    0  0.30770357274E+02  0.19293515810E+01  0.74100679243E+01  0.31708774668E+02  0.00000000000E+00 0. -1.
</event>
<event>
 7    1  0.3568800E-013  0.7246160E+02  0.7816164E-02  0.1226708E+00
        -11   -1    0    0    0    0  0.00000000000E+00  0.00000000000E+00  0.45593999997E+02  0.45594000000E+02  0.51100000000E-03 0.  1.
         11   -1    0    0    0    0 -0.00000000000E+00 -0.00000000000E+00 -0.45593999997E+02  0.45594000000E+02  0.51100000000E-03 0. -1.
    9900012    2    1    2    0    0 -0.42108415536E+01 -0.18195357005E+02 -0.13696541033E+01  0.72461597369E+02  0.70000035270E+02 0.  0.
        -12    1    1    2    0    0  0.42108415536E+01  0.18195357005E+02  0.13696541033E+01  0.18726402631E+02  0.00000000000E+00 0.  1.
         11    1    3    3    0    0 -0.55225422837E+01  0.43832602419E+01  0.14839166878E+01  0.72050990709E+01  0.51100000000E-03 0. -1.
        -11    1    3    3    0    0  0.22183058011E+01  0.99096317335E+01  0.22073378820E+02  0.24297237178E+02  0.51100000000E-03 0.  1.
         12    1    3    3    0    0 -0.90660507098E+00 -0.32488248981E+02 -0.24926949611E+02  0.40959261120E+02  0.00000000000E+00 0. -1.
</event>
<event>
 7    1  0.3568800E-013  0.7246161E+02  0.7816164E-02  0.1226708E+00
        -11   -1    0    0    0    0  0.00000000000E+00  0.00000000000E+00  0.45593999997E+02  0.45594000000E+02  0.51100000000E-03 0. -1.
         11   -1    0    0    0    0 -0.00000000000E+00 -0.00000000000E+00 -0.45593999997E+02  0.45594000000E+02  0.51100000000E-03 0.  1.
    9900012    2    1    2    0    0 -0.28892926729E+01  0.94993494134E+01  0.15877412105E+02  0.72461605083E+02  0.70000045319E+02 0.  0.
        -12    1    1    2    0    0  0.28892926729E+01 -0.94993494134E+01 -0.15877412105E+02  0.18726394917E+02  0.00000000000E+00 0.  1.
         11    1    3    3    0    0  0.42289945670E+01 -0.16006752023E+02 -0.50553075313E+01  0.17310593284E+02  0.51100000000E-03 0. -1.
        -11    1    3    3    0    0  0.17795100858E+02  0.15016327749E+02  0.14274199496E+02  0.27311325217E+02  0.51100000000E-03 0.  1.
         12    1    3    3    0    0 -0.24913388098E+02  0.10489773687E+02  0.66585201398E+01  0.27839686581E+02  0.00000000000E+00 0. -1.
</event>
<event>
 7    1  0.3568800E-013  0.7246163E+02  0.7816164E-02  0.1226708E+00
        -11   -1    0    0    0    0  0.00000000000E+00  0.00000000000E+00  0.45593999997E+02  0.45594000000E+02  0.51100000000E-03 0. -1.
         11   -1    0    0    0    0 -0.00000000000E+00 -0.00000000000E+00 -0.45593999997E+02  0.45594000000E+02  0.51100000000E-03 0.  1.
    9900012    2    1    2    0    0  0.73103210299E+00 -0.18048584359E+02  0.49387247390E+01  0.72461633365E+02  0.70000082161E+02 0.  0.
        -12    1    1    2    0    0 -0.73103210299E+00  0.18048584359E+02 -0.49387247390E+01  0.18726366635E+02  0.00000000000E+00 0.  1.
         11    1    3    3    0    0  0.78348636180E+00  0.14577996637E+02 -0.10031825839E+01  0.14633462078E+02  0.51100000000E-03 0. -1.
        -11    1    3    3    0    0  0.11103950613E+02  0.46485634371E+01 -0.10127740708E+02  0.15731433290E+02  0.51100000000E-03 0.  1.
         12    1    3    3    0    0 -0.11156404872E+02 -0.37275144433E+02  0.16069648031E+02  0.42096737997E+02  0.00000000000E+00 0. -1.
</event>
<event>
 7    1  0.3568800E-013  0.7246166E+02  0.7816164E-02  0.1226708E+00
        -11   -1    0    0    0    0  0.00000000000E+00  0.00000000000E+00  0.45593999997E+02  0.45594000000E+02  0.51100000000E-03 0.  1.
         11   -1    0    0    0    0 -0.00000000000E+00 -0.00000000000E+00 -0.45593999997E+02  0.45594000000E+02  0.51100000000E-03 0. -1.
    9900012    2    1    2    0    0 -0.15552641389E+02  0.10330878262E+02  0.14367600803E+01  0.72461655472E+02  0.70000110959E+02 0.  0.
        -12    1    1    2    0    0  0.15552641389E+02 -0.10330878262E+02 -0.14367600803E+01  0.18726344528E+02  0.00000000000E+00 0.  1.
         11    1    3    3    0    0 -0.60272657247E+01  0.13739578746E+02 -0.69116058715E+01  0.16518905902E+02  0.51100000000E-03 0. -1.
        -11    1    3    3    0    0 -0.19258871778E+02  0.10393191551E+02  0.24306779606E+02  0.32706912234E+02  0.51100000000E-03 0.  1.
        -12    1    3    3    0    0  0.97334961135E+01 -0.13801892035E+02 -0.15958413654E+02  0.23235837336E+02  0.00000000000E+00 0.  1.
</event>
<event>
 7    1  0.3676299E-013  0.7246155E+02  0.7816164E-02  0.1226708E+00
        -11   -1    0    0    0    0  0.00000000000E+00  0.00000000000E+00  0.45593999997E+02  0.45594000000E+02  0.51100000000E-03 0. -1.
         11   -1    0    0    0    0 -0.00000000000E+00 -0.00000000000E+00 -0.45593999997E+02  0.45594000000E+02  0.51100000000E-03 0.  1.
    9900012    2    1    2    0    0  0.12209358109E+02  0.95149761983E+01  0.10539301675E+02  0.72461546057E+02  0.69999968426E+02 0.  0.
        -12    1    1    2    0    0 -0.12209358109E+02 -0.95149761983E+01 -0.10539301675E+02  0.18726453943E+02  0.00000000000E+00 0.  1.
         11    1    3    3    0    0  0.99314025432E+01  0.98224009258E+01  0.24027913093E+02  0.27793037335E+02  0.51100000000E-03 0. -1.
        -11    1    3    3    0    0  0.12425534234E+02  0.81550420837E+01 -0.23696330022E+02  0.27971676195E+02  0.51100000000E-03 0.  1.
         12    1    3    3    0    0 -0.10147578668E+02 -0.84624668113E+01  0.10207718604E+02  0.16696832527E+02  0.00000000000E+00 0. -1.
</event>
<event>
 7    1  0.3568800E-013  0.7246160E+02  0.7816164E-02  0.1226708E+00
        -11   -1    0    0    0    0  0.00000000000E+00  0.00000000000E+00  0.45593999997E+02  0.45594000000E+02  0.51100000000E-03 0. -1.
         11   -1    0    0    0    0 -0.00000000000E+00 -0.00000000000E+00 -0.45593999997E+02  0.45594000000E+02  0.51100000000E-03 0.  1.
    9900012    2    1    2    0    0  0.13241877667E+02 -0.56712671798E+01 -0.11965265051E+02  0.72461597161E+02  0.70000034998E+02 0.  0.
        -12    1    1    2    0    0 -0.13241877667E+02  0.56712671798E+01  0.11965265051E+02  0.18726402839E+02  0.00000000000E+00 0.  1.
         11    1    3    3    0    0  0.10607711819E+02 -0.48884705732E+01  0.94545052140E+01  0.15026921298E+02  0.51100000000E-03 0. -1.
        -11    1    3    3    0    0  0.15371363136E+02  0.83595334491E+01  0.11523203076E+02  0.20951009845E+02  0.51100000000E-03 0.  1.
         12    1    3    3    0    0 -0.12737197288E+02 -0.91423300557E+01 -0.32942973341E+02  0.36483666018E+02  0.00000000000E+00 0. -1.
</event>
<event>
 7    1  0.3568800E-013  0.7246161E+02  0.7816164E-02  0.1226708E+00
        -11   -1    0    0    0    0  0.00000000000E+00  0.00000000000E+00  0.45593999997E+02  0.45594000000E+02  0.51100000000E-03 0.  1.
         11   -1    0    0    0    0 -0.00000000000E+00 -0.00000000000E+00 -0.45593999997E+02  0.45594000000E+02  0.51100000000E-03 0. -1.
    9900012    2    1    2    0    0  0.93013793825E+01 -0.16232414087E+02 -0.81908209180E+00  0.72461606300E+02  0.70000046905E+02 0.  0.
        -12    1    1    2    0    0 -0.93013793825E+01  0.16232414087E+02  0.81908209180E+00  0.18726393700E+02  0.00000000000E+00 0.  1.
         11    1    3    3    0    0  0.11265056325E+02 -0.47991912808E+01 -0.11391849061E-01  0.12244748303E+02  0.51100000000E-03 0. -1.
        -11    1    3    3    0    0  0.53403131410E+01 -0.23329096172E+02  0.22629702914E+02  0.32937351546E+02  0.51100000000E-03 0.  1.
         12    1    3    3    0    0 -0.73039900840E+01  0.11895873365E+02 -0.23437393157E+02  0.27279506452E+02  0.00000000000E+00 0. -1.
</event>
<event>
 7    1  0.3568800E-013  0.7246151E+02  0.7816164E-02  0.1226708E+00
        -11   -1    0    0    0    0  0.00000000000E+00  0.00000000000E+00  0.45593999997E+02  0.45594000000E+02  0.51100000000E-03 0. -1.
         11   -1    0    0    0    0 -0.00000000000E+00 -0.00000000000E+00 -0.45593999997E+02  0.45594000000E+02  0.51100000000E-03 0.  1.
    9900012    2    1    2    0    0  0.14018362029E+02 -0.54723651210E+01  0.11145402128E+02  0.72461514943E+02  0.69999927894E+02 0.  0.
        -12    1    1    2    0    0 -0.14018362029E+02  0.54723651210E+01 -0.11145402128E+02  0.18726485057E+02  0.00000000000E+00 0.  1.
         11    1    3    3    0    0  0.49470925274E+01 -0.11402271249E+02  0.12532260396E+02  0.17650582569E+02  0.51100000000E-03 0. -1.
        -11    1    3    3    0    0 -0.16119362353E+02  0.76502036251E+01  0.16152224848E+02  0.24067692577E+02  0.51100000000E-03 0.  1.
         12    1    3    3    0    0  0.25190631854E+02 -0.17202974968E+01 -0.17539083116E+02  0.30743239797E+02  0.00000000000E+00 0. -1.
</event>
<event>
 7    1  0.3568800E-013  0.7246150E+02  0.7816164E-02  0.1226708E+00
        -11   -1    0    0    0    0  0.00000000000E+00  0.00000000000E+00  0.45593999997E+02  0.45594000000E+02  0.51100000000E-03 0.  1.
         11   -1    0    0    0    0 -0.00000000000E+00 -0.00000000000E+00 -0.45593999997E+02  0.45594000000E+02  0.51100000000E-03 0. -1.
    9900012    2    1    2    0    0 -0.58134832692E+01  0.48262775216E+01 -0.17134529573E+02  0.72461504168E+02  0.69999913858E+02 0.  0.
        -12    1    1    2    0    0  0.58134832692E+01 -0.48262775216E+01  0.17134529573E+02  0.18726495832E+02  0.00000000000E+00 0.  1.
         11    1    3    3    0    0 -0.27129013305E+01 -0.99324448256E+00  0.54285096422E+01  0.61493971597E+01  0.51100000000E-03 0. -1.
        -11    1    3    3    0    0  0.25578485143E+00  0.23544103489E+02  0.12663693340E+02  0.26734983902E+02  0.51100000000E-03 0.  1.
         12    1    3    3    0    0 -0.33563667901E+01 -0.17724581485E+02 -0.35226732556E+02  0.39577123106E+02  0.00000000000E+00 0. -1.
</event>
<event>
 7    1  0.3568800E-013  0.7246157E+02  0.7816164E-02  0.1226708E+00
        -11   -1    0    0    0    0  0.00000000000E+00  0.00000000000E+00  0.45593999997E+02  0.45594000000E+02  0.51100000000E-03 0.  1.
         11   -1    0    0    0    0 -0.00000000000E+00 -0.00000000000E+00 -0.45593999997E+02  0.45594000000E+02  0.51100000000E-03 0. -1.
    9900012    2    1    2    0    0 -0.74443738133E+01  0.16165437858E+02 -0.58257238455E+01  0.72461571058E+02  0.70000000995E+02 0.  0.
        -12    1    1    2    0    0  0.74443738133E+01 -0.16165437858E+02  0.58257238455E+01  0.18726428942E+02  0.00000000000E+00 0.  1.
         11    1    3    3    0    0 -0.22574425126E+01 -0.20743553810E+02 -0.16730969485E+02  0.26745399820E+02  0.51100000000E-03 0. -1.
        -11    1    3    3    0    0 -0.22754678793E+01  0.74152237180E+00 -0.54225798350E+01  0.59272237874E+01  0.51100000000E-03 0.  1.
        -12    1    3    3    0    0 -0.29114634214E+01  0.36167469296E+02  0.16327825474E+02  0.39788947451E+02  0.00000000000E+00 0.  1.
</event>
<event>
 7    1  0.3568800E-013  0.7246159E+02  0.7816164E-02  0.1226708E+00
        -11   -1    0    0    0    0  0.00000000000E+00  0.00000000000E+00  0.45593999997E+02  0.45594000000E+02  0.51100000000E-03 0.  1.
         11   -1    0    0    0    0 -0.00000000000E+00 -0.00000000000E+00 -0.45593999997E+02  0.45594000000E+02  0.51100000000E-03 0. -1.
    9900012    2    1    2    0    0  0.92795010998E+01  0.46045193703E+01 -0.15600247066E+02  0.72461589564E+02  0.70000025102E+02 0.  0.
        -12    1    1    2    0    0 -0.92795010998E+01 -0.46045193703E+01  0.15600247066E+02  0.18726410436E+02  0.00000000000E+00 0.  1.
         11    1    3    3    0    0 -0.30967502362E+01  0.82869882021E+01  0.93302873819E+01  0.12857616357E+02  0.51100000000E-03 0. -1.
        -11    1    3    3    0    0  0.60739164373E+00  0.20453329705E+02  0.32042409958E+01  0.20711706382E+02  0.51100000000E-03 0.  1.
         12    1    3    3    0    0  0.11768859692E+02 -0.24135798537E+02 -0.28134775444E+02  0.38892266825E+02  0.00000000000E+00 0. -1.
</event>
<event>
 7    1  0.3568800E-013  0.7246155E+02  0.7816164E-02  0.1226708E+00
        -11   -1    0    0    0    0  0.00000000000E+00  0.00000000000E+00  0.45593999997E+02  0.45594000000E+02  0.51100000000E-03 0. -1.
         11   -1    0    0    0    0 -0.00000000000E+00 -0.00000000000E+00 -0.45593999997E+02  0.45594000000E+02  0.51100000000E-03 0.  1.
    9900012    2    1    2    0    0  0.13168299918E+02  0.99707423025E+01 -0.88238311550E+01  0.72461552898E+02  0.69999977338E+02 0.  0.
        -12    1    1    2    0    0 -0.13168299918E+02 -0.99707423025E+01  0.88238311550E+01  0.18726447102E+02  0.00000000000E+00 0.  1.
         11    1    3    3    0    0 -0.12042221478E+02  0.19432159354E+02 -0.28716513157E+02  0.36705068362E+02  0.51100000000E-03 0. -1.
        -11    1    3    3    0    0  0.88118083092E+01 -0.13321711225E+01  0.26049185923E+00  0.89157446042E+01  0.51100000000E-03 0.  1.
        -12    1    3    3    0    0  0.16398713087E+02 -0.81292459291E+01  0.19632190143E+02  0.26840739932E+02  0.00000000000E+00 0.  1.
</event>
<event>
 7    1  0.3568800E-013  0.7246153E+02  0.7816164E-02  0.1226708E+00
        -11   -1    0    0    0    0  0.00000000000E+00  0.00000000000E+00  0.45593999997E+02  0.45594000000E+02  0.51100000000E-03 0.  1.
         11   -1    0    0    0    0 -0.00000000000E+00 -0.00000000000E+00 -0.45593999997E+02  0.45594000000E+02  0.51100000000E-03 0. -1.
    9900012    2    1    2    0    0 -0.16326186875E+02  0.85422434387E+01  0.33415962643E+01  0.72461532996E+02  0.69999951413E+02 0.  0.
        -12    1    1    2    0    0  0.16326186875E+02 -0.85422434387E+01 -0.33415962643E+01  0.18726467004E+02  0.00000000000E+00 0.  1.
         11    1    3    3    0    0 -0.37635664794E+01  0.76636399390E+01 -0.61912481407E+01  0.10546438430E+02  0.51100000000E-03 0. -1.
        -11    1    3    3    0    0 -0.14164544800E+02  0.16352822325E+02 -0.19404072539E+02  0.29061437658E+02  0.51100000000E-03 0.  1.
        -12    1    3    3    0    0  0.16019244040E+01 -0.15474218826E+02  0.28936916944E+02  0.32853656909E+02  0.00000000000E+00 0.  1.
</event>
<event>
 7    1  0.3568800E-013  0.7246122E+02  0.7816164E-02  0.1226709E+00
        -11   -1    0    0    0    0  0.00000000000E+00  0.00000000000E+00  0.45593999997E+02  0.45594000000E+02  0.51100000000E-03 0. -1.
         11   -1    0    0    0    0 -0.00000000000E+00 -0.00000000000E+00 -0.45593999997E+02  0.45594000000E+02  0.51100000000E-03 0.  1.
    9900012    2    1    2    0    0  0.40405016753E+01  0.11841221662E+02 -0.13933848818E+02  0.72461218987E+02  0.69999542355E+02 0.  0.
        -12    1    1    2    0    0 -0.40405016753E+01 -0.11841221662E+02  0.13933848818E+02  0.18726781013E+02  0.00000000000E+00 0.  1.
         11    1    3    3    0    0 -0.21824885291E+02  0.13924048083E+01 -0.12559119805E+02  0.25218959131E+02  0.51100000000E-03 0. -1.
        -11    1    3    3    0    0  0.10262840571E+02  0.15785068858E+02 -0.16373369360E+02  0.24951583515E+02  0.51100000000E-03 0.  1.
         12    1    3    3    0    0  0.15602546395E+02 -0.53362520042E+01  0.14998640348E+02  0.22290676341E+02  0.00000000000E+00 0. -1.
</event>
<event>
 7    1  0.3568800E-013  0.7246144E+02  0.7816164E-02  0.1226708E+00
        -11   -1    0    0    0    0  0.00000000000E+00  0.00000000000E+00  0.45593999997E+02  0.45594000000E+02  0.51100000000E-03 0.  1.
         11   -1    0    0    0    0 -0.00000000000E+00 -0.00000000000E+00 -0.45593999997E+02  0.45594000000E+02  0.51100000000E-03 0. -1.
    9900012    2    1    2    0    0 -0.50136579166E+01  0.15905138491E+02 -0.85190242438E+01  0.72461442116E+02  0.69999833023E+02 0.  0.
        -12    1    1    2    0    0  0.50136579166E+01 -0.15905138491E+02  0.85190242438E+01  0.18726557884E+02  0.00000000000E+00 0.  1.
         11    1    3    3    0    0 -0.24431031403E+02 -0.11325332103E+01 -0.82357201835E+01  0.25806685453E+02  0.51100000000E-03 0. -1.
        -11    1    3    3    0    0  0.18059596001E+00  0.84712320081E+01  0.17272354926E+02  0.19238727390E+02  0.51100000000E-03 0.  1.
         12    1    3    3    0    0  0.19236777526E+02  0.85664396935E+01 -0.17555658986E+02  0.27416029272E+02  0.00000000000E+00 0. -1.
</event>
<event>
 7    1  0.3568800E-013  0.7246149E+02  0.7816164E-02  0.1226708E+00
        -11   -1    0    0    0    0  0.00000000000E+00  0.00000000000E+00  0.45593999997E+02  0.45594000000E+02  0.51100000000E-03 0.  1.
         11   -1    0    0    0    0 -0.00000000000E+00 -0.00000000000E+00 -0.45593999997E+02  0.45594000000E+02  0.51100000000E-03 0. -1.
    9900012    2    1    2    0    0  0.12173780494E+02  0.75343061143E+01 -0.12071259991E+02  0.72461494242E+02  0.69999900927E+02 0.  0.
        -12    1    1    2    0    0 -0.12173780494E+02 -0.75343061143E+01  0.12071259991E+02  0.18726505758E+02  0.00000000000E+00 0.  1.
         11    1    3    3    0    0 -0.10899489379E+02 -0.87531588218E+01 -0.11778034856E+02  0.18279462886E+02  0.51100000000E-03 0. -1.
        -11    1    3    3    0    0 -0.13535125271E+02  0.38324915665E+01  0.54552087137E+01  0.15087972365E+02  0.51100000000E-03 0.  1.
         12    1    3    3    0    0  0.36608395144E+02  0.12454973370E+02 -0.57484338487E+01  0.39094058991E+02  0.00000000000E+00 0. -1.
</event>
<event>
 7    1  0.3568800E-013  0.7246164E+02  0.7816164E-02  0.1226708E+00
        -11   -1    0    0    0    0  0.00000000000E+00  0.00000000000E+00  0.45593999997E+02  0.45594000000E+02  0.51100000000E-03 0. -1.
         11   -1    0    0    0    0 -0.00000000000E+00 -0.00000000000E+00 -0.45593999997E+02  0.45594000000E+02  0.51100000000E-03 0.  1.
    9900012    2    1    2    0    0  0.18453717891E+02  0.29026627084E+01 -0.13081935188E+01  0.72461640901E+02  0.70000091979E+02 0.  0.
        -12    1    1    2    0    0 -0.18453717891E+02 -0.29026627084E+01  0.13081935188E+01  0.18726359099E+02  0.00000000000E+00 0.  1.
         11    1    3    3    0    0  0.10551700491E+02 -0.10358790754E+02  0.36125084924E+01  0.15221469936E+02  0.51100000000E-03 0. -1.
        -11    1    3    3    0    0  0.25952986234E+02 -0.74196493265E+01 -0.10959873595E+02  0.29132928450E+02  0.51100000000E-03 0.  1.
        -12    1    3    3    0    0 -0.18050968834E+02  0.20681102789E+02  0.60391715837E+01  0.28107242516E+02  0.00000000000E+00 0.  1.
</event>
<event>
 7    1  0.3568800E-013  0.7246157E+02  0.7816164E-02  0.1226708E+00
        -11   -1    0    0    0    0  0.00000000000E+00  0.00000000000E+00  0.45593999997E+02  0.45594000000E+02  0.51100000000E-03 0. -1.
         11   -1    0    0    0    0 -0.00000000000E+00 -0.00000000000E+00 -0.45593999997E+02  0.45594000000E+02  0.51100000000E-03 0.  1.
    9900012    2    1    2    0    0 -0.13460788904E+02 -0.56722100556E+00  0.13006335525E+02  0.72461565705E+02  0.69999994022E+02 0.  0.
        -12    1    1    2    0    0  0.13460788904E+02  0.56722100556E+00 -0.13006335525E+02  0.18726434295E+02  0.00000000000E+00 0.  1.
         11    1    3    3    0    0 -0.10215938380E+02 -0.23225252620E+01  0.47235985439E+01  0.11492254089E+02  0.51100000000E-03 0. -1.
        -11    1    3    3    0    0 -0.11007703306E+02  0.29518166770E+02  0.28328474542E+01  0.31630945709E+02  0.51100000000E-03 0.  1.
        -12    1    3    3    0    0  0.77628527818E+01 -0.27762862513E+02  0.54498895272E+01  0.29338365907E+02  0.00000000000E+00 0.  1.
</event>
<event>
 7    1  0.3568800E-013  0.7246152E+02  0.7816164E-02  0.1226708E+00
        -11   -1    0    0    0    0  0.00000000000E+00  0.00000000000E+00  0.45593999997E+02  0.45594000000E+02  0.51100000000E-03 0. -1.
         11   -1    0    0    0    0 -0.00000000000E+00 -0.00000000000E+00 -0.45593999997E+02  0.45594000000E+02  0.51100000000E-03 0.  1.
    9900012    2    1    2    0    0  0.12954081263E+02 -0.13386030621E+02  0.19201890846E+01  0.72461517061E+02  0.69999930653E+02 0.  0.
        -12    1    1    2    0    0 -0.12954081263E+02  0.13386030621E+02 -0.19201890846E+01  0.18726482939E+02  0.00000000000E+00 0.  1.
         11    1    3    3    0    0 -0.50572067666E+01  0.26287811045E+01  0.22008226535E+01  0.61097832194E+01  0.51100000000E-03 0. -1.
        -11    1    3    3    0    0 -0.10274698017E+02  0.17638917257E+02 -0.76045184282E+01  0.21783698541E+02  0.51100000000E-03 0.  1.
         12    1    3    3    0    0  0.28285986046E+02 -0.33653728983E+02  0.73238848593E+01  0.44568035300E+02  0.00000000000E+00 0. -1.
</event>
<event>
 7    1  0.3568800E-013  0.7246154E+02  0.7816164E-02  0.1226708E+00
        -11   -1    0    0    0    0  0.00000000000E+00  0.00000000000E+00  0.45593999997E+02  0.45594000000E+02  0.51100000000E-03 0.  1.
         11   -1    0    0    0    0 -0.00000000000E+00 -0.00000000000E+00 -0.45593999997E+02  0.45594000000E+02  0.51100000000E-03 0. -1.
    9900012    2    1    2    0    0 -0.10026609354E+01  0.18588998885E+02  0.20308110832E+01  0.72461537382E+02  0.69999957126E+02 0.  0.
        -12    1    1    2    0    0  0.10026609354E+01 -0.18588998885E+02 -0.20308110832E+01  0.18726462618E+02  0.00000000000E+00 0.  1.
         11    1    3    3    0    0  0.46930577638E+01  0.44511488964E+01  0.22354071219E+01  0.68435782259E+01  0.51100000000E-03 0. -1.
        -11    1    3    3    0    0 -0.83688557267E+01  0.83989838660E+01  0.31306844923E+02  0.33476845961E+02  0.51100000000E-03 0.  1.
         12    1    3    3    0    0  0.26731370275E+01  0.57388661230E+01 -0.31511440962E+02  0.32141113196E+02  0.00000000000E+00 0. -1.
</event>
<event>
 7    1  0.3568800E-013  0.7246151E+02  0.7816164E-02  0.1226708E+00
        -11   -1    0    0    0    0  0.00000000000E+00  0.00000000000E+00  0.45593999997E+02  0.45594000000E+02  0.51100000000E-03 0.  1.
         11   -1    0    0    0    0 -0.00000000000E+00 -0.00000000000E+00 -0.45593999997E+02  0.45594000000E+02  0.51100000000E-03 0. -1.
    9900012    2    1    2    0    0 -0.93136292763E+01  0.15388009046E+01 -0.16173119982E+02  0.72461510514E+02  0.69999922125E+02 0.  0.
        -12    1    1    2    0    0  0.93136292763E+01 -0.15388009046E+01  0.16173119982E+02  0.18726489486E+02  0.00000000000E+00 0.  1.
         11    1    3    3    0    0  0.62320451522E+01 -0.14442166222E+02 -0.77878503099E+01  0.17551785228E+02  0.51100000000E-03 0. -1.
        -11    1    3    3    0    0 -0.30226881510E+02 -0.24439174937E+01 -0.14876389137E+01  0.30361985580E+02  0.51100000000E-03 0.  1.
        -12    1    3    3    0    0  0.14681207082E+02  0.18424884620E+02 -0.68976307580E+01  0.24547739707E+02  0.00000000000E+00 0.  1.
</event>
<event>
 7    1  0.3568800E-013  0.7246157E+02  0.7816164E-02  0.1226708E+00
        -11   -1    0    0    0    0  0.00000000000E+00  0.00000000000E+00  0.45593999997E+02  0.45594000000E+02  0.51100000000E-03 0.  1.
         11   -1    0    0    0    0 -0.00000000000E+00 -0.00000000000E+00 -0.45593999997E+02  0.45594000000E+02  0.51100000000E-03 0. -1.
    9900012    2    1    2    0    0 -0.83754640640E+00 -0.63953210288E+01 -0.17580597094E+02  0.72461574574E+02  0.70000005575E+02 0.  0.
        -12    1    1    2    0    0  0.83754640640E+00  0.63953210288E+01  0.17580597094E+02  0.18726425426E+02  0.00000000000E+00 0.  1.
         11    1    3    3    0    0  0.24432971087E+01  0.81757563500E+01 -0.15133318161E+02  0.17373255638E+02  0.51100000000E-03 0. -1.
        -11    1    3    3    0    0  0.16633003067E+02 -0.23289879819E+02 -0.12386614743E+02  0.31184988665E+02  0.51100000000E-03 0.  1.
        -12    1    3    3    0    0 -0.19913846582E+02  0.87188024402E+01  0.99393358095E+01  0.23903330271E+02  0.00000000000E+00 0.  1.
</event>
<event>
 7    1  0.3568800E-013  0.7246157E+02  0.7816164E-02  0.1226708E+00
        -11   -1    0    0    0    0  0.00000000000E+00  0.00000000000E+00  0.45593999997E+02  0.45594000000E+02  0.51100000000E-03 0.  1.
         11   -1    0    0    0    0 -0.00000000000E+00 -0.00000000000E+00 -0.45593999997E+02  0.45594000000E+02  0.51100000000E-03 0. -1.
    9900012    2    1    2    0    0 -0.62773659600E+01 -0.23221276942E+00 -0.17641431901E+02  0.72461565057E+02  0.69999993177E+02 0.  0.
        -12    1    1    2    0    0  0.62773659600E+01  0.23221276942E+00  0.17641431901E+02  0.18726434943E+02  0.00000000000E+00 0.  1.
         11    1    3    3    0    0  0.62235574944E+01 -0.33412316633E+01  0.46475689654E+01  0.84555540601E+01  0.51100000000E-03 0. -1.
        -11    1    3    3    0    0 -0.31613797296E+02 -0.74886544482E+01  0.41701107427E+00  0.32491322279E+02  0.51100000000E-03 0.  1.
         12    1    3    3    0    0  0.19112873842E+02  0.10597673342E+02 -0.22706011941E+02  0.31514688718E+02  0.00000000000E+00 0. -1.
</event>
<event>
 7    1  0.3568800E-013  0.7246155E+02  0.7816164E-02  0.1226708E+00
        -11   -1    0    0    0    0  0.00000000000E+00  0.00000000000E+00  0.45593999997E+02  0.45594000000E+02  0.51100000000E-03 0.  1.
         11   -1    0    0    0    0 -0.00000000000E+00 -0.00000000000E+00 -0.45593999997E+02  0.45594000000E+02  0.51100000000E-03 0. -1.
    9900012    2    1    2    0    0 -0.14830420364E+02  0.44482868812E+01 -0.10533345247E+02  0.72461548482E+02  0.69999971586E+02 0.  0.
        -12    1    1    2    0    0  0.14830420364E+02 -0.44482868812E+01  0.10533345247E+02  0.18726451518E+02  0.00000000000E+00 0.  1.
         11    1    3    3    0    0 -0.17543499387E+02  0.63257243897E+01 -0.17803259202E+02  0.25782653049E+02  0.51100000000E-03 0. -1.
        -11    1    3    3    0    0  0.37386347691E+01 -0.18512585169E+02 -0.11074570504E+02  0.21893819029E+02  0.51100000000E-03 0.  1.
        -12    1    3    3    0    0 -0.10255557469E+01  0.16635147660E+02  0.18344484459E+02  0.24785076404E+02  0.00000000000E+00 0.  1.
</event>
<event>
 7    1  0.3568800E-013  0.7246143E+02  0.7816164E-02  0.1226708E+00
        -11   -1    0    0    0    0  0.00000000000E+00  0.00000000000E+00  0.45593999997E+02  0.45594000000E+02  0.51100000000E-03 0.  1.
         11   -1    0    0    0    0 -0.00000000000E+00 -0.00000000000E+00 -0.45593999997E+02  0.45594000000E+02  0.51100000000E-03 0. -1.
    9900012    2    1    2    0    0 -0.10924678104E+02  0.15148406625E+02  0.13643434406E+01  0.72461434699E+02  0.69999823362E+02 0.  0.
        -12    1    1    2    0    0  0.10924678104E+02 -0.15148406625E+02 -0.13643434406E+01  0.18726565301E+02  0.00000000000E+00 0.  1.
         11    1    3    3    0    0 -0.12791059909E+02 -0.12780492067E+02  0.14704636056E+02  0.23306190440E+02  0.51100000000E-03 0. -1.
        -11    1    3    3    0    0 -0.15772640400E+02  0.25520927154E+01 -0.14558865453E+01  0.16043969842E+02  0.51100000000E-03 0.  1.
        -12    1    3    3    0    0  0.17639022204E+02  0.25376805976E+02 -0.11884406070E+02  0.33111274417E+02  0.00000000000E+00 0.  1.
</event>
<event>
 7    1  0.3568800E-013  0.7246170E+02  0.7816164E-02  0.1226708E+00
        -11   -1    0    0    0    0  0.00000000000E+00  0.00000000000E+00  0.45593999997E+02  0.45594000000E+02  0.51100000000E-03 0. -1.
         11   -1    0    0    0    0 -0.00000000000E+00 -0.00000000000E+00 -0.45593999997E+02  0.45594000000E+02  0.51100000000E-03 0.  1.
    9900012    2    1    2    0    0  0.15254957170E+02  0.81023009834E+01  0.72327886224E+01  0.72461702161E+02  0.70000171781E+02 0.  0.
        -12    1    1    2    0    0 -0.15254957170E+02 -0.81023009834E+01 -0.72327886224E+01  0.18726297839E+02  0.00000000000E+00 0.  1.
         11    1    3    3    0    0 -0.11485893498E+02  0.25866467341E+02 -0.10101691342E+02  0.30050691346E+02  0.51100000000E-03 0. -1.
        -11    1    3    3    0    0  0.25883820051E+01  0.10975135451E+01 -0.41304377731E+01  0.49964761428E+01  0.51100000000E-03 0.  1.
        -12    1    3    3    0    0  0.24152468663E+02 -0.18861679903E+02  0.21464917737E+02  0.37414534672E+02  0.00000000000E+00 0.  1.
</event>
<event>
 7    1  0.3568800E-013  0.7246155E+02  0.7816164E-02  0.1226708E+00
        -11   -1    0    0    0    0  0.00000000000E+00  0.00000000000E+00  0.45593999997E+02  0.45594000000E+02  0.51100000000E-03 0.  1.
         11   -1    0    0    0    0 -0.00000000000E+00 -0.00000000000E+00 -0.45593999997E+02  0.45594000000E+02  0.51100000000E-03 0. -1.
    9900012    2    1    2    0    0 -0.43682190698E+01 -0.15311001483E+02 -0.98575677874E+01  0.72461554878E+02  0.69999979917E+02 0.  0.
        -12    1    1    2    0    0  0.43682190698E+01  0.15311001483E+02  0.98575677874E+01  0.18726445122E+02  0.00000000000E+00 0.  1.
         11    1    3    3    0    0 -0.17753323404E+01  0.55577786446E+01  0.14830692536E+01  0.60199836423E+01  0.51100000000E-03 0. -1.
        -11    1    3    3    0    0  0.28269398015E+02 -0.13057462466E+02  0.34653597065E+01  0.31331532174E+02  0.51100000000E-03 0.  1.
         12    1    3    3    0    0 -0.30862284744E+02 -0.78113176607E+01 -0.14805996748E+02  0.35110039062E+02  0.00000000000E+00 0. -1.
</event>
<event>
 7    1  0.3568800E-013  0.7246165E+02  0.7816164E-02  0.1226708E+00
        -11   -1    0    0    0    0  0.00000000000E+00  0.00000000000E+00  0.45593999997E+02  0.45594000000E+02  0.51100000000E-03 0. -1.
         11   -1    0    0    0    0 -0.00000000000E+00 -0.00000000000E+00 -0.45593999997E+02  0.45594000000E+02  0.51100000000E-03 0.  1.
    9900012    2    1    2    0    0  0.54851268240E+01  0.93099844325E+01  0.15294237905E+02  0.72461651196E+02  0.70000105390E+02 0.  0.
        -12    1    1    2    0    0 -0.54851268240E+01 -0.93099844325E+01 -0.15294237905E+02  0.18726348804E+02  0.00000000000E+00 0.  1.
         11    1    3    3    0    0 -0.88372976997E+01  0.12285292291E+02  0.51552876197E+01  0.15987596067E+02  0.51100000000E-03 0.  1.
        -11    1    3    3    0    0 -0.15714221544E+02 -0.11684623832E+02  0.15205307758E+02  0.24792510505E+02  0.51100000000E-03 0. -1.
         12    1    3    3    0    0  0.30036646068E+02  0.87093159736E+01 -0.50663574728E+01  0.31681544624E+02  0.00000000000E+00 0. -1.
</event>
<event>
 7    1  0.3568800E-013  0.7246150E+02  0.7816164E-02  0.1226708E+00
        -11   -1    0    0    0    0  0.00000000000E+00  0.00000000000E+00  0.45593999997E+02  0.45594000000E+02  0.51100000000E-03 0.  1.
         11   -1    0    0    0    0 -0.00000000000E+00 -0.00000000000E+00 -0.45593999997E+02  0.45594000000E+02  0.51100000000E-03 0. -1.
    9900012    2    1    2    0    0  0.61117700819E+01  0.86907041305E+01 -0.15420753408E+02  0.72461502530E+02  0.69999911724E+02 0.  0.
        -12    1    1    2    0    0 -0.61117700819E+01 -0.86907041305E+01  0.15420753408E+02  0.18726497470E+02  0.00000000000E+00 0.  1.
         11    1    3    3    0    0  0.90455885726E+01 -0.10761700799E+01  0.53525286977E+01  0.10565527833E+02  0.51100000000E-03 0. -1.
        -11    1    3    3    0    0 -0.27474262017E+01  0.26314999250E+02  0.89041911476E+01  0.27916162998E+02  0.51100000000E-03 0.  1.
         12    1    3    3    0    0 -0.18639228902E+00 -0.16548125040E+02 -0.29677473253E+02  0.33979811699E+02  0.00000000000E+00 0. -1.
</event>
<event>
 7    1  0.3568800E-013  0.7246158E+02  0.7816164E-02  0.1226708E+00
        -11   -1    0    0    0    0  0.00000000000E+00  0.00000000000E+00  0.45593999997E+02  0.45594000000E+02  0.51100000000E-03 0.  1.
         11   -1    0    0    0    0 -0.00000000000E+00 -0.00000000000E+00 -0.45593999997E+02  0.45594000000E+02  0.51100000000E-03 0. -1.
    9900012    2    1    2    0    0  0.16288504850E+02  0.18695342930E+01  0.90481086174E+01  0.72461579673E+02  0.70000012217E+02 0.  0.
        -12    1    1    2    0    0 -0.16288504850E+02 -0.18695342930E+01 -0.90481086174E+01  0.18726420327E+02  0.00000000000E+00 0.  1.
         11    1    3    3    0    0 -0.53279537295E+01 -0.47564982732E+01 -0.11697579647E+02  0.13705646158E+02  0.51100000000E-03 0. -1.
        -11    1    3    3    0    0 -0.10963455140E+02  0.12983863773E+02 -0.38721640522E+01  0.17429048218E+02  0.51100000000E-03 0.  1.
        -12    1    3    3    0    0  0.32579913719E+02 -0.63578312068E+01  0.24617852317E+02  0.41326885296E+02  0.00000000000E+00 0.  1.
</event>
<event>
 7    1  0.3568800E-013  0.7246158E+02  0.7816164E-02  0.1226708E+00
        -11   -1    0    0    0    0  0.00000000000E+00  0.00000000000E+00  0.45593999997E+02  0.45594000000E+02  0.51100000000E-03 0.  1.
         11   -1    0    0    0    0 -0.00000000000E+00 -0.00000000000E+00 -0.45593999997E+02  0.45594000000E+02  0.51100000000E-03 0. -1.
    9900012    2    1    2    0    0 -0.96377268902E+01 -0.29696868194E+01 -0.15778912986E+02  0.72461577105E+02  0.70000008872E+02 0.  0.
        -12    1    1    2    0    0  0.96377268902E+01  0.29696868194E+01  0.15778912986E+02  0.18726422895E+02  0.00000000000E+00 0.  1.
         11    1    3    3    0    0 -0.21509834033E+02 -0.13255543954E+02  0.43366080692E+01  0.25635689487E+02  0.51100000000E-03 0. -1.
        -11    1    3    3    0    0  0.45782089511E+01 -0.14794990044E+02 -0.35274625335E+01  0.15883787955E+02  0.51100000000E-03 0.  1.
        -12    1    3    3    0    0  0.72938981920E+01  0.25080847179E+02 -0.16588058522E+02  0.30942099663E+02  0.00000000000E+00 0.  1.
</event>
<event>
 7    1  0.3568800E-013  0.7246162E+02  0.7816164E-02  0.1226708E+00
        -11   -1    0    0    0    0  0.00000000000E+00  0.00000000000E+00  0.45593999997E+02  0.45594000000E+02  0.51100000000E-03 0. -1.
         11   -1    0    0    0    0 -0.00000000000E+00 -0.00000000000E+00 -0.45593999997E+02  0.45594000000E+02  0.51100000000E-03 0.  1.
    9900012    2    1    2    0    0 -0.14599529786E+02 -0.52146921235E+01  0.10504194090E+02  0.72461618145E+02  0.70000062334E+02 0.  0.
        -12    1    1    2    0    0  0.14599529786E+02  0.52146921235E+01 -0.10504194090E+02  0.18726381855E+02  0.00000000000E+00 0.  1.
         11    1    3    3    0    0  0.44114952548E+00 -0.97882847874E+01  0.98366149862E+01  0.13883952126E+02  0.51100000000E-03 0. -1.
        -11    1    3    3    0    0 -0.21566358471E+02 -0.19558391956E+02  0.11538775749E+02  0.31317436990E+02  0.51100000000E-03 0.  1.
         12    1    3    3    0    0  0.65256791598E+01  0.24131984620E+02 -0.10871196646E+02  0.27260229028E+02  0.00000000000E+00 0. -1.
</event>
<event>
 7    1  0.3568800E-013  0.7246159E+02  0.7816164E-02  0.1226708E+00
        -11   -1    0    0    0    0  0.00000000000E+00  0.00000000000E+00  0.45593999997E+02  0.45594000000E+02  0.51100000000E-03 0.  1.
         11   -1    0    0    0    0 -0.00000000000E+00 -0.00000000000E+00 -0.45593999997E+02  0.45594000000E+02  0.51100000000E-03 0. -1.
    9900012    2    1    2    0    0 -0.12649077604E+02  0.35411148215E+01 -0.13346897087E+02  0.72461592970E+02  0.70000029539E+02 0.  0.
        -12    1    1    2    0    0  0.12649077604E+02 -0.35411148215E+01  0.13346897087E+02  0.18726407030E+02  0.00000000000E+00 0.  1.
         11    1    3    3    0    0 -0.13830879009E+02  0.23344725593E+02  0.45222927261E+00  0.27138053334E+02  0.51100000000E-03 0. -1.
        -11    1    3    3    0    0 -0.49694792872E+01 -0.59771637713E+01  0.12652204413E+02  0.14849258834E+02  0.51100000000E-03 0.  1.
        -12    1    3    3    0    0  0.61512806922E+01 -0.13826447000E+02 -0.26451330773E+02  0.30474280803E+02  0.00000000000E+00 0.  1.
</event>
<event>
 7    1  0.3568800E-013  0.7246159E+02  0.7816164E-02  0.1226708E+00
        -11   -1    0    0    0    0  0.00000000000E+00  0.00000000000E+00  0.45593999997E+02  0.45594000000E+02  0.51100000000E-03 0. -1.
         11   -1    0    0    0    0 -0.00000000000E+00 -0.00000000000E+00 -0.45593999997E+02  0.45594000000E+02  0.51100000000E-03 0.  1.
    9900012    2    1    2    0    0  0.81152330040E+01 -0.48703422709E+01 -0.16158628186E+02  0.72461588027E+02  0.70000023100E+02 0.  0.
        -12    1    1    2    0    0 -0.81152330040E+01  0.48703422709E+01  0.16158628186E+02  0.18726411973E+02  0.00000000000E+00 0.  1.
         11    1    3    3    0    0  0.62261608659E+01  0.25365902611E+01  0.39619026480E+01  0.78035916175E+01  0.51100000000E-03 0. -1.
        -11    1    3    3    0    0  0.20065769618E+02 -0.26234778311E+02 -0.25303084444E+01  0.33125536441E+02  0.51100000000E-03 0.  1.
         12    1    3    3    0    0 -0.18176697480E+02  0.18827845779E+02 -0.17590222389E+02  0.31532459969E+02  0.00000000000E+00 0. -1.
</event>
<event>
 7    1  0.3568800E-013  0.7246204E+02  0.7816164E-02  0.1226707E+00
        -11   -1    0    0    0    0  0.00000000000E+00  0.00000000000E+00  0.45593999997E+02  0.45594000000E+02  0.51100000000E-03 0. -1.
         11   -1    0    0    0    0 -0.00000000000E+00 -0.00000000000E+00 -0.45593999997E+02  0.45594000000E+02  0.51100000000E-03 0.  1.
    9900012    2    1    2    0    0 -0.73266909013E+01  0.81498322447E+01  0.15184246314E+02  0.72462042045E+02  0.70000614541E+02 0.  0.
        -12    1    1    2    0    0  0.73266909013E+01 -0.81498322447E+01 -0.15184246314E+02  0.18725957955E+02  0.00000000000E+00 0.  1.
         11    1    3    3    0    0 -0.27166479904E+02 -0.28385453937E+01  0.11780737717E+02  0.29746609080E+02  0.51100000000E-03 0. -1.
        -11    1    3    3    0    0 -0.73249307639E+01  0.25185705692E+01  0.10823276340E+02  0.13309437231E+02  0.51100000000E-03 0.  1.
        -12    1    3    3    0    0  0.27164719767E+02  0.84698070691E+01 -0.74197677429E+01  0.29405995735E+02  0.00000000000E+00 0.  1.
</event>
<event>
 7    1  0.3568800E-013  0.7246157E+02  0.7816164E-02  0.1226708E+00
        -11   -1    0    0    0    0  0.00000000000E+00  0.00000000000E+00  0.45593999997E+02  0.45594000000E+02  0.51100000000E-03 0. -1.
         11   -1    0    0    0    0 -0.00000000000E+00 -0.00000000000E+00 -0.45593999997E+02  0.45594000000E+02  0.51100000000E-03 0.  1.
    9900012    2    1    2    0    0 -0.17513138697E+02  0.51535916564E+01  0.41725049290E+01  0.72461565973E+02  0.69999994371E+02 0.  0.
        -12    1    1    2    0    0  0.17513138697E+02 -0.51535916564E+01 -0.41725049290E+01  0.18726434027E+02  0.00000000000E+00 0.  1.
         11    1    3    3    0    0 -0.53455867886E+01  0.84870715484E+01  0.10415072491E+02  0.14459578722E+02  0.51100000000E-03 0. -1.
        -11    1    3    3    0    0  0.16139707069E+02  0.53783678020E+01  0.14079564816E+02  0.22082824324E+02  0.51100000000E-03 0.  1.
         12    1    3    3    0    0 -0.28307258977E+02 -0.87118476940E+01 -0.20322132377E+02  0.35919162927E+02  0.00000000000E+00 0. -1.
</event>
<event>
 7    1  0.3568800E-013  0.7246182E+02  0.7816164E-02  0.1226707E+00
        -11   -1    0    0    0    0  0.00000000000E+00  0.00000000000E+00  0.45593999997E+02  0.45594000000E+02  0.51100000000E-03 0.  1.
         11   -1    0    0    0    0 -0.00000000000E+00 -0.00000000000E+00 -0.45593999997E+02  0.45594000000E+02  0.51100000000E-03 0. -1.
    9900012    2    1    2    0    0 -0.50119019137E+01 -0.17810168770E+02  0.28893877297E+01  0.72461819561E+02  0.70000324715E+02 0.  0.
        -12    1    1    2    0    0  0.50119019137E+01  0.17810168770E+02 -0.28893877297E+01  0.18726180439E+02  0.00000000000E+00 0.  1.
         11    1    3    3    0    0 -0.12703083974E+01 -0.66106274811E+01 -0.30419120364E+02  0.31155047153E+02  0.51100000000E-03 0. -1.
        -11    1    3    3    0    0  0.14960307947E+01 -0.47992958034E+01 -0.17215782690E+01  0.53136786076E+01  0.51100000000E-03 0.  1.
        -12    1    3    3    0    0 -0.52376243110E+01 -0.64002454850E+01  0.35030086363E+02  0.35993093800E+02  0.00000000000E+00 0.  1.
</event>
<event>
 7    1  0.3568800E-013  0.7246156E+02  0.7816164E-02  0.1226708E+00
        -11   -1    0    0    0    0  0.00000000000E+00  0.00000000000E+00  0.45593999997E+02  0.45594000000E+02  0.51100000000E-03 0.  1.
         11   -1    0    0    0    0 -0.00000000000E+00 -0.00000000000E+00 -0.45593999997E+02  0.45594000000E+02  0.51100000000E-03 0. -1.
    9900012    2    1    2    0    0 -0.68752116270E+00 -0.16326944144E+02 -0.91453615408E+01  0.72461563389E+02  0.69999991005E+02 0.  0.
        -12    1    1    2    0    0  0.68752116270E+00  0.16326944144E+02  0.91453615408E+01  0.18726436611E+02  0.00000000000E+00 0.  1.
         11    1    3    3    0    0 -0.23814385435E+02  0.60930755505E+01 -0.68312430852E+01  0.25513063431E+02  0.51100000000E-03 0. -1.
        -11    1    3    3    0    0 -0.39076937523E+01 -0.17991895112E+02 -0.58686166937E+01  0.19324052948E+02  0.51100000000E-03 0.  1.
        -12    1    3    3    0    0  0.27034558024E+02 -0.44281245827E+01  0.35544982381E+01  0.27624447010E+02  0.00000000000E+00 0.  1.
</event>
<event>
 7    1  0.3568800E-013  0.7246106E+02  0.7816164E-02  0.1226709E+00
        -11   -1    0    0    0    0  0.00000000000E+00  0.00000000000E+00  0.45593999997E+02  0.45594000000E+02  0.51100000000E-03 0.  1.
         11   -1    0    0    0    0 -0.00000000000E+00 -0.00000000000E+00 -0.45593999997E+02  0.45594000000E+02  0.51100000000E-03 0. -1.
    9900012    2    1    2    0    0  0.62763216408E+01  0.31460981001E+01 -0.17361107625E+02  0.72461062061E+02  0.69999337929E+02 0.  0.
        -12    1    1    2    0    0 -0.62763216408E+01 -0.31460981001E+01  0.17361107625E+02  0.18726937939E+02  0.00000000000E+00 0.  1.
         11    1    3    3    0    0 -0.49744295740E+01  0.73605897943E+00 -0.14094250268E+02  0.14964445305E+02  0.51100000000E-03 0. -1.
        -11    1    3    3    0    0 -0.20829379733E+02 -0.38233878322E+01 -0.11072386258E+02  0.23897261187E+02  0.51100000000E-03 0.  1.
         12    1    3    3    0    0  0.32080130947E+02  0.62334269529E+01  0.78055289007E+01  0.33599355568E+02  0.00000000000E+00 0. -1.
</event>
<event>
 7    1  0.3568800E-013  0.7246167E+02  0.7816164E-02  0.1226708E+00
        -11   -1    0    0    0    0  0.00000000000E+00  0.00000000000E+00  0.45593999997E+02  0.45594000000E+02  0.51100000000E-03 0.  1.
         11   -1    0    0    0    0 -0.00000000000E+00 -0.00000000000E+00 -0.45593999997E+02  0.45594000000E+02  0.51100000000E-03 0. -1.
    9900012    2    1    2    0    0  0.14368034986E+02 -0.29966143764E+01 -0.11629929234E+02  0.72461671447E+02  0.70000131770E+02 0.  0.
        -12    1    1    2    0    0 -0.14368034986E+02  0.29966143764E+01  0.11629929234E+02  0.18726328553E+02  0.00000000000E+00 0.  1.
         11    1    3    3    0    0  0.32138756975E+02  0.19565410675E+01 -0.93232152328E+01  0.33520890433E+02  0.51100000000E-03 0. -1.
        -11    1    3    3    0    0  0.83529043941E+01 -0.26375247813E+01  0.68947043809E+01  0.11147398690E+02  0.51100000000E-03 0.  1.
        -12    1    3    3    0    0 -0.26123626383E+02 -0.23156306626E+01 -0.92014183822E+01  0.27793382324E+02  0.00000000000E+00 0.  1.
</event>
<event>
 7    1  0.3568800E-013  0.7246158E+02  0.7816164E-02  0.1226708E+00
        -11   -1    0    0    0    0  0.00000000000E+00  0.00000000000E+00  0.45593999997E+02  0.45594000000E+02  0.51100000000E-03 0. -1.
         11   -1    0    0    0    0 -0.00000000000E+00 -0.00000000000E+00 -0.45593999997E+02  0.45594000000E+02  0.51100000000E-03 0.  1.
    9900012    2    1    2    0    0  0.38925123249E+01  0.17823838327E+02  0.42234847926E+01  0.72461583132E+02  0.70000016724E+02 0.  0.
        -12    1    1    2    0    0 -0.38925123249E+01 -0.17823838327E+02 -0.42234847926E+01  0.18726416868E+02  0.00000000000E+00 0.  1.
         11    1    3    3    0    0 -0.92959214411E+01  0.29656264935E+01  0.44163080650E+01  0.10710409568E+02  0.51100000000E-03 0. -1.
        -11    1    3    3    0    0 -0.19034060541E+02  0.91860527716E+01 -0.14920942794E+02  0.25871095074E+02  0.51100000000E-03 0.  1.
         12    1    3    3    0    0  0.32222494307E+02  0.56721590623E+01  0.14728119522E+02  0.35880078490E+02  0.00000000000E+00 0. -1.
</event>
<event>
 7    1  0.3568800E-013  0.7246158E+02  0.7816164E-02  0.1226708E+00
        -11   -1    0    0    0    0  0.00000000000E+00  0.00000000000E+00  0.45593999997E+02  0.45594000000E+02  0.51100000000E-03 0.  1.
         11   -1    0    0    0    0 -0.00000000000E+00 -0.00000000000E+00 -0.45593999997E+02  0.45594000000E+02  0.51100000000E-03 0. -1.
    9900012    2    1    2    0    0  0.14100390617E+02  0.12310304910E+02  0.56040158933E+00  0.72461583566E+02  0.70000017289E+02 0.  0.
        -12    1    1    2    0    0 -0.14100390617E+02 -0.12310304910E+02 -0.56040158933E+00  0.18726416434E+02  0.00000000000E+00 0.  1.
         11    1    3    3    0    0 -0.26902165545E+01 -0.85864569727E+01 -0.22647075784E+02  0.24369131094E+02  0.51100000000E-03 0. -1.
        -11    1    3    3    0    0  0.73279805620E+01 -0.84672365572E+01  0.49436578800E+01  0.12240635095E+02  0.51100000000E-03 0.  1.
        -12    1    3    3    0    0  0.94626266095E+01  0.29363998440E+02  0.18263819494E+02  0.35851817377E+02  0.00000000000E+00 0.  1.
</event>
<event>
 7    1  0.3568800E-013  0.7246155E+02  0.7816164E-02  0.1226708E+00
        -11   -1    0    0    0    0  0.00000000000E+00  0.00000000000E+00  0.45593999997E+02  0.45594000000E+02  0.51100000000E-03 0.  1.
         11   -1    0    0    0    0 -0.00000000000E+00 -0.00000000000E+00 -0.45593999997E+02  0.45594000000E+02  0.51100000000E-03 0. -1.
    9900012    2    1    2    0    0  0.10444100638E+01  0.18052911722E+02 -0.48663812356E+01  0.72461545975E+02  0.69999968319E+02 0.  0.
        -12    1    1    2    0    0 -0.10444100638E+01 -0.18052911722E+02  0.48663812356E+01  0.18726454025E+02  0.00000000000E+00 0.  1.
         11    1    3    3    0    0 -0.35824722563E+01  0.82488016286E+01  0.69915781649E+01  0.11391180855E+02  0.51100000000E-03 0. -1.
        -11    1    3    3    0    0 -0.11255163588E+02  0.12040672881E+02  0.19690970560E+02  0.25678606517E+02  0.51100000000E-03 0.  1.
         12    1    3    3    0    0  0.15882045908E+02 -0.22365627879E+01 -0.31548929961E+02  0.35391758602E+02  0.00000000000E+00 0. -1.
</event>
<event>
 7    1  0.3568800E-013  0.7246156E+02  0.7816164E-02  0.1226708E+00
        -11   -1    0    0    0    0  0.00000000000E+00  0.00000000000E+00  0.45593999997E+02  0.45594000000E+02  0.51100000000E-03 0.  1.
         11   -1    0    0    0    0 -0.00000000000E+00 -0.00000000000E+00 -0.45593999997E+02  0.45594000000E+02  0.51100000000E-03 0. -1.
    9900012    2    1    2    0    0 -0.12430668322E+01 -0.18238344648E+02  0.40616433914E+01  0.72461564737E+02  0.69999992760E+02 0.  0.
        -12    1    1    2    0    0  0.12430668322E+01  0.18238344648E+02 -0.40616433914E+01  0.18726435263E+02  0.00000000000E+00 0.  1.
         11    1    3    3    0    0 -0.44630160089E+01  0.13534185392E+02 -0.13630848860E+02  0.19720363258E+02  0.51100000000E-03 0. -1.
        -11    1    3    3    0    0 -0.16116351686E+02 -0.91095898394E+01  0.12907929262E+02  0.22568474844E+02  0.51100000000E-03 0.  1.
         12    1    3    3    0    0  0.19336300863E+02 -0.22662940200E+02  0.47845629892E+01  0.30172726634E+02  0.00000000000E+00 0. -1.
</event>
<event>
 7    1  0.3568800E-013  0.7246161E+02  0.7816164E-02  0.1226708E+00
        -11   -1    0    0    0    0  0.00000000000E+00  0.00000000000E+00  0.45593999997E+02  0.45594000000E+02  0.51100000000E-03 0. -1.
         11   -1    0    0    0    0 -0.00000000000E+00 -0.00000000000E+00 -0.45593999997E+02  0.45594000000E+02  0.51100000000E-03 0.  1.
    9900012    2    1    2    0    0 -0.10737919822E+02 -0.13740868655E+02  0.68237345517E+01  0.72461608283E+02  0.70000049487E+02 0.  0.
        -12    1    1    2    0    0  0.10737919822E+02  0.13740868655E+02 -0.68237345517E+01  0.18726391717E+02  0.00000000000E+00 0.  1.
         11    1    3    3    0    0  0.44192147128E+01 -0.57662746121E+01 -0.17728514174E+01  0.74781270376E+01  0.51100000000E-03 0. -1.
        -11    1    3    3    0    0 -0.92974422592E+01 -0.15391715875E+02 -0.24597702664E+02  0.30469563941E+02  0.51100000000E-03 0.  1.
         12    1    3    3    0    0 -0.58596922761E+01  0.74171218318E+01  0.33194288633E+02  0.34513917304E+02  0.00000000000E+00 0. -1.
</event>
<event>
 7    1  0.3568800E-013  0.7246164E+02  0.7816164E-02  0.1226708E+00
        -11   -1    0    0    0    0  0.00000000000E+00  0.00000000000E+00  0.45593999997E+02  0.45594000000E+02  0.51100000000E-03 0.  1.
         11   -1    0    0    0    0 -0.00000000000E+00 -0.00000000000E+00 -0.45593999997E+02  0.45594000000E+02  0.51100000000E-03 0. -1.
    9900012    2    1    2    0    0  0.58198671356E+01 -0.43273487195E+01 -0.17264981444E+02  0.72461644650E+02  0.70000096862E+02 0.  0.
        -12    1    1    2    0    0 -0.58198671356E+01  0.43273487195E+01  0.17264981444E+02  0.18726355350E+02  0.00000000000E+00 0.  1.
         11    1    3    3    0    0  0.10915945159E+02  0.61445418201E+01  0.14246835166E+00  0.12527312177E+02  0.51100000000E-03 0. -1.
        -11    1    3    3    0    0 -0.10321359882E+02  0.21759757077E+02 -0.11743933287E+02  0.26794355136E+02  0.51100000000E-03 0.  1.
         12    1    3    3    0    0  0.52252818584E+01 -0.32231647617E+02 -0.56635165093E+01  0.33139977336E+02  0.00000000000E+00 0. -1.
</event>
<event>
 7    1  0.3568800E-013  0.7246170E+02  0.7816164E-02  0.1226708E+00
        -11   -1    0    0    0    0  0.00000000000E+00  0.00000000000E+00  0.45593999997E+02  0.45594000000E+02  0.51100000000E-03 0. -1.
         11   -1    0    0    0    0 -0.00000000000E+00 -0.00000000000E+00 -0.45593999997E+02  0.45594000000E+02  0.51100000000E-03 0.  1.
    9900012    2    1    2    0    0  0.15132340244E+02 -0.10948900679E+02 -0.13446653304E+01  0.72461701055E+02  0.70000170340E+02 0.  0.
        -12    1    1    2    0    0 -0.15132340244E+02  0.10948900679E+02  0.13446653304E+01  0.18726298945E+02  0.00000000000E+00 0.  1.
         11    1    3    3    0    0 -0.23027439419E+02 -0.41881149770E+01  0.14291519070E+02  0.27423544462E+02  0.51100000000E-03 0. -1.
        -11    1    3    3    0    0 -0.26634502608E+00 -0.19701207623E+01 -0.42231469618E+01  0.46676852950E+01  0.51100000000E-03 0.  1.
        -12    1    3    3    0    0  0.38426124689E+02 -0.47906649397E+01 -0.11413037439E+02  0.40370471298E+02  0.00000000000E+00 0.  1.
</event>
<event>
 7    1  0.3568800E-013  0.7246161E+02  0.7816164E-02  0.1226708E+00
        -11   -1    0    0    0    0  0.00000000000E+00  0.00000000000E+00  0.45593999997E+02  0.45594000000E+02  0.51100000000E-03 0.  1.
         11   -1    0    0    0    0 -0.00000000000E+00 -0.00000000000E+00 -0.45593999997E+02  0.45594000000E+02  0.51100000000E-03 0. -1.
    9900012    2    1    2    0    0  0.12196353983E+02 -0.51253314548E+01  0.13253586630E+02  0.72461611358E+02  0.70000053494E+02 0.  0.
        -12    1    1    2    0    0 -0.12196353983E+02  0.51253314548E+01 -0.13253586630E+02  0.18726388642E+02  0.00000000000E+00 0.  1.
         11    1    3    3    0    0  0.34607778665E+01 -0.21632396711E+02 -0.14411081146E+02  0.26222448989E+02  0.51100000000E-03 0. -1.
        -11    1    3    3    0    0  0.78703324704E+01 -0.84318599988E+01  0.51585328874E+01  0.12635222912E+02  0.51100000000E-03 0.  1.
        -12    1    3    3    0    0  0.86524364602E+00  0.24938925255E+02  0.22506134888E+02  0.33603939457E+02  0.00000000000E+00 0.  1.
</event>
<event>
 7    1  0.3568800E-013  0.7246156E+02  0.7816164E-02  0.1226708E+00
        -11   -1    0    0    0    0  0.00000000000E+00  0.00000000000E+00  0.45593999997E+02  0.45594000000E+02  0.51100000000E-03 0. -1.
         11   -1    0    0    0    0 -0.00000000000E+00 -0.00000000000E+00 -0.45593999997E+02  0.45594000000E+02  0.51100000000E-03 0.  1.
    9900012    2    1    2    0    0  0.24080246589E+01 -0.46767491919E+01  0.17972454481E+02  0.72461556508E+02  0.69999982041E+02 0.  0.
        -12    1    1    2    0    0 -0.24080246589E+01  0.46767491919E+01 -0.17972454481E+02  0.18726443492E+02  0.00000000000E+00 0.  1.
         11    1    3    3    0    0  0.15004239639E+01  0.16306782178E+02  0.14596465502E+02  0.21936709472E+02  0.51100000000E-03 0. -1.
        -11    1    3    3    0    0 -0.21977833368E+02 -0.10403239804E+02 -0.30494671942E+01  0.24506158581E+02  0.51100000000E-03 0.  1.
         12    1    3    3    0    0  0.22885434063E+02 -0.10580291565E+02  0.64254561734E+01  0.26018688455E+02  0.00000000000E+00 0. -1.
</event>
<event>
 7    1  0.3568800E-013  0.7246155E+02  0.7816164E-02  0.1226708E+00
        -11   -1    0    0    0    0  0.00000000000E+00  0.00000000000E+00  0.45593999997E+02  0.45594000000E+02  0.51100000000E-03 0. -1.
         11   -1    0    0    0    0 -0.00000000000E+00 -0.00000000000E+00 -0.45593999997E+02  0.45594000000E+02  0.51100000000E-03 0.  1.
    9900012    2    1    2    0    0  0.58245219988E+01  0.17139793379E+02 -0.47939871948E+01  0.72461551142E+02  0.69999975051E+02 0.  0.
        -12    1    1    2    0    0 -0.58245219988E+01 -0.17139793379E+02  0.47939871948E+01  0.18726448858E+02  0.00000000000E+00 0.  1.
         11    1    3    3    0    0 -0.41664560812E+00  0.10986569392E+01  0.24583003838E+01  0.27246801043E+01  0.51100000000E-03 0. -1.
        -11    1    3    3    0    0  0.24084077153E+02 -0.17934587416E+02  0.25272843250E+01  0.30134355218E+02  0.51100000000E-03 0.  1.
         12    1    3    3    0    0 -0.17842909547E+02  0.33975723856E+02 -0.97795719036E+01  0.39602515819E+02  0.00000000000E+00 0. -1.
</event>
<event>
 7    1  0.3568800E-013  0.7246154E+02  0.7816164E-02  0.1226708E+00
        -11   -1    0    0    0    0  0.00000000000E+00  0.00000000000E+00  0.45593999997E+02  0.45594000000E+02  0.51100000000E-03 0.  1.
         11   -1    0    0    0    0 -0.00000000000E+00 -0.00000000000E+00 -0.45593999997E+02  0.45594000000E+02  0.51100000000E-03 0. -1.
    9900012    2    1    2    0    0  0.14931908158E+02 -0.10923661634E+02 -0.28969025812E+01  0.72461539862E+02  0.69999960356E+02 0.  0.
        -12    1    1    2    0    0 -0.14931908158E+02  0.10923661634E+02  0.28969025812E+01  0.18726460138E+02  0.00000000000E+00 0.  1.
         11    1    3    3    0    0  0.39709278441E+01 -0.33861198237E+01 -0.25233436168E+02  0.25767428597E+02  0.51100000000E-03 0. -1.
        -11    1    3    3    0    0  0.64550212670E+01 -0.16130937427E+02 -0.46751364990E+01  0.17992535769E+02  0.51100000000E-03 0.  1.
        -12    1    3    3    0    0  0.45059590465E+01  0.85933956164E+01  0.27011670086E+02  0.28701575496E+02  0.00000000000E+00 0.  1.
</event>
<event>
 7    1  0.3568800E-013  0.7246155E+02  0.7816164E-02  0.1226708E+00
        -11   -1    0    0    0    0  0.00000000000E+00  0.00000000000E+00  0.45593999997E+02  0.45594000000E+02  0.51100000000E-03 0. -1.
         11   -1    0    0    0    0 -0.00000000000E+00 -0.00000000000E+00 -0.45593999997E+02  0.45594000000E+02  0.51100000000E-03 0.  1.
    9900012    2    1    2    0    0  0.17658968714E+02  0.52930966953E+01  0.32899923089E+01  0.72461545502E+02  0.69999967704E+02 0.  0.
        -12    1    1    2    0    0 -0.17658968714E+02 -0.52930966953E+01 -0.32899923089E+01  0.18726454498E+02  0.00000000000E+00 0.  1.
         11    1    3    3    0    0  0.22312173291E+01 -0.16834702709E+02 -0.35992857653E+01  0.17359159091E+02  0.51100000000E-03 0. -1.
        -11    1    3    3    0    0  0.17469741572E+01  0.11583827255E+02 -0.19979517935E+02  0.23160701840E+02  0.51100000000E-03 0.  1.
         12    1    3    3    0    0  0.13680777228E+02  0.10543972150E+02  0.26868796009E+02  0.31941684571E+02  0.00000000000E+00 0. -1.
</event>
<event>
 7    1  0.3568800E-013  0.7246155E+02  0.7816164E-02  0.1226708E+00
        -11   -1    0    0    0    0  0.00000000000E+00  0.00000000000E+00  0.45593999997E+02  0.45594000000E+02  0.51100000000E-03 0.  1.
         11   -1    0    0    0    0 -0.00000000000E+00 -0.00000000000E+00 -0.45593999997E+02  0.45594000000E+02  0.51100000000E-03 0. -1.
    9900012    2    1    2    0    0 -0.10722584588E+02 -0.13740044690E+02  0.68496225915E+01  0.72461548709E+02  0.69999971881E+02 0.  0.
        -12    1    1    2    0    0  0.10722584588E+02  0.13740044690E+02 -0.68496225915E+01  0.18726451291E+02  0.00000000000E+00 0.  1.
         11    1    3    3    0    0  0.22163868080E+01  0.18270431173E+02  0.18767334900E+01  0.18499814988E+02  0.51100000000E-03 0. -1.
        -11    1    3    3    0    0  0.33165632186E+01  0.54157374596E+01  0.11013305308E+02  0.12713091595E+02  0.51100000000E-03 0.  1.
         12    1    3    3    0    0 -0.16255534614E+02 -0.37426213323E+02 -0.60404162069E+01  0.41248642126E+02  0.00000000000E+00 0. -1.
</event>
<event>
 7    1  0.3568800E-013  0.7246157E+02  0.7816164E-02  0.1226708E+00
        -11   -1    0    0    0    0  0.00000000000E+00  0.00000000000E+00  0.45593999997E+02  0.45594000000E+02  0.51100000000E-03 0. -1.
         11   -1    0    0    0    0 -0.00000000000E+00 -0.00000000000E+00 -0.45593999997E+02  0.45594000000E+02  0.51100000000E-03 0.  1.
    9900012    2    1    2    0    0 -0.11458957672E+02 -0.57852852233E+01  0.13634585373E+02  0.72461570699E+02  0.70000000528E+02 0.  0.
        -12    1    1    2    0    0  0.11458957672E+02  0.57852852233E+01 -0.13634585373E+02  0.18726429301E+02  0.00000000000E+00 0.  1.
         11    1    3    3    0    0 -0.64413081713E+01 -0.35142993022E+01  0.15229001075E+02  0.16904532663E+02  0.51100000000E-03 0. -1.
        -11    1    3    3    0    0  0.63174675041E+01  0.16628999475E+02  0.18548763201E+02  0.25700012368E+02  0.51100000000E-03 0.  1.
        -12    1    3    3    0    0 -0.11335117005E+02 -0.18899985396E+02 -0.20143178902E+02  0.29857025668E+02  0.00000000000E+00 0.  1.
</event>
<event>
 7    1  0.3568800E-013  0.7246159E+02  0.7816164E-02  0.1226708E+00
        -11   -1    0    0    0    0  0.00000000000E+00  0.00000000000E+00  0.45593999997E+02  0.45594000000E+02  0.51100000000E-03 0. -1.
         11   -1    0    0    0    0 -0.00000000000E+00 -0.00000000000E+00 -0.45593999997E+02  0.45594000000E+02  0.51100000000E-03 0.  1.
    9900012    2    1    2    0    0  0.99479344522E+01 -0.12758295991E+02  0.94309587893E+01  0.72461588167E+02  0.70000023283E+02 0.  0.
        -12    1    1    2    0    0 -0.99479344522E+01  0.12758295991E+02 -0.94309587893E+01  0.18726411833E+02  0.00000000000E+00 0.  1.
         11    1    3    3    0    0  0.26465787725E+02 -0.21566682993E+02  0.12983569773E+02  0.36525782942E+02  0.51100000000E-03 0. -1.
        -11    1    3    3    0    0  0.28713674284E+01 -0.46666794418E+01  0.79625901555E+01  0.96656862233E+01  0.51100000000E-03 0.  1.
        -12    1    3    3    0    0 -0.19389220701E+02  0.13475066444E+02 -0.11515201139E+02  0.26270119002E+02  0.00000000000E+00 0.  1.
</event>
<event>
 7    1  0.3568800E-013  0.7246145E+02  0.7816164E-02  0.1226708E+00
        -11   -1    0    0    0    0  0.00000000000E+00  0.00000000000E+00  0.45593999997E+02  0.45594000000E+02  0.51100000000E-03 0.  1.
         11   -1    0    0    0    0 -0.00000000000E+00 -0.00000000000E+00 -0.45593999997E+02  0.45594000000E+02  0.51100000000E-03 0. -1.
    9900012    2    1    2    0    0  0.35249829932E+00 -0.22841134839E+01 -0.18583384207E+02  0.72461452052E+02  0.69999845968E+02 0.  0.
        -12    1    1    2    0    0 -0.35249829932E+00  0.22841134839E+01  0.18583384207E+02  0.18726547948E+02  0.00000000000E+00 0.  1.
         11    1    3    3    0    0  0.21463434161E+02 -0.11212687937E+02 -0.24322152660E+02  0.34321574658E+02  0.51100000000E-03 0. -1.
        -11    1    3    3    0    0 -0.12866145382E+02 -0.69710369232E+00 -0.11139625175E+02  0.17032759608E+02  0.51100000000E-03 0.  1.
        -12    1    3    3    0    0 -0.82447904792E+01  0.96256781451E+01  0.16878393628E+02  0.21107117787E+02  0.00000000000E+00 0.  1.
</event>
<event>
 7    1  0.3568800E-013  0.7246183E+02  0.7816164E-02  0.1226707E+00
        -11   -1    0    0    0    0  0.00000000000E+00  0.00000000000E+00  0.45593999997E+02  0.45594000000E+02  0.51100000000E-03 0.  1.
         11   -1    0    0    0    0 -0.00000000000E+00 -0.00000000000E+00 -0.45593999997E+02  0.45594000000E+02  0.51100000000E-03 0. -1.
    9900012    2    1    2    0    0 -0.56850991641E+01  0.12953238732E+02 -0.12270397963E+02  0.72461830816E+02  0.70000339377E+02 0.  0.
        -12    1    1    2    0    0  0.56850991641E+01 -0.12953238732E+02  0.12270397963E+02  0.18726169184E+02  0.00000000000E+00 0.  1.
         11    1    3    3    0    0  0.21746111113E+02  0.18858751775E+02 -0.17991763909E+02  0.33944799836E+02  0.51100000000E-03 0. -1.
        -11    1    3    3    0    0 -0.22439566760E+01 -0.59686000407E+01 -0.76834655795E+01  0.99847469463E+01  0.51100000000E-03 0.  1.
        -12    1    3    3    0    0 -0.25187253601E+02  0.63086996985E-01  0.13404831526E+02  0.28532284034E+02  0.00000000000E+00 0.  1.
</event>
<event>
 7    1  0.3568800E-013  0.7246157E+02  0.7816164E-02  0.1226708E+00
        -11   -1    0    0    0    0  0.00000000000E+00  0.00000000000E+00  0.45593999997E+02  0.45594000000E+02  0.51100000000E-03 0. -1.
         11   -1    0    0    0    0 -0.00000000000E+00 -0.00000000000E+00 -0.45593999997E+02  0.45594000000E+02  0.51100000000E-03 0.  1.
    9900012    2    1    2    0    0 -0.15574991438E+02  0.69302709569E+01  0.77505026561E+01  0.72461566670E+02  0.69999995279E+02 0.  0.
        -12    1    1    2    0    0  0.15574991438E+02 -0.69302709569E+01 -0.77505026561E+01  0.18726433330E+02  0.00000000000E+00 0.  1.
         11    1    3    3    0    0 -0.35374133917E+00  0.26296168970E+02 -0.10121341592E+02  0.28178984924E+02  0.51100000000E-03 0. -1.
        -11    1    3    3    0    0 -0.10848534413E+02  0.16615283649E+01 -0.57222195116E+01  0.12377203716E+02  0.51100000000E-03 0.  1.
         12    1    3    3    0    0 -0.43727156860E+01 -0.21027426378E+02  0.23594063759E+02  0.31905378030E+02  0.00000000000E+00 0. -1.
</event>
<event>
 7    1  0.3568800E-013  0.7246158E+02  0.7816164E-02  0.1226708E+00
        -11   -1    0    0    0    0  0.00000000000E+00  0.00000000000E+00  0.45593999997E+02  0.45594000000E+02  0.51100000000E-03 0.  1.
         11   -1    0    0    0    0 -0.00000000000E+00 -0.00000000000E+00 -0.45593999997E+02  0.45594000000E+02  0.51100000000E-03 0. -1.
    9900012    2    1    2    0    0 -0.58113262282E+01 -0.92327937143E+01 -0.15220475298E+02  0.72461578542E+02  0.70000010745E+02 0.  0.
        -12    1    1    2    0    0  0.58113262282E+01  0.92327937143E+01  0.15220475298E+02  0.18726421458E+02  0.00000000000E+00 0.  1.
         11    1    3    3    0    0 -0.17749536963E+02  0.16100738517E+02 -0.99572099417E+00  0.23984814024E+02  0.51100000000E-03 0. -1.
        -11    1    3    3    0    0 -0.12506780424E+02 -0.11588848405E+02 -0.10898470521E+02  0.20236047635E+02  0.51100000000E-03 0.  1.
        -12    1    3    3    0    0  0.24444991159E+02 -0.13744683827E+02 -0.33262837829E+01  0.28240716883E+02  0.00000000000E+00 0.  1.
</event>
<event>
 7    1  0.3568800E-013  0.7246156E+02  0.7816164E-02  0.1226708E+00
        -11   -1    0    0    0    0  0.00000000000E+00  0.00000000000E+00  0.45593999997E+02  0.45594000000E+02  0.51100000000E-03 0. -1.
         11   -1    0    0    0    0 -0.00000000000E+00 -0.00000000000E+00 -0.45593999997E+02  0.45594000000E+02  0.51100000000E-03 0.  1.
    9900012    2    1    2    0    0  0.75427898652E+01 -0.10410869558E+01  0.17108536205E+02  0.72461560080E+02  0.69999986694E+02 0.  0.
        -12    1    1    2    0    0 -0.75427898652E+01  0.10410869558E+01 -0.17108536205E+02  0.18726439920E+02  0.00000000000E+00 0.  1.
         11    1    3    3    0    0 -0.71447612192E+00  0.78754258538E+00 -0.80581680991E+01  0.81280239189E+01  0.51100000000E-03 0. -1.
        -11    1    3    3    0    0 -0.18488776040E+02 -0.21277531825E+01 -0.92194680354E+01  0.20769226374E+02  0.51100000000E-03 0.  1.
         12    1    3    3    0    0  0.26746042027E+02  0.29912364135E+00  0.34386172339E+02  0.43564309787E+02  0.00000000000E+00 0. -1.
</event>
<event>
 7    1  0.3568800E-013  0.7246187E+02  0.7816164E-02  0.1226707E+00
        -11   -1    0    0    0    0  0.00000000000E+00  0.00000000000E+00  0.45593999997E+02  0.45594000000E+02  0.51100000000E-03 0.  1.
         11   -1    0    0    0    0 -0.00000000000E+00 -0.00000000000E+00 -0.45593999997E+02  0.45594000000E+02  0.51100000000E-03 0. -1.
    9900012    2    1    2    0    0 -0.10743725350E+02 -0.98987154679E+01 -0.11715619660E+02  0.72461869959E+02  0.70000390368E+02 0.  0.
        -12    1    1    2    0    0  0.10743725350E+02  0.98987154679E+01  0.11715619660E+02  0.18726130041E+02  0.00000000000E+00 0.  1.
         11    1    3    3    0    0 -0.40688350461E+01  0.38193062108E+01  0.10632757270E+02  0.12008249081E+02  0.51100000000E-03 0.  1.
        -11    1    3    3    0    0 -0.12191174161E+02 -0.27011656781E+02  0.45152215263E+01  0.29977350703E+02  0.51100000000E-03 0. -1.
         12    1    3    3    0    0  0.55162838569E+01  0.13293635103E+02 -0.26863598455E+02  0.30476270175E+02  0.00000000000E+00 0. -1.
</event>
<event>
 7    1  0.3568800E-013  0.7246155E+02  0.7816164E-02  0.1226708E+00
        -11   -1    0    0    0    0  0.00000000000E+00  0.00000000000E+00  0.45593999997E+02  0.45594000000E+02  0.51100000000E-03 0.  1.
         11   -1    0    0    0    0 -0.00000000000E+00 -0.00000000000E+00 -0.45593999997E+02  0.45594000000E+02  0.51100000000E-03 0. -1.
    9900012    2    1    2    0    0 -0.69423174908E+01  0.15943261473E+02 -0.69495653483E+01  0.72461553005E+02  0.69999977477E+02 0.  0.
        -12    1    1    2    0    0  0.69423174908E+01 -0.15943261473E+02  0.69495653483E+01  0.18726446995E+02  0.00000000000E+00 0.  1.
         11    1    3    3    0    0 -0.13014267113E+02  0.17985570210E+02 -0.23979591187E+01  0.22329399734E+02  0.51100000000E-03 0. -1.
        -11    1    3    3    0    0  0.10397771742E+01  0.10644141030E+02  0.19636062544E+02  0.22359647299E+02  0.51100000000E-03 0.  1.
         12    1    3    3    0    0  0.50321724485E+01 -0.12686449767E+02 -0.24187668774E+02  0.27772505972E+02  0.00000000000E+00 0. -1.
</event>
<event>
 7    1  0.3568800E-013  0.7246156E+02  0.7816164E-02  0.1226708E+00
        -11   -1    0    0    0    0  0.00000000000E+00  0.00000000000E+00  0.45593999997E+02  0.45594000000E+02  0.51100000000E-03 0.  1.
         11   -1    0    0    0    0 -0.00000000000E+00 -0.00000000000E+00 -0.45593999997E+02  0.45594000000E+02  0.51100000000E-03 0. -1.
    9900012    2    1    2    0    0 -0.38870123870E+01 -0.15565079297E+02 -0.96591431285E+01  0.72461558672E+02  0.69999984860E+02 0.  0.
        -12    1    1    2    0    0  0.38870123870E+01  0.15565079297E+02  0.96591431285E+01  0.18726441328E+02  0.00000000000E+00 0.  1.
         11    1    3    3    0    0  0.60384422496E+01  0.15993743166E+02 -0.27498266245E+01  0.17315431036E+02  0.51100000000E-03 0. -1.
        -11    1    3    3    0    0  0.10838236348E+02 -0.11471555493E+02  0.12676885189E+02  0.20242711551E+02  0.51100000000E-03 0.  1.
         12    1    3    3    0    0 -0.20763690985E+02 -0.20087266970E+02 -0.19586201693E+02  0.34903416085E+02  0.00000000000E+00 0. -1.
</event>
<event>
 7    1  0.3568800E-013  0.7246145E+02  0.7816164E-02  0.1226708E+00
        -11   -1    0    0    0    0  0.00000000000E+00  0.00000000000E+00  0.45593999997E+02  0.45594000000E+02  0.51100000000E-03 0. -1.
         11   -1    0    0    0    0 -0.00000000000E+00 -0.00000000000E+00 -0.45593999997E+02  0.45594000000E+02  0.51100000000E-03 0.  1.
    9900012    2    1    2    0    0  0.22843171399E+01 -0.11909891294E+02  0.14269553534E+02  0.72461447368E+02  0.69999839865E+02 0.  0.
        -12    1    1    2    0    0 -0.22843171399E+01  0.11909891294E+02 -0.14269553534E+02  0.18726552632E+02  0.00000000000E+00 0.  1.
         11    1    3    3    0    0 -0.20526075412E+02 -0.76917188586E+01  0.24868671823E+02  0.33150160623E+02  0.51100000000E-03 0. -1.
        -11    1    3    3    0    0  0.51670824112E-01  0.46991705003E+01  0.75317646188E+01  0.88776321054E+01  0.51100000000E-03 0.  1.
        -12    1    3    3    0    0  0.22758721728E+02 -0.89173429352E+01 -0.18130882908E+02  0.30433654639E+02  0.00000000000E+00 0.  1.
</event>
<event>
 7    1  0.3568800E-013  0.7246154E+02  0.7816164E-02  0.1226708E+00
        -11   -1    0    0    0    0  0.00000000000E+00  0.00000000000E+00  0.45593999997E+02  0.45594000000E+02  0.51100000000E-03 0. -1.
         11   -1    0    0    0    0 -0.00000000000E+00 -0.00000000000E+00 -0.45593999997E+02  0.45594000000E+02  0.51100000000E-03 0.  1.
    9900012    2    1    2    0    0  0.12345579997E+02  0.12884394911E+02 -0.56797134144E+01  0.72461544859E+02  0.69999966866E+02 0.  0.
        -12    1    1    2    0    0 -0.12345579997E+02 -0.12884394911E+02  0.56797134144E+01  0.18726455141E+02  0.00000000000E+00 0.  1.
         11    1    3    3    0    0  0.24422844306E+02  0.34511480220E+00  0.87865260131E+01  0.25957609055E+02  0.51100000000E-03 0. -1.
        -11    1    3    3    0    0  0.98132028800E+01  0.33272902192E+01 -0.19632053635E+02  0.22198813959E+02  0.51100000000E-03 0.  1.
         12    1    3    3    0    0 -0.21890467189E+02  0.92119898897E+01  0.51658142080E+01  0.24305121845E+02  0.00000000000E+00 0. -1.
</event>
<event>
 7    1  0.3568800E-013  0.7246156E+02  0.7816164E-02  0.1226708E+00
        -11   -1    0    0    0    0  0.00000000000E+00  0.00000000000E+00  0.45593999997E+02  0.45594000000E+02  0.51100000000E-03 0.  1.
         11   -1    0    0    0    0 -0.00000000000E+00 -0.00000000000E+00 -0.45593999997E+02  0.45594000000E+02  0.51100000000E-03 0. -1.
    9900012    2    1    2    0    0  0.12685976054E+02  0.12033050331E+02 -0.67045804544E+01  0.72461556457E+02  0.69999981974E+02 0.  0.
        -12    1    1    2    0    0 -0.12685976054E+02 -0.12033050331E+02  0.67045804544E+01  0.18726443543E+02  0.00000000000E+00 0.  1.
         11    1    3    3    0    0  0.20732665790E+02  0.89093516861E+01 -0.21783940699E+02  0.31364949400E+02  0.51100000000E-03 0. -1.
        -11    1    3    3    0    0  0.11616769853E+02  0.11586737723E+02  0.95593565433E+01  0.18989026585E+02  0.51100000000E-03 0.  1.
         12    1    3    3    0    0 -0.19663459589E+02 -0.84630390779E+01  0.55200037016E+01  0.22107580472E+02  0.00000000000E+00 0. -1.
</event>
<event>
 7    1  0.3568800E-013  0.7246152E+02  0.7816164E-02  0.1226708E+00
        -11   -1    0    0    0    0  0.00000000000E+00  0.00000000000E+00  0.45593999997E+02  0.45594000000E+02  0.51100000000E-03 0. -1.
         11   -1    0    0    0    0 -0.00000000000E+00 -0.00000000000E+00 -0.45593999997E+02  0.45594000000E+02  0.51100000000E-03 0.  1.
    9900012    2    1    2    0    0 -0.25072619685E+01  0.17349170639E+02  0.65879484052E+01  0.72461517452E+02  0.69999931162E+02 0.  0.
        -12    1    1    2    0    0  0.25072619685E+01 -0.17349170639E+02 -0.65879484052E+01  0.18726482548E+02  0.00000000000E+00 0.  1.
         11    1    3    3    0    0 -0.68552237939E+01  0.15328283184E+02  0.49340306039E+01  0.17501286150E+02  0.51100000000E-03 0. -1.
        -11    1    3    3    0    0 -0.17377648146E+02 -0.14639608857E+02  0.11995020166E+02  0.25693993687E+02  0.51100000000E-03 0.  1.
         12    1    3    3    0    0  0.21725609971E+02  0.16660496312E+02 -0.10341102365E+02  0.29266237614E+02  0.00000000000E+00 0. -1.
</event>
<event>
 7    1  0.3568800E-013  0.7246159E+02  0.7816164E-02  0.1226708E+00
        -11   -1    0    0    0    0  0.00000000000E+00  0.00000000000E+00  0.45593999997E+02  0.45594000000E+02  0.51100000000E-03 0.  1.
         11   -1    0    0    0    0 -0.00000000000E+00 -0.00000000000E+00 -0.45593999997E+02  0.45594000000E+02  0.51100000000E-03 0. -1.
    9900012    2    1    2    0    0  0.57369312751E+00 -0.10259811619E+02 -0.15655206787E+02  0.72461591968E+02  0.70000028233E+02 0.  0.
        -12    1    1    2    0    0 -0.57369312751E+00  0.10259811619E+02  0.15655206787E+02  0.18726408032E+02  0.00000000000E+00 0.  1.
         11    1    3    3    0    0 -0.23533221029E+02  0.64352600090E+00  0.12460409720E+01  0.23574970542E+02  0.51100000000E-03 0. -1.
        -11    1    3    3    0    0 -0.81059598286E+01  0.31625759485E+01  0.20698842716E+01  0.89438745817E+01  0.51100000000E-03 0.  1.
         12    1    3    3    0    0  0.32212873985E+02 -0.14065913568E+02 -0.18971132030E+02  0.39942746843E+02  0.00000000000E+00 0. -1.
</event>
<event>
 7    1  0.3568800E-013  0.7246163E+02  0.7816164E-02  0.1226708E+00
        -11   -1    0    0    0    0  0.00000000000E+00  0.00000000000E+00  0.45593999997E+02  0.45594000000E+02  0.51100000000E-03 0.  1.
         11   -1    0    0    0    0 -0.00000000000E+00 -0.00000000000E+00 -0.45593999997E+02  0.45594000000E+02  0.51100000000E-03 0. -1.
    9900012    2    1    2    0    0 -0.40815434039E+01 -0.97206864134E+01 -0.15476631445E+02  0.72461631911E+02  0.70000080267E+02 0.  0.
        -12    1    1    2    0    0  0.40815434039E+01  0.97206864134E+01  0.15476631445E+02  0.18726368089E+02  0.00000000000E+00 0.  1.
         11    1    3    3    0    0  0.54080176211E+01 -0.15214736527E+01 -0.40746070168E+01  0.69400258838E+01  0.51100000000E-03 0. -1.
        -11    1    3    3    0    0 -0.16966615128E+02 -0.33760168954E+02 -0.85335835637E+01  0.38735475800E+02  0.51100000000E-03 0.  1.
        -12    1    3    3    0    0  0.74770541033E+01  0.25560956193E+02 -0.28684408648E+01  0.26786130228E+02  0.00000000000E+00 0.  1.
</event>
<event>
 7    1  0.3568800E-013  0.7246159E+02  0.7816164E-02  0.1226708E+00
        -11   -1    0    0    0    0  0.00000000000E+00  0.00000000000E+00  0.45593999997E+02  0.45594000000E+02  0.51100000000E-03 0.  1.
         11   -1    0    0    0    0 -0.00000000000E+00 -0.00000000000E+00 -0.45593999997E+02  0.45594000000E+02  0.51100000000E-03 0. -1.
    9900012    2    1    2    0    0 -0.99147853431E+01 -0.93174546492E+01 -0.12867024849E+02  0.72461594632E+02  0.70000031704E+02 0.  0.
        -12    1    1    2    0    0  0.99147853431E+01  0.93174546492E+01  0.12867024849E+02  0.18726405368E+02  0.00000000000E+00 0.  1.
         11    1    3    3    0    0 -0.37037524493E+01 -0.75611202174E+01 -0.19488336779E+02  0.21229309735E+02  0.51100000000E-03 0. -1.
        -11    1    3    3    0    0 -0.84626173295E+01 -0.19826230049E+02  0.19388179845E+02  0.28993047580E+02  0.51100000000E-03 0.  1.
         12    1    3    3    0    0  0.22515844357E+01  0.18069895617E+02 -0.12766867915E+02  0.22239237317E+02  0.00000000000E+00 0. -1.
</event>
<event>
 7    1  0.3568800E-013  0.7246160E+02  0.7816164E-02  0.1226708E+00
        -11   -1    0    0    0    0  0.00000000000E+00  0.00000000000E+00  0.45593999997E+02  0.45594000000E+02  0.51100000000E-03 0.  1.
         11   -1    0    0    0    0 -0.00000000000E+00 -0.00000000000E+00 -0.45593999997E+02  0.45594000000E+02  0.51100000000E-03 0. -1.
    9900012    2    1    2    0    0 -0.85975895756E+01  0.23091545271E+01 -0.16475055894E+02  0.72461595971E+02  0.70000033449E+02 0.  0.
        -12    1    1    2    0    0  0.85975895756E+01 -0.23091545271E+01  0.16475055894E+02  0.18726404029E+02  0.00000000000E+00 0.  1.
         11    1    3    3    0    0 -0.10571248792E+01  0.72052492337E+01 -0.34373630630E+02  0.35136585100E+02  0.51100000000E-03 0. -1.
        -11    1    3    3    0    0  0.45506681005E+01 -0.48104271531E+01 -0.70061098157E+01  0.96402471217E+01  0.51100000000E-03 0.  1.
        -12    1    3    3    0    0 -0.12091132797E+02 -0.85667553533E-01  0.24904684552E+02  0.27684763749E+02  0.00000000000E+00 0.  1.
</event>
<event>
 7    1  0.3568800E-013  0.7246151E+02  0.7816164E-02  0.1226708E+00
        -11   -1    0    0    0    0  0.00000000000E+00  0.00000000000E+00  0.45593999997E+02  0.45594000000E+02  0.51100000000E-03 0.  1.
         11   -1    0    0    0    0 -0.00000000000E+00 -0.00000000000E+00 -0.45593999997E+02  0.45594000000E+02  0.51100000000E-03 0. -1.
    9900012    2    1    2    0    0  0.14891887698E+02  0.11315144963E+02  0.93843116177E+00  0.72461508663E+02  0.69999919714E+02 0.  0.
        -12    1    1    2    0    0 -0.14891887698E+02 -0.11315144963E+02 -0.93843116177E+00  0.18726491337E+02  0.00000000000E+00 0.  1.
         11    1    3    3    0    0  0.31365753140E+01  0.19639941613E+02  0.35614021262E+01  0.20205172521E+02  0.51100000000E-03 0. -1.
        -11    1    3    3    0    0 -0.57547886523E+01  0.13107377789E+02 -0.16040848251E+02  0.21499529247E+02  0.51100000000E-03 0.  1.
        -12    1    3    3    0    0  0.17510101036E+02 -0.21432174439E+02  0.13417877287E+02  0.30756806895E+02  0.00000000000E+00 0.  1.
</event>
<event>
 7    1  0.3568800E-013  0.7246160E+02  0.7816164E-02  0.1226708E+00
        -11   -1    0    0    0    0  0.00000000000E+00  0.00000000000E+00  0.45593999997E+02  0.45594000000E+02  0.51100000000E-03 0. -1.
         11   -1    0    0    0    0 -0.00000000000E+00 -0.00000000000E+00 -0.45593999997E+02  0.45594000000E+02  0.51100000000E-03 0.  1.
    9900012    2    1    2    0    0  0.18386556042E+02 -0.24349524788E+00  0.35430431356E+01  0.72461604520E+02  0.70000044585E+02 0.  0.
        -12    1    1    2    0    0 -0.18386556042E+02  0.24349524788E+00 -0.35430431356E+01  0.18726395480E+02  0.00000000000E+00 0.  1.
         11    1    3    3    0    0  0.77547000731E+00  0.75115290989E+01  0.17741575523E+02  0.19281802961E+02  0.51100000000E-03 0. -1.
        -11    1    3    3    0    0  0.17151958204E+00  0.18171384801E+02  0.14580872123E+01  0.18230596895E+02  0.51100000000E-03 0.  1.
         12    1    3    3    0    0  0.17439566452E+02 -0.25926409148E+02 -0.15656619600E+02  0.34949204664E+02  0.00000000000E+00 0. -1.
</event>
<event>
 7    1  0.3568800E-013  0.7246159E+02  0.7816164E-02  0.1226708E+00
        -11   -1    0    0    0    0  0.00000000000E+00  0.00000000000E+00  0.45593999997E+02  0.45594000000E+02  0.51100000000E-03 0. -1.
         11   -1    0    0    0    0 -0.00000000000E+00 -0.00000000000E+00 -0.45593999997E+02  0.45594000000E+02  0.51100000000E-03 0.  1.
    9900012    2    1    2    0    0 -0.13908472583E+02 -0.42324902456E+01 -0.11803335246E+02  0.72461593345E+02  0.70000030028E+02 0.  0.
        -12    1    1    2    0    0  0.13908472583E+02  0.42324902456E+01  0.11803335246E+02  0.18726406655E+02  0.00000000000E+00 0.  1.
         11    1    3    3    0    0 -0.11854185572E+02 -0.40691077041E+01 -0.25578279554E+02  0.28483815375E+02  0.51100000000E-03 0. -1.
        -11    1    3    3    0    0  0.13243548109E+02  0.13531458965E+02 -0.55067106825E+00  0.18941889746E+02  0.51100000000E-03 0.  1.
         12    1    3    3    0    0 -0.15297835121E+02 -0.13694841507E+02  0.14325615377E+02  0.25035888225E+02  0.00000000000E+00 0. -1.
</event>
<event>
 7    1  0.3568800E-013  0.7246156E+02  0.7816164E-02  0.1226708E+00
        -11   -1    0    0    0    0  0.00000000000E+00  0.00000000000E+00  0.45593999997E+02  0.45594000000E+02  0.51100000000E-03 0.  1.
         11   -1    0    0    0    0 -0.00000000000E+00 -0.00000000000E+00 -0.45593999997E+02  0.45594000000E+02  0.51100000000E-03 0. -1.
    9900012    2    1    2    0    0  0.11372848643E+02 -0.84475970128E+01 -0.12246461549E+02  0.72461564086E+02  0.69999991913E+02 0.  0.
        -12    1    1    2    0    0 -0.11372848643E+02  0.84475970128E+01  0.12246461549E+02  0.18726435914E+02  0.00000000000E+00 0.  1.
         11    1    3    3    0    0 -0.13090082857E+02  0.18643626582E+02 -0.90675081236E+01  0.24518458051E+02  0.51100000000E-03 0. -1.
        -11    1    3    3    0    0 -0.44074144037E+01  0.29783038180E+01 -0.32956227107E+01  0.62575334335E+01  0.51100000000E-03 0.  1.
        -12    1    3    3    0    0  0.28870345904E+02 -0.30069527413E+02  0.11666928497E+00  0.41685572602E+02  0.00000000000E+00 0.  1.
</event>
<event>
 7    1  0.3568800E-013  0.7246133E+02  0.7816164E-02  0.1226709E+00
        -11   -1    0    0    0    0  0.00000000000E+00  0.00000000000E+00  0.45593999997E+02  0.45594000000E+02  0.51100000000E-03 0. -1.
         11   -1    0    0    0    0 -0.00000000000E+00 -0.00000000000E+00 -0.45593999997E+02  0.45594000000E+02  0.51100000000E-03 0.  1.
    9900012    2    1    2    0    0 -0.13980278052E+02  0.23287720066E+01  0.12239968505E+02  0.72461329648E+02  0.69999686513E+02 0.  0.
        -12    1    1    2    0    0  0.13980278052E+02 -0.23287720066E+01 -0.12239968505E+02  0.18726670352E+02  0.00000000000E+00 0.  1.
         11    1    3    3    0    0 -0.37438922379E+01  0.50875831452E+01  0.21604034278E+01  0.66758950396E+01  0.51100000000E-03 0. -1.
        -11    1    3    3    0    0 -0.99273892679E+01 -0.63874024665E+01 -0.26507681886E+02  0.29017394217E+02  0.51100000000E-03 0.  1.
         12    1    3    3    0    0 -0.30899654602E+00  0.36285913279E+01  0.36587246963E+02  0.36768040391E+02  0.00000000000E+00 0. -1.
</event>
<event>
 7    1  0.3568800E-013  0.7246164E+02  0.7816164E-02  0.1226708E+00
        -11   -1    0    0    0    0  0.00000000000E+00  0.00000000000E+00  0.45593999997E+02  0.45594000000E+02  0.51100000000E-03 0.  1.
         11   -1    0    0    0    0 -0.00000000000E+00 -0.00000000000E+00 -0.45593999997E+02  0.45594000000E+02  0.51100000000E-03 0. -1.
    9900012    2    1    2    0    0 -0.21843927225E+01  0.16990600483E+02  0.75646833566E+01  0.72461641288E+02  0.70000092482E+02 0.  0.
        -12    1    1    2    0    0  0.21843927225E+01 -0.16990600483E+02 -0.75646833566E+01  0.18726358712E+02  0.00000000000E+00 0.  1.
         11    1    3    3    0    0 -0.18066113424E+02  0.15509951056E+02  0.13750919611E+02  0.27496014737E+02  0.51100000000E-03 0. -1.
        -11    1    3    3    0    0 -0.83892028471E+01  0.63397310391E+01 -0.15320104016E+02  0.18581617298E+02  0.51100000000E-03 0.  1.
        -12    1    3    3    0    0  0.24270923548E+02 -0.48590816117E+01  0.91338677617E+01  0.26384009253E+02  0.00000000000E+00 0.  1.
</event>
<event>
 7    1  0.3568800E-013  0.7246158E+02  0.7816164E-02  0.1226708E+00
        -11   -1    0    0    0    0  0.00000000000E+00  0.00000000000E+00  0.45593999997E+02  0.45594000000E+02  0.51100000000E-03 0. -1.
         11   -1    0    0    0    0 -0.00000000000E+00 -0.00000000000E+00 -0.45593999997E+02  0.45594000000E+02  0.51100000000E-03 0.  1.
    9900012    2    1    2    0    0  0.83019426842E+01 -0.41022059139E+00  0.16780589299E+02  0.72461582551E+02  0.70000015966E+02 0.  0.
        -12    1    1    2    0    0 -0.83019426842E+01  0.41022059139E+00 -0.16780589299E+02  0.18726417449E+02  0.00000000000E+00 0.  1.
         11    1    3    3    0    0  0.33639763212E+02 -0.90819913463E+01  0.23545403665E+02  0.42053564294E+02  0.51100000000E-03 0. -1.
        -11    1    3    3    0    0 -0.25172247415E+00 -0.21379307360E+01 -0.14065528804E+01  0.25714788163E+01  0.51100000000E-03 0.  1.
        -12    1    3    3    0    0 -0.25086098054E+02  0.10809701491E+02 -0.53582614852E+01  0.27836539441E+02  0.00000000000E+00 0.  1.
</event>
<event>
 7    1  0.3568800E-013  0.7246165E+02  0.7816164E-02  0.1226708E+00
        -11   -1    0    0    0    0  0.00000000000E+00  0.00000000000E+00  0.45593999997E+02  0.45594000000E+02  0.51100000000E-03 0. -1.
         11   -1    0    0    0    0 -0.00000000000E+00 -0.00000000000E+00 -0.45593999997E+02  0.45594000000E+02  0.51100000000E-03 0.  1.
    9900012    2    1    2    0    0  0.29373384553E+01 -0.22036997062E+01  0.18362790857E+02  0.72461645906E+02  0.70000098499E+02 0.  0.
        -12    1    1    2    0    0 -0.29373384553E+01  0.22036997062E+01 -0.18362790857E+02  0.18726354094E+02  0.00000000000E+00 0.  1.
         11    1    3    3    0    0  0.43580858310E+01 -0.82262602678E+01  0.12232243139E+02  0.15371793733E+02  0.51100000000E-03 0. -1.
        -11    1    3    3    0    0 -0.20016784365E+02 -0.17617741752E+02  0.35628787537E+01  0.26902612997E+02  0.51100000000E-03 0.  1.
         12    1    3    3    0    0  0.18596036989E+02  0.23640302314E+02  0.25676689643E+01  0.30187239177E+02  0.00000000000E+00 0. -1.
</event>
<event>
 7    1  0.3568800E-013  0.7246177E+02  0.7816164E-02  0.1226707E+00
        -11   -1    0    0    0    0  0.00000000000E+00  0.00000000000E+00  0.45593999997E+02  0.45594000000E+02  0.51100000000E-03 0.  1.
         11   -1    0    0    0    0 -0.00000000000E+00 -0.00000000000E+00 -0.45593999997E+02  0.45594000000E+02  0.51100000000E-03 0. -1.
    9900012    2    1    2    0    0  0.99097890297E+01  0.11705455649E+02 -0.10744766391E+02  0.72461771993E+02  0.70000262749E+02 0.  0.
        -12    1    1    2    0    0 -0.99097890297E+01 -0.11705455649E+02  0.10744766391E+02  0.18726228007E+02  0.00000000000E+00 0.  1.
         11    1    3    3    0    0 -0.26973131733E+01 -0.11098208908E+02 -0.11254252507E+02  0.16034460985E+02  0.51100000000E-03 0. -1.
        -11    1    3    3    0    0 -0.14965076928E+02  0.24210049485E+02 -0.29012941868E+01  0.28609395865E+02  0.51100000000E-03 0.  1.
         12    1    3    3    0    0  0.27572179131E+02 -0.14063849272E+01  0.34107803028E+01  0.27817915143E+02  0.00000000000E+00 0. -1.
</event>
<event>
 7    1  0.3568800E-013  0.7246164E+02  0.7816164E-02  0.1226708E+00
        -11   -1    0    0    0    0  0.00000000000E+00  0.00000000000E+00  0.45593999997E+02  0.45594000000E+02  0.51100000000E-03 0.  1.
         11   -1    0    0    0    0 -0.00000000000E+00 -0.00000000000E+00 -0.45593999997E+02  0.45594000000E+02  0.51100000000E-03 0. -1.
    9900012    2    1    2    0    0 -0.17984722167E+02 -0.29095541049E-01 -0.52178074266E+01  0.72461639106E+02  0.70000089640E+02 0.  0.
        -12    1    1    2    0    0  0.17984722167E+02  0.29095541049E-01  0.52178074266E+01  0.18726360894E+02  0.00000000000E+00 0.  1.
         11    1    3    3    0    0 -0.16141075023E+02  0.57201365116E+01 -0.20670920589E+02  0.26842898928E+02  0.51100000000E-03 0. -1.
        -11    1    3    3    0    0  0.15889095797E+02  0.10072975449E+02  0.39821462638E+01  0.19229812499E+02  0.51100000000E-03 0.  1.
         12    1    3    3    0    0 -0.17732742941E+02 -0.15822207501E+02  0.11470966899E+02  0.26388927679E+02  0.00000000000E+00 0. -1.
</event>
<event>
 7    1  0.3568800E-013  0.7246140E+02  0.7816164E-02  0.1226708E+00
        -11   -1    0    0    0    0  0.00000000000E+00  0.00000000000E+00  0.45593999997E+02  0.45594000000E+02  0.51100000000E-03 0. -1.
         11   -1    0    0    0    0 -0.00000000000E+00 -0.00000000000E+00 -0.45593999997E+02  0.45594000000E+02  0.51100000000E-03 0.  1.
    9900012    2    1    2    0    0 -0.13518676476E+02  0.12847161446E+02  0.16975006858E+01  0.72461396479E+02  0.69999773573E+02 0.  0.
        -12    1    1    2    0    0  0.13518676476E+02 -0.12847161446E+02 -0.16975006858E+01  0.18726603521E+02  0.00000000000E+00 0.  1.
         11    1    3    3    0    0  0.95926430406E+01 -0.54116888874E+01 -0.50529073360E+01  0.12117633842E+02  0.51100000000E-03 0. -1.
        -11    1    3    3    0    0 -0.17707941364E+01 -0.16049507614E+02 -0.70901071582E+01  0.17634966014E+02  0.51100000000E-03 0.  1.
         12    1    3    3    0    0 -0.21340525380E+02  0.34308357947E+02  0.13840515180E+02  0.42708796623E+02  0.00000000000E+00 0. -1.
</event>
<event>
 7    1  0.3568800E-013  0.7246155E+02  0.7816164E-02  0.1226708E+00
        -11   -1    0    0    0    0  0.00000000000E+00  0.00000000000E+00  0.45593999997E+02  0.45594000000E+02  0.51100000000E-03 0. -1.
         11   -1    0    0    0    0 -0.00000000000E+00 -0.00000000000E+00 -0.45593999997E+02  0.45594000000E+02  0.51100000000E-03 0.  1.
    9900012    2    1    2    0    0 -0.44232100044E+01  0.73854394226E+01  0.16630401537E+02  0.72461554595E+02  0.69999979549E+02 0.  0.
        -12    1    1    2    0    0  0.44232100044E+01 -0.73854394226E+01 -0.16630401537E+02  0.18726445405E+02  0.00000000000E+00 0.  1.
         11    1    3    3    0    0 -0.21607684067E+02 -0.99651923327E+01  0.38760857657E+00  0.23798052644E+02  0.51100000000E-03 0. -1.
        -11    1    3    3    0    0 -0.48515696483E+01  0.51007028893E+01 -0.10027844082E+02  0.12252042899E+02  0.51100000000E-03 0.  1.
         12    1    3    3    0    0  0.22036043711E+02  0.12249928866E+02  0.26270637043E+02  0.36411459052E+02  0.00000000000E+00 0. -1.
</event>
<event>
 7    1  0.3568800E-013  0.7246166E+02  0.7816164E-02  0.1226708E+00
        -11   -1    0    0    0    0  0.00000000000E+00  0.00000000000E+00  0.45593999997E+02  0.45594000000E+02  0.51100000000E-03 0.  1.
         11   -1    0    0    0    0 -0.00000000000E+00 -0.00000000000E+00 -0.45593999997E+02  0.45594000000E+02  0.51100000000E-03 0. -1.
    9900012    2    1    2    0    0  0.89226967891E+01  0.36784123226E+01 -0.16047760392E+02  0.72461658958E+02  0.70000115501E+02 0.  0.
        -12    1    1    2    0    0 -0.89226967891E+01 -0.36784123226E+01  0.16047760392E+02  0.18726341042E+02  0.00000000000E+00 0.  1.
         11    1    3    3    0    0 -0.11977949142E+02  0.37938555177E+01 -0.24557919980E+02  0.27585431650E+02  0.51100000000E-03 0. -1.
        -11    1    3    3    0    0 -0.61130347695E+01  0.11606315026E+02 -0.26543328706E+01  0.13383617816E+02  0.51100000000E-03 0.  1.
         12    1    3    3    0    0  0.27013680701E+02 -0.11721758221E+02  0.11164492458E+02  0.31492609493E+02  0.00000000000E+00 0. -1.
</event>
<event>
 7    1  0.3568800E-013  0.7246158E+02  0.7816164E-02  0.1226708E+00
        -11   -1    0    0    0    0  0.00000000000E+00  0.00000000000E+00  0.45593999997E+02  0.45594000000E+02  0.51100000000E-03 0.  1.
         11   -1    0    0    0    0 -0.00000000000E+00 -0.00000000000E+00 -0.45593999997E+02  0.45594000000E+02  0.51100000000E-03 0. -1.
    9900012    2    1    2    0    0 -0.15815294069E+02  0.10021754455E+02  0.34574991137E+00  0.72461584651E+02  0.70000018702E+02 0.  0.
        -12    1    1    2    0    0  0.15815294069E+02 -0.10021754455E+02 -0.34574991137E+00  0.18726415349E+02  0.00000000000E+00 0.  1.
         11    1    3    3    0    0 -0.38138332911E+02 -0.34420848114E+01 -0.13603157700E+02  0.40637744582E+02  0.51100000000E-03 0. -1.
        -11    1    3    3    0    0  0.16327068415E+01  0.46955698561E+01 -0.66892104010E+00  0.50161303335E+01  0.51100000000E-03 0.  1.
        -12    1    3    3    0    0  0.20690332000E+02  0.87682694101E+01  0.14617828652E+02  0.26807709735E+02  0.00000000000E+00 0.  1.
</event>
<event>
 7    1  0.3568800E-013  0.7246156E+02  0.7816164E-02  0.1226708E+00
        -11   -1    0    0    0    0  0.00000000000E+00  0.00000000000E+00  0.45593999997E+02  0.45594000000E+02  0.51100000000E-03 0.  1.
         11   -1    0    0    0    0 -0.00000000000E+00 -0.00000000000E+00 -0.45593999997E+02  0.45594000000E+02  0.51100000000E-03 0. -1.
    9900012    2    1    2    0    0 -0.18054498239E+02  0.43519955835E+01 -0.24031018631E+01  0.72461556911E+02  0.69999982565E+02 0.  0.
        -12    1    1    2    0    0  0.18054498239E+02 -0.43519955835E+01  0.24031018631E+01  0.18726443089E+02  0.00000000000E+00 0.  1.
         11    1    3    3    0    0 -0.79938880706E+00  0.40547572225E+01  0.67765187644E+01  0.79373349069E+01  0.51100000000E-03 0. -1.
        -11    1    3    3    0    0  0.34613165635E+01  0.16463442847E+02  0.19414485791E+02  0.25689451561E+02  0.51100000000E-03 0.  1.
         12    1    3    3    0    0 -0.20716425995E+02 -0.16166204486E+02 -0.28594106418E+02  0.38834770443E+02  0.00000000000E+00 0. -1.
</event>
<event>
 7    1  0.3568800E-013  0.7246165E+02  0.7816164E-02  0.1226708E+00
        -11   -1    0    0    0    0  0.00000000000E+00  0.00000000000E+00  0.45593999997E+02  0.45594000000E+02  0.51100000000E-03 0.  1.
         11   -1    0    0    0    0 -0.00000000000E+00 -0.00000000000E+00 -0.45593999997E+02  0.45594000000E+02  0.51100000000E-03 0. -1.
    9900012    2    1    2    0    0  0.13795917822E+02 -0.22338099576E+01 -0.12464307603E+02  0.72461649061E+02  0.70000102608E+02 0.  0.
        -12    1    1    2    0    0 -0.13795917822E+02  0.22338099576E+01  0.12464307603E+02  0.18726350939E+02  0.00000000000E+00 0.  1.
         11    1    3    3    0    0  0.10966345859E+02 -0.62170225310E-01  0.72953712798E+01  0.13171448250E+02  0.51100000000E-03 0. -1.
        -11    1    3    3    0    0 -0.15865066941E+02 -0.41538729757E+01  0.13396015343E+02  0.21175651987E+02  0.51100000000E-03 0.  1.
         12    1    3    3    0    0  0.18694638904E+02  0.19822332434E+01 -0.33155694226E+02  0.38114548824E+02  0.00000000000E+00 0. -1.
</event>
<event>
 7    1  0.3568800E-013  0.7246156E+02  0.7816164E-02  0.1226708E+00
        -11   -1    0    0    0    0  0.00000000000E+00  0.00000000000E+00  0.45593999997E+02  0.45594000000E+02  0.51100000000E-03 0.  1.
         11   -1    0    0    0    0 -0.00000000000E+00 -0.00000000000E+00 -0.45593999997E+02  0.45594000000E+02  0.51100000000E-03 0. -1.
    9900012    2    1    2    0    0 -0.12286316317E+02  0.77942975267E+00 -0.14110936946E+02  0.72461558243E+02  0.69999984301E+02 0.  0.
        -12    1    1    2    0    0  0.12286316317E+02 -0.77942975267E+00  0.14110936946E+02  0.18726441757E+02  0.00000000000E+00 0.  1.
         11    1    3    3    0    0 -0.54251378603E+01  0.21445167629E+02  0.10547931343E+01  0.22145878268E+02  0.51100000000E-03 0. -1.
        -11    1    3    3    0    0  0.13139699774E+02 -0.79371017968E+01 -0.20892859015E+02  0.25926065130E+02  0.51100000000E-03 0.  1.
        -12    1    3    3    0    0 -0.20000878230E+02 -0.12728636080E+02  0.57271289344E+01  0.24389614845E+02  0.00000000000E+00 0.  1.
</event>
<event>
 7    1  0.3568800E-013  0.7246157E+02  0.7816164E-02  0.1226708E+00
        -11   -1    0    0    0    0  0.00000000000E+00  0.00000000000E+00  0.45593999997E+02  0.45594000000E+02  0.51100000000E-03 0. -1.
         11   -1    0    0    0    0 -0.00000000000E+00 -0.00000000000E+00 -0.45593999997E+02  0.45594000000E+02  0.51100000000E-03 0.  1.
    9900012    2    1    2    0    0 -0.80573988644E+01  0.91127547403E-01  0.16904115931E+02  0.72461571720E+02  0.70000001858E+02 0.  0.
        -12    1    1    2    0    0  0.80573988644E+01 -0.91127547403E-01 -0.16904115931E+02  0.18726428280E+02  0.00000000000E+00 0.  1.
         11    1    3    3    0    0 -0.28609779230E+02  0.33673938755E+01  0.25028069888E+02  0.38161015338E+02  0.51100000000E-03 0. -1.
        -11    1    3    3    0    0 -0.62486384941E+01 -0.20084065682E+00 -0.52517216281E+00  0.62738844475E+01  0.51100000000E-03 0.  1.
        -12    1    3    3    0    0  0.26801018860E+02 -0.30754256713E+01 -0.75987817936E+01  0.28026671934E+02  0.00000000000E+00 0.  1.
</event>
<event>
 7    1  0.3568800E-013  0.7246160E+02  0.7816164E-02  0.1226708E+00
        -11   -1    0    0    0    0  0.00000000000E+00  0.00000000000E+00  0.45593999997E+02  0.45594000000E+02  0.51100000000E-03 0.  1.
         11   -1    0    0    0    0 -0.00000000000E+00 -0.00000000000E+00 -0.45593999997E+02  0.45594000000E+02  0.51100000000E-03 0. -1.
    9900012    2    1    2    0    0 -0.83670323026E+01 -0.13602757908E+02 -0.97793606270E+01  0.72461597608E+02  0.70000035582E+02 0.  0.
        -12    1    1    2    0    0  0.83670323026E+01  0.13602757908E+02  0.97793606270E+01  0.18726402392E+02  0.00000000000E+00 0.  1.
         11    1    3    3    0    0  0.22536096172E+02  0.70639375800E-01 -0.26344557738E+02  0.34668665150E+02  0.51100000000E-03 0.  1.
        -11    1    3    3    0    0 -0.56654913211E+01 -0.15493010429E+01  0.18214964834E+01  0.61494695162E+01  0.51100000000E-03 0. -1.
        -12    1    3    3    0    0 -0.25237637154E+02 -0.12124096241E+02  0.14743700628E+02  0.31643462942E+02  0.00000000000E+00 0.  1.
</event>
<event>
 7    1  0.3568800E-013  0.7246121E+02  0.7816164E-02  0.1226709E+00
        -11   -1    0    0    0    0  0.00000000000E+00  0.00000000000E+00  0.45593999997E+02  0.45594000000E+02  0.51100000000E-03 0. -1.
         11   -1    0    0    0    0 -0.00000000000E+00 -0.00000000000E+00 -0.45593999997E+02  0.45594000000E+02  0.51100000000E-03 0.  1.
    9900012    2    1    2    0    0 -0.12451658192E+02 -0.80673348765E+01  0.11426586995E+02  0.72461212392E+02  0.69999533764E+02 0.  0.
        -12    1    1    2    0    0  0.12451658192E+02  0.80673348765E+01 -0.11426586995E+02  0.18726787608E+02  0.00000000000E+00 0.  1.
         11    1    3    3    0    0  0.59871952066E+01  0.64957758328E+01 -0.13180454067E+02  0.15867135210E+02  0.51100000000E-03 0.  1.
        -11    1    3    3    0    0 -0.23827469063E+02 -0.27776436170E+02  0.19263727997E+02  0.41356618634E+02  0.51100000000E-03 0. -1.
         12    1    3    3    0    0  0.53886156639E+01  0.13213325460E+02  0.53433130649E+01  0.15237458548E+02  0.00000000000E+00 0. -1.
</event>
<event>
 7    1  0.3568800E-013  0.7246152E+02  0.7816164E-02  0.1226708E+00
        -11   -1    0    0    0    0  0.00000000000E+00  0.00000000000E+00  0.45593999997E+02  0.45594000000E+02  0.51100000000E-03 0.  1.
         11   -1    0    0    0    0 -0.00000000000E+00 -0.00000000000E+00 -0.45593999997E+02  0.45594000000E+02  0.51100000000E-03 0. -1.
    9900012    2    1    2    0    0  0.14680626689E+02 -0.36484835838E+01 -0.11038516846E+02  0.72461519108E+02  0.69999933320E+02 0.  0.
        -12    1    1    2    0    0 -0.14680626689E+02  0.36484835838E+01  0.11038516846E+02  0.18726480892E+02  0.00000000000E+00 0.  1.
         11    1    3    3    0    0 -0.17555268306E+01 -0.16588217447E+02 -0.13964748545E+02  0.21754655472E+02  0.51100000000E-03 0. -1.
        -11    1    3    3    0    0 -0.88905734154E+01 -0.98152752164E+01  0.91479369509E+01  0.16095548265E+02  0.51100000000E-03 0.  1.
        -12    1    3    3    0    0  0.25326726935E+02  0.22755009080E+02 -0.62217052521E+01  0.34611315371E+02  0.00000000000E+00 0.  1.
</event>
<event>
 7    1  0.3568800E-013  0.7246154E+02  0.7816164E-02  0.1226708E+00
        -11   -1    0    0    0    0  0.00000000000E+00  0.00000000000E+00  0.45593999997E+02  0.45594000000E+02  0.51100000000E-03 0.  1.
         11   -1    0    0    0    0 -0.00000000000E+00 -0.00000000000E+00 -0.45593999997E+02  0.45594000000E+02  0.51100000000E-03 0. -1.
    9900012    2    1    2    0    0 -0.25641116009E+01  0.16433924597E+02 -0.86041747390E+01  0.72461538271E+02  0.69999958284E+02 0.  0.
        -12    1    1    2    0    0  0.25641116009E+01 -0.16433924597E+02  0.86041747390E+01  0.18726461729E+02  0.00000000000E+00 0.  1.
         11    1    3    3    0    0 -0.56774440096E+01  0.14425558293E+01  0.49249331866E+01  0.76530585361E+01  0.51100000000E-03 0. -1.
        -11    1    3    3    0    0 -0.27994886289E+02 -0.11034177469E+01 -0.93460808616E+01  0.29534393795E+02  0.51100000000E-03 0.  1.
         12    1    3    3    0    0  0.31108218698E+02  0.16094786514E+02 -0.41830270640E+01  0.35274085940E+02  0.00000000000E+00 0. -1.
</event>
<event>
 7    1  0.3568800E-013  0.7246170E+02  0.7816164E-02  0.1226708E+00
        -11   -1    0    0    0    0  0.00000000000E+00  0.00000000000E+00  0.45593999997E+02  0.45594000000E+02  0.51100000000E-03 0.  1.
         11   -1    0    0    0    0 -0.00000000000E+00 -0.00000000000E+00 -0.45593999997E+02  0.45594000000E+02  0.51100000000E-03 0. -1.
    9900012    2    1    2    0    0  0.10751517901E+02  0.26891359145E+01 -0.15094621736E+02  0.72461703129E+02  0.70000173042E+02 0.  0.
        -12    1    1    2    0    0 -0.10751517901E+02 -0.26891359145E+01  0.15094621736E+02  0.18726296871E+02  0.00000000000E+00 0.  1.
         11    1    3    3    0    0 -0.11964761916E+02  0.52273005692E+01 -0.10898935336E+02  0.17007850854E+02  0.51100000000E-03 0. -1.
        -11    1    3    3    0    0 -0.33889950601E+01 -0.20213007943E+02  0.75058223634E+01  0.21826322348E+02  0.51100000000E-03 0.  1.
        -12    1    3    3    0    0  0.26105274877E+02  0.17674843288E+02 -0.11701508764E+02  0.33627529927E+02  0.00000000000E+00 0.  1.
</event>
<event>
 7    1  0.3568800E-013  0.7246155E+02  0.7816164E-02  0.1226708E+00
        -11   -1    0    0    0    0  0.00000000000E+00  0.00000000000E+00  0.45593999997E+02  0.45594000000E+02  0.51100000000E-03 0.  1.
         11   -1    0    0    0    0 -0.00000000000E+00 -0.00000000000E+00 -0.45593999997E+02  0.45594000000E+02  0.51100000000E-03 0. -1.
    9900012    2    1    2    0    0  0.15609067670E+02  0.13552926890E+01 -0.10256707968E+02  0.72461551588E+02  0.69999975632E+02 0.  0.
        -12    1    1    2    0    0 -0.15609067670E+02 -0.13552926890E+01  0.10256707968E+02  0.18726448412E+02  0.00000000000E+00 0.  1.
         11    1    3    3    0    0 -0.21510789935E+01  0.14510223734E+02  0.97935974055E+01  0.17637694976E+02  0.51100000000E-03 0. -1.
        -11    1    3    3    0    0  0.49482233232E+01 -0.14284564246E+02  0.12633004920E+02  0.19700926459E+02  0.51100000000E-03 0.  1.
         12    1    3    3    0    0  0.12811923340E+02  0.11296332011E+01 -0.32683310294E+02  0.35122930154E+02  0.00000000000E+00 0. -1.
</event>
<event>
 7    1  0.3568800E-013  0.7246161E+02  0.7816164E-02  0.1226708E+00
        -11   -1    0    0    0    0  0.00000000000E+00  0.00000000000E+00  0.45593999997E+02  0.45594000000E+02  0.51100000000E-03 0. -1.
         11   -1    0    0    0    0 -0.00000000000E+00 -0.00000000000E+00 -0.45593999997E+02  0.45594000000E+02  0.51100000000E-03 0.  1.
    9900012    2    1    2    0    0  0.84347012333E+01  0.45103141214E+00 -0.16713167318E+02  0.72461612841E+02  0.70000055425E+02 0.  0.
        -12    1    1    2    0    0 -0.84347012333E+01 -0.45103141214E+00  0.16713167318E+02  0.18726387159E+02  0.00000000000E+00 0.  1.
         11    1    3    3    0    0  0.38853951592E+01 -0.50744519692E+01 -0.65940469774E+01  0.91830177029E+01  0.51100000000E-03 0. -1.
        -11    1    3    3    0    0 -0.80995756900E+01 -0.80235648402E+00 -0.34306926847E+02  0.35259213438E+02  0.51100000000E-03 0.  1.
         12    1    3    3    0    0  0.12648881764E+02  0.63278398653E+01  0.24187806507E+02  0.28019381700E+02  0.00000000000E+00 0. -1.
</event>
<event>
 7    1  0.3568800E-013  0.7246156E+02  0.7816164E-02  0.1226708E+00
        -11   -1    0    0    0    0  0.00000000000E+00  0.00000000000E+00  0.45593999997E+02  0.45594000000E+02  0.51100000000E-03 0.  1.
         11   -1    0    0    0    0 -0.00000000000E+00 -0.00000000000E+00 -0.45593999997E+02  0.45594000000E+02  0.51100000000E-03 0. -1.
    9900012    2    1    2    0    0  0.11618306505E+02 -0.60875935182E+01 -0.13365468332E+02  0.72461559211E+02  0.69999985562E+02 0.  0.
        -12    1    1    2    0    0 -0.11618306505E+02  0.60875935182E+01  0.13365468332E+02  0.18726440789E+02  0.00000000000E+00 0.  1.
         11    1    3    3    0    0 -0.20907021750E+02  0.11511387260E+02 -0.65811525686E+00  0.23875692891E+02  0.51100000000E-03 0. -1.
        -11    1    3    3    0    0  0.26852833854E+01  0.58003500353E+01 -0.82024714242E+01  0.10398814602E+02  0.51100000000E-03 0.  1.
        -12    1    3    3    0    0  0.29840044869E+02 -0.23399330813E+02 -0.45048816507E+01  0.38187051719E+02  0.00000000000E+00 0.  1.
</event>
<event>
 7    1  0.3568800E-013  0.7246163E+02  0.7816164E-02  0.1226708E+00
        -11   -1    0    0    0    0  0.00000000000E+00  0.00000000000E+00  0.45593999997E+02  0.45594000000E+02  0.51100000000E-03 0.  1.
         11   -1    0    0    0    0 -0.00000000000E+00 -0.00000000000E+00 -0.45593999997E+02  0.45594000000E+02  0.51100000000E-03 0. -1.
    9900012    2    1    2    0    0  0.31089778187E+01  0.13385678173E+02 -0.12721429982E+02  0.72461630784E+02  0.70000078799E+02 0.  0.
        -12    1    1    2    0    0 -0.31089778187E+01 -0.13385678173E+02  0.12721429982E+02  0.18726369216E+02  0.00000000000E+00 0.  1.
         11    1    3    3    0    0 -0.17393519397E+01 -0.99033794258E+01  0.20135500087E+02  0.22506457590E+02  0.51100000000E-03 0. -1.
        -11    1    3    3    0    0 -0.64993329710E+01 -0.38755428833E+01 -0.33558452951E+01  0.82778535632E+01  0.51100000000E-03 0.  1.
         12    1    3    3    0    0  0.11347662729E+02  0.27164600482E+02 -0.29501084774E+02  0.41677319631E+02  0.00000000000E+00 0. -1.
</event>
<event>
 7    1  0.3568800E-013  0.7246155E+02  0.7816164E-02  0.1226708E+00
        -11   -1    0    0    0    0  0.00000000000E+00  0.00000000000E+00  0.45593999997E+02  0.45594000000E+02  0.51100000000E-03 0. -1.
         11   -1    0    0    0    0 -0.00000000000E+00 -0.00000000000E+00 -0.45593999997E+02  0.45594000000E+02  0.51100000000E-03 0.  1.
    9900012    2    1    2    0    0  0.14268939787E+02  0.10551140478E+02  0.59791799166E+01  0.72461553447E+02  0.69999978053E+02 0.  0.
        -12    1    1    2    0    0 -0.14268939787E+02 -0.10551140478E+02 -0.59791799166E+01  0.18726446553E+02  0.00000000000E+00 0.  1.
         11    1    3    3    0    0  0.82966509278E+01  0.15975774253E+02  0.10479820461E+02  0.20829940392E+02  0.51100000000E-03 0. -1.
        -11    1    3    3    0    0 -0.24847755783E+01  0.15844194918E+02 -0.18747375544E+02  0.24671374350E+02  0.51100000000E-03 0.  1.
        -12    1    3    3    0    0  0.84570644378E+01 -0.21268828692E+02  0.14246735000E+02  0.26960238704E+02  0.00000000000E+00 0.  1.
</event>
<event>
 7    1  0.3568800E-013  0.7246158E+02  0.7816164E-02  0.1226708E+00
        -11   -1    0    0    0    0  0.00000000000E+00  0.00000000000E+00  0.45593999997E+02  0.45594000000E+02  0.51100000000E-03 0.  1.
         11   -1    0    0    0    0 -0.00000000000E+00 -0.00000000000E+00 -0.45593999997E+02  0.45594000000E+02  0.51100000000E-03 0. -1.
    9900012    2    1    2    0    0 -0.30738388061E+01  0.81286691349E+00 -0.18454522732E+02  0.72461584249E+02  0.70000018178E+02 0.  0.
        -12    1    1    2    0    0  0.30738388061E+01 -0.81286691349E+00  0.18454522732E+02  0.18726415751E+02  0.00000000000E+00 0.  1.
         11    1    3    3    0    0  0.95587581870E+01 -0.25478004158E+02  0.43089543551E+00  0.27215514419E+02  0.51100000000E-03 0. -1.
        -11    1    3    3    0    0 -0.26092494089E+01 -0.63233988015E+01 -0.46743311745E+01  0.82851027194E+01  0.51100000000E-03 0.  1.
        -12    1    3    3    0    0 -0.10023347584E+02  0.32614269873E+02 -0.14211086993E+02  0.36960967110E+02  0.00000000000E+00 0.  1.
</event>
