<event>
 7    1  0.1381440E-008  0.4614232E+02  0.7816164E-02  0.1320468E+00
        -11   -1    0    0    0    0  0.00000000000E+00  0.00000000000E+00  0.45593999997E+02  0.45594000000E+02  0.51100000000E-03 0. -1.
         11   -1    0    0    0    0 -0.00000000000E+00 -0.00000000000E+00 -0.45593999997E+02  0.45594000000E+02  0.51100000000E-03 0.  1.
    9900012    2    1    2    0    0  0.10221296795E+02 -0.43622734030E+02 -0.46578419622E+01  0.46142319584E+02  0.10000016624E+02 0.  0.
         12    1    1    2    0    0 -0.10221296795E+02  0.43622734030E+02  0.46578419622E+01  0.45045680416E+02  0.00000000000E+00 0. -1.
         11    1    3    3    0    0  0.52100147707E+01 -0.83127869403E+01 -0.23396920606E+01  0.10085674981E+02  0.51100000000E-03 0. -1.
        -11    1    3    3    0    0  0.58218000850E+01 -0.29985694005E+02 -0.26532169651E+01  0.30660638638E+02  0.51100000000E-03 0.  1.
         12    1    3    3    0    0 -0.81051806117E+00 -0.53242530845E+01  0.33506706345E+00  0.53960059648E+01  0.00000000000E+00 0. -1.
</event>
<event>
 7    1  0.1381440E-008  0.4614232E+02  0.7816164E-02  0.1320468E+00
        -11   -1    0    0    0    0  0.00000000000E+00  0.00000000000E+00  0.45593999997E+02  0.45594000000E+02  0.51100000000E-03 0.  1.
         11   -1    0    0    0    0 -0.00000000000E+00 -0.00000000000E+00 -0.45593999997E+02  0.45594000000E+02  0.51100000000E-03 0. -1.
    9900012    2    1    2    0    0  0.27645427059E+02  0.22209744863E+02  0.27777167702E+02  0.46142318191E+02  0.10000003916E+02 0.  0.
         12    1    1    2    0    0 -0.27645427059E+02 -0.22209744863E+02 -0.27777167702E+02  0.45045681809E+02  0.00000000000E+00 0. -1.
         11    1    3    3    0    0  0.76147987727E+01  0.82345823970E+01  0.48217816409E+01  0.12208320362E+02  0.51100000000E-03 0.  1.
        -11    1    3    3    0    0  0.53917300221E+01  0.12219960688E+01  0.59852464767E+01  0.81478342320E+01  0.51100000000E-03 0. -1.
         12    1    3    3    0    0  0.14638898264E+02  0.12753166397E+02  0.16970139585E+02  0.25786163597E+02  0.00000000000E+00 0. -1.
</event>
<event>
 7    1  0.1381440E-008  0.4614232E+02  0.7816164E-02  0.1320468E+00
        -11   -1    0    0    0    0  0.00000000000E+00  0.00000000000E+00  0.45593999997E+02  0.45594000000E+02  0.51100000000E-03 0.  1.
         11   -1    0    0    0    0 -0.00000000000E+00 -0.00000000000E+00 -0.45593999997E+02  0.45594000000E+02  0.51100000000E-03 0. -1.
    9900012    2    1    2    0    0  0.26257223545E+02 -0.35150806698E+02  0.10202571103E+02  0.46142318110E+02  0.10000003183E+02 0.  0.
         12    1    1    2    0    0 -0.26257223545E+02  0.35150806698E+02 -0.10202571103E+02  0.45045681890E+02  0.00000000000E+00 0. -1.
         11    1    3    3    0    0  0.40507737724E+01 -0.90986269781E+01 -0.45045472014E-01  0.99597093530E+01  0.51100000000E-03 0. -1.
        -11    1    3    3    0    0  0.90918708992E+01 -0.10082763281E+02  0.69657671488E+01  0.15259296971E+02  0.51100000000E-03 0.  1.
        -12    1    3    3    0    0  0.13114578873E+02 -0.15969416439E+02  0.32818494262E+01  0.20923311786E+02  0.00000000000E+00 0.  1.
</event>
<event>
 7    1  0.1381440E-008  0.4614232E+02  0.7816164E-02  0.1320468E+00
        -11   -1    0    0    0    0  0.00000000000E+00  0.00000000000E+00  0.45593999997E+02  0.45594000000E+02  0.51100000000E-03 0.  1.
         11   -1    0    0    0    0 -0.00000000000E+00 -0.00000000000E+00 -0.45593999997E+02  0.45594000000E+02  0.51100000000E-03 0. -1.
    9900012    2    1    2    0    0 -0.40072757230E+02 -0.10738477823E+02  0.17549155105E+02  0.46142316268E+02  0.99999863863E+01 0.  0.
         12    1    1    2    0    0  0.40072757230E+02  0.10738477823E+02 -0.17549155105E+02  0.45045683732E+02  0.00000000000E+00 0. -1.
         11    1    3    3    0    0 -0.24998309887E+02 -0.29376614792E+01  0.12519925416E+02  0.28112166135E+02  0.51100000000E-03 0. -1.
        -11    1    3    3    0    0 -0.11325324572E+02 -0.52193610979E+01  0.21778152502E+01  0.12658893572E+02  0.51100000000E-03 0.  1.
        -12    1    3    3    0    0 -0.37491227712E+01 -0.25814552459E+01  0.28514144392E+01  0.53712565610E+01  0.00000000000E+00 0.  1.
</event>
<event>
 7    1  0.1381440E-008  0.4614232E+02  0.7816164E-02  0.1320468E+00
        -11   -1    0    0    0    0  0.00000000000E+00  0.00000000000E+00  0.45593999997E+02  0.45594000000E+02  0.51100000000E-03 0.  1.
         11   -1    0    0    0    0 -0.00000000000E+00 -0.00000000000E+00 -0.45593999997E+02  0.45594000000E+02  0.51100000000E-03 0. -1.
    9900012    2    1    2    0    0  0.18017772162E+02  0.38450329994E+02  0.15034794251E+02  0.46142322866E+02  0.10000046548E+02 0.  0.
         12    1    1    2    0    0 -0.18017772162E+02 -0.38450329994E+02 -0.15034794251E+02  0.45045677134E+02  0.00000000000E+00 0. -1.
         11    1    3    3    0    0  0.84466104660E+00  0.70984284363E+00 -0.13018662745E+00  0.11109806323E+01  0.51100000000E-03 0. -1.
        -11    1    3    3    0    0  0.13344492699E+01  0.12395144073E+02  0.54364296163E+01  0.13600555822E+02  0.51100000000E-03 0.  1.
        -12    1    3    3    0    0  0.15838661845E+02  0.25345343078E+02  0.97285512621E+01  0.31430786411E+02  0.00000000000E+00 0.  1.
</event>
<event>
 7    1  0.1381440E-008  0.4614232E+02  0.7816164E-02  0.1320468E+00
        -11   -1    0    0    0    0  0.00000000000E+00  0.00000000000E+00  0.45593999997E+02  0.45594000000E+02  0.51100000000E-03 0. -1.
         11   -1    0    0    0    0 -0.00000000000E+00 -0.00000000000E+00 -0.45593999997E+02  0.45594000000E+02  0.51100000000E-03 0.  1.
    9900012    2    1    2    0    0 -0.81317155465E+01 -0.37586457204E+02 -0.23457343151E+02  0.46142317515E+02  0.99999977526E+01 0.  0.
         12    1    1    2    0    0  0.81317155465E+01  0.37586457204E+02  0.23457343151E+02  0.45045682485E+02  0.00000000000E+00 0. -1.
         11    1    3    3    0    0  0.13457282195E+00  0.11669273475E+00 -0.70672355936E+00  0.72882473148E+00  0.51100000000E-03 0. -1.
        -11    1    3    3    0    0 -0.54447514908E+01 -0.32106616815E+02 -0.16289504240E+02  0.36411922645E+02  0.51100000000E-03 0.  1.
        -12    1    3    3    0    0 -0.28215368777E+01 -0.55965331238E+01 -0.64611153517E+01  0.90015701378E+01  0.00000000000E+00 0.  1.
</event>
<event>
 7    1  0.1381440E-008  0.4614232E+02  0.7816164E-02  0.1320468E+00
        -11   -1    0    0    0    0  0.00000000000E+00  0.00000000000E+00  0.45593999997E+02  0.45594000000E+02  0.51100000000E-03 0.  1.
         11   -1    0    0    0    0 -0.00000000000E+00 -0.00000000000E+00 -0.45593999997E+02  0.45594000000E+02  0.51100000000E-03 0. -1.
    9900012    2    1    2    0    0  0.37131931755E+02  0.23594720734E+02  0.96758569783E+01  0.46142318624E+02  0.10000007866E+02 0.  0.
         12    1    1    2    0    0 -0.37131931755E+02 -0.23594720734E+02 -0.96758569783E+01  0.45045681376E+02  0.00000000000E+00 0. -1.
         11    1    3    3    0    0  0.86799047016E+01  0.78920695734E+01  0.17110622169E+00  0.11732637614E+02  0.51100000000E-03 0. -1.
        -11    1    3    3    0    0  0.19168049783E+02  0.71933976288E+01  0.56275862672E+01  0.21232730145E+02  0.51100000000E-03 0.  1.
        -12    1    3    3    0    0  0.92839772702E+01  0.85092535320E+01  0.38771644894E+01  0.13176950865E+02  0.00000000000E+00 0.  1.
</event>
<event>
 7    1  0.1381440E-008  0.4614232E+02  0.7816164E-02  0.1320468E+00
        -11   -1    0    0    0    0  0.00000000000E+00  0.00000000000E+00  0.45593999997E+02  0.45594000000E+02  0.51100000000E-03 0.  1.
         11   -1    0    0    0    0 -0.00000000000E+00 -0.00000000000E+00 -0.45593999997E+02  0.45594000000E+02  0.51100000000E-03 0. -1.
    9900012    2    1    2    0    0  0.36821187334E+02 -0.25897211720E+02  0.16272886851E+01  0.46142317854E+02  0.10000000843E+02 0.  0.
         12    1    1    2    0    0 -0.36821187334E+02  0.25897211720E+02 -0.16272886851E+01  0.45045682146E+02  0.00000000000E+00 0. -1.
         11    1    3    3    0    0  0.14489834696E+02 -0.56595800359E+01 -0.80857528611E+00  0.15576904376E+02  0.51100000000E-03 0. -1.
        -11    1    3    3    0    0  0.52445173251E+01 -0.73786587377E+01  0.98098180113E-01  0.90531315165E+01  0.51100000000E-03 0.  1.
        -12    1    3    3    0    0  0.17086835313E+02 -0.12858972946E+02  0.23377657911E+01  0.21512281961E+02  0.00000000000E+00 0.  1.
</event>
<event>
 7    1  0.1381440E-008  0.4614232E+02  0.7816164E-02  0.1320468E+00
        -11   -1    0    0    0    0  0.00000000000E+00  0.00000000000E+00  0.45593999997E+02  0.45594000000E+02  0.51100000000E-03 0.  1.
         11   -1    0    0    0    0 -0.00000000000E+00 -0.00000000000E+00 -0.45593999997E+02  0.45594000000E+02  0.51100000000E-03 0. -1.
    9900012    2    1    2    0    0  0.69611092886E+01  0.40723822271E+02  0.17950674888E+02  0.46142317944E+02  0.10000001671E+02 0.  0.
         12    1    1    2    0    0 -0.69611092886E+01 -0.40723822271E+02 -0.17950674888E+02  0.45045682056E+02  0.00000000000E+00 0. -1.
         11    1    3    3    0    0 -0.15425725908E+00  0.20686996841E+02  0.11670096737E+02  0.23752195513E+02  0.51100000000E-03 0. -1.
        -11    1    3    3    0    0  0.29413693514E+01  0.74930340237E+01  0.83646918673E+00  0.80930151059E+01  0.51100000000E-03 0.  1.
        -12    1    3    3    0    0  0.41739971962E+01  0.12543791407E+02  0.54441089651E+01  0.14297107325E+02  0.00000000000E+00 0.  1.
</event>
<event>
 7    1  0.1381440E-008  0.4614232E+02  0.7816164E-02  0.1320468E+00
        -11   -1    0    0    0    0  0.00000000000E+00  0.00000000000E+00  0.45593999997E+02  0.45594000000E+02  0.51100000000E-03 0.  1.
         11   -1    0    0    0    0 -0.00000000000E+00 -0.00000000000E+00 -0.45593999997E+02  0.45594000000E+02  0.51100000000E-03 0. -1.
    9900012    2    1    2    0    0  0.85160356419E+01 -0.12019339561E+02  0.42569074172E+02  0.46142318049E+02  0.10000002627E+02 0.  0.
         12    1    1    2    0    0 -0.85160356419E+01  0.12019339561E+02 -0.42569074172E+02  0.45045681951E+02  0.00000000000E+00 0. -1.
         11    1    3    3    0    0  0.40666106974E+01 -0.46482819648E+01  0.66564179246E+01  0.90802944686E+01  0.51100000000E-03 0. -1.
        -11    1    3    3    0    0  0.38526767930E+01 -0.33869922216E+01  0.20094373428E+02  0.20738820567E+02  0.51100000000E-03 0.  1.
         12    1    3    3    0    0  0.59674815150E+00 -0.39840653750E+01  0.15818282820E+02  0.16323203014E+02  0.00000000000E+00 0. -1.
</event>
<event>
 7    1  0.1381440E-008  0.4614232E+02  0.7816164E-02  0.1320468E+00
        -11   -1    0    0    0    0  0.00000000000E+00  0.00000000000E+00  0.45593999997E+02  0.45594000000E+02  0.51100000000E-03 0.  1.
         11   -1    0    0    0    0 -0.00000000000E+00 -0.00000000000E+00 -0.45593999997E+02  0.45594000000E+02  0.51100000000E-03 0. -1.
    9900012    2    1    2    0    0 -0.37815347911E+01  0.21849282638E+02  0.39209976042E+02  0.46142318982E+02  0.10000011131E+02 0.  0.
         12    1    1    2    0    0  0.37815347911E+01 -0.21849282638E+02 -0.39209976042E+02  0.45045681018E+02  0.00000000000E+00 0. -1.
         11    1    3    3    0    0  0.58805385555E+00  0.52080180812E+00  0.54572952484E+00  0.95648462391E+00  0.51100000000E-03 0. -1.
        -11    1    3    3    0    0  0.21675959388E+01  0.10355716036E+02  0.18696583664E+02  0.21482587547E+02  0.51100000000E-03 0.  1.
        -12    1    3    3    0    0 -0.65371845854E+01  0.10972764794E+02  0.19967662854E+02  0.23703246811E+02  0.00000000000E+00 0.  1.
</event>
<event>
 7    1  0.1381440E-008  0.4614232E+02  0.7816164E-02  0.1320468E+00
        -11   -1    0    0    0    0  0.00000000000E+00  0.00000000000E+00  0.45593999997E+02  0.45594000000E+02  0.51100000000E-03 0.  1.
         11   -1    0    0    0    0 -0.00000000000E+00 -0.00000000000E+00 -0.45593999997E+02  0.45594000000E+02  0.51100000000E-03 0. -1.
    9900012    2    1    2    0    0 -0.76760520283E+01 -0.37860544041E+02  0.23168316360E+02  0.46142318156E+02  0.10000003601E+02 0.  0.
         12    1    1    2    0    0  0.76760520283E+01  0.37860544041E+02 -0.23168316360E+02  0.45045681844E+02  0.00000000000E+00 0. -1.
         11    1    3    3    0    0  0.81276686187E+00 -0.78960361391E+01  0.30928555140E+01  0.85190217850E+01  0.51100000000E-03 0. -1.
        -11    1    3    3    0    0 -0.78251793851E+01 -0.25206555399E+02  0.13995207904E+02  0.29874231572E+02  0.51100000000E-03 0.  1.
        -12    1    3    3    0    0 -0.66363950506E+00 -0.47579525026E+01  0.60802529424E+01  0.77490647986E+01  0.00000000000E+00 0.  1.
</event>
<event>
 7    1  0.1381440E-008  0.4614232E+02  0.7816164E-02  0.1320468E+00
        -11   -1    0    0    0    0  0.00000000000E+00  0.00000000000E+00  0.45593999997E+02  0.45594000000E+02  0.51100000000E-03 0. -1.
         11   -1    0    0    0    0 -0.00000000000E+00 -0.00000000000E+00 -0.45593999997E+02  0.45594000000E+02  0.51100000000E-03 0.  1.
    9900012    2    1    2    0    0  0.26938888313E+01 -0.43602799593E+02 -0.10984195957E+02  0.46142315077E+02  0.99999755230E+01 0.  0.
         12    1    1    2    0    0 -0.26938888313E+01  0.43602799593E+02  0.10984195957E+02  0.45045684923E+02  0.00000000000E+00 0. -1.
         11    1    3    3    0    0 -0.91205206269E+00 -0.33475169863E+00 -0.81233125322E+00  0.12664043552E+01  0.51100000000E-03 0. -1.
        -11    1    3    3    0    0  0.41773246999E+01 -0.20889458836E+02 -0.56209153851E+01  0.22032117968E+02  0.51100000000E-03 0.  1.
         12    1    3    3    0    0 -0.57138380594E+00 -0.22378589058E+02 -0.45509493182E+01  0.22843792754E+02  0.00000000000E+00 0. -1.
</event>
<event>
 7    1  0.1381440E-008  0.4614232E+02  0.7816164E-02  0.1320468E+00
        -11   -1    0    0    0    0  0.00000000000E+00  0.00000000000E+00  0.45593999997E+02  0.45594000000E+02  0.51100000000E-03 0.  1.
         11   -1    0    0    0    0 -0.00000000000E+00 -0.00000000000E+00 -0.45593999997E+02  0.45594000000E+02  0.51100000000E-03 0. -1.
    9900012    2    1    2    0    0 -0.12232320812E+02 -0.29064822990E+02  0.32167062043E+02  0.46142317761E+02  0.10000000001E+02 0.  0.
         12    1    1    2    0    0  0.12232320812E+02  0.29064822990E+02 -0.32167062043E+02  0.45045682239E+02  0.00000000000E+00 0. -1.
         11    1    3    3    0    0 -0.80748538868E+01 -0.18215250455E+02  0.16550649945E+02  0.25902174200E+02  0.51100000000E-03 0. -1.
        -11    1    3    3    0    0 -0.26000059626E+01 -0.10862920126E+02  0.12549389296E+02  0.16800304659E+02  0.51100000000E-03 0.  1.
         12    1    3    3    0    0 -0.15574609624E+01  0.13347590607E-01  0.30670228018E+01  0.34398389024E+01  0.00000000000E+00 0. -1.
</event>
<event>
 7    1  0.1381440E-008  0.4614232E+02  0.7816164E-02  0.1320468E+00
        -11   -1    0    0    0    0  0.00000000000E+00  0.00000000000E+00  0.45593999997E+02  0.45594000000E+02  0.51100000000E-03 0.  1.
         11   -1    0    0    0    0 -0.00000000000E+00 -0.00000000000E+00 -0.45593999997E+02  0.45594000000E+02  0.51100000000E-03 0. -1.
    9900012    2    1    2    0    0  0.26544873679E+02  0.19109130212E+02  0.30972961992E+02  0.46142317070E+02  0.99999936934E+01 0.  0.
         12    1    1    2    0    0 -0.26544873679E+02 -0.19109130212E+02 -0.30972961992E+02  0.45045682930E+02  0.00000000000E+00 0. -1.
         11    1    3    3    0    0 -0.35368711597E-01 -0.66761975986E-01  0.52485301136E+00  0.53026319111E+00  0.51100000000E-03 0. -1.
        -11    1    3    3    0    0  0.97712774944E+01  0.11971531155E+02  0.11375911503E+02  0.19188715039E+02  0.51100000000E-03 0.  1.
        -12    1    3    3    0    0  0.16808964896E+02  0.72043610331E+01  0.19072197478E+02  0.26423338839E+02  0.00000000000E+00 0.  1.
</event>
<event>
 7    1  0.1381440E-008  0.4614232E+02  0.7816164E-02  0.1320468E+00
        -11   -1    0    0    0    0  0.00000000000E+00  0.00000000000E+00  0.45593999997E+02  0.45594000000E+02  0.51100000000E-03 0. -1.
         11   -1    0    0    0    0 -0.00000000000E+00 -0.00000000000E+00 -0.45593999997E+02  0.45594000000E+02  0.51100000000E-03 0.  1.
    9900012    2    1    2    0    0  0.14134693435E+02 -0.76514475849E+01 -0.42080628718E+02  0.46142317388E+02  0.99999965996E+01 0.  0.
         12    1    1    2    0    0 -0.14134693435E+02  0.76514475849E+01  0.42080628718E+02  0.45045682612E+02  0.00000000000E+00 0. -1.
         11    1    3    3    0    0  0.34845070376E+01 -0.41945629347E+01 -0.99233705897E+01  0.11322960374E+02  0.51100000000E-03 0. -1.
        -11    1    3    3    0    0  0.83935956075E+01 -0.11656104041E+01 -0.13888099716E+02  0.16269308800E+02  0.51100000000E-03 0.  1.
        -12    1    3    3    0    0  0.22565907896E+01 -0.22912742461E+01 -0.18269158412E+02  0.18550048214E+02  0.00000000000E+00 0.  1.
</event>
<event>
 7    1  0.1381440E-008  0.4614232E+02  0.7816164E-02  0.1320468E+00
        -11   -1    0    0    0    0  0.00000000000E+00  0.00000000000E+00  0.45593999997E+02  0.45594000000E+02  0.51100000000E-03 0.  1.
         11   -1    0    0    0    0 -0.00000000000E+00 -0.00000000000E+00 -0.45593999997E+02  0.45594000000E+02  0.51100000000E-03 0. -1.
    9900012    2    1    2    0    0 -0.13346953388E+02  0.96427274422E+01  0.41928394009E+02  0.46142316728E+02  0.99999905776E+01 0.  0.
         12    1    1    2    0    0  0.13346953388E+02 -0.96427274422E+01 -0.41928394009E+02  0.45045683272E+02  0.00000000000E+00 0. -1.
         11    1    3    3    0    0 -0.34540932713E+00 -0.14172514004E+01  0.25834115171E+01  0.29668037453E+01  0.51100000000E-03 0. -1.
        -11    1    3    3    0    0 -0.24976014841E+00  0.19986940320E+01  0.63130448012E+01  0.66265898386E+01  0.51100000000E-03 0.  1.
         12    1    3    3    0    0 -0.12751783912E+02  0.90612848106E+01  0.33031937691E+02  0.36548923144E+02  0.00000000000E+00 0. -1.
</event>
<event>
 7    1  0.1381440E-008  0.4614232E+02  0.7816164E-02  0.1320468E+00
        -11   -1    0    0    0    0  0.00000000000E+00  0.00000000000E+00  0.45593999997E+02  0.45594000000E+02  0.51100000000E-03 0.  1.
         11   -1    0    0    0    0 -0.00000000000E+00 -0.00000000000E+00 -0.45593999997E+02  0.45594000000E+02  0.51100000000E-03 0. -1.
    9900012    2    1    2    0    0 -0.36178907583E+02  0.24904410070E+02  0.99985270977E+01  0.46142317200E+02  0.99999948813E+01 0.  0.
         12    1    1    2    0    0  0.36178907583E+02 -0.24904410070E+02 -0.99985270977E+01  0.45045682800E+02  0.00000000000E+00 0. -1.
         11    1    3    3    0    0 -0.85953412375E+01  0.27416623834E+01  0.27932628416E+01  0.94445180490E+01  0.51100000000E-03 0. -1.
        -11    1    3    3    0    0 -0.47886205460E+01  0.45102799953E+01 -0.11558068444E+01  0.66790270318E+01  0.51100000000E-03 0.  1.
         12    1    3    3    0    0 -0.22794945799E+02  0.17652467692E+02  0.83610711004E+01  0.30018772119E+02  0.00000000000E+00 0. -1.
</event>
<event>
 7    1  0.1381440E-008  0.4614232E+02  0.7816164E-02  0.1320468E+00
        -11   -1    0    0    0    0  0.00000000000E+00  0.00000000000E+00  0.45593999997E+02  0.45594000000E+02  0.51100000000E-03 0.  1.
         11   -1    0    0    0    0 -0.00000000000E+00 -0.00000000000E+00 -0.45593999997E+02  0.45594000000E+02  0.51100000000E-03 0. -1.
    9900012    2    1    2    0    0  0.14304412559E+02  0.39887258368E+02  0.15280838731E+02  0.46142316177E+02  0.99999855545E+01 0.  0.
         12    1    1    2    0    0 -0.14304412559E+02 -0.39887258368E+02 -0.15280838731E+02  0.45045683823E+02  0.00000000000E+00 0. -1.
         11    1    3    3    0    0  0.10702271990E+02  0.28726713183E+02  0.78657160495E+01  0.31648572879E+02  0.51100000000E-03 0. -1.
        -11    1    3    3    0    0  0.82502243157E+00 -0.56401197752E-01  0.92319586869E+00  0.12394087223E+01  0.51100000000E-03 0.  1.
         12    1    3    3    0    0  0.27771181371E+01  0.11216946383E+02  0.64919268132E+01  0.13254334576E+02  0.00000000000E+00 0. -1.
</event>
<event>
 7    1  0.1381440E-008  0.4614232E+02  0.7816164E-02  0.1320468E+00
        -11   -1    0    0    0    0  0.00000000000E+00  0.00000000000E+00  0.45593999997E+02  0.45594000000E+02  0.51100000000E-03 0. -1.
         11   -1    0    0    0    0 -0.00000000000E+00 -0.00000000000E+00 -0.45593999997E+02  0.45594000000E+02  0.51100000000E-03 0.  1.
    9900012    2    1    2    0    0 -0.28550825762E+02  0.24397366493E+02 -0.24874329681E+02  0.46142318514E+02  0.10000006866E+02 0.  0.
         12    1    1    2    0    0  0.28550825762E+02 -0.24397366493E+02  0.24874329681E+02  0.45045681486E+02  0.00000000000E+00 0. -1.
         11    1    3    3    0    0 -0.16267964898E+02  0.81388243535E+01 -0.10714934103E+02  0.21111536109E+02  0.51100000000E-03 0. -1.
        -11    1    3    3    0    0 -0.47374337872E+01  0.82660398436E+01 -0.79364918608E+01  0.12399943423E+02  0.51100000000E-03 0.  1.
        -12    1    3    3    0    0 -0.75454270770E+01  0.79925022956E+01 -0.62229037163E+01  0.12630838982E+02  0.00000000000E+00 0.  1.
</event>
<event>
 7    1  0.1381440E-008  0.4614232E+02  0.7816164E-02  0.1320468E+00
        -11   -1    0    0    0    0  0.00000000000E+00  0.00000000000E+00  0.45593999997E+02  0.45594000000E+02  0.51100000000E-03 0.  1.
         11   -1    0    0    0    0 -0.00000000000E+00 -0.00000000000E+00 -0.45593999997E+02  0.45594000000E+02  0.51100000000E-03 0. -1.
    9900012    2    1    2    0    0 -0.17080692185E+02 -0.74901750912E+01  0.41003179166E+02  0.46142317964E+02  0.10000001846E+02 0.  0.
         12    1    1    2    0    0  0.17080692185E+02  0.74901750912E+01 -0.41003179166E+02  0.45045682036E+02  0.00000000000E+00 0. -1.
         11    1    3    3    0    0 -0.14489069763E+01 -0.25140089455E+01  0.11402372234E+02  0.11765783664E+02  0.51100000000E-03 0. -1.
        -11    1    3    3    0    0 -0.81614950329E+01  0.30855495091E+00  0.11646501304E+02  0.14224844471E+02  0.51100000000E-03 0.  1.
         12    1    3    3    0    0 -0.74702901754E+01 -0.52847210966E+01  0.17954305628E+02  0.20151689829E+02  0.00000000000E+00 0. -1.
</event>
<event>
 7    1  0.1381440E-008  0.4614232E+02  0.7816164E-02  0.1320468E+00
        -11   -1    0    0    0    0  0.00000000000E+00  0.00000000000E+00  0.45593999997E+02  0.45594000000E+02  0.51100000000E-03 0.  1.
         11   -1    0    0    0    0 -0.00000000000E+00 -0.00000000000E+00 -0.45593999997E+02  0.45594000000E+02  0.51100000000E-03 0. -1.
    9900012    2    1    2    0    0 -0.33104137837E+02  0.21386167859E+02 -0.21814245964E+02  0.46142318247E+02  0.10000004426E+02 0.  0.
         12    1    1    2    0    0  0.33104137837E+02 -0.21386167859E+02  0.21814245964E+02  0.45045681753E+02  0.00000000000E+00 0. -1.
         11    1    3    3    0    0 -0.32774146227E+01  0.24377398654E+01 -0.37926086312E+01  0.55738588743E+01  0.51100000000E-03 0. -1.
        -11    1    3    3    0    0 -0.30375872857E+02  0.18898617857E+02 -0.17575220691E+02  0.39858998875E+02  0.51100000000E-03 0.  1.
        -12    1    3    3    0    0  0.54914964226E+00  0.49810137310E-01 -0.44641664124E+00  0.70946049711E+00  0.00000000000E+00 0.  1.
</event>
<event>
 7    1  0.1381440E-008  0.4614232E+02  0.7816164E-02  0.1320468E+00
        -11   -1    0    0    0    0  0.00000000000E+00  0.00000000000E+00  0.45593999997E+02  0.45594000000E+02  0.51100000000E-03 0.  1.
         11   -1    0    0    0    0 -0.00000000000E+00 -0.00000000000E+00 -0.45593999997E+02  0.45594000000E+02  0.51100000000E-03 0. -1.
    9900012    2    1    2    0    0  0.26718501121E+02 -0.19121301507E+02  0.30815756239E+02  0.46142319784E+02  0.10000018450E+02 0.  0.
         12    1    1    2    0    0 -0.26718501121E+02  0.19121301507E+02 -0.30815756239E+02  0.45045680216E+02  0.00000000000E+00 0. -1.
         11    1    3    3    0    0  0.44803800967E+01 -0.19238715682E+01  0.93103722784E+01  0.10509905796E+02  0.51100000000E-03 0. -1.
        -11    1    3    3    0    0  0.13663463969E+02 -0.10054343154E+02  0.10455138214E+02  0.19927116681E+02  0.51100000000E-03 0.  1.
        -12    1    3    3    0    0  0.85746570555E+01 -0.71430867857E+01  0.11050245747E+02  0.15705297307E+02  0.00000000000E+00 0.  1.
</event>
<event>
 7    1  0.1381440E-008  0.4614232E+02  0.7816164E-02  0.1320468E+00
        -11   -1    0    0    0    0  0.00000000000E+00  0.00000000000E+00  0.45593999997E+02  0.45594000000E+02  0.51100000000E-03 0.  1.
         11   -1    0    0    0    0 -0.00000000000E+00 -0.00000000000E+00 -0.45593999997E+02  0.45594000000E+02  0.51100000000E-03 0. -1.
    9900012    2    1    2    0    0 -0.15522441335E+02  0.15026703890E+02  0.39526768840E+02  0.46142317968E+02  0.10000001888E+02 0.  0.
         12    1    1    2    0    0  0.15522441335E+02 -0.15026703890E+02 -0.39526768840E+02  0.45045682032E+02  0.00000000000E+00 0. -1.
         11    1    3    3    0    0 -0.21980294590E+01  0.59520158090E+01  0.63849621663E+01  0.90014203224E+01  0.51100000000E-03 0. -1.
        -11    1    3    3    0    0 -0.11083128244E+02  0.93080969487E+01  0.27762237830E+02  0.31308437362E+02  0.51100000000E-03 0.  1.
         12    1    3    3    0    0 -0.22412836325E+01 -0.23340886735E+00  0.53795688435E+01  0.58324602838E+01  0.00000000000E+00 0. -1.
</event>
<event>
 7    1  0.1381440E-008  0.4614232E+02  0.7816164E-02  0.1320468E+00
        -11   -1    0    0    0    0  0.00000000000E+00  0.00000000000E+00  0.45593999997E+02  0.45594000000E+02  0.51100000000E-03 0.  1.
         11   -1    0    0    0    0 -0.00000000000E+00 -0.00000000000E+00 -0.45593999997E+02  0.45594000000E+02  0.51100000000E-03 0. -1.
    9900012    2    1    2    0    0 -0.94478147560E+01  0.10004827778E+02  0.42892373503E+02  0.46142317773E+02  0.10000000110E+02 0.  0.
         12    1    1    2    0    0  0.94478147560E+01 -0.10004827778E+02 -0.42892373503E+02  0.45045682227E+02  0.00000000000E+00 0. -1.
         11    1    3    3    0    0 -0.12095117337E+00  0.38842379144E+00  0.18634909089E+00  0.44746896305E+00  0.51100000000E-03 0. -1.
        -11    1    3    3    0    0 -0.48329080592E+01  0.18582620161E+01  0.60733379978E+01  0.79809506154E+01  0.51100000000E-03 0.  1.
        -12    1    3    3    0    0 -0.44939555235E+01  0.77581419704E+01  0.36632686415E+02  0.37713898195E+02  0.00000000000E+00 0.  1.
</event>
<event>
 7    1  0.1381440E-008  0.4614232E+02  0.7816164E-02  0.1320468E+00
        -11   -1    0    0    0    0  0.00000000000E+00  0.00000000000E+00  0.45593999997E+02  0.45594000000E+02  0.51100000000E-03 0. -1.
         11   -1    0    0    0    0 -0.00000000000E+00 -0.00000000000E+00 -0.45593999997E+02  0.45594000000E+02  0.51100000000E-03 0.  1.
    9900012    2    1    2    0    0  0.17038740748E+02 -0.37854956494E+02 -0.17487055677E+02  0.46142317258E+02  0.99999954131E+01 0.  0.
         12    1    1    2    0    0 -0.17038740748E+02  0.37854956494E+02  0.17487055677E+02  0.45045682742E+02  0.00000000000E+00 0. -1.
         11    1    3    3    0    0  0.82005255091E+01 -0.24324437941E+02 -0.12659353142E+02  0.28621427673E+02  0.51100000000E-03 0.  1.
        -11    1    3    3    0    0  0.21633073789E+00 -0.18972699895E+01  0.68259769754E+00  0.20278984884E+01  0.51100000000E-03 0. -1.
        -12    1    3    3    0    0  0.86218845012E+01 -0.11633248563E+02 -0.55103002324E+01  0.15492991097E+02  0.00000000000E+00 0.  1.
</event>
<event>
 7    1  0.1381440E-008  0.4614232E+02  0.7816164E-02  0.1320468E+00
        -11   -1    0    0    0    0  0.00000000000E+00  0.00000000000E+00  0.45593999997E+02  0.45594000000E+02  0.51100000000E-03 0.  1.
         11   -1    0    0    0    0 -0.00000000000E+00 -0.00000000000E+00 -0.45593999997E+02  0.45594000000E+02  0.51100000000E-03 0. -1.
    9900012    2    1    2    0    0 -0.30448966507E+02  0.31473759123E+02  0.10553500854E+02  0.46142318132E+02  0.10000003384E+02 0.  0.
         12    1    1    2    0    0  0.30448966507E+02 -0.31473759123E+02 -0.10553500854E+02  0.45045681868E+02  0.00000000000E+00 0. -1.
         11    1    3    3    0    0 -0.31069991177E+01  0.33253743394E+01  0.42649306812E+01  0.62370820093E+01  0.51100000000E-03 0. -1.
        -11    1    3    3    0    0 -0.20428873415E+02  0.23154229493E+02  0.48771305508E+01  0.31260895942E+02  0.51100000000E-03 0.  1.
         12    1    3    3    0    0 -0.69130939740E+01  0.49941552909E+01  0.14114396224E+01  0.86443401814E+01  0.00000000000E+00 0. -1.
</event>
<event>
 7    1  0.1381440E-008  0.4614232E+02  0.7816164E-02  0.1320468E+00
        -11   -1    0    0    0    0  0.00000000000E+00  0.00000000000E+00  0.45593999997E+02  0.45594000000E+02  0.51100000000E-03 0.  1.
         11   -1    0    0    0    0 -0.00000000000E+00 -0.00000000000E+00 -0.45593999997E+02  0.45594000000E+02  0.51100000000E-03 0. -1.
    9900012    2    1    2    0    0 -0.21381666361E+02 -0.21565581000E+02  0.33269560231E+02  0.46142316764E+02  0.99999909102E+01 0.  0.
         12    1    1    2    0    0  0.21381666361E+02  0.21565581000E+02 -0.33269560231E+02  0.45045683236E+02  0.00000000000E+00 0. -1.
         11    1    3    3    0    0 -0.20206668335E+02 -0.19140454947E+02  0.28921751677E+02  0.40138935974E+02  0.51100000000E-03 0.  1.
        -11    1    3    3    0    0  0.10288590895E+01 -0.13124548571E+01  0.18698904381E+01  0.25055097864E+01  0.51100000000E-03 0. -1.
         12    1    3    3    0    0 -0.22038571149E+01 -0.11126711958E+01  0.24779181156E+01  0.34978710040E+01  0.00000000000E+00 0. -1.
</event>
<event>
 7    1  0.1381440E-008  0.4614232E+02  0.7816164E-02  0.1320468E+00
        -11   -1    0    0    0    0  0.00000000000E+00  0.00000000000E+00  0.45593999997E+02  0.45594000000E+02  0.51100000000E-03 0. -1.
         11   -1    0    0    0    0 -0.00000000000E+00 -0.00000000000E+00 -0.45593999997E+02  0.45594000000E+02  0.51100000000E-03 0.  1.
    9900012    2    1    2    0    0  0.26907106282E+02  0.15892303580E+02 -0.32443117900E+02  0.46142316737E+02  0.99999906634E+01 0.  0.
         12    1    1    2    0    0 -0.26907106282E+02 -0.15892303580E+02  0.32443117900E+02  0.45045683263E+02  0.00000000000E+00 0. -1.
         11    1    3    3    0    0  0.25490974855E+01  0.90295683138E-01 -0.40813521742E+01  0.48128460532E+01  0.51100000000E-03 0. -1.
        -11    1    3    3    0    0  0.52234882733E+01  0.69070453004E+00 -0.26589654394E+01  0.59018641088E+01  0.51100000000E-03 0.  1.
        -12    1    3    3    0    0  0.19134520523E+02  0.15111303367E+02 -0.25702800287E+02  0.35427606575E+02  0.00000000000E+00 0.  1.
</event>
<event>
 7    1  0.1381440E-008  0.4614232E+02  0.7816164E-02  0.1320468E+00
        -11   -1    0    0    0    0  0.00000000000E+00  0.00000000000E+00  0.45593999997E+02  0.45594000000E+02  0.51100000000E-03 0.  1.
         11   -1    0    0    0    0 -0.00000000000E+00 -0.00000000000E+00 -0.45593999997E+02  0.45594000000E+02  0.51100000000E-03 0. -1.
    9900012    2    1    2    0    0 -0.13060807343E+02  0.80449718503E+01  0.42353360500E+02  0.46142318674E+02  0.10000008325E+02 0.  0.
         12    1    1    2    0    0  0.13060807343E+02 -0.80449718503E+01 -0.42353360500E+02  0.45045681326E+02  0.00000000000E+00 0. -1.
         11    1    3    3    0    0 -0.27335891653E+01  0.23075741849E+00  0.12254375730E+02  0.12557686232E+02  0.51100000000E-03 0. -1.
        -11    1    3    3    0    0 -0.10397578905E+02  0.51042247312E+01  0.19841235257E+02  0.22974711618E+02  0.51100000000E-03 0.  1.
        -12    1    3    3    0    0  0.70360727366E-01  0.27099897005E+01  0.10257749513E+02  0.10609920824E+02  0.00000000000E+00 0.  1.
</event>
<event>
 7    1  0.1381440E-008  0.4614232E+02  0.7816164E-02  0.1320468E+00
        -11   -1    0    0    0    0  0.00000000000E+00  0.00000000000E+00  0.45593999997E+02  0.45594000000E+02  0.51100000000E-03 0. -1.
         11   -1    0    0    0    0 -0.00000000000E+00 -0.00000000000E+00 -0.45593999997E+02  0.45594000000E+02  0.51100000000E-03 0.  1.
    9900012    2    1    2    0    0 -0.21208983376E+02 -0.27999236432E+02  0.28201688639E+02  0.46142318091E+02  0.10000003004E+02 0.  0.
         12    1    1    2    0    0  0.21208983376E+02  0.27999236432E+02 -0.28201688639E+02  0.45045681909E+02  0.00000000000E+00 0. -1.
         11    1    3    3    0    0 -0.50363916999E+00 -0.38020301480E+01  0.14065188756E+01  0.40850191270E+01  0.51100000000E-03 0.  1.
        -11    1    3    3    0    0 -0.86559533807E+01 -0.14499979194E+02  0.15288385532E+02  0.22779588627E+02  0.51100000000E-03 0. -1.
        -12    1    3    3    0    0 -0.12049390826E+02 -0.96972270897E+01  0.11506784231E+02  0.19277710337E+02  0.00000000000E+00 0.  1.
</event>
<event>
 7    1  0.1381440E-008  0.4614232E+02  0.7816164E-02  0.1320468E+00
        -11   -1    0    0    0    0  0.00000000000E+00  0.00000000000E+00  0.45593999997E+02  0.45594000000E+02  0.51100000000E-03 0.  1.
         11   -1    0    0    0    0 -0.00000000000E+00 -0.00000000000E+00 -0.45593999997E+02  0.45594000000E+02  0.51100000000E-03 0. -1.
    9900012    2    1    2    0    0 -0.78596426246E+00 -0.16747284791E+02  0.41809378435E+02  0.46142318600E+02  0.10000007645E+02 0.  0.
         12    1    1    2    0    0  0.78596426246E+00  0.16747284791E+02 -0.41809378435E+02  0.45045681400E+02  0.00000000000E+00 0. -1.
         11    1    3    3    0    0 -0.32193859403E+01 -0.88755930244E+01  0.16318275476E+02  0.18852764045E+02  0.51100000000E-03 0. -1.
        -11    1    3    3    0    0  0.37316983090E+01 -0.40213449413E+01  0.17246523206E+02  0.18098048248E+02  0.51100000000E-03 0.  1.
        -12    1    3    3    0    0 -0.12982766312E+01 -0.38503468257E+01  0.82445797531E+01  0.91915063071E+01  0.00000000000E+00 0.  1.
</event>
<event>
 7    1  0.1381440E-008  0.4614232E+02  0.7816164E-02  0.1320468E+00
        -11   -1    0    0    0    0  0.00000000000E+00  0.00000000000E+00  0.45593999997E+02  0.45594000000E+02  0.51100000000E-03 0. -1.
         11   -1    0    0    0    0 -0.00000000000E+00 -0.00000000000E+00 -0.45593999997E+02  0.45594000000E+02  0.51100000000E-03 0.  1.
    9900012    2    1    2    0    0  0.29266585394E+02  0.11480729096E+02 -0.32261019082E+02  0.46142317483E+02  0.99999974597E+01 0.  0.
         12    1    1    2    0    0 -0.29266585394E+02 -0.11480729096E+02  0.32261019082E+02  0.45045682517E+02  0.00000000000E+00 0. -1.
         11    1    3    3    0    0  0.14082793582E+02  0.79945507910E+01 -0.14747869631E+02  0.21902912508E+02  0.51100000000E-03 0. -1.
        -11    1    3    3    0    0  0.26117309382E+01 -0.17439545714E+01 -0.33960128029E+01  0.46255182692E+01  0.51100000000E-03 0.  1.
        -12    1    3    3    0    0  0.12572060874E+02  0.52301328767E+01 -0.14117136648E+02  0.19613886705E+02  0.00000000000E+00 0.  1.
</event>
<event>
 7    1  0.1381440E-008  0.4614232E+02  0.7816164E-02  0.1320468E+00
        -11   -1    0    0    0    0  0.00000000000E+00  0.00000000000E+00  0.45593999997E+02  0.45594000000E+02  0.51100000000E-03 0. -1.
         11   -1    0    0    0    0 -0.00000000000E+00 -0.00000000000E+00 -0.45593999997E+02  0.45594000000E+02  0.51100000000E-03 0.  1.
    9900012    2    1    2    0    0  0.90496990434E+00 -0.43648833266E+02  0.11093866550E+02  0.46142317732E+02  0.99999997331E+01 0.  0.
         12    1    1    2    0    0 -0.90496990434E+00  0.43648833266E+02 -0.11093866550E+02  0.45045682268E+02  0.00000000000E+00 0. -1.
         11    1    3    3    0    0  0.13219259469E+01 -0.16997525435E+02  0.92727232041E+01  0.19407389186E+02  0.51100000000E-03 0. -1.
        -11    1    3    3    0    0 -0.46681783758E+00 -0.18802080858E+02  0.17008055920E+01  0.18884620817E+02  0.51100000000E-03 0.  1.
         12    1    3    3    0    0  0.49861795051E-01 -0.78492269719E+01  0.12033775373E+00  0.78503077284E+01  0.00000000000E+00 0. -1.
</event>
<event>
 7    1  0.1381440E-008  0.4614232E+02  0.7816164E-02  0.1320468E+00
        -11   -1    0    0    0    0  0.00000000000E+00  0.00000000000E+00  0.45593999997E+02  0.45594000000E+02  0.51100000000E-03 0.  1.
         11   -1    0    0    0    0 -0.00000000000E+00 -0.00000000000E+00 -0.45593999997E+02  0.45594000000E+02  0.51100000000E-03 0. -1.
    9900012    2    1    2    0    0 -0.31662540258E+02  0.32019290565E+02  0.11670912141E+01  0.46142317346E+02  0.99999962139E+01 0.  0.
         12    1    1    2    0    0  0.31662540258E+02 -0.32019290565E+02 -0.11670912141E+01  0.45045682654E+02  0.00000000000E+00 0. -1.
         11    1    3    3    0    0 -0.43568838057E+01  0.39233022260E+01 -0.18405659783E+01  0.61451135249E+01  0.51100000000E-03 0. -1.
        -11    1    3    3    0    0 -0.72157351924E+01  0.12110792458E+02  0.25078819995E+01  0.14318784889E+02  0.51100000000E-03 0.  1.
        -12    1    3    3    0    0 -0.20089921260E+02  0.15985195881E+02  0.49977519286E+00  0.25678418932E+02  0.00000000000E+00 0.  1.
</event>
<event>
 7    1  0.1381440E-008  0.4614232E+02  0.7816164E-02  0.1320468E+00
        -11   -1    0    0    0    0  0.00000000000E+00  0.00000000000E+00  0.45593999997E+02  0.45594000000E+02  0.51100000000E-03 0. -1.
         11   -1    0    0    0    0 -0.00000000000E+00 -0.00000000000E+00 -0.45593999997E+02  0.45594000000E+02  0.51100000000E-03 0.  1.
    9900012    2    1    2    0    0 -0.33285821990E+02  0.69048927856E+01 -0.29554864228E+02  0.46142317749E+02  0.99999998881E+01 0.  0.
         12    1    1    2    0    0  0.33285821990E+02 -0.69048927856E+01  0.29554864228E+02  0.45045682251E+02  0.00000000000E+00 0. -1.
         11    1    3    3    0    0 -0.11548649860E+02 -0.58919042951E+00 -0.11023970455E+02  0.15976432136E+02  0.51100000000E-03 0. -1.
        -11    1    3    3    0    0 -0.15878204534E+02  0.82524291693E+01 -0.13842858714E+02  0.22623985150E+02  0.51100000000E-03 0.  1.
        -12    1    3    3    0    0 -0.58589675953E+01 -0.75834595417E+00 -0.46880350596E+01  0.75419004627E+01  0.00000000000E+00 0.  1.
</event>
<event>
 7    1  0.1381440E-008  0.4614232E+02  0.7816164E-02  0.1320468E+00
        -11   -1    0    0    0    0  0.00000000000E+00  0.00000000000E+00  0.45593999997E+02  0.45594000000E+02  0.51100000000E-03 0. -1.
         11   -1    0    0    0    0 -0.00000000000E+00 -0.00000000000E+00 -0.45593999997E+02  0.45594000000E+02  0.51100000000E-03 0.  1.
    9900012    2    1    2    0    0 -0.91588153152E+01  0.14316148369E+02 -0.41716631803E+02  0.46142319063E+02  0.10000011871E+02 0.  0.
         12    1    1    2    0    0  0.91588153152E+01 -0.14316148369E+02  0.41716631803E+02  0.45045680937E+02  0.00000000000E+00 0. -1.
         11    1    3    3    0    0 -0.43465674918E+01  0.69278971203E+01 -0.90970692701E+01  0.12232950463E+02  0.51100000000E-03 0.  1.
        -11    1    3    3    0    0 -0.20472863650E+01  0.40087478285E+01 -0.21438324175E+02  0.21905779701E+02  0.51100000000E-03 0. -1.
         12    1    3    3    0    0 -0.27649614585E+01  0.33795034203E+01 -0.11181238358E+02  0.12003588899E+02  0.00000000000E+00 0. -1.
</event>
<event>
 7    1  0.1381440E-008  0.4614232E+02  0.7816164E-02  0.1320468E+00
        -11   -1    0    0    0    0  0.00000000000E+00  0.00000000000E+00  0.45593999997E+02  0.45594000000E+02  0.51100000000E-03 0. -1.
         11   -1    0    0    0    0 -0.00000000000E+00 -0.00000000000E+00 -0.45593999997E+02  0.45594000000E+02  0.51100000000E-03 0.  1.
    9900012    2    1    2    0    0 -0.18613320914E+02 -0.18265395813E+02 -0.36729184453E+02  0.46142318851E+02  0.10000009935E+02 0.  0.
         12    1    1    2    0    0  0.18613320914E+02  0.18265395813E+02  0.36729184453E+02  0.45045681149E+02  0.00000000000E+00 0. -1.
         11    1    3    3    0    0 -0.70469361088E+01 -0.41919993968E+01 -0.65214549114E+01  0.10476714270E+02  0.51100000000E-03 0. -1.
        -11    1    3    3    0    0 -0.66500968478E+01 -0.10862096889E+02 -0.17277256991E+02  0.21464215483E+02  0.51100000000E-03 0.  1.
         12    1    3    3    0    0 -0.49162879577E+01 -0.32112995267E+01 -0.12930472551E+02  0.14201389098E+02  0.00000000000E+00 0. -1.
</event>
<event>
 7    1  0.1381440E-008  0.4614232E+02  0.7816164E-02  0.1320468E+00
        -11   -1    0    0    0    0  0.00000000000E+00  0.00000000000E+00  0.45593999997E+02  0.45594000000E+02  0.51100000000E-03 0.  1.
         11   -1    0    0    0    0 -0.00000000000E+00 -0.00000000000E+00 -0.45593999997E+02  0.45594000000E+02  0.51100000000E-03 0. -1.
    9900012    2    1    2    0    0  0.80284724777E+01  0.12892016480E+02  0.42408171590E+02  0.46142317889E+02  0.10000001169E+02 0.  0.
         12    1    1    2    0    0 -0.80284724777E+01 -0.12892016480E+02 -0.42408171590E+02  0.45045682111E+02  0.00000000000E+00 0. -1.
         11    1    3    3    0    0  0.60736956897E+01  0.65861303861E+01  0.12655615411E+02  0.15505853555E+02  0.51100000000E-03 0. -1.
        -11    1    3    3    0    0 -0.38848452500E+00  0.36070920719E+01  0.17559336896E+02  0.17930207637E+02  0.51100000000E-03 0.  1.
         12    1    3    3    0    0  0.23432613130E+01  0.26987940223E+01  0.12193219283E+02  0.12706256696E+02  0.00000000000E+00 0. -1.
</event>
<event>
 7    1  0.1381440E-008  0.4614232E+02  0.7816164E-02  0.1320468E+00
        -11   -1    0    0    0    0  0.00000000000E+00  0.00000000000E+00  0.45593999997E+02  0.45594000000E+02  0.51100000000E-03 0. -1.
         11   -1    0    0    0    0 -0.00000000000E+00 -0.00000000000E+00 -0.45593999997E+02  0.45594000000E+02  0.51100000000E-03 0.  1.
    9900012    2    1    2    0    0 -0.25841496365E+02  0.30169808080E+02 -0.21239425773E+02  0.46142318064E+02  0.10000002759E+02 0.  0.
         12    1    1    2    0    0  0.25841496365E+02 -0.30169808080E+02  0.21239425773E+02  0.45045681936E+02  0.00000000000E+00 0. -1.
         11    1    3    3    0    0 -0.16211179956E+01  0.55131145189E+00 -0.36031547925E+00  0.17497986680E+01  0.51100000000E-03 0. -1.
        -11    1    3    3    0    0 -0.39061066529E+00 -0.38147957506E+00 -0.12066105498E+01  0.13243914218E+01  0.51100000000E-03 0.  1.
        -12    1    3    3    0    0 -0.23829767704E+02  0.29999976203E+02 -0.19672499744E+02  0.43068127974E+02  0.00000000000E+00 0.  1.
</event>
<event>
 7    1  0.1381440E-008  0.4614232E+02  0.7816164E-02  0.1320468E+00
        -11   -1    0    0    0    0  0.00000000000E+00  0.00000000000E+00  0.45593999997E+02  0.45594000000E+02  0.51100000000E-03 0.  1.
         11   -1    0    0    0    0 -0.00000000000E+00 -0.00000000000E+00 -0.45593999997E+02  0.45594000000E+02  0.51100000000E-03 0. -1.
    9900012    2    1    2    0    0  0.11472342186E+02 -0.65979553521E+00  0.43555293059E+02  0.46142317423E+02  0.99999969158E+01 0.  0.
         12    1    1    2    0    0 -0.11472342186E+02  0.65979553521E+00 -0.43555293059E+02  0.45045682577E+02  0.00000000000E+00 0. -1.
         11    1    3    3    0    0 -0.85427548574E+00 -0.96425282468E+00  0.95920715045E+01  0.96781922963E+01  0.51100000000E-03 0. -1.
        -11    1    3    3    0    0  0.87496287001E+01 -0.18567214783E+01  0.20478418661E+02  0.22346566809E+02  0.51100000000E-03 0.  1.
        -12    1    3    3    0    0  0.35769889712E+01  0.21611787678E+01  0.13484802894E+02  0.14117558318E+02  0.00000000000E+00 0.  1.
</event>
<event>
 7    1  0.1381440E-008  0.4614232E+02  0.7816164E-02  0.1320468E+00
        -11   -1    0    0    0    0  0.00000000000E+00  0.00000000000E+00  0.45593999997E+02  0.45594000000E+02  0.51100000000E-03 0.  1.
         11   -1    0    0    0    0 -0.00000000000E+00 -0.00000000000E+00 -0.45593999997E+02  0.45594000000E+02  0.51100000000E-03 0. -1.
    9900012    2    1    2    0    0 -0.63741871862E+00  0.34483124825E+00  0.45039852266E+02  0.46142317595E+02  0.99999984852E+01 0.  0.
         12    1    1    2    0    0  0.63741871862E+00 -0.34483124825E+00 -0.45039852266E+02  0.45045682405E+02  0.00000000000E+00 0. -1.
         11    1    3    3    0    0 -0.18720780902E+01  0.39766089592E+01  0.20726683897E+02  0.21187579400E+02  0.51100000000E-03 0. -1.
        -11    1    3    3    0    0 -0.15155275617E+01 -0.12280309706E+01  0.75131829922E+01  0.77622678896E+01  0.51100000000E-03 0.  1.
         12    1    3    3    0    0  0.27501869333E+01 -0.24037467404E+01  0.16799985376E+02  0.17192470305E+02  0.00000000000E+00 0. -1.
</event>
<event>
 7    1  0.1381440E-008  0.4614231E+02  0.7816164E-02  0.1320468E+00
        -11   -1    0    0    0    0  0.00000000000E+00  0.00000000000E+00  0.45593999997E+02  0.45594000000E+02  0.51100000000E-03 0. -1.
         11   -1    0    0    0    0 -0.00000000000E+00 -0.00000000000E+00 -0.45593999997E+02  0.45594000000E+02  0.51100000000E-03 0.  1.
    9900012    2    1    2    0    0  0.37651078917E+02  0.20563348090E+02 -0.13735323800E+02  0.46142310438E+02  0.99999332201E+01 0.  0.
         12    1    1    2    0    0 -0.37651078917E+02 -0.20563348090E+02  0.13735323800E+02  0.45045689562E+02  0.00000000000E+00 0. -1.
         11    1    3    3    0    0  0.21549406046E+02  0.87539638269E+01 -0.37076546332E+01  0.23553247903E+02  0.51100000000E-03 0.  1.
        -11    1    3    3    0    0  0.86006104280E+01  0.77583405754E+01 -0.70460313285E+01  0.13557614317E+02  0.51100000000E-03 0. -1.
         12    1    3    3    0    0  0.75010624423E+01  0.40510436876E+01 -0.29816378381E+01  0.90314482183E+01  0.00000000000E+00 0. -1.
</event>
<event>
 7    1  0.1381440E-008  0.4614232E+02  0.7816164E-02  0.1320468E+00
        -11   -1    0    0    0    0  0.00000000000E+00  0.00000000000E+00  0.45593999997E+02  0.45594000000E+02  0.51100000000E-03 0.  1.
         11   -1    0    0    0    0 -0.00000000000E+00 -0.00000000000E+00 -0.45593999997E+02  0.45594000000E+02  0.51100000000E-03 0. -1.
    9900012    2    1    2    0    0 -0.35153183017E+02 -0.28030968552E+02 -0.27626074128E+01  0.46142317922E+02  0.10000001467E+02 0.  0.
         12    1    1    2    0    0  0.35153183017E+02  0.28030968552E+02  0.27626074128E+01  0.45045682078E+02  0.00000000000E+00 0. -1.
         11    1    3    3    0    0 -0.21877915287E+01 -0.12375238493E+01 -0.13924006384E+01  0.28734433785E+01  0.51100000000E-03 0. -1.
        -11    1    3    3    0    0 -0.28123314249E+02 -0.24255087103E+02  0.13498513100E+01  0.37162510055E+02  0.51100000000E-03 0.  1.
        -12    1    3    3    0    0 -0.48420772387E+01 -0.25383575996E+01 -0.27200580844E+01  0.61063644889E+01  0.00000000000E+00 0.  1.
</event>
<event>
 7    1  0.1381440E-008  0.4614232E+02  0.7816164E-02  0.1320468E+00
        -11   -1    0    0    0    0  0.00000000000E+00  0.00000000000E+00  0.45593999997E+02  0.45594000000E+02  0.51100000000E-03 0. -1.
         11   -1    0    0    0    0 -0.00000000000E+00 -0.00000000000E+00 -0.45593999997E+02  0.45594000000E+02  0.51100000000E-03 0.  1.
    9900012    2    1    2    0    0  0.15204964151E+02 -0.41632157564E+02 -0.80427618527E+01  0.46142317671E+02  0.99999991823E+01 0.  0.
         12    1    1    2    0    0 -0.15204964151E+02  0.41632157564E+02  0.80427618527E+01  0.45045682329E+02  0.00000000000E+00 0. -1.
         11    1    3    3    0    0  0.38988559293E+01 -0.90244703855E+01  0.17258367611E+01  0.99810147822E+01  0.51100000000E-03 0. -1.
        -11    1    3    3    0    0  0.10404188654E+02 -0.31413128274E+02 -0.84179206077E+01  0.34145177656E+02  0.51100000000E-03 0.  1.
        -12    1    3    3    0    0  0.90191956783E+00 -0.11945589039E+01 -0.13506780060E+01  0.20161252337E+01  0.00000000000E+00 0.  1.
</event>
<event>
 7    1  0.1381440E-008  0.4614232E+02  0.7816164E-02  0.1320468E+00
        -11   -1    0    0    0    0  0.00000000000E+00  0.00000000000E+00  0.45593999997E+02  0.45594000000E+02  0.51100000000E-03 0.  1.
         11   -1    0    0    0    0 -0.00000000000E+00 -0.00000000000E+00 -0.45593999997E+02  0.45594000000E+02  0.51100000000E-03 0. -1.
    9900012    2    1    2    0    0  0.40435727826E+02 -0.16245582511E+02  0.11408175691E+02  0.46142317538E+02  0.99999979636E+01 0.  0.
         12    1    1    2    0    0 -0.40435727826E+02  0.16245582511E+02 -0.11408175691E+02  0.45045682462E+02  0.00000000000E+00 0. -1.
         11    1    3    3    0    0  0.11098092101E+02 -0.59868638336E+01  0.53039690629E+01  0.13679995429E+02  0.51100000000E-03 0. -1.
        -11    1    3    3    0    0  0.28969593982E+02 -0.10007753863E+02  0.47232737502E+01  0.31011317741E+02  0.51100000000E-03 0.  1.
        -12    1    3    3    0    0  0.36804174205E+00 -0.25096481400E+00  0.13809328778E+01  0.14510043676E+01  0.00000000000E+00 0.  1.
</event>
<event>
 7    1  0.1381440E-008  0.4614233E+02  0.7816164E-02  0.1320468E+00
        -11   -1    0    0    0    0  0.00000000000E+00  0.00000000000E+00  0.45593999997E+02  0.45594000000E+02  0.51100000000E-03 0. -1.
         11   -1    0    0    0    0 -0.00000000000E+00 -0.00000000000E+00 -0.45593999997E+02  0.45594000000E+02  0.51100000000E-03 0.  1.
    9900012    2    1    2    0    0  0.41966110603E+02 -0.42131279270E+01 -0.15817961341E+02  0.46142325545E+02  0.10000070982E+02 0.  0.
         12    1    1    2    0    0 -0.41966110603E+02  0.42131279270E+01  0.15817961341E+02  0.45045674455E+02  0.00000000000E+00 0. -1.
         11    1    3    3    0    0  0.56721007647E+01  0.17058037413E+01 -0.27243328460E+01  0.65195462424E+01  0.51100000000E-03 0. -1.
        -11    1    3    3    0    0  0.34738605541E+02 -0.55727738586E+01 -0.10749406327E+02  0.36788262532E+02  0.51100000000E-03 0.  1.
        -12    1    3    3    0    0  0.15554042973E+01 -0.34615780968E+00 -0.23442221673E+01  0.28345167713E+01  0.00000000000E+00 0.  1.
</event>
<event>
 7    1  0.1381440E-008  0.4614232E+02  0.7816164E-02  0.1320468E+00
        -11   -1    0    0    0    0  0.00000000000E+00  0.00000000000E+00  0.45593999997E+02  0.45594000000E+02  0.51100000000E-03 0.  1.
         11   -1    0    0    0    0 -0.00000000000E+00 -0.00000000000E+00 -0.45593999997E+02  0.45594000000E+02  0.51100000000E-03 0. -1.
    9900012    2    1    2    0    0 -0.33576399354E+02 -0.21314897396E+02  0.21152157272E+02  0.46142320941E+02  0.10000028998E+02 0.  0.
         12    1    1    2    0    0  0.33576399354E+02  0.21314897396E+02 -0.21152157272E+02  0.45045679059E+02  0.00000000000E+00 0. -1.
         11    1    3    3    0    0 -0.10397811266E+02 -0.82199165639E+01  0.10228200668E+02  0.16742090569E+02  0.51100000000E-03 0. -1.
        -11    1    3    3    0    0 -0.10973174023E+02 -0.43966966967E+01  0.20953378416E+01  0.12005495863E+02  0.51100000000E-03 0.  1.
        -12    1    3    3    0    0 -0.12205414065E+02 -0.86982841352E+01  0.88286187630E+01  0.17394734510E+02  0.00000000000E+00 0.  1.
</event>
<event>
 7    1  0.1381440E-008  0.4614232E+02  0.7816164E-02  0.1320468E+00
        -11   -1    0    0    0    0  0.00000000000E+00  0.00000000000E+00  0.45593999997E+02  0.45594000000E+02  0.51100000000E-03 0.  1.
         11   -1    0    0    0    0 -0.00000000000E+00 -0.00000000000E+00 -0.45593999997E+02  0.45594000000E+02  0.51100000000E-03 0. -1.
    9900012    2    1    2    0    0 -0.22359758517E+02  0.31715309917E+02  0.22875614414E+02  0.46142318533E+02  0.10000007034E+02 0.  0.
         12    1    1    2    0    0  0.22359758517E+02 -0.31715309917E+02 -0.22875614414E+02  0.45045681467E+02  0.00000000000E+00 0. -1.
         11    1    3    3    0    0 -0.83522966776E+01  0.71515501766E+01  0.44582285350E+01  0.11865130916E+02  0.51100000000E-03 0.  1.
        -11    1    3    3    0    0 -0.27033532419E+01  0.31117799393E+01  0.52813748414E+01  0.66995681665E+01  0.51100000000E-03 0. -1.
        -12    1    3    3    0    0 -0.11304108597E+02  0.21451979801E+02  0.13136011038E+02  0.27577619450E+02  0.00000000000E+00 0.  1.
</event>
<event>
 7    1  0.1381440E-008  0.4614232E+02  0.7816164E-02  0.1320468E+00
        -11   -1    0    0    0    0  0.00000000000E+00  0.00000000000E+00  0.45593999997E+02  0.45594000000E+02  0.51100000000E-03 0.  1.
         11   -1    0    0    0    0 -0.00000000000E+00 -0.00000000000E+00 -0.45593999997E+02  0.45594000000E+02  0.51100000000E-03 0. -1.
    9900012    2    1    2    0    0  0.26921394864E+02  0.18850926923E+02  0.30805755926E+02  0.46142317128E+02  0.99999942234E+01 0.  0.
         12    1    1    2    0    0 -0.26921394864E+02 -0.18850926923E+02 -0.30805755926E+02  0.45045682872E+02  0.00000000000E+00 0. -1.
         11    1    3    3    0    0  0.36737872888E+01  0.33382896464E+01  0.92905266341E+00  0.50501514749E+01  0.51100000000E-03 0. -1.
        -11    1    3    3    0    0  0.85348168027E+01  0.67362137023E+01  0.92201730562E+01  0.14255920326E+02  0.51100000000E-03 0.  1.
         12    1    3    3    0    0  0.14712790772E+02  0.87764235744E+01  0.20656530206E+02  0.26836245327E+02  0.00000000000E+00 0. -1.
</event>
<event>
 7    1  0.1381440E-008  0.4614232E+02  0.7816164E-02  0.1320468E+00
        -11   -1    0    0    0    0  0.00000000000E+00  0.00000000000E+00  0.45593999997E+02  0.45594000000E+02  0.51100000000E-03 0. -1.
         11   -1    0    0    0    0 -0.00000000000E+00 -0.00000000000E+00 -0.45593999997E+02  0.45594000000E+02  0.51100000000E-03 0.  1.
    9900012    2    1    2    0    0 -0.74087627151E+01  0.35085983247E+02 -0.27261649571E+02  0.46142317380E+02  0.99999965239E+01 0.  0.
         12    1    1    2    0    0  0.74087627151E+01 -0.35085983247E+02  0.27261649571E+02  0.45045682620E+02  0.00000000000E+00 0. -1.
         11    1    3    3    0    0 -0.10453303194E+01  0.92114815568E+01 -0.44426497580E+01  0.10280138379E+02  0.51100000000E-03 0. -1.
        -11    1    3    3    0    0 -0.22200649906E+01  0.16751967976E+02 -0.10158861589E+02  0.19716987313E+02  0.51100000000E-03 0.  1.
         12    1    3    3    0    0 -0.41433674051E+01  0.91225337136E+01 -0.12660138224E+02  0.16145191688E+02  0.00000000000E+00 0. -1.
</event>
<event>
 7    1  0.1381440E-008  0.4614232E+02  0.7816164E-02  0.1320468E+00
        -11   -1    0    0    0    0  0.00000000000E+00  0.00000000000E+00  0.45593999997E+02  0.45594000000E+02  0.51100000000E-03 0.  1.
         11   -1    0    0    0    0 -0.00000000000E+00 -0.00000000000E+00 -0.45593999997E+02  0.45594000000E+02  0.51100000000E-03 0. -1.
    9900012    2    1    2    0    0  0.37761327580E+02 -0.14504331167E+02  0.19819682406E+02  0.46142319920E+02  0.10000019690E+02 0.  0.
         12    1    1    2    0    0 -0.37761327580E+02  0.14504331167E+02 -0.19819682406E+02  0.45045680080E+02  0.00000000000E+00 0. -1.
         11    1    3    3    0    0  0.16048544094E+02 -0.29081138971E+01  0.47763617161E+01  0.16994897042E+02  0.51100000000E-03 0. -1.
        -11    1    3    3    0    0  0.16313482948E+02 -0.10642087103E+02  0.11970435060E+02  0.22862087822E+02  0.51100000000E-03 0.  1.
        -12    1    3    3    0    0  0.53993005376E+01 -0.95413016645E+00  0.30728856292E+01  0.62853350555E+01  0.00000000000E+00 0.  1.
</event>
<event>
 7    1  0.1381440E-008  0.4614232E+02  0.7816164E-02  0.1320468E+00
        -11   -1    0    0    0    0  0.00000000000E+00  0.00000000000E+00  0.45593999997E+02  0.45594000000E+02  0.51100000000E-03 0.  1.
         11   -1    0    0    0    0 -0.00000000000E+00 -0.00000000000E+00 -0.45593999997E+02  0.45594000000E+02  0.51100000000E-03 0. -1.
    9900012    2    1    2    0    0  0.42799551408E+02 -0.61509234734E+01  0.12628462773E+02  0.46142317274E+02  0.99999955550E+01 0.  0.
         12    1    1    2    0    0 -0.42799551408E+02  0.61509234734E+01 -0.12628462773E+02  0.45045682726E+02  0.00000000000E+00 0. -1.
         11    1    3    3    0    0  0.23666687954E+02 -0.43170613228E+01  0.31713563509E+01  0.24265338212E+02  0.51100000000E-03 0.  1.
        -11    1    3    3    0    0  0.19023116010E+02 -0.13998596123E+01  0.86289050429E+01  0.20935533243E+02  0.51100000000E-03 0. -1.
         12    1    3    3    0    0  0.10974744347E+00 -0.43400253829E+00  0.82820137937E+00  0.94144581861E+00  0.00000000000E+00 0. -1.
</event>
<event>
 7    1  0.1381440E-008  0.4614232E+02  0.7816164E-02  0.1320468E+00
        -11   -1    0    0    0    0  0.00000000000E+00  0.00000000000E+00  0.45593999997E+02  0.45594000000E+02  0.51100000000E-03 0.  1.
         11   -1    0    0    0    0 -0.00000000000E+00 -0.00000000000E+00 -0.45593999997E+02  0.45594000000E+02  0.51100000000E-03 0. -1.
    9900012    2    1    2    0    0 -0.77130049488E+01 -0.56890119286E+01  0.44014295491E+02  0.46142317525E+02  0.99999978457E+01 0.  0.
         12    1    1    2    0    0  0.77130049488E+01  0.56890119286E+01 -0.44014295491E+02  0.45045682475E+02  0.00000000000E+00 0. -1.
         11    1    3    3    0    0 -0.31763868781E+01 -0.20082489918E+01  0.14744341950E+02  0.15215719418E+02  0.51100000000E-03 0. -1.
        -11    1    3    3    0    0 -0.50558058201E+01 -0.20134626159E+01  0.85617020323E+01  0.10144848256E+02  0.51100000000E-03 0.  1.
        -12    1    3    3    0    0  0.51918774947E+00 -0.16673003208E+01  0.20708251509E+02  0.20781749850E+02  0.00000000000E+00 0.  1.
</event>
<event>
 7    1  0.1381440E-008  0.4614232E+02  0.7816164E-02  0.1320468E+00
        -11   -1    0    0    0    0  0.00000000000E+00  0.00000000000E+00  0.45593999997E+02  0.45594000000E+02  0.51100000000E-03 0.  1.
         11   -1    0    0    0    0 -0.00000000000E+00 -0.00000000000E+00 -0.45593999997E+02  0.45594000000E+02  0.51100000000E-03 0. -1.
    9900012    2    1    2    0    0 -0.11219921352E+02  0.11646728038E+02  0.42042604090E+02  0.46142317989E+02  0.10000002079E+02 0.  0.
         12    1    1    2    0    0  0.11219921352E+02 -0.11646728038E+02 -0.42042604090E+02  0.45045682011E+02  0.00000000000E+00 0. -1.
         11    1    3    3    0    0 -0.80740953941E+01  0.10074592875E+02  0.20596817595E+02  0.24308791277E+02  0.51100000000E-03 0. -1.
        -11    1    3    3    0    0 -0.20862884175E+01  0.14819859733E+01  0.94393353964E+01  0.97800784646E+01  0.51100000000E-03 0.  1.
         12    1    3    3    0    0 -0.10595375401E+01  0.90149189833E-01  0.12006451099E+02  0.12053448248E+02  0.00000000000E+00 0. -1.
</event>
<event>
 7    1  0.1381440E-008  0.4614232E+02  0.7816164E-02  0.1320468E+00
        -11   -1    0    0    0    0  0.00000000000E+00  0.00000000000E+00  0.45593999997E+02  0.45594000000E+02  0.51100000000E-03 0. -1.
         11   -1    0    0    0    0 -0.00000000000E+00 -0.00000000000E+00 -0.45593999997E+02  0.45594000000E+02  0.51100000000E-03 0.  1.
    9900012    2    1    2    0    0 -0.19954081081E+02 -0.34002365456E+02 -0.21789615342E+02  0.46142317131E+02  0.99999942530E+01 0.  0.
         12    1    1    2    0    0  0.19954081081E+02  0.34002365456E+02  0.21789615342E+02  0.45045682869E+02  0.00000000000E+00 0. -1.
         11    1    3    3    0    0 -0.20284264477E+01 -0.78646341568E+01 -0.64479883955E+01  0.10370320096E+02  0.51100000000E-03 0. -1.
        -11    1    3    3    0    0 -0.13660101160E+02 -0.23776315416E+02 -0.12584875529E+02  0.30171023032E+02  0.51100000000E-03 0.  1.
        -12    1    3    3    0    0 -0.42655534735E+01 -0.23614158835E+01 -0.27567514181E+01  0.56009740038E+01  0.00000000000E+00 0.  1.
</event>
<event>
 7    1  0.1381440E-008  0.4614232E+02  0.7816164E-02  0.1320468E+00
        -11   -1    0    0    0    0  0.00000000000E+00  0.00000000000E+00  0.45593999997E+02  0.45594000000E+02  0.51100000000E-03 0.  1.
         11   -1    0    0    0    0 -0.00000000000E+00 -0.00000000000E+00 -0.45593999997E+02  0.45594000000E+02  0.51100000000E-03 0. -1.
    9900012    2    1    2    0    0 -0.68674410777E+01 -0.14781517726E+02  0.41993553787E+02  0.46142316822E+02  0.99999914394E+01 0.  0.
         12    1    1    2    0    0  0.68674410777E+01  0.14781517726E+02 -0.41993553787E+02  0.45045683178E+02  0.00000000000E+00 0. -1.
         11    1    3    3    0    0 -0.23930813181E+01 -0.33868589924E+01  0.33761710109E+01  0.53475399003E+01  0.51100000000E-03 0. -1.
        -11    1    3    3    0    0 -0.51604707631E+00 -0.75189687301E+01  0.24348050731E+02  0.25487816109E+02  0.51100000000E-03 0.  1.
         12    1    3    3    0    0 -0.39583126832E+01 -0.38756900036E+01  0.14269332045E+02  0.15306960813E+02  0.00000000000E+00 0. -1.
</event>
<event>
 7    1  0.1381440E-008  0.4614232E+02  0.7816164E-02  0.1320468E+00
        -11   -1    0    0    0    0  0.00000000000E+00  0.00000000000E+00  0.45593999997E+02  0.45594000000E+02  0.51100000000E-03 0.  1.
         11   -1    0    0    0    0 -0.00000000000E+00 -0.00000000000E+00 -0.45593999997E+02  0.45594000000E+02  0.51100000000E-03 0. -1.
    9900012    2    1    2    0    0 -0.36584974159E+02  0.56871519454E+01  0.25657541157E+02  0.46142318191E+02  0.10000003917E+02 0.  0.
         12    1    1    2    0    0  0.36584974159E+02 -0.56871519454E+01 -0.25657541157E+02  0.45045681809E+02  0.00000000000E+00 0. -1.
         11    1    3    3    0    0 -0.13857553629E+02  0.14363507718E+01  0.64904805187E+01  0.15369490354E+02  0.51100000000E-03 0. -1.
        -11    1    3    3    0    0 -0.20659085293E+02  0.22767220190E+01  0.14655564343E+02  0.25431610935E+02  0.51100000000E-03 0.  1.
         12    1    3    3    0    0 -0.20683352366E+01  0.19740791546E+01  0.45114962956E+01  0.53412169011E+01  0.00000000000E+00 0. -1.
</event>
<event>
 7    1  0.1381440E-008  0.4614232E+02  0.7816164E-02  0.1320468E+00
        -11   -1    0    0    0    0  0.00000000000E+00  0.00000000000E+00  0.45593999997E+02  0.45594000000E+02  0.51100000000E-03 0.  1.
         11   -1    0    0    0    0 -0.00000000000E+00 -0.00000000000E+00 -0.45593999997E+02  0.45594000000E+02  0.51100000000E-03 0. -1.
    9900012    2    1    2    0    0 -0.19082738106E+02 -0.82255810177E+01  0.39966267151E+02  0.46142316670E+02  0.99999900524E+01 0.  0.
         12    1    1    2    0    0  0.19082738106E+02  0.82255810177E+01 -0.39966267151E+02  0.45045683330E+02  0.00000000000E+00 0. -1.
         11    1    3    3    0    0 -0.16135269052E+01 -0.20317286430E+01  0.92154882828E+01  0.95737461270E+01  0.51100000000E-03 0. -1.
        -11    1    3    3    0    0 -0.16440056162E+02 -0.33762841079E+01  0.26437384747E+02  0.31314693892E+02  0.51100000000E-03 0.  1.
        -12    1    3    3    0    0 -0.10291550386E+01 -0.28175682668E+01  0.43133941206E+01  0.52538766517E+01  0.00000000000E+00 0.  1.
</event>
<event>
 7    1  0.1381440E-008  0.4614232E+02  0.7816164E-02  0.1320468E+00
        -11   -1    0    0    0    0  0.00000000000E+00  0.00000000000E+00  0.45593999997E+02  0.45594000000E+02  0.51100000000E-03 0.  1.
         11   -1    0    0    0    0 -0.00000000000E+00 -0.00000000000E+00 -0.45593999997E+02  0.45594000000E+02  0.51100000000E-03 0. -1.
    9900012    2    1    2    0    0  0.35942725718E+01  0.27230218168E+02  0.35703079781E+02  0.46142317825E+02  0.10000000579E+02 0.  0.
         12    1    1    2    0    0 -0.35942725718E+01 -0.27230218168E+02 -0.35703079781E+02  0.45045682175E+02  0.00000000000E+00 0. -1.
         11    1    3    3    0    0 -0.95588035928E+00  0.14103780889E+02  0.23927955746E+02  0.27791678774E+02  0.51100000000E-03 0.  1.
        -11    1    3    3    0    0  0.28087920817E+01  0.85829357595E+01  0.62186915809E+01  0.10964863175E+02  0.51100000000E-03 0. -1.
        -12    1    3    3    0    0  0.17413608495E+01  0.45435015194E+01  0.55564324538E+01  0.73857758752E+01  0.00000000000E+00 0.  1.
</event>
<event>
 7    1  0.1381440E-008  0.4614232E+02  0.7816164E-02  0.1320468E+00
        -11   -1    0    0    0    0  0.00000000000E+00  0.00000000000E+00  0.45593999997E+02  0.45594000000E+02  0.51100000000E-03 0.  1.
         11   -1    0    0    0    0 -0.00000000000E+00 -0.00000000000E+00 -0.45593999997E+02  0.45594000000E+02  0.51100000000E-03 0. -1.
    9900012    2    1    2    0    0 -0.33240889811E+02 -0.29873096409E+02 -0.56351480004E+01  0.46142317216E+02  0.99999950316E+01 0.  0.
         12    1    1    2    0    0  0.33240889811E+02  0.29873096409E+02  0.56351480004E+01  0.45045682784E+02  0.00000000000E+00 0. -1.
         11    1    3    3    0    0 -0.16359542259E+02 -0.13186468197E+02 -0.50462603719E+01  0.21609773493E+02  0.51100000000E-03 0. -1.
        -11    1    3    3    0    0  0.35028487573E+00 -0.12128562702E+01  0.47423575710E+00  0.13485620641E+01  0.51100000000E-03 0.  1.
        -12    1    3    3    0    0 -0.17231632428E+02 -0.15473771942E+02 -0.10631233856E+01  0.23183981659E+02  0.00000000000E+00 0.  1.
</event>
<event>
 7    1  0.1381440E-008  0.4614232E+02  0.7816164E-02  0.1320468E+00
        -11   -1    0    0    0    0  0.00000000000E+00  0.00000000000E+00  0.45593999997E+02  0.45594000000E+02  0.51100000000E-03 0.  1.
         11   -1    0    0    0    0 -0.00000000000E+00 -0.00000000000E+00 -0.45593999997E+02  0.45594000000E+02  0.51100000000E-03 0. -1.
    9900012    2    1    2    0    0 -0.15592200973E+02 -0.42085805520E+02  0.38446846537E+01  0.46142319214E+02  0.10000013246E+02 0.  0.
         12    1    1    2    0    0  0.15592200973E+02  0.42085805520E+02 -0.38446846537E+01  0.45045680786E+02  0.00000000000E+00 0. -1.
         11    1    3    3    0    0 -0.21331919070E+01 -0.12687160456E+01  0.15565463775E-01  0.24820134289E+01  0.51100000000E-03 0. -1.
        -11    1    3    3    0    0 -0.49232872849E+01 -0.23129254700E+02  0.41978319710E+01  0.24017139176E+02  0.51100000000E-03 0.  1.
        -12    1    3    3    0    0 -0.85357217810E+01 -0.17687834774E+02 -0.36871278112E+00  0.19643166609E+02  0.00000000000E+00 0.  1.
</event>
<event>
 7    1  0.1381440E-008  0.4614232E+02  0.7816164E-02  0.1320468E+00
        -11   -1    0    0    0    0  0.00000000000E+00  0.00000000000E+00  0.45593999997E+02  0.45594000000E+02  0.51100000000E-03 0.  1.
         11   -1    0    0    0    0 -0.00000000000E+00 -0.00000000000E+00 -0.45593999997E+02  0.45594000000E+02  0.51100000000E-03 0. -1.
    9900012    2    1    2    0    0  0.33322328972E+02  0.70223306174E+01  0.29485975868E+02  0.46142317540E+02  0.99999979806E+01 0.  0.
         12    1    1    2    0    0 -0.33322328972E+02 -0.70223306174E+01 -0.29485975868E+02  0.45045682460E+02  0.00000000000E+00 0. -1.
         11    1    3    3    0    0  0.10577695606E+02  0.23331445794E+01  0.45905378307E+01  0.11764533386E+02  0.51100000000E-03 0. -1.
        -11    1    3    3    0    0  0.11077382047E+02  0.32452554931E+00  0.13773385973E+02  0.17678231565E+02  0.51100000000E-03 0.  1.
        -12    1    3    3    0    0  0.11667251320E+02  0.43646604886E+01  0.11122052064E+02  0.16699552588E+02  0.00000000000E+00 0.  1.
</event>
<event>
 7    1  0.1381440E-008  0.4614232E+02  0.7816164E-02  0.1320468E+00
        -11   -1    0    0    0    0  0.00000000000E+00  0.00000000000E+00  0.45593999997E+02  0.45594000000E+02  0.51100000000E-03 0.  1.
         11   -1    0    0    0    0 -0.00000000000E+00 -0.00000000000E+00 -0.45593999997E+02  0.45594000000E+02  0.51100000000E-03 0. -1.
    9900012    2    1    2    0    0 -0.19774629295E+02  0.13093238931E+02  0.38296796926E+02  0.46142317362E+02  0.99999963647E+01 0.  0.
         12    1    1    2    0    0  0.19774629295E+02 -0.13093238931E+02 -0.38296796926E+02  0.45045682638E+02  0.00000000000E+00 0. -1.
         11    1    3    3    0    0 -0.75729229262E+01  0.13607793008E+01  0.88838250370E+01  0.11752583950E+02  0.51100000000E-03 0. -1.
        -11    1    3    3    0    0 -0.75719624916E+01  0.10594781026E+02  0.20631984817E+02  0.24398008089E+02  0.51100000000E-03 0.  1.
        -12    1    3    3    0    0 -0.46297438769E+01  0.11376786046E+01  0.87809870721E+01  0.99917253232E+01  0.00000000000E+00 0.  1.
</event>
<event>
 7    1  0.1381440E-008  0.4614232E+02  0.7816164E-02  0.1320468E+00
        -11   -1    0    0    0    0  0.00000000000E+00  0.00000000000E+00  0.45593999997E+02  0.45594000000E+02  0.51100000000E-03 0.  1.
         11   -1    0    0    0    0 -0.00000000000E+00 -0.00000000000E+00 -0.45593999997E+02  0.45594000000E+02  0.51100000000E-03 0. -1.
    9900012    2    1    2    0    0  0.34176704072E+01  0.15348034096E+02  0.42212212369E+02  0.46142317691E+02  0.99999993605E+01 0.  0.
         12    1    1    2    0    0 -0.34176704072E+01 -0.15348034096E+02 -0.42212212369E+02  0.45045682309E+02  0.00000000000E+00 0. -1.
         11    1    3    3    0    0  0.31272161084E+01  0.40278232038E+01  0.63814621228E+01  0.81685922555E+01  0.51100000000E-03 0. -1.
        -11    1    3    3    0    0 -0.20002529395E+01  0.84126719461E+01  0.28138805090E+02  0.29437500119E+02  0.51100000000E-03 0.  1.
        -12    1    3    3    0    0  0.22907072384E+01  0.29075389459E+01  0.76919451555E+01  0.85362253162E+01  0.00000000000E+00 0.  1.
</event>
<event>
 7    1  0.1381440E-008  0.4614232E+02  0.7816164E-02  0.1320468E+00
        -11   -1    0    0    0    0  0.00000000000E+00  0.00000000000E+00  0.45593999997E+02  0.45594000000E+02  0.51100000000E-03 0.  1.
         11   -1    0    0    0    0 -0.00000000000E+00 -0.00000000000E+00 -0.45593999997E+02  0.45594000000E+02  0.51100000000E-03 0. -1.
    9900012    2    1    2    0    0 -0.66289023425E+01  0.24102558260E+02  0.37473161188E+02  0.46142317961E+02  0.10000001825E+02 0.  0.
         12    1    1    2    0    0  0.66289023425E+01 -0.24102558260E+02 -0.37473161188E+02  0.45045682039E+02  0.00000000000E+00 0. -1.
         11    1    3    3    0    0 -0.60217015099E+01  0.14224928428E+02  0.18614905261E+02  0.24189340132E+02  0.51100000000E-03 0. -1.
        -11    1    3    3    0    0  0.12606519322E+01  0.37762134084E+01  0.11723917794E+02  0.12381408632E+02  0.51100000000E-03 0.  1.
        -12    1    3    3    0    0 -0.18678527648E+01  0.61014164231E+01  0.71343381325E+01  0.95715691978E+01  0.00000000000E+00 0.  1.
</event>
<event>
 7    1  0.1381440E-008  0.4614232E+02  0.7816164E-02  0.1320468E+00
        -11   -1    0    0    0    0  0.00000000000E+00  0.00000000000E+00  0.45593999997E+02  0.45594000000E+02  0.51100000000E-03 0. -1.
         11   -1    0    0    0    0 -0.00000000000E+00 -0.00000000000E+00 -0.45593999997E+02  0.45594000000E+02  0.51100000000E-03 0.  1.
    9900012    2    1    2    0    0  0.20738978986E+02 -0.15209317782E+02 -0.36982223609E+02  0.46142318078E+02  0.10000002892E+02 0.  0.
         12    1    1    2    0    0 -0.20738978986E+02  0.15209317782E+02  0.36982223609E+02  0.45045681922E+02  0.00000000000E+00 0. -1.
         11    1    3    3    0    0  0.64699862120E+00  0.43709573844E+00 -0.22686569035E+00  0.81309790491E+00  0.51100000000E-03 0. -1.
        -11    1    3    3    0    0  0.94526482182E+01 -0.97200445888E+01 -0.13816261711E+02  0.19357709396E+02  0.51100000000E-03 0.  1.
        -12    1    3    3    0    0  0.10639332146E+02 -0.59263689318E+01 -0.22939096208E+02  0.25971510777E+02  0.00000000000E+00 0.  1.
</event>
<event>
 7    1  0.1381440E-008  0.4614232E+02  0.7816164E-02  0.1320468E+00
        -11   -1    0    0    0    0  0.00000000000E+00  0.00000000000E+00  0.45593999997E+02  0.45594000000E+02  0.51100000000E-03 0.  1.
         11   -1    0    0    0    0 -0.00000000000E+00 -0.00000000000E+00 -0.45593999997E+02  0.45594000000E+02  0.51100000000E-03 0. -1.
    9900012    2    1    2    0    0  0.94505868723E+01  0.41821324985E+02  0.13812193780E+02  0.46142317490E+02  0.99999975317E+01 0.  0.
         12    1    1    2    0    0 -0.94505868723E+01 -0.41821324985E+02 -0.13812193780E+02  0.45045682510E+02  0.00000000000E+00 0. -1.
         11    1    3    3    0    0  0.48862330916E+00  0.28073652193E+00  0.62101654838E+00  0.83858663684E+00  0.51100000000E-03 0. -1.
        -11    1    3    3    0    0  0.55570401836E+01  0.37108029520E+02  0.98550372797E+01  0.38794436592E+02  0.51100000000E-03 0.  1.
        -12    1    3    3    0    0  0.34049233796E+01  0.44325589435E+01  0.33361399517E+01  0.65092942617E+01  0.00000000000E+00 0.  1.
</event>
<event>
 7    1  0.1381440E-008  0.4614232E+02  0.7816164E-02  0.1320468E+00
        -11   -1    0    0    0    0  0.00000000000E+00  0.00000000000E+00  0.45593999997E+02  0.45594000000E+02  0.51100000000E-03 0.  1.
         11   -1    0    0    0    0 -0.00000000000E+00 -0.00000000000E+00 -0.45593999997E+02  0.45594000000E+02  0.51100000000E-03 0. -1.
    9900012    2    1    2    0    0 -0.31929414133E+02  0.58254567146E+01  0.31236040237E+02  0.46142316050E+02  0.99999843986E+01 0.  0.
         12    1    1    2    0    0  0.31929414133E+02 -0.58254567146E+01 -0.31236040237E+02  0.45045683950E+02  0.00000000000E+00 0. -1.
         11    1    3    3    0    0 -0.80763418034E+01  0.81951861391E+00  0.11933860751E+02  0.14433154207E+02  0.51100000000E-03 0. -1.
        -11    1    3    3    0    0 -0.58998851096E+00 -0.94750113083E+00  0.11896562428E+01  0.16312961329E+01  0.51100000000E-03 0.  1.
         12    1    3    3    0    0 -0.23263083818E+02  0.59534392315E+01  0.18112523243E+02  0.30077865710E+02  0.00000000000E+00 0. -1.
</event>
<event>
 7    1  0.1381440E-008  0.4614232E+02  0.7816164E-02  0.1320468E+00
        -11   -1    0    0    0    0  0.00000000000E+00  0.00000000000E+00  0.45593999997E+02  0.45594000000E+02  0.51100000000E-03 0. -1.
         11   -1    0    0    0    0 -0.00000000000E+00 -0.00000000000E+00 -0.45593999997E+02  0.45594000000E+02  0.51100000000E-03 0.  1.
    9900012    2    1    2    0    0  0.37957080332E+01  0.38698539325E+02 -0.22740478330E+02  0.46142315412E+02  0.99999785788E+01 0.  0.
         12    1    1    2    0    0 -0.37957080332E+01 -0.38698539325E+02  0.22740478330E+02  0.45045684588E+02  0.00000000000E+00 0. -1.
         11    1    3    3    0    0 -0.20581303180E+01  0.13620561679E+02 -0.63368457227E+01  0.15162823446E+02  0.51100000000E-03 0. -1.
        -11    1    3    3    0    0  0.31247345769E+01  0.55627559268E+01 -0.24515369180E+01  0.68350752153E+01  0.51100000000E-03 0.  1.
         12    1    3    3    0    0  0.27291037743E+01  0.19515221718E+02 -0.13952095689E+02  0.24144416751E+02  0.00000000000E+00 0. -1.
</event>
<event>
 7    1  0.1381440E-008  0.4614232E+02  0.7816164E-02  0.1320468E+00
        -11   -1    0    0    0    0  0.00000000000E+00  0.00000000000E+00  0.45593999997E+02  0.45594000000E+02  0.51100000000E-03 0.  1.
         11   -1    0    0    0    0 -0.00000000000E+00 -0.00000000000E+00 -0.45593999997E+02  0.45594000000E+02  0.51100000000E-03 0. -1.
    9900012    2    1    2    0    0  0.37811226050E+02  0.15966421126E+02  0.18560655161E+02  0.46142319419E+02  0.10000015119E+02 0.  0.
         12    1    1    2    0    0 -0.37811226050E+02 -0.15966421126E+02 -0.18560655161E+02  0.45045680581E+02  0.00000000000E+00 0. -1.
         11    1    3    3    0    0  0.23257782563E+02  0.52611450634E+01  0.10343474257E+02  0.25992144142E+02  0.51100000000E-03 0. -1.
        -11    1    3    3    0    0  0.13507896280E+02  0.10478568102E+02  0.84271546729E+01  0.19059920974E+02  0.51100000000E-03 0.  1.
        -12    1    3    3    0    0  0.10455472073E+01  0.22670796035E+00 -0.20997376944E+00  0.10902543033E+01  0.00000000000E+00 0.  1.
</event>
<event>
 7    1  0.1381440E-008  0.4614232E+02  0.7816164E-02  0.1320468E+00
        -11   -1    0    0    0    0  0.00000000000E+00  0.00000000000E+00  0.45593999997E+02  0.45594000000E+02  0.51100000000E-03 0.  1.
         11   -1    0    0    0    0 -0.00000000000E+00 -0.00000000000E+00 -0.45593999997E+02  0.45594000000E+02  0.51100000000E-03 0. -1.
    9900012    2    1    2    0    0 -0.76497992163E+01 -0.11880623786E+02  0.42772009678E+02  0.46142318060E+02  0.10000002722E+02 0.  0.
         12    1    1    2    0    0  0.76497992163E+01  0.11880623786E+02 -0.42772009678E+02  0.45045681940E+02  0.00000000000E+00 0. -1.
         11    1    3    3    0    0 -0.35343530039E+01 -0.51941200068E+01  0.12232602258E+02  0.13751621434E+02  0.51100000000E-03 0.  1.
        -11    1    3    3    0    0 -0.29635610617E+01 -0.81971293909E+01  0.22486775427E+02  0.24117020831E+02  0.51100000000E-03 0. -1.
         12    1    3    3    0    0 -0.11518851507E+01  0.15106256112E+01  0.80526319936E+01  0.82736757950E+01  0.00000000000E+00 0. -1.
</event>
<event>
 7    1  0.1381440E-008  0.4614232E+02  0.7816164E-02  0.1320468E+00
        -11   -1    0    0    0    0  0.00000000000E+00  0.00000000000E+00  0.45593999997E+02  0.45594000000E+02  0.51100000000E-03 0.  1.
         11   -1    0    0    0    0 -0.00000000000E+00 -0.00000000000E+00 -0.45593999997E+02  0.45594000000E+02  0.51100000000E-03 0. -1.
    9900012    2    1    2    0    0  0.44734244032E+02  0.37312578429E+01  0.37468051511E+01  0.46142318487E+02  0.10000006615E+02 0.  0.
         12    1    1    2    0    0 -0.44734244032E+02 -0.37312578429E+01 -0.37468051511E+01  0.45045681513E+02  0.00000000000E+00 0. -1.
         11    1    3    3    0    0  0.64637520796E+01 -0.22298877096E+01  0.11959684225E+01  0.69413853713E+01  0.51100000000E-03 0. -1.
        -11    1    3    3    0    0  0.26998341675E+02  0.42778928842E+01  0.42969149094E+01  0.27670820348E+02  0.51100000000E-03 0.  1.
        -12    1    3    3    0    0  0.11272150277E+02  0.16832526683E+01 -0.17460781808E+01  0.11530112768E+02  0.00000000000E+00 0.  1.
</event>
<event>
 7    1  0.1381440E-008  0.4614232E+02  0.7816164E-02  0.1320468E+00
        -11   -1    0    0    0    0  0.00000000000E+00  0.00000000000E+00  0.45593999997E+02  0.45594000000E+02  0.51100000000E-03 0.  1.
         11   -1    0    0    0    0 -0.00000000000E+00 -0.00000000000E+00 -0.45593999997E+02  0.45594000000E+02  0.51100000000E-03 0. -1.
    9900012    2    1    2    0    0 -0.30009827507E+02  0.21482354579E+02  0.25826965450E+02  0.46142318191E+02  0.10000003922E+02 0.  0.
         12    1    1    2    0    0  0.30009827507E+02 -0.21482354579E+02 -0.25826965450E+02  0.45045681809E+02  0.00000000000E+00 0. -1.
         11    1    3    3    0    0 -0.28005437099E+01  0.93509312731E+00 -0.42254623480E+00  0.29826145928E+01  0.51100000000E-03 0. -1.
        -11    1    3    3    0    0 -0.23984658499E+02  0.19333648433E+02  0.23333022081E+02  0.38645617148E+02  0.51100000000E-03 0.  1.
         12    1    3    3    0    0 -0.32246252986E+01  0.12136130182E+01  0.29164896040E+01  0.45140864507E+01  0.00000000000E+00 0. -1.
</event>
<event>
 7    1  0.1381440E-008  0.4614232E+02  0.7816164E-02  0.1320468E+00
        -11   -1    0    0    0    0  0.00000000000E+00  0.00000000000E+00  0.45593999997E+02  0.45594000000E+02  0.51100000000E-03 0.  1.
         11   -1    0    0    0    0 -0.00000000000E+00 -0.00000000000E+00 -0.45593999997E+02  0.45594000000E+02  0.51100000000E-03 0. -1.
    9900012    2    1    2    0    0 -0.17248981693E+01  0.13755216467E+01  0.44991623572E+02  0.46142317353E+02  0.99999962813E+01 0.  0.
         12    1    1    2    0    0  0.17248981693E+01 -0.13755216467E+01 -0.44991623572E+02  0.45045682647E+02  0.00000000000E+00 0. -1.
         11    1    3    3    0    0  0.72044530560E+00 -0.83342732022E+00  0.15626531194E+02  0.15665315826E+02  0.51100000000E-03 0. -1.
        -11    1    3    3    0    0 -0.32219660787E+01 -0.16917459143E+01  0.86628542332E+01  0.93961754655E+01  0.51100000000E-03 0.  1.
        -12    1    3    3    0    0  0.77662260387E+00  0.39006948812E+01  0.20702238145E+02  0.21080826061E+02  0.00000000000E+00 0.  1.
</event>
<event>
 7    1  0.1381440E-008  0.4614232E+02  0.7816164E-02  0.1320468E+00
        -11   -1    0    0    0    0  0.00000000000E+00  0.00000000000E+00  0.45593999997E+02  0.45594000000E+02  0.51100000000E-03 0. -1.
         11   -1    0    0    0    0 -0.00000000000E+00 -0.00000000000E+00 -0.45593999997E+02  0.45594000000E+02  0.51100000000E-03 0.  1.
    9900012    2    1    2    0    0 -0.23527137857E+02 -0.38386092856E+02  0.14474532763E+01  0.46142318059E+02  0.10000002720E+02 0.  0.
         12    1    1    2    0    0  0.23527137857E+02  0.38386092856E+02 -0.14474532763E+01  0.45045681941E+02  0.00000000000E+00 0. -1.
         11    1    3    3    0    0 -0.75496797795E+01 -0.76311676789E+01 -0.25307674246E+01  0.11028924197E+02  0.51100000000E-03 0. -1.
        -11    1    3    3    0    0 -0.89577091897E+01 -0.15703439522E+02  0.19376508711E+00  0.18079715482E+02  0.51100000000E-03 0.  1.
         12    1    3    3    0    0 -0.70197488876E+01 -0.15051485656E+02  0.37844556138E+01  0.17033678381E+02  0.00000000000E+00 0. -1.
</event>
<event>
 7    1  0.1381440E-008  0.4614232E+02  0.7816164E-02  0.1320468E+00
        -11   -1    0    0    0    0  0.00000000000E+00  0.00000000000E+00  0.45593999997E+02  0.45594000000E+02  0.51100000000E-03 0. -1.
         11   -1    0    0    0    0 -0.00000000000E+00 -0.00000000000E+00 -0.45593999997E+02  0.45594000000E+02  0.51100000000E-03 0.  1.
    9900012    2    1    2    0    0 -0.18183907566E+02 -0.20709557337E+02 -0.35631073759E+02  0.46142315671E+02  0.99999809391E+01 0.  0.
         12    1    1    2    0    0  0.18183907566E+02  0.20709557337E+02  0.35631073759E+02  0.45045684329E+02  0.00000000000E+00 0. -1.
         11    1    3    3    0    0 -0.12111174843E+02 -0.14063664981E+02 -0.26218100619E+02  0.32122515921E+02  0.51100000000E-03 0. -1.
        -11    1    3    3    0    0  0.53790085600E+00 -0.23266222941E+01 -0.30805944060E+01  0.38977648448E+01  0.51100000000E-03 0.  1.
         12    1    3    3    0    0 -0.66106335789E+01 -0.43192700617E+01 -0.63323787339E+01  0.10122034905E+02  0.00000000000E+00 0. -1.
</event>
<event>
 7    1  0.1381440E-008  0.4614232E+02  0.7816164E-02  0.1320468E+00
        -11   -1    0    0    0    0  0.00000000000E+00  0.00000000000E+00  0.45593999997E+02  0.45594000000E+02  0.51100000000E-03 0. -1.
         11   -1    0    0    0    0 -0.00000000000E+00 -0.00000000000E+00 -0.45593999997E+02  0.45594000000E+02  0.51100000000E-03 0.  1.
    9900012    2    1    2    0    0  0.12745639721E+02 -0.36283487463E+02 -0.23455717235E+02  0.46142318016E+02  0.10000002324E+02 0.  0.
         12    1    1    2    0    0 -0.12745639721E+02  0.36283487463E+02  0.23455717235E+02  0.45045681984E+02  0.00000000000E+00 0. -1.
         11    1    3    3    0    0  0.17721963218E+01 -0.63154080009E+01 -0.20047086084E+01  0.68588566749E+01  0.51100000000E-03 0. -1.
        -11    1    3    3    0    0  0.12223360538E+02 -0.27236355010E+02 -0.20100777680E+02  0.35989871362E+02  0.51100000000E-03 0.  1.
        -12    1    3    3    0    0 -0.12499171391E+01 -0.27317244525E+01 -0.13502309474E+01  0.32935899791E+01  0.00000000000E+00 0.  1.
</event>
<event>
 7    1  0.1381440E-008  0.4614232E+02  0.7816164E-02  0.1320468E+00
        -11   -1    0    0    0    0  0.00000000000E+00  0.00000000000E+00  0.45593999997E+02  0.45594000000E+02  0.51100000000E-03 0.  1.
         11   -1    0    0    0    0 -0.00000000000E+00 -0.00000000000E+00 -0.45593999997E+02  0.45594000000E+02  0.51100000000E-03 0. -1.
    9900012    2    1    2    0    0 -0.32064001878E+02  0.27208266112E+02  0.16146928888E+02  0.46142320143E+02  0.10000021719E+02 0.  0.
         12    1    1    2    0    0  0.32064001878E+02 -0.27208266112E+02 -0.16146928888E+02  0.45045679857E+02  0.00000000000E+00 0. -1.
         11    1    3    3    0    0 -0.12660023254E+02  0.92556042830E+01  0.96184877120E+01  0.18397220050E+02  0.51100000000E-03 0. -1.
        -11    1    3    3    0    0 -0.18636711719E+02  0.16477327703E+02  0.47785352952E+01  0.25331082719E+02  0.51100000000E-03 0.  1.
         12    1    3    3    0    0 -0.76726690561E+00  0.14753341263E+01  0.17499058809E+01  0.24140173737E+01  0.00000000000E+00 0. -1.
</event>
<event>
 7    1  0.1381440E-008  0.4614232E+02  0.7816164E-02  0.1320468E+00
        -11   -1    0    0    0    0  0.00000000000E+00  0.00000000000E+00  0.45593999997E+02  0.45594000000E+02  0.51100000000E-03 0.  1.
         11   -1    0    0    0    0 -0.00000000000E+00 -0.00000000000E+00 -0.45593999997E+02  0.45594000000E+02  0.51100000000E-03 0. -1.
    9900012    2    1    2    0    0  0.11300456019E+02  0.24016462160E+02  0.36395364994E+02  0.46142319253E+02  0.10000013609E+02 0.  0.
         12    1    1    2    0    0 -0.11300456019E+02 -0.24016462160E+02 -0.36395364994E+02  0.45045680747E+02  0.00000000000E+00 0. -1.
         11    1    3    3    0    0  0.95122306949E+00  0.24740518320E+01  0.70929813645E+00  0.27438771662E+01  0.51100000000E-03 0. -1.
        -11    1    3    3    0    0  0.58544205250E+01  0.15417899108E+02  0.28574942173E+02  0.32992623009E+02  0.51100000000E-03 0.  1.
         12    1    3    3    0    0  0.44948124241E+01  0.61245112196E+01  0.71111246842E+01  0.10405819078E+02  0.00000000000E+00 0. -1.
</event>
<event>
 7    1  0.1381440E-008  0.4614232E+02  0.7816164E-02  0.1320468E+00
        -11   -1    0    0    0    0  0.00000000000E+00  0.00000000000E+00  0.45593999997E+02  0.45594000000E+02  0.51100000000E-03 0.  1.
         11   -1    0    0    0    0 -0.00000000000E+00 -0.00000000000E+00 -0.45593999997E+02  0.45594000000E+02  0.51100000000E-03 0. -1.
    9900012    2    1    2    0    0  0.14823191594E+02 -0.40534092494E+02  0.12898597337E+02  0.46142317891E+02  0.10000001187E+02 0.  0.
         12    1    1    2    0    0 -0.14823191594E+02  0.40534092494E+02 -0.12898597337E+02  0.45045682109E+02  0.00000000000E+00 0. -1.
         11    1    3    3    0    0  0.94229277621E+01 -0.12808364298E+02  0.35634139595E+01  0.16295511128E+02  0.51100000000E-03 0. -1.
        -11    1    3    3    0    0  0.11270828390E+01 -0.11480506130E+02  0.33117834202E+01  0.12001676817E+02  0.51100000000E-03 0.  1.
        -12    1    3    3    0    0  0.42731809927E+01 -0.16245222066E+02  0.60233999574E+01  0.17845129947E+02  0.00000000000E+00 0.  1.
</event>
<event>
 7    1  0.1381440E-008  0.4614232E+02  0.7816164E-02  0.1320468E+00
        -11   -1    0    0    0    0  0.00000000000E+00  0.00000000000E+00  0.45593999997E+02  0.45594000000E+02  0.51100000000E-03 0.  1.
         11   -1    0    0    0    0 -0.00000000000E+00 -0.00000000000E+00 -0.45593999997E+02  0.45594000000E+02  0.51100000000E-03 0. -1.
    9900012    2    1    2    0    0 -0.15235127491E+02 -0.36837489486E+02  0.20976261693E+02  0.46142319897E+02  0.10000019479E+02 0.  0.
         12    1    1    2    0    0  0.15235127491E+02  0.36837489486E+02 -0.20976261693E+02  0.45045680103E+02  0.00000000000E+00 0. -1.
         11    1    3    3    0    0 -0.21146337460E+01 -0.13372531999E+02  0.70998694916E+01  0.15287394644E+02  0.51100000000E-03 0. -1.
        -11    1    3    3    0    0 -0.71801806922E+01 -0.14134355620E+02  0.11381463683E+02  0.19515960632E+02  0.51100000000E-03 0.  1.
         12    1    3    3    0    0 -0.59403130532E+01 -0.93306018667E+01  0.24949285191E+01  0.11338964621E+02  0.00000000000E+00 0. -1.
</event>
<event>
 7    1  0.1381440E-008  0.4614233E+02  0.7816164E-02  0.1320468E+00
        -11   -1    0    0    0    0  0.00000000000E+00  0.00000000000E+00  0.45593999997E+02  0.45594000000E+02  0.51100000000E-03 0.  1.
         11   -1    0    0    0    0 -0.00000000000E+00 -0.00000000000E+00 -0.45593999997E+02  0.45594000000E+02  0.51100000000E-03 0. -1.
    9900012    2    1    2    0    0 -0.63423594934E+01 -0.27955037590E+02  0.34747704825E+02  0.46142327164E+02  0.10000085746E+02 0.  0.
         12    1    1    2    0    0  0.63423594934E+01  0.27955037590E+02 -0.34747704825E+02  0.45045672836E+02  0.00000000000E+00 0. -1.
         11    1    3    3    0    0 -0.46792822984E+01 -0.39639331101E+01  0.87221017124E+01  0.10662246812E+02  0.51100000000E-03 0. -1.
        -11    1    3    3    0    0 -0.12275385716E+01 -0.19246932606E+02  0.19795320526E+02  0.27637040013E+02  0.51100000000E-03 0.  1.
         12    1    3    3    0    0 -0.43553862341E+00 -0.47441718733E+01  0.62302825873E+01  0.78430403399E+01  0.00000000000E+00 0. -1.
</event>
<event>
 7    1  0.1738330E-008  0.4614232E+02  0.7816164E-02  0.1320468E+00
        -11   -1    0    0    0    0  0.00000000000E+00  0.00000000000E+00  0.45593999997E+02  0.45594000000E+02  0.51100000000E-03 0. -1.
         11   -1    0    0    0    0 -0.00000000000E+00 -0.00000000000E+00 -0.45593999997E+02  0.45594000000E+02  0.51100000000E-03 0.  1.
    9900012    2    1    2    0    0  0.32801817071E+02 -0.17960729161E+02 -0.25111078121E+02  0.46142320523E+02  0.10000025184E+02 0.  0.
         12    1    1    2    0    0 -0.32801817071E+02  0.17960729161E+02  0.25111078121E+02  0.45045679477E+02  0.00000000000E+00 0. -1.
         11    1    3    3    0    0  0.12445797558E+01  0.14414924969E+00  0.39444170909E+00  0.13135228577E+01  0.51100000000E-03 0. -1.
        -11    1    3    3    0    0  0.27150305679E+02 -0.14831418484E+02 -0.23946076172E+02  0.39121920160E+02  0.51100000000E-03 0.  1.
        -12    1    3    3    0    0  0.44069316364E+01 -0.32734599265E+01 -0.15594436587E+01  0.57068775055E+01  0.00000000000E+00 0.  1.
</event>
<event>
 7    1  0.1381440E-008  0.4614232E+02  0.7816164E-02  0.1320468E+00
        -11   -1    0    0    0    0  0.00000000000E+00  0.00000000000E+00  0.45593999997E+02  0.45594000000E+02  0.51100000000E-03 0. -1.
         11   -1    0    0    0    0 -0.00000000000E+00 -0.00000000000E+00 -0.45593999997E+02  0.45594000000E+02  0.51100000000E-03 0.  1.
    9900012    2    1    2    0    0 -0.19579390807E+02 -0.37742754972E+02 -0.14874299148E+02  0.46142324598E+02  0.10000062348E+02 0.  0.
         12    1    1    2    0    0  0.19579390807E+02  0.37742754972E+02  0.14874299148E+02  0.45045675402E+02  0.00000000000E+00 0. -1.
         11    1    3    3    0    0 -0.30376516137E+01 -0.46718813726E+01  0.36125353307E+00  0.55842911154E+01  0.51100000000E-03 0. -1.
        -11    1    3    3    0    0 -0.11636934928E+02 -0.24914563613E+02 -0.14301169785E+02  0.30994792983E+02  0.51100000000E-03 0.  1.
        -12    1    3    3    0    0 -0.49048042648E+01 -0.81563099862E+01 -0.93438289567E+00  0.95632405001E+01  0.00000000000E+00 0.  1.
</event>
<event>
 7    1  0.1381440E-008  0.4614232E+02  0.7816164E-02  0.1320468E+00
        -11   -1    0    0    0    0  0.00000000000E+00  0.00000000000E+00  0.45593999997E+02  0.45594000000E+02  0.51100000000E-03 0.  1.
         11   -1    0    0    0    0 -0.00000000000E+00 -0.00000000000E+00 -0.45593999997E+02  0.45594000000E+02  0.51100000000E-03 0. -1.
    9900012    2    1    2    0    0  0.22192902260E+02 -0.16995851406E+02  0.35323216341E+02  0.46142317761E+02  0.99999999946E+01 0.  0.
         12    1    1    2    0    0 -0.22192902260E+02  0.16995851406E+02 -0.35323216341E+02  0.45045682239E+02  0.00000000000E+00 0. -1.
         11    1    3    3    0    0  0.12555885693E+02 -0.57274551287E+01  0.12146545973E+02  0.18384574706E+02  0.51100000000E-03 0. -1.
        -11    1    3    3    0    0  0.79160688264E+01 -0.94036489533E+01  0.16210957302E+02  0.20344234963E+02  0.51100000000E-03 0.  1.
        -12    1    3    3    0    0  0.17209477409E+01 -0.18647473236E+01  0.69657130663E+01  0.74135080920E+01  0.00000000000E+00 0.  1.
</event>
<event>
 7    1  0.1381440E-008  0.4614232E+02  0.7816164E-02  0.1320468E+00
        -11   -1    0    0    0    0  0.00000000000E+00  0.00000000000E+00  0.45593999997E+02  0.45594000000E+02  0.51100000000E-03 0.  1.
         11   -1    0    0    0    0 -0.00000000000E+00 -0.00000000000E+00 -0.45593999997E+02  0.45594000000E+02  0.51100000000E-03 0. -1.
    9900012    2    1    2    0    0 -0.10828969902E+02 -0.67552622932E+01  0.43199691746E+02  0.46142317357E+02  0.99999963158E+01 0.  0.
         12    1    1    2    0    0  0.10828969902E+02  0.67552622932E+01 -0.43199691746E+02  0.45045682643E+02  0.00000000000E+00 0. -1.
         11    1    3    3    0    0 -0.44029569729E+01  0.11866102415E+01  0.18902494717E+02  0.19444752011E+02  0.51100000000E-03 0. -1.
        -11    1    3    3    0    0 -0.58491903832E+01 -0.70904920554E+01  0.23879716454E+02  0.25587672108E+02  0.51100000000E-03 0.  1.
        -12    1    3    3    0    0 -0.57682254549E+00 -0.85138047926E+00  0.41748057539E+00  0.11098932382E+01  0.00000000000E+00 0.  1.
</event>
<event>
 7    1  0.1381440E-008  0.4614232E+02  0.7816164E-02  0.1320468E+00
        -11   -1    0    0    0    0  0.00000000000E+00  0.00000000000E+00  0.45593999997E+02  0.45594000000E+02  0.51100000000E-03 0.  1.
         11   -1    0    0    0    0 -0.00000000000E+00 -0.00000000000E+00 -0.45593999997E+02  0.45594000000E+02  0.51100000000E-03 0. -1.
    9900012    2    1    2    0    0  0.32550734027E+02  0.60627675270E+01  0.30541872888E+02  0.46142318350E+02  0.10000005372E+02 0.  0.
         12    1    1    2    0    0 -0.32550734027E+02 -0.60627675270E+01 -0.30541872888E+02  0.45045681650E+02  0.00000000000E+00 0. -1.
         11    1    3    3    0    0  0.78413053614E+01  0.23043869160E+00  0.44250760513E+01  0.90066902957E+01  0.51100000000E-03 0. -1.
        -11    1    3    3    0    0  0.24302013475E+02  0.48104550237E+01  0.26167660735E+02  0.36034355899E+02  0.51100000000E-03 0.  1.
        -12    1    3    3    0    0  0.40741519043E+00  0.10218738117E+01 -0.50863897535E-01  0.11012721555E+01  0.00000000000E+00 0.  1.
</event>
<event>
 7    1  0.1381440E-008  0.4614232E+02  0.7816164E-02  0.1320468E+00
        -11   -1    0    0    0    0  0.00000000000E+00  0.00000000000E+00  0.45593999997E+02  0.45594000000E+02  0.51100000000E-03 0.  1.
         11   -1    0    0    0    0 -0.00000000000E+00 -0.00000000000E+00 -0.45593999997E+02  0.45594000000E+02  0.51100000000E-03 0. -1.
    9900012    2    1    2    0    0  0.37449855213E+02 -0.16657733322E+02 -0.18685335716E+02  0.46142317569E+02  0.99999982479E+01 0.  0.
         12    1    1    2    0    0 -0.37449855213E+02  0.16657733322E+02  0.18685335716E+02  0.45045682431E+02  0.00000000000E+00 0. -1.
         11    1    3    3    0    0  0.41778424684E+01 -0.26294083232E+01 -0.35598587682E+01  0.60861112815E+01  0.51100000000E-03 0. -1.
        -11    1    3    3    0    0  0.10546026139E+02 -0.76922906277E+01 -0.24751338891E+01  0.13285943341E+02  0.51100000000E-03 0.  1.
        -12    1    3    3    0    0  0.22725986605E+02 -0.63360343707E+01 -0.12650343059E+02  0.26770262947E+02  0.00000000000E+00 0.  1.
</event>
<event>
 7    1  0.1381440E-008  0.4614232E+02  0.7816164E-02  0.1320468E+00
        -11   -1    0    0    0    0  0.00000000000E+00  0.00000000000E+00  0.45593999997E+02  0.45594000000E+02  0.51100000000E-03 0. -1.
         11   -1    0    0    0    0 -0.00000000000E+00 -0.00000000000E+00 -0.45593999997E+02  0.45594000000E+02  0.51100000000E-03 0.  1.
    9900012    2    1    2    0    0 -0.30768424251E+02 -0.20476302587E+02 -0.25751478473E+02  0.46142317165E+02  0.99999945686E+01 0.  0.
         12    1    1    2    0    0  0.30768424251E+02  0.20476302587E+02  0.25751478473E+02  0.45045682835E+02  0.00000000000E+00 0. -1.
         11    1    3    3    0    0  0.22356186786E+00 -0.86742969887E-01 -0.57062442020E+00  0.61896424908E+00  0.51100000000E-03 0. -1.
        -11    1    3    3    0    0 -0.18993397226E+02 -0.15253283993E+02 -0.12731827248E+02  0.27486564647E+02  0.51100000000E-03 0.  1.
        -12    1    3    3    0    0 -0.11998588892E+02 -0.51362756243E+01 -0.12449026805E+02  0.18036788270E+02  0.00000000000E+00 0.  1.
</event>
<event>
 7    1  0.1381440E-008  0.4614232E+02  0.7816164E-02  0.1320468E+00
        -11   -1    0    0    0    0  0.00000000000E+00  0.00000000000E+00  0.45593999997E+02  0.45594000000E+02  0.51100000000E-03 0.  1.
         11   -1    0    0    0    0 -0.00000000000E+00 -0.00000000000E+00 -0.45593999997E+02  0.45594000000E+02  0.51100000000E-03 0. -1.
    9900012    2    1    2    0    0 -0.44716680350E+02  0.49616930853E+01  0.22166608390E+01  0.46142317797E+02  0.10000000332E+02 0.  0.
         12    1    1    2    0    0  0.44716680350E+02 -0.49616930853E+01 -0.22166608390E+01  0.45045682203E+02  0.00000000000E+00 0. -1.
         11    1    3    3    0    0 -0.38965285931E+02  0.68776157645E+01  0.53561968814E+00  0.39571226858E+02  0.51100000000E-03 0. -1.
        -11    1    3    3    0    0 -0.43591296205E+01 -0.22392922132E+01  0.10670993469E+01  0.50154901995E+01  0.51100000000E-03 0.  1.
         12    1    3    3    0    0 -0.13922647985E+01  0.32336953395E+00  0.61394180387E+00  0.15556007403E+01  0.00000000000E+00 0. -1.
</event>
<event>
 7    1  0.1381440E-008  0.4614232E+02  0.7816164E-02  0.1320468E+00
        -11   -1    0    0    0    0  0.00000000000E+00  0.00000000000E+00  0.45593999997E+02  0.45594000000E+02  0.51100000000E-03 0. -1.
         11   -1    0    0    0    0 -0.00000000000E+00 -0.00000000000E+00 -0.45593999997E+02  0.45594000000E+02  0.51100000000E-03 0.  1.
    9900012    2    1    2    0    0  0.29632158886E+02 -0.60940364410E+01 -0.33375310769E+02  0.46142317751E+02  0.99999999039E+01 0.  0.
         12    1    1    2    0    0 -0.29632158886E+02  0.60940364410E+01  0.33375310769E+02  0.45045682249E+02  0.00000000000E+00 0. -1.
         11    1    3    3    0    0  0.15220445751E+02 -0.22027597976E+01 -0.13027190236E+02  0.20154944934E+02  0.51100000000E-03 0. -1.
        -11    1    3    3    0    0  0.10075580411E+02 -0.94563227714E+00 -0.16947169728E+02  0.19738746239E+02  0.51100000000E-03 0.  1.
         12    1    3    3    0    0  0.43361327239E+01 -0.29456443663E+01 -0.34009508049E+01  0.62486265778E+01  0.00000000000E+00 0. -1.
</event>
<event>
 7    1  0.1381440E-008  0.4614232E+02  0.7816164E-02  0.1320468E+00
        -11   -1    0    0    0    0  0.00000000000E+00  0.00000000000E+00  0.45593999997E+02  0.45594000000E+02  0.51100000000E-03 0.  1.
         11   -1    0    0    0    0 -0.00000000000E+00 -0.00000000000E+00 -0.45593999997E+02  0.45594000000E+02  0.51100000000E-03 0. -1.
    9900012    2    1    2    0    0  0.64338402907E+01 -0.27191245588E+02  0.35332072347E+02  0.46142317922E+02  0.10000001469E+02 0.  0.
         12    1    1    2    0    0 -0.64338402907E+01  0.27191245588E+02 -0.35332072347E+02  0.45045682078E+02  0.00000000000E+00 0. -1.
         11    1    3    3    0    0  0.70473206641E+00 -0.59428258041E+01  0.46078877958E+01  0.75529104340E+01  0.51100000000E-03 0. -1.
        -11    1    3    3    0    0  0.76862546248E+01 -0.16298898434E+02  0.23345889703E+02  0.29491747433E+02  0.51100000000E-03 0.  1.
        -12    1    3    3    0    0 -0.19571464005E+01 -0.49495213494E+01  0.73782948482E+01  0.90976600557E+01  0.00000000000E+00 0.  1.
</event>
<event>
 7    1  0.1381440E-008  0.4614232E+02  0.7816164E-02  0.1320468E+00
        -11   -1    0    0    0    0  0.00000000000E+00  0.00000000000E+00  0.45593999997E+02  0.45594000000E+02  0.51100000000E-03 0. -1.
         11   -1    0    0    0    0 -0.00000000000E+00 -0.00000000000E+00 -0.45593999997E+02  0.45594000000E+02  0.51100000000E-03 0.  1.
    9900012    2    1    2    0    0 -0.26535451684E+02 -0.52641903796E+01 -0.36017655934E+02  0.46142318349E+02  0.10000005363E+02 0.  0.
         12    1    1    2    0    0  0.26535451684E+02  0.52641903796E+01  0.36017655934E+02  0.45045681651E+02  0.00000000000E+00 0. -1.
         11    1    3    3    0    0 -0.86429726502E+00  0.17574074577E+00 -0.28452438539E+01  0.29788097323E+01  0.51100000000E-03 0. -1.
        -11    1    3    3    0    0 -0.12768899326E+02  0.12327346792E+01 -0.18541158567E+02  0.22546374122E+02  0.51100000000E-03 0.  1.
        -12    1    3    3    0    0 -0.12902255093E+02 -0.66726658046E+01 -0.14631253513E+02  0.20617134495E+02  0.00000000000E+00 0.  1.
</event>
<event>
 7    1  0.1381440E-008  0.4614232E+02  0.7816164E-02  0.1320468E+00
        -11   -1    0    0    0    0  0.00000000000E+00  0.00000000000E+00  0.45593999997E+02  0.45594000000E+02  0.51100000000E-03 0.  1.
         11   -1    0    0    0    0 -0.00000000000E+00 -0.00000000000E+00 -0.45593999997E+02  0.45594000000E+02  0.51100000000E-03 0. -1.
    9900012    2    1    2    0    0  0.38852353717E+02  0.54020967488E+01  0.22145550510E+02  0.46142318232E+02  0.10000004290E+02 0.  0.
         12    1    1    2    0    0 -0.38852353717E+02 -0.54020967488E+01 -0.22145550510E+02  0.45045681768E+02  0.00000000000E+00 0. -1.
         11    1    3    3    0    0 -0.33438852553E+00  0.89155898599E+00  0.25601025307E+00  0.98601958515E+00  0.51100000000E-03 0. -1.
        -11    1    3    3    0    0  0.27134029715E+02  0.38615389968E+01  0.14556710256E+02  0.31033286416E+02  0.51100000000E-03 0.  1.
         12    1    3    3    0    0  0.12052712527E+02  0.64899876597E+00  0.73328300007E+01  0.14123012231E+02  0.00000000000E+00 0. -1.
</event>
<event>
 7    1  0.1381440E-008  0.4614232E+02  0.7816164E-02  0.1320468E+00
        -11   -1    0    0    0    0  0.00000000000E+00  0.00000000000E+00  0.45593999997E+02  0.45594000000E+02  0.51100000000E-03 0. -1.
         11   -1    0    0    0    0 -0.00000000000E+00 -0.00000000000E+00 -0.45593999997E+02  0.45594000000E+02  0.51100000000E-03 0.  1.
    9900012    2    1    2    0    0 -0.29985225679E+02 -0.17700545537E+02 -0.28577796966E+02  0.46142317069E+02  0.99999936860E+01 0.  0.
         12    1    1    2    0    0  0.29985225679E+02  0.17700545537E+02  0.28577796966E+02  0.45045682931E+02  0.00000000000E+00 0. -1.
         11    1    3    3    0    0  0.37221696500E+00 -0.71166984478E+00 -0.21952320823E+01  0.23375336561E+01  0.51100000000E-03 0. -1.
        -11    1    3    3    0    0 -0.28275221979E+02 -0.16474662301E+02 -0.25494609969E+02  0.41483464339E+02  0.51100000000E-03 0.  1.
        -12    1    3    3    0    0 -0.20822206646E+01 -0.51421339139E+00 -0.88795491539E+00  0.23213190732E+01  0.00000000000E+00 0.  1.
</event>
<event>
 7    1  0.1381440E-008  0.4614232E+02  0.7816164E-02  0.1320468E+00
        -11   -1    0    0    0    0  0.00000000000E+00  0.00000000000E+00  0.45593999997E+02  0.45594000000E+02  0.51100000000E-03 0. -1.
         11   -1    0    0    0    0 -0.00000000000E+00 -0.00000000000E+00 -0.45593999997E+02  0.45594000000E+02  0.51100000000E-03 0.  1.
    9900012    2    1    2    0    0 -0.23011477325E+02 -0.36828323259E+02  0.11969127479E+02  0.46142317683E+02  0.99999992912E+01 0.  0.
         12    1    1    2    0    0  0.23011477325E+02  0.36828323259E+02 -0.11969127479E+02  0.45045682317E+02  0.00000000000E+00 0. -1.
         11    1    3    3    0    0 -0.78311103026E+01 -0.12325830169E+02 -0.55610630563E+00  0.14613748062E+02  0.51100000000E-03 0. -1.
        -11    1    3    3    0    0 -0.14112432106E+02 -0.22010881341E+02  0.11993779976E+02  0.28766132790E+02  0.51100000000E-03 0.  1.
        -12    1    3    3    0    0 -0.10679349161E+01 -0.24916117494E+01  0.53145380882E+00  0.27624368311E+01  0.00000000000E+00 0.  1.
</event>
<event>
 7    1  0.1381440E-008  0.4614232E+02  0.7816164E-02  0.1320468E+00
        -11   -1    0    0    0    0  0.00000000000E+00  0.00000000000E+00  0.45593999997E+02  0.45594000000E+02  0.51100000000E-03 0.  1.
         11   -1    0    0    0    0 -0.00000000000E+00 -0.00000000000E+00 -0.45593999997E+02  0.45594000000E+02  0.51100000000E-03 0. -1.
    9900012    2    1    2    0    0  0.82559555063E+01  0.19931750926E+02  0.39543368557E+02  0.46142317708E+02  0.99999995186E+01 0.  0.
         12    1    1    2    0    0 -0.82559555063E+01 -0.19931750926E+02 -0.39543368557E+02  0.45045682292E+02  0.00000000000E+00 0. -1.
         11    1    3    3    0    0  0.30649750514E+01  0.10973053196E+02  0.19892311210E+02  0.22923917947E+02  0.51100000000E-03 0. -1.
        -11    1    3    3    0    0  0.56238079237E+00  0.60194209367E+01  0.14438361001E+02  0.15652985953E+02  0.51100000000E-03 0.  1.
         12    1    3    3    0    0  0.46285996626E+01  0.29392767930E+01  0.52126963455E+01  0.75654138084E+01  0.00000000000E+00 0. -1.
</event>
<event>
 7    1  0.1381440E-008  0.4614232E+02  0.7816164E-02  0.1320468E+00
        -11   -1    0    0    0    0  0.00000000000E+00  0.00000000000E+00  0.45593999997E+02  0.45594000000E+02  0.51100000000E-03 0.  1.
         11   -1    0    0    0    0 -0.00000000000E+00 -0.00000000000E+00 -0.45593999997E+02  0.45594000000E+02  0.51100000000E-03 0. -1.
    9900012    2    1    2    0    0 -0.11188494753E+02  0.36661718656E+02  0.23661135565E+02  0.46142319121E+02  0.10000012402E+02 0.  0.
         12    1    1    2    0    0  0.11188494753E+02 -0.36661718656E+02 -0.23661135565E+02  0.45045680879E+02  0.00000000000E+00 0. -1.
         11    1    3    3    0    0 -0.43153944159E+01  0.21431156675E+02  0.90483811106E+01  0.23659888131E+02  0.51100000000E-03 0. -1.
        -11    1    3    3    0    0 -0.64481301584E+01  0.14241716952E+02  0.14622443113E+02  0.21406090888E+02  0.51100000000E-03 0.  1.
        -12    1    3    3    0    0 -0.42497017882E+00  0.98884502884E+00 -0.96886588333E-02  0.10763401015E+01  0.00000000000E+00 0.  1.
</event>
<event>
 7    1  0.1381440E-008  0.4614232E+02  0.7816164E-02  0.1320468E+00
        -11   -1    0    0    0    0  0.00000000000E+00  0.00000000000E+00  0.45593999997E+02  0.45594000000E+02  0.51100000000E-03 0.  1.
         11   -1    0    0    0    0 -0.00000000000E+00 -0.00000000000E+00 -0.45593999997E+02  0.45594000000E+02  0.51100000000E-03 0. -1.
    9900012    2    1    2    0    0  0.22216891700E+02 -0.24465594264E+02  0.30609767685E+02  0.46142318107E+02  0.10000003151E+02 0.  0.
         12    1    1    2    0    0 -0.22216891700E+02  0.24465594264E+02 -0.30609767685E+02  0.45045681893E+02  0.00000000000E+00 0. -1.
         11    1    3    3    0    0  0.84778596222E+01 -0.15263055510E+02  0.13488184944E+02  0.22062776358E+02  0.51100000000E-03 0. -1.
        -11    1    3    3    0    0  0.54684952041E+01 -0.16495471510E+01  0.52464569781E+01  0.77556918895E+01  0.51100000000E-03 0.  1.
         12    1    3    3    0    0  0.82705368734E+01 -0.75529916026E+01  0.11875125763E+02  0.16323849859E+02  0.00000000000E+00 0. -1.
</event>
<event>
 7    1  0.1381440E-008  0.4614232E+02  0.7816164E-02  0.1320468E+00
        -11   -1    0    0    0    0  0.00000000000E+00  0.00000000000E+00  0.45593999997E+02  0.45594000000E+02  0.51100000000E-03 0. -1.
         11   -1    0    0    0    0 -0.00000000000E+00 -0.00000000000E+00 -0.45593999997E+02  0.45594000000E+02  0.51100000000E-03 0.  1.
    9900012    2    1    2    0    0 -0.64838528805E+01 -0.13384112126E+02  0.42519861927E+02  0.46142318034E+02  0.10000002484E+02 0.  0.
         12    1    1    2    0    0  0.64838528805E+01  0.13384112126E+02 -0.42519861927E+02  0.45045681966E+02  0.00000000000E+00 0. -1.
         11    1    3    3    0    0 -0.14966940721E+01 -0.10628054747E+02  0.34736693975E+02  0.36357028886E+02  0.51100000000E-03 0. -1.
        -11    1    3    3    0    0 -0.35652066170E+01 -0.20883213735E+01  0.67193141309E+01  0.78880268149E+01  0.51100000000E-03 0.  1.
         12    1    3    3    0    0 -0.14219521914E+01 -0.66773600542E+00  0.10638538209E+01  0.18972623329E+01  0.00000000000E+00 0. -1.
</event>
<event>
 7    1  0.1381440E-008  0.4614232E+02  0.7816164E-02  0.1320468E+00
        -11   -1    0    0    0    0  0.00000000000E+00  0.00000000000E+00  0.45593999997E+02  0.45594000000E+02  0.51100000000E-03 0.  1.
         11   -1    0    0    0    0 -0.00000000000E+00 -0.00000000000E+00 -0.45593999997E+02  0.45594000000E+02  0.51100000000E-03 0. -1.
    9900012    2    1    2    0    0 -0.24325437865E+02 -0.19493329334E+02  0.32517637146E+02  0.46142317172E+02  0.99999946299E+01 0.  0.
         12    1    1    2    0    0  0.24325437865E+02  0.19493329334E+02 -0.32517637146E+02  0.45045682828E+02  0.00000000000E+00 0. -1.
         11    1    3    3    0    0 -0.69298035426E+01 -0.44845825895E+01  0.64082976543E+01  0.10449877379E+02  0.51100000000E-03 0. -1.
        -11    1    3    3    0    0 -0.90764654667E+01 -0.12790828634E+02  0.15834087709E+02  0.22286898760E+02  0.51100000000E-03 0.  1.
        -12    1    3    3    0    0 -0.83191688562E+01 -0.22179181105E+01  0.10275251782E+02  0.13405541033E+02  0.00000000000E+00 0.  1.
</event>
<event>
 7    1  0.1381440E-008  0.4614232E+02  0.7816164E-02  0.1320468E+00
        -11   -1    0    0    0    0  0.00000000000E+00  0.00000000000E+00  0.45593999997E+02  0.45594000000E+02  0.51100000000E-03 0. -1.
         11   -1    0    0    0    0 -0.00000000000E+00 -0.00000000000E+00 -0.45593999997E+02  0.45594000000E+02  0.51100000000E-03 0.  1.
    9900012    2    1    2    0    0 -0.18644751115E+01 -0.38790792998E+02  0.22823483513E+02  0.46142319980E+02  0.10000020229E+02 0.  0.
         12    1    1    2    0    0  0.18644751115E+01  0.38790792998E+02 -0.22823483513E+02  0.45045680020E+02  0.00000000000E+00 0. -1.
         11    1    3    3    0    0  0.24730870583E+00 -0.17634342228E+02  0.15074047656E+02  0.23200390092E+02  0.51100000000E-03 0. -1.
        -11    1    3    3    0    0  0.22998028764E+00 -0.13870513794E+02  0.41158733734E+01  0.14470122934E+02  0.51100000000E-03 0.  1.
         12    1    3    3    0    0 -0.23417641049E+01 -0.72859369759E+01  0.36335624837E+01  0.84718069538E+01  0.00000000000E+00 0. -1.
</event>
<event>
 7    1  0.1381440E-008  0.4614232E+02  0.7816164E-02  0.1320468E+00
        -11   -1    0    0    0    0  0.00000000000E+00  0.00000000000E+00  0.45593999997E+02  0.45594000000E+02  0.51100000000E-03 0.  1.
         11   -1    0    0    0    0 -0.00000000000E+00 -0.00000000000E+00 -0.45593999997E+02  0.45594000000E+02  0.51100000000E-03 0. -1.
    9900012    2    1    2    0    0 -0.19120791323E+02 -0.93680801678E+00  0.40775374821E+02  0.46142318055E+02  0.10000002679E+02 0.  0.
         12    1    1    2    0    0  0.19120791323E+02  0.93680801678E+00 -0.40775374821E+02  0.45045681945E+02  0.00000000000E+00 0. -1.
         11    1    3    3    0    0 -0.14719452051E+00 -0.15307606746E+01  0.32928946194E+01  0.36342880604E+01  0.51100000000E-03 0. -1.
        -11    1    3    3    0    0 -0.10119694511E+02  0.31447101252E+00  0.13034569080E+02  0.16504759931E+02  0.51100000000E-03 0.  1.
        -12    1    3    3    0    0 -0.88539022911E+01  0.27948164533E+00  0.24447911122E+02  0.26003270064E+02  0.00000000000E+00 0.  1.
</event>
<event>
 7    1  0.1381440E-008  0.4614232E+02  0.7816164E-02  0.1320468E+00
        -11   -1    0    0    0    0  0.00000000000E+00  0.00000000000E+00  0.45593999997E+02  0.45594000000E+02  0.51100000000E-03 0. -1.
         11   -1    0    0    0    0 -0.00000000000E+00 -0.00000000000E+00 -0.45593999997E+02  0.45594000000E+02  0.51100000000E-03 0.  1.
    9900012    2    1    2    0    0 -0.22583275198E+02  0.11677058827E+02 -0.37185419062E+02  0.46142318605E+02  0.10000007697E+02 0.  0.
         12    1    1    2    0    0  0.22583275198E+02 -0.11677058827E+02  0.37185419062E+02  0.45045681395E+02  0.00000000000E+00 0. -1.
         11    1    3    3    0    0 -0.19101818583E+01  0.32858948034E+01 -0.73466637778E+01  0.82716001062E+01  0.51100000000E-03 0.  1.
        -11    1    3    3    0    0 -0.19907676935E+02  0.75445447134E+01 -0.29926036798E+02  0.36726059339E+02  0.51100000000E-03 0. -1.
         12    1    3    3    0    0 -0.76541640432E+00  0.84661931046E+00  0.87281514213E-01  0.11446591596E+01  0.00000000000E+00 0. -1.
</event>
<event>
 7    1  0.1381440E-008  0.4614231E+02  0.7816164E-02  0.1320468E+00
        -11   -1    0    0    0    0  0.00000000000E+00  0.00000000000E+00  0.45593999997E+02  0.45594000000E+02  0.51100000000E-03 0.  1.
         11   -1    0    0    0    0 -0.00000000000E+00 -0.00000000000E+00 -0.45593999997E+02  0.45594000000E+02  0.51100000000E-03 0. -1.
    9900012    2    1    2    0    0  0.29963132603E+01 -0.30787008799E+02  0.32745930776E+02  0.46142314454E+02  0.99999698427E+01 0.  0.
         12    1    1    2    0    0 -0.29963132603E+01  0.30787008799E+02 -0.32745930776E+02  0.45045685546E+02  0.00000000000E+00 0. -1.
         11    1    3    3    0    0 -0.20310795161E+01 -0.14141560077E+02  0.15517911267E+02  0.21092998263E+02  0.51100000000E-03 0. -1.
        -11    1    3    3    0    0  0.44403321279E+01 -0.57226666627E+01  0.66684679340E+01  0.98455029321E+01  0.51100000000E-03 0.  1.
        -12    1    3    3    0    0  0.58706064847E+00 -0.10922782060E+02  0.10559551575E+02  0.15203813258E+02  0.00000000000E+00 0.  1.
</event>
<event>
 7    1  0.1381440E-008  0.4614232E+02  0.7816164E-02  0.1320468E+00
        -11   -1    0    0    0    0  0.00000000000E+00  0.00000000000E+00  0.45593999997E+02  0.45594000000E+02  0.51100000000E-03 0.  1.
         11   -1    0    0    0    0 -0.00000000000E+00 -0.00000000000E+00 -0.45593999997E+02  0.45594000000E+02  0.51100000000E-03 0. -1.
    9900012    2    1    2    0    0  0.18135560998E+02  0.12835838453E+02  0.39184897272E+02  0.46142317679E+02  0.99999992516E+01 0.  0.
         12    1    1    2    0    0 -0.18135560998E+02 -0.12835838453E+02 -0.39184897272E+02  0.45045682321E+02  0.00000000000E+00 0. -1.
         11    1    3    3    0    0  0.43729804567E+01 -0.68719808635E+00  0.71231669882E+01  0.83865790098E+01  0.51100000000E-03 0. -1.
        -11    1    3    3    0    0  0.81662662998E+01  0.98173200039E+01  0.24617021901E+02  0.27732029224E+02  0.51100000000E-03 0.  1.
        -12    1    3    3    0    0  0.55963142420E+01  0.37057165353E+01  0.74447083830E+01  0.10023709445E+02  0.00000000000E+00 0.  1.
</event>
<event>
 7    1  0.1381440E-008  0.4614232E+02  0.7816164E-02  0.1320468E+00
        -11   -1    0    0    0    0  0.00000000000E+00  0.00000000000E+00  0.45593999997E+02  0.45594000000E+02  0.51100000000E-03 0. -1.
         11   -1    0    0    0    0 -0.00000000000E+00 -0.00000000000E+00 -0.45593999997E+02  0.45594000000E+02  0.51100000000E-03 0.  1.
    9900012    2    1    2    0    0 -0.11257296187E+02  0.98716589852E+01 -0.42484553299E+02  0.46142316105E+02  0.99999848971E+01 0.  0.
         12    1    1    2    0    0  0.11257296187E+02 -0.98716589852E+01  0.42484553299E+02  0.45045683895E+02  0.00000000000E+00 0. -1.
         11    1    3    3    0    0 -0.63720712488E+01  0.13892452503E+01 -0.19737171064E+02  0.20786755789E+02  0.51100000000E-03 0. -1.
        -11    1    3    3    0    0 -0.41667769911E+01  0.45678720923E+01 -0.81769233968E+01  0.10251320034E+02  0.51100000000E-03 0.  1.
        -12    1    3    3    0    0 -0.71844794664E+00  0.39145416427E+01 -0.14570458838E+02  0.15104240281E+02  0.00000000000E+00 0.  1.
</event>
<event>
 7    1  0.1381440E-008  0.4614232E+02  0.7816164E-02  0.1320468E+00
        -11   -1    0    0    0    0  0.00000000000E+00  0.00000000000E+00  0.45593999997E+02  0.45594000000E+02  0.51100000000E-03 0. -1.
         11   -1    0    0    0    0 -0.00000000000E+00 -0.00000000000E+00 -0.45593999997E+02  0.45594000000E+02  0.51100000000E-03 0.  1.
    9900012    2    1    2    0    0 -0.25690662082E+02 -0.10782398746E+02 -0.35395526491E+02  0.46142317227E+02  0.99999951317E+01 0.  0.
         12    1    1    2    0    0  0.25690662082E+02  0.10782398746E+02  0.35395526491E+02  0.45045682773E+02  0.00000000000E+00 0. -1.
         11    1    3    3    0    0 -0.71419001815E+01 -0.75609501188E+01 -0.14148153297E+02  0.17559753611E+02  0.51100000000E-03 0. -1.
        -11    1    3    3    0    0 -0.11819142121E+02 -0.11857297556E+01 -0.15327050032E+02  0.19391145878E+02  0.51100000000E-03 0.  1.
         12    1    3    3    0    0 -0.67296197786E+01 -0.20357188719E+01 -0.59203231617E+01  0.91914177377E+01  0.00000000000E+00 0. -1.
</event>
<event>
 7    1  0.1381440E-008  0.4614232E+02  0.7816164E-02  0.1320468E+00
        -11   -1    0    0    0    0  0.00000000000E+00  0.00000000000E+00  0.45593999997E+02  0.45594000000E+02  0.51100000000E-03 0.  1.
         11   -1    0    0    0    0 -0.00000000000E+00 -0.00000000000E+00 -0.45593999997E+02  0.45594000000E+02  0.51100000000E-03 0. -1.
    9900012    2    1    2    0    0  0.43730759039E+02 -0.64134526152E+01  0.86949308652E+01  0.46142317817E+02  0.10000000513E+02 0.  0.
         12    1    1    2    0    0 -0.43730759039E+02  0.64134526152E+01 -0.86949308652E+01  0.45045682183E+02  0.00000000000E+00 0. -1.
         11    1    3    3    0    0  0.66298905085E+01 -0.26943609491E+01 -0.79463110866E+00  0.72004491484E+01  0.51100000000E-03 0. -1.
        -11    1    3    3    0    0  0.14525369656E+02  0.14825425016E+01  0.36242979159E+01  0.15043930056E+02  0.51100000000E-03 0.  1.
        -12    1    3    3    0    0  0.22575498875E+02 -0.52016341677E+01  0.58652640580E+01  0.23897938613E+02  0.00000000000E+00 0.  1.
</event>
<event>
 7    1  0.1381440E-008  0.4614231E+02  0.7816164E-02  0.1320468E+00
        -11   -1    0    0    0    0  0.00000000000E+00  0.00000000000E+00  0.45593999997E+02  0.45594000000E+02  0.51100000000E-03 0. -1.
         11   -1    0    0    0    0 -0.00000000000E+00 -0.00000000000E+00 -0.45593999997E+02  0.45594000000E+02  0.51100000000E-03 0.  1.
    9900012    2    1    2    0    0  0.26088994300E+02 -0.34357813302E+02 -0.12962209700E+02  0.46142313871E+02  0.99999645297E+01 0.  0.
         12    1    1    2    0    0 -0.26088994300E+02  0.34357813302E+02  0.12962209700E+02  0.45045686129E+02  0.00000000000E+00 0. -1.
         11    1    3    3    0    0  0.13713328873E+02 -0.10592402883E+02 -0.66428565606E+01  0.18557530309E+02  0.51100000000E-03 0. -1.
        -11    1    3    3    0    0  0.90087404873E+01 -0.18541046413E+02 -0.53247269309E+01  0.21290385727E+02  0.51100000000E-03 0.  1.
        -12    1    3    3    0    0  0.33669249399E+01 -0.52243640051E+01 -0.99462620894E+00  0.62943978349E+01  0.00000000000E+00 0.  1.
</event>
<event>
 7    1  0.1381440E-008  0.4614232E+02  0.7816164E-02  0.1320468E+00
        -11   -1    0    0    0    0  0.00000000000E+00  0.00000000000E+00  0.45593999997E+02  0.45594000000E+02  0.51100000000E-03 0.  1.
         11   -1    0    0    0    0 -0.00000000000E+00 -0.00000000000E+00 -0.45593999997E+02  0.45594000000E+02  0.51100000000E-03 0. -1.
    9900012    2    1    2    0    0 -0.41220081269E+02 -0.17647959828E+01  0.18080483464E+02  0.46142317776E+02  0.10000000139E+02 0.  0.
         12    1    1    2    0    0  0.41220081269E+02  0.17647959828E+01 -0.18080483464E+02  0.45045682224E+02  0.00000000000E+00 0. -1.
         11    1    3    3    0    0  0.28527774032E+00 -0.69796646641E+00  0.39395402491E+00  0.85072945889E+00  0.51100000000E-03 0. -1.
        -11    1    3    3    0    0 -0.39522703681E+02 -0.60003286469E+00  0.17555740710E+02  0.43250528064E+02  0.51100000000E-03 0.  1.
        -12    1    3    3    0    0 -0.19826553286E+01 -0.46679665169E+00  0.13078872896E+00  0.20410602533E+01  0.00000000000E+00 0.  1.
</event>
<event>
 7    1  0.1381440E-008  0.4614232E+02  0.7816164E-02  0.1320468E+00
        -11   -1    0    0    0    0  0.00000000000E+00  0.00000000000E+00  0.45593999997E+02  0.45594000000E+02  0.51100000000E-03 0.  1.
         11   -1    0    0    0    0 -0.00000000000E+00 -0.00000000000E+00 -0.45593999997E+02  0.45594000000E+02  0.51100000000E-03 0. -1.
    9900012    2    1    2    0    0  0.18314094266E+02  0.27854164210E+02  0.30296082744E+02  0.46142321603E+02  0.10000035032E+02 0.  0.
         12    1    1    2    0    0 -0.18314094266E+02 -0.27854164210E+02 -0.30296082744E+02  0.45045678397E+02  0.00000000000E+00 0. -1.
         11    1    3    3    0    0  0.10206982962E+02  0.10607149250E+02  0.95310359331E+01  0.17536669085E+02  0.51100000000E-03 0. -1.
        -11    1    3    3    0    0  0.28303667592E+01  0.58977186735E+01  0.39426323069E+01  0.76379585828E+01  0.51100000000E-03 0.  1.
         12    1    3    3    0    0  0.52767445457E+01  0.11349296287E+02  0.16822414504E+02  0.20967693935E+02  0.00000000000E+00 0. -1.
</event>
<event>
 7    1  0.1381440E-008  0.4614232E+02  0.7816164E-02  0.1320468E+00
        -11   -1    0    0    0    0  0.00000000000E+00  0.00000000000E+00  0.45593999997E+02  0.45594000000E+02  0.51100000000E-03 0.  1.
         11   -1    0    0    0    0 -0.00000000000E+00 -0.00000000000E+00 -0.45593999997E+02  0.45594000000E+02  0.51100000000E-03 0. -1.
    9900012    2    1    2    0    0  0.35853642007E+02  0.26909170850E+02 -0.44188498984E+01  0.46142319237E+02  0.10000013458E+02 0.  0.
         12    1    1    2    0    0 -0.35853642007E+02 -0.26909170850E+02  0.44188498984E+01  0.45045680763E+02  0.00000000000E+00 0. -1.
         11    1    3    3    0    0  0.16382541172E+02  0.11933709455E+02 -0.64665531127E+01  0.21274806368E+02  0.51100000000E-03 0. -1.
        -11    1    3    3    0    0  0.12122674919E+02  0.11248459673E+02  0.11070135188E+01  0.16574455388E+02  0.51100000000E-03 0.  1.
        -12    1    3    3    0    0  0.73484259158E+01  0.37270017225E+01  0.94068969541E+00  0.82930574810E+01  0.00000000000E+00 0.  1.
</event>
<event>
 7    1  0.1381440E-008  0.4614232E+02  0.7816164E-02  0.1320468E+00
        -11   -1    0    0    0    0  0.00000000000E+00  0.00000000000E+00  0.45593999997E+02  0.45594000000E+02  0.51100000000E-03 0. -1.
         11   -1    0    0    0    0 -0.00000000000E+00 -0.00000000000E+00 -0.45593999997E+02  0.45594000000E+02  0.51100000000E-03 0.  1.
    9900012    2    1    2    0    0 -0.14466126510E+02  0.42270364819E+02 -0.57498643341E+01  0.46142317655E+02  0.99999990289E+01 0.  0.
         12    1    1    2    0    0  0.14466126510E+02 -0.42270364819E+02  0.57498643341E+01  0.45045682345E+02  0.00000000000E+00 0. -1.
         11    1    3    3    0    0  0.36247526544E+00  0.54438564628E+01 -0.24141956176E+01  0.59661798705E+01  0.51100000000E-03 0. -1.
        -11    1    3    3    0    0 -0.79836131063E+01  0.24540490987E+02 -0.39062181838E+01  0.26100427523E+02  0.51100000000E-03 0.  1.
         12    1    3    3    0    0 -0.68449886689E+01  0.12286017369E+02  0.57054946727E+00  0.14075710261E+02  0.00000000000E+00 0. -1.
</event>
<event>
 7    1  0.1381440E-008  0.4614232E+02  0.7816164E-02  0.1320468E+00
        -11   -1    0    0    0    0  0.00000000000E+00  0.00000000000E+00  0.45593999997E+02  0.45594000000E+02  0.51100000000E-03 0.  1.
         11   -1    0    0    0    0 -0.00000000000E+00 -0.00000000000E+00 -0.45593999997E+02  0.45594000000E+02  0.51100000000E-03 0. -1.
    9900012    2    1    2    0    0  0.35983291998E+02  0.21849832924E+02 -0.16028129499E+02  0.46142318331E+02  0.10000005196E+02 0.  0.
         12    1    1    2    0    0 -0.35983291998E+02 -0.21849832924E+02  0.16028129499E+02  0.45045681669E+02  0.00000000000E+00 0. -1.
         11    1    3    3    0    0  0.84095503831E+01  0.55261021173E+01 -0.17409377388E+01  0.10212208710E+02  0.51100000000E-03 0. -1.
        -11    1    3    3    0    0  0.21283470683E+02  0.12369397930E+02 -0.14361388147E+02  0.28499782442E+02  0.51100000000E-03 0.  1.
        -12    1    3    3    0    0  0.62902709315E+01  0.39543328770E+01  0.74196386704E-01  0.74303271797E+01  0.00000000000E+00 0.  1.
</event>
<event>
 7    1  0.1381440E-008  0.4614232E+02  0.7816164E-02  0.1320468E+00
        -11   -1    0    0    0    0  0.00000000000E+00  0.00000000000E+00  0.45593999997E+02  0.45594000000E+02  0.51100000000E-03 0. -1.
         11   -1    0    0    0    0 -0.00000000000E+00 -0.00000000000E+00 -0.45593999997E+02  0.45594000000E+02  0.51100000000E-03 0.  1.
    9900012    2    1    2    0    0 -0.16038099105E+02  0.28111040140E+02 -0.31331487460E+02  0.46142319773E+02  0.10000018345E+02 0.  0.
         12    1    1    2    0    0  0.16038099105E+02 -0.28111040140E+02  0.31331487460E+02  0.45045680227E+02  0.00000000000E+00 0. -1.
         11    1    3    3    0    0 -0.74108137328E+01  0.17436596089E+02 -0.13752854994E+02  0.23411451559E+02  0.51100000000E-03 0. -1.
        -11    1    3    3    0    0 -0.83794191697E+01  0.75681054980E+01 -0.13557527002E+02  0.17643622789E+02  0.51100000000E-03 0.  1.
         12    1    3    3    0    0 -0.24786620288E+00  0.31063385531E+01 -0.40211054641E+01  0.50872454250E+01  0.00000000000E+00 0. -1.
</event>
<event>
 7    1  0.1381440E-008  0.4614232E+02  0.7816164E-02  0.1320468E+00
        -11   -1    0    0    0    0  0.00000000000E+00  0.00000000000E+00  0.45593999997E+02  0.45594000000E+02  0.51100000000E-03 0.  1.
         11   -1    0    0    0    0 -0.00000000000E+00 -0.00000000000E+00 -0.45593999997E+02  0.45594000000E+02  0.51100000000E-03 0. -1.
    9900012    2    1    2    0    0  0.27033052792E+02 -0.35980379887E+02  0.19338428886E+01  0.46142318427E+02  0.10000006069E+02 0.  0.
         12    1    1    2    0    0 -0.27033052792E+02  0.35980379887E+02 -0.19338428886E+01  0.45045681573E+02  0.00000000000E+00 0. -1.
         11    1    3    3    0    0  0.69323992166E+01 -0.49883886924E+01  0.21369059501E+01  0.88038939082E+01  0.51100000000E-03 0. -1.
        -11    1    3    3    0    0  0.14393919786E+02 -0.24919504843E+02 -0.18760352652E+01  0.28838969416E+02  0.51100000000E-03 0.  1.
        -12    1    3    3    0    0  0.57067337893E+01 -0.60724863520E+01  0.16729722037E+01  0.84994551020E+01  0.00000000000E+00 0.  1.
</event>
<event>
 7    1  0.1381440E-008  0.4614232E+02  0.7816164E-02  0.1320468E+00
        -11   -1    0    0    0    0  0.00000000000E+00  0.00000000000E+00  0.45593999997E+02  0.45594000000E+02  0.51100000000E-03 0. -1.
         11   -1    0    0    0    0 -0.00000000000E+00 -0.00000000000E+00 -0.45593999997E+02  0.45594000000E+02  0.51100000000E-03 0.  1.
    9900012    2    1    2    0    0 -0.25512933178E+02 -0.98509025750E+01 -0.35793343627E+02  0.46142317755E+02  0.99999999454E+01 0.  0.
         12    1    1    2    0    0  0.25512933178E+02  0.98509025750E+01  0.35793343627E+02  0.45045682245E+02  0.00000000000E+00 0. -1.
         11    1    3    3    0    0 -0.61970700428E+01 -0.97155746686E+00 -0.38484319011E+01  0.73592139108E+01  0.51100000000E-03 0. -1.
        -11    1    3    3    0    0 -0.17334691702E+02 -0.95248837592E+01 -0.29995289602E+02  0.35929546971E+02  0.51100000000E-03 0.  1.
        -12    1    3    3    0    0 -0.19811714335E+01  0.64553865105E+00 -0.19496221246E+01  0.28535568730E+01  0.00000000000E+00 0.  1.
</event>
<event>
 7    1  0.1381440E-008  0.4614232E+02  0.7816164E-02  0.1320468E+00
        -11   -1    0    0    0    0  0.00000000000E+00  0.00000000000E+00  0.45593999997E+02  0.45594000000E+02  0.51100000000E-03 0.  1.
         11   -1    0    0    0    0 -0.00000000000E+00 -0.00000000000E+00 -0.45593999997E+02  0.45594000000E+02  0.51100000000E-03 0. -1.
    9900012    2    1    2    0    0 -0.16194043150E+02 -0.77115759744E+01  0.41320673369E+02  0.46142317796E+02  0.10000000321E+02 0.  0.
         12    1    1    2    0    0  0.16194043150E+02  0.77115759744E+01 -0.41320673369E+02  0.45045682204E+02  0.00000000000E+00 0. -1.
         11    1    3    3    0    0 -0.19451059680E+01  0.98880482334E+00  0.17437434733E+01  0.27931727063E+01  0.51100000000E-03 0. -1.
        -11    1    3    3    0    0 -0.66881600475E+01 -0.44849333688E+01  0.26251412246E+02  0.27458746463E+02  0.51100000000E-03 0.  1.
         12    1    3    3    0    0 -0.75607771344E+01 -0.42154474289E+01  0.13325517649E+02  0.15890398627E+02  0.00000000000E+00 0. -1.
</event>
<event>
 7    1  0.1381440E-008  0.4614232E+02  0.7816164E-02  0.1320468E+00
        -11   -1    0    0    0    0  0.00000000000E+00  0.00000000000E+00  0.45593999997E+02  0.45594000000E+02  0.51100000000E-03 0.  1.
         11   -1    0    0    0    0 -0.00000000000E+00 -0.00000000000E+00 -0.45593999997E+02  0.45594000000E+02  0.51100000000E-03 0. -1.
    9900012    2    1    2    0    0 -0.32773461971E+01  0.33442935963E+02  0.29999041648E+02  0.46142318035E+02  0.10000002497E+02 0.  0.
         12    1    1    2    0    0  0.32773461971E+01 -0.33442935963E+02 -0.29999041648E+02  0.45045681965E+02  0.00000000000E+00 0. -1.
         11    1    3    3    0    0 -0.74098044722E+00  0.29380797122E+01  0.36952557471E+00  0.30525258115E+01  0.51100000000E-03 0. -1.
        -11    1    3    3    0    0 -0.29902661986E+01  0.30613485778E+02  0.28797279284E+02  0.42135620297E+02  0.51100000000E-03 0.  1.
        -12    1    3    3    0    0  0.45390044871E+00 -0.10862952738E+00  0.83223678909E+00  0.95417192616E+00  0.00000000000E+00 0.  1.
</event>
<event>
 7    1  0.1381440E-008  0.4614232E+02  0.7816164E-02  0.1320468E+00
        -11   -1    0    0    0    0  0.00000000000E+00  0.00000000000E+00  0.45593999997E+02  0.45594000000E+02  0.51100000000E-03 0.  1.
         11   -1    0    0    0    0 -0.00000000000E+00 -0.00000000000E+00 -0.45593999997E+02  0.45594000000E+02  0.51100000000E-03 0. -1.
    9900012    2    1    2    0    0  0.15268342971E+02 -0.11780132020E+02  0.40708962311E+02  0.46142318521E+02  0.10000006926E+02 0.  0.
         12    1    1    2    0    0 -0.15268342971E+02  0.11780132020E+02 -0.40708962311E+02  0.45045681479E+02  0.00000000000E+00 0. -1.
         11    1    3    3    0    0  0.25594456999E+01  0.21199798125E+00  0.29797590234E+01  0.39337856492E+01  0.51100000000E-03 0. -1.
        -11    1    3    3    0    0  0.81128910876E+01 -0.46950256646E+01  0.13061740016E+02  0.16077043270E+02  0.51100000000E-03 0.  1.
        -12    1    3    3    0    0  0.45960061834E+01 -0.72971043363E+01  0.24667463272E+02  0.26131489602E+02  0.00000000000E+00 0.  1.
</event>
<event>
 7    1  0.1381440E-008  0.4614232E+02  0.7816164E-02  0.1320468E+00
        -11   -1    0    0    0    0  0.00000000000E+00  0.00000000000E+00  0.45593999997E+02  0.45594000000E+02  0.51100000000E-03 0. -1.
         11   -1    0    0    0    0 -0.00000000000E+00 -0.00000000000E+00 -0.45593999997E+02  0.45594000000E+02  0.51100000000E-03 0.  1.
    9900012    2    1    2    0    0  0.44308345887E+01  0.28761861739E+02 -0.34383666750E+02  0.46142317355E+02  0.99999962942E+01 0.  0.
         12    1    1    2    0    0 -0.44308345887E+01 -0.28761861739E+02  0.34383666750E+02  0.45045682645E+02  0.00000000000E+00 0. -1.
         11    1    3    3    0    0 -0.34059408440E+00  0.17962709062E+02 -0.19303747904E+02  0.26370620102E+02  0.51100000000E-03 0.  1.
        -11    1    3    3    0    0  0.26406033328E+01  0.98791039566E+01 -0.10613595796E+02  0.14738313911E+02  0.51100000000E-03 0. -1.
         12    1    3    3    0    0  0.21308253403E+01  0.92004871951E+00 -0.44663230500E+01  0.50333833417E+01  0.00000000000E+00 0. -1.
</event>
<event>
 7    1  0.1381440E-008  0.4614232E+02  0.7816164E-02  0.1320468E+00
        -11   -1    0    0    0    0  0.00000000000E+00  0.00000000000E+00  0.45593999997E+02  0.45594000000E+02  0.51100000000E-03 0.  1.
         11   -1    0    0    0    0 -0.00000000000E+00 -0.00000000000E+00 -0.45593999997E+02  0.45594000000E+02  0.51100000000E-03 0. -1.
    9900012    2    1    2    0    0  0.25167796719E+02 -0.12771222774E+02  0.35108280514E+02  0.46142317815E+02  0.10000000494E+02 0.  0.
         12    1    1    2    0    0 -0.25167796719E+02  0.12771222774E+02 -0.35108280514E+02  0.45045682185E+02  0.00000000000E+00 0. -1.
         11    1    3    3    0    0 -0.15284729497E+00 -0.12007837101E+01  0.19086873357E+01  0.22601618129E+01  0.51100000000E-03 0. -1.
        -11    1    3    3    0    0  0.24202419288E+02 -0.11420217384E+02  0.33332418634E+02  0.42746094520E+02  0.51100000000E-03 0.  1.
        -12    1    3    3    0    0  0.11182247256E+01 -0.15022167981E+00 -0.13282545501E+00  0.11360614823E+01  0.00000000000E+00 0.  1.
</event>
<event>
 7    1  0.1381440E-008  0.4614232E+02  0.7816164E-02  0.1320468E+00
        -11   -1    0    0    0    0  0.00000000000E+00  0.00000000000E+00  0.45593999997E+02  0.45594000000E+02  0.51100000000E-03 0. -1.
         11   -1    0    0    0    0 -0.00000000000E+00 -0.00000000000E+00 -0.45593999997E+02  0.45594000000E+02  0.51100000000E-03 0.  1.
    9900012    2    1    2    0    0  0.35335552424E+02  0.10533516079E+02 -0.25875803278E+02  0.46142318504E+02  0.10000006777E+02 0.  0.
         12    1    1    2    0    0 -0.35335552424E+02 -0.10533516079E+02  0.25875803278E+02  0.45045681496E+02  0.00000000000E+00 0. -1.
         11    1    3    3    0    0  0.17269198548E+02  0.70489121870E+01 -0.84811604253E+01  0.20490057684E+02  0.51100000000E-03 0. -1.
        -11    1    3    3    0    0  0.86548419674E+01 -0.41804030140E+00 -0.80620044357E+01  0.11835411398E+02  0.51100000000E-03 0.  1.
        -12    1    3    3    0    0  0.94115119091E+01  0.39026441938E+01 -0.93326384174E+01  0.13816849422E+02  0.00000000000E+00 0.  1.
</event>
<event>
 7    1  0.1577167E-008  0.4614232E+02  0.7816164E-02  0.1320468E+00
        -11   -1    0    0    0    0  0.00000000000E+00  0.00000000000E+00  0.45593999997E+02  0.45594000000E+02  0.51100000000E-03 0. -1.
         11   -1    0    0    0    0 -0.00000000000E+00 -0.00000000000E+00 -0.45593999997E+02  0.45594000000E+02  0.51100000000E-03 0.  1.
    9900012    2    1    2    0    0 -0.43883760551E+02  0.66717113665E+01  0.76692379795E+01  0.46142318921E+02  0.10000010580E+02 0.  0.
         12    1    1    2    0    0  0.43883760551E+02 -0.66717113665E+01 -0.76692379795E+01  0.45045681079E+02  0.00000000000E+00 0. -1.
         11    1    3    3    0    0 -0.29279271821E+01 -0.43131497692E+00 -0.73484238097E+00  0.30493907226E+01  0.51100000000E-03 0. -1.
        -11    1    3    3    0    0 -0.39134278468E+02  0.80862719362E+01  0.89525200136E+01  0.40951522071E+02  0.51100000000E-03 0.  1.
        -12    1    3    3    0    0 -0.18215549004E+01 -0.98324559283E+00 -0.54843965304E+00  0.21414061278E+01  0.00000000000E+00 0.  1.
</event>
<event>
 7    1  0.1381440E-008  0.4614232E+02  0.7816164E-02  0.1320468E+00
        -11   -1    0    0    0    0  0.00000000000E+00  0.00000000000E+00  0.45593999997E+02  0.45594000000E+02  0.51100000000E-03 0.  1.
         11   -1    0    0    0    0 -0.00000000000E+00 -0.00000000000E+00 -0.45593999997E+02  0.45594000000E+02  0.51100000000E-03 0. -1.
    9900012    2    1    2    0    0 -0.19160694408E+02  0.40755644847E+02  0.97910959876E+00  0.46142318156E+02  0.10000003605E+02 0.  0.
         12    1    1    2    0    0  0.19160694408E+02 -0.40755644847E+02 -0.97910959876E+00  0.45045681844E+02  0.00000000000E+00 0. -1.
         11    1    3    3    0    0 -0.27114927000E+01  0.64605477539E+01 -0.32567117249E+01  0.77263860545E+01  0.51100000000E-03 0. -1.
        -11    1    3    3    0    0 -0.56601215583E+01  0.14827222552E+02  0.27636350465E+01  0.16109661188E+02  0.51100000000E-03 0.  1.
         12    1    3    3    0    0 -0.10789080150E+02  0.19467874542E+02  0.14721862771E+01  0.22306270914E+02  0.00000000000E+00 0. -1.
</event>
<event>
 7    1  0.1381440E-008  0.4614233E+02  0.7816164E-02  0.1320468E+00
        -11   -1    0    0    0    0  0.00000000000E+00  0.00000000000E+00  0.45593999997E+02  0.45594000000E+02  0.51100000000E-03 0. -1.
         11   -1    0    0    0    0 -0.00000000000E+00 -0.00000000000E+00 -0.45593999997E+02  0.45594000000E+02  0.51100000000E-03 0.  1.
    9900012    2    1    2    0    0 -0.26196802928E+02  0.31452492013E+02 -0.18803752187E+02  0.46142325027E+02  0.10000066253E+02 0.  0.
         12    1    1    2    0    0  0.26196802928E+02 -0.31452492013E+02  0.18803752187E+02  0.45045674973E+02  0.00000000000E+00 0. -1.
         11    1    3    3    0    0 -0.19189322225E+01  0.37011417577E+01 -0.42361192218E+00  0.41904890534E+01  0.51100000000E-03 0. -1.
        -11    1    3    3    0    0 -0.61784019650E-01  0.19664677008E+00 -0.15989253090E+01  0.16121568231E+01  0.51100000000E-03 0.  1.
        -12    1    3    3    0    0 -0.24216086686E+02  0.27554703486E+02 -0.16781214955E+02  0.40339679150E+02  0.00000000000E+00 0.  1.
</event>
<event>
 7    1  0.1381440E-008  0.4614232E+02  0.7816164E-02  0.1320468E+00
        -11   -1    0    0    0    0  0.00000000000E+00  0.00000000000E+00  0.45593999997E+02  0.45594000000E+02  0.51100000000E-03 0. -1.
         11   -1    0    0    0    0 -0.00000000000E+00 -0.00000000000E+00 -0.45593999997E+02  0.45594000000E+02  0.51100000000E-03 0.  1.
    9900012    2    1    2    0    0  0.57965432986E+01 -0.38449784681E+02 -0.22740440095E+02  0.46142317943E+02  0.10000001660E+02 0.  0.
         12    1    1    2    0    0 -0.57965432986E+01  0.38449784681E+02  0.22740440095E+02  0.45045682057E+02  0.00000000000E+00 0. -1.
         11    1    3    3    0    0  0.66205975869E+01 -0.27703203843E+02 -0.15467739149E+02  0.32412200947E+02  0.51100000000E-03 0.  1.
        -11    1    3    3    0    0 -0.24301708411E+01 -0.84906989092E+01 -0.60363007317E+01  0.10697412073E+02  0.51100000000E-03 0. -1.
         12    1    3    3    0    0  0.16061165528E+01 -0.22558819288E+01 -0.12364002147E+01  0.30327049228E+01  0.00000000000E+00 0. -1.
</event>
<event>
 7    1  0.1381440E-008  0.4614232E+02  0.7816164E-02  0.1320468E+00
        -11   -1    0    0    0    0  0.00000000000E+00  0.00000000000E+00  0.45593999997E+02  0.45594000000E+02  0.51100000000E-03 0.  1.
         11   -1    0    0    0    0 -0.00000000000E+00 -0.00000000000E+00 -0.45593999997E+02  0.45594000000E+02  0.51100000000E-03 0. -1.
    9900012    2    1    2    0    0  0.38455832972E+02  0.30445974075E+01  0.23259248094E+02  0.46142320020E+02  0.10000020601E+02 0.  0.
         12    1    1    2    0    0 -0.38455832972E+02 -0.30445974075E+01 -0.23259248094E+02  0.45045679980E+02  0.00000000000E+00 0. -1.
         11    1    3    3    0    0  0.54511330200E+01 -0.91799777992E+00  0.15864599362E+01  0.57510369949E+01  0.51100000000E-03 0. -1.
        -11    1    3    3    0    0  0.63153920887E+01  0.23291376333E+01  0.15005954824E+01  0.68964372260E+01  0.51100000000E-03 0.  1.
         12    1    3    3    0    0  0.26689307863E+02  0.16334575540E+01  0.20172192675E+02  0.33494845799E+02  0.00000000000E+00 0. -1.
</event>
<event>
 7    1  0.1381440E-008  0.4614232E+02  0.7816164E-02  0.1320468E+00
        -11   -1    0    0    0    0  0.00000000000E+00  0.00000000000E+00  0.45593999997E+02  0.45594000000E+02  0.51100000000E-03 0.  1.
         11   -1    0    0    0    0 -0.00000000000E+00 -0.00000000000E+00 -0.45593999997E+02  0.45594000000E+02  0.51100000000E-03 0. -1.
    9900012    2    1    2    0    0  0.28940016651E+02  0.23371602642E+01  0.34440188481E+02  0.46142318026E+02  0.10000002420E+02 0.  0.
         12    1    1    2    0    0 -0.28940016651E+02 -0.23371602642E+01 -0.34440188481E+02  0.45045681974E+02  0.00000000000E+00 0. -1.
         11    1    3    3    0    0  0.22606657625E+01 -0.19005967859E+01  0.28356652805E+01  0.40943712187E+01  0.51100000000E-03 0. -1.
        -11    1    3    3    0    0  0.16255767810E+02  0.19593607610E+01  0.14406862336E+02  0.21809327461E+02  0.51100000000E-03 0.  1.
        -12    1    3    3    0    0  0.10423583079E+02  0.22783962891E+01  0.17197660864E+02  0.20238619346E+02  0.00000000000E+00 0.  1.
</event>
<event>
 7    1  0.1381440E-008  0.4614232E+02  0.7816164E-02  0.1320468E+00
        -11   -1    0    0    0    0  0.00000000000E+00  0.00000000000E+00  0.45593999997E+02  0.45594000000E+02  0.51100000000E-03 0.  1.
         11   -1    0    0    0    0 -0.00000000000E+00 -0.00000000000E+00 -0.45593999997E+02  0.45594000000E+02  0.51100000000E-03 0. -1.
    9900012    2    1    2    0    0 -0.17977088505E+02  0.20384793029E+02  0.35922109186E+02  0.46142318450E+02  0.10000006281E+02 0.  0.
         12    1    1    2    0    0  0.17977088505E+02 -0.20384793029E+02 -0.35922109186E+02  0.45045681550E+02  0.00000000000E+00 0. -1.
         11    1    3    3    0    0 -0.28115813303E+01  0.60847377824E+01  0.79603068028E+01  0.10406512774E+02  0.51100000000E-03 0. -1.
        -11    1    3    3    0    0 -0.10070885144E+02  0.65342182747E+01  0.10461648896E+02  0.15923719224E+02  0.51100000000E-03 0.  1.
        -12    1    3    3    0    0 -0.50946220305E+01  0.77658369722E+01  0.17500153487E+02  0.19812086452E+02  0.00000000000E+00 0.  1.
</event>
<event>
 7    1  0.1381440E-008  0.4614232E+02  0.7816164E-02  0.1320468E+00
        -11   -1    0    0    0    0  0.00000000000E+00  0.00000000000E+00  0.45593999997E+02  0.45594000000E+02  0.51100000000E-03 0. -1.
         11   -1    0    0    0    0 -0.00000000000E+00 -0.00000000000E+00 -0.45593999997E+02  0.45594000000E+02  0.51100000000E-03 0.  1.
    9900012    2    1    2    0    0 -0.95091534294E+01 -0.43199814972E+02 -0.85126644256E+01  0.46142317985E+02  0.10000002041E+02 0.  0.
         12    1    1    2    0    0  0.95091534294E+01  0.43199814972E+02  0.85126644256E+01  0.45045682015E+02  0.00000000000E+00 0. -1.
         11    1    3    3    0    0  0.12746153848E+00 -0.42268145681E+01 -0.20947946519E+01  0.47191495772E+01  0.51100000000E-03 0. -1.
        -11    1    3    3    0    0 -0.34463193184E+01 -0.27919227239E+02 -0.59019816812E+01  0.28743586319E+02  0.51100000000E-03 0.  1.
        -12    1    3    3    0    0 -0.61902956495E+01 -0.11053773166E+02 -0.51588809242E+00  0.12679582089E+02  0.00000000000E+00 0.  1.
</event>
<event>
 7    1  0.1381440E-008  0.4614232E+02  0.7816164E-02  0.1320468E+00
        -11   -1    0    0    0    0  0.00000000000E+00  0.00000000000E+00  0.45593999997E+02  0.45594000000E+02  0.51100000000E-03 0. -1.
         11   -1    0    0    0    0 -0.00000000000E+00 -0.00000000000E+00 -0.45593999997E+02  0.45594000000E+02  0.51100000000E-03 0.  1.
    9900012    2    1    2    0    0 -0.39954910582E+02 -0.12157796362E+02 -0.16879179233E+02  0.46142316704E+02  0.99999903622E+01 0.  0.
         12    1    1    2    0    0  0.39954910582E+02  0.12157796362E+02  0.16879179233E+02  0.45045683296E+02  0.00000000000E+00 0. -1.
         11    1    3    3    0    0 -0.20111645281E+02 -0.69745967237E+01 -0.13099257426E+02  0.24994275760E+02  0.51100000000E-03 0. -1.
        -11    1    3    3    0    0 -0.36677078094E+01 -0.12741719300E+01  0.62745360032E+00  0.39331022062E+01  0.51100000000E-03 0.  1.
        -12    1    3    3    0    0 -0.16175557491E+02 -0.39090277087E+01 -0.44073754074E+01  0.17214938738E+02  0.00000000000E+00 0.  1.
</event>
<event>
 7    1  0.1381440E-008  0.4614232E+02  0.7816164E-02  0.1320468E+00
        -11   -1    0    0    0    0  0.00000000000E+00  0.00000000000E+00  0.45593999997E+02  0.45594000000E+02  0.51100000000E-03 0.  1.
         11   -1    0    0    0    0 -0.00000000000E+00 -0.00000000000E+00 -0.45593999997E+02  0.45594000000E+02  0.51100000000E-03 0. -1.
    9900012    2    1    2    0    0  0.19157516407E+02  0.22320597210E+02  0.34115890804E+02  0.46142317632E+02  0.99999988194E+01 0.  0.
         12    1    1    2    0    0 -0.19157516407E+02 -0.22320597210E+02 -0.34115890804E+02  0.45045682368E+02  0.00000000000E+00 0. -1.
         11    1    3    3    0    0  0.10780283673E+02  0.92590906526E+01  0.11698151137E+02  0.18406303705E+02  0.51100000000E-03 0. -1.
        -11    1    3    3    0    0  0.51539235906E+01  0.81815855403E+01  0.94973247872E+01  0.13553613861E+02  0.51100000000E-03 0.  1.
         12    1    3    3    0    0  0.32233091442E+01  0.48799210171E+01  0.12920414879E+02  0.14182400066E+02  0.00000000000E+00 0. -1.
</event>
<event>
 7    1  0.1381440E-008  0.4614232E+02  0.7816164E-02  0.1320468E+00
        -11   -1    0    0    0    0  0.00000000000E+00  0.00000000000E+00  0.45593999997E+02  0.45594000000E+02  0.51100000000E-03 0.  1.
         11   -1    0    0    0    0 -0.00000000000E+00 -0.00000000000E+00 -0.45593999997E+02  0.45594000000E+02  0.51100000000E-03 0. -1.
    9900012    2    1    2    0    0  0.98008888495E+01 -0.38385205307E+02  0.21439036263E+02  0.46142315583E+02  0.99999801407E+01 0.  0.
         12    1    1    2    0    0 -0.98008888495E+01  0.38385205307E+02 -0.21439036263E+02  0.45045684417E+02  0.00000000000E+00 0. -1.
         11    1    3    3    0    0  0.23002792308E+01 -0.15237284757E+02  0.10850852862E+02  0.18846939789E+02  0.51100000000E-03 0. -1.
        -11    1    3    3    0    0  0.54257814211E+01 -0.21495283040E+02  0.79434738456E+01  0.23549630018E+02  0.51100000000E-03 0.  1.
         12    1    3    3    0    0  0.20748281976E+01 -0.16526375096E+01  0.26447095551E+01  0.37457457760E+01  0.00000000000E+00 0. -1.
</event>
<event>
 7    1  0.1381440E-008  0.4614232E+02  0.7816164E-02  0.1320468E+00
        -11   -1    0    0    0    0  0.00000000000E+00  0.00000000000E+00  0.45593999997E+02  0.45594000000E+02  0.51100000000E-03 0.  1.
         11   -1    0    0    0    0 -0.00000000000E+00 -0.00000000000E+00 -0.45593999997E+02  0.45594000000E+02  0.51100000000E-03 0. -1.
    9900012    2    1    2    0    0  0.27021678975E+02  0.15885818210E+02  0.32350939635E+02  0.46142315966E+02  0.99999836288E+01 0.  0.
         12    1    1    2    0    0 -0.27021678975E+02 -0.15885818210E+02 -0.32350939635E+02  0.45045684034E+02  0.00000000000E+00 0. -1.
         11    1    3    3    0    0  0.33349952097E+01 -0.84591995271E+00  0.37006526867E+01  0.50529797332E+01  0.51100000000E-03 0. -1.
        -11    1    3    3    0    0  0.16126385823E+02  0.12674671379E+02  0.22992687023E+02  0.30811868997E+02  0.51100000000E-03 0.  1.
         12    1    3    3    0    0  0.75602979425E+01  0.40570667844E+01  0.56575999250E+01  0.10277467236E+02  0.00000000000E+00 0. -1.
</event>
<event>
 7    1  0.1381440E-008  0.4614232E+02  0.7816164E-02  0.1320468E+00
        -11   -1    0    0    0    0  0.00000000000E+00  0.00000000000E+00  0.45593999997E+02  0.45594000000E+02  0.51100000000E-03 0. -1.
         11   -1    0    0    0    0 -0.00000000000E+00 -0.00000000000E+00 -0.45593999997E+02  0.45594000000E+02  0.51100000000E-03 0.  1.
    9900012    2    1    2    0    0  0.37364114783E+02 -0.20719818898E+02 -0.14273243668E+02  0.46142318148E+02  0.10000003526E+02 0.  0.
         12    1    1    2    0    0 -0.37364114783E+02  0.20719818898E+02  0.14273243668E+02  0.45045681852E+02  0.00000000000E+00 0. -1.
         11    1    3    3    0    0  0.59810841200E+01 -0.38149944145E+01 -0.59833028527E+01  0.92804882911E+01  0.51100000000E-03 0. -1.
        -11    1    3    3    0    0  0.27281083735E+02 -0.16276872231E+02 -0.73216889952E+01  0.32600632346E+02  0.51100000000E-03 0.  1.
         12    1    3    3    0    0  0.41019469285E+01 -0.62795225305E+00 -0.96825182023E+00  0.42611975105E+01  0.00000000000E+00 0. -1.
</event>
<event>
 7    1  0.1381440E-008  0.4614232E+02  0.7816164E-02  0.1320468E+00
        -11   -1    0    0    0    0  0.00000000000E+00  0.00000000000E+00  0.45593999997E+02  0.45594000000E+02  0.51100000000E-03 0. -1.
         11   -1    0    0    0    0 -0.00000000000E+00 -0.00000000000E+00 -0.45593999997E+02  0.45594000000E+02  0.51100000000E-03 0.  1.
    9900012    2    1    2    0    0  0.69030448334E+01  0.44358398939E+02 -0.37139807576E+01  0.46142320546E+02  0.10000025393E+02 0.  0.
         12    1    1    2    0    0 -0.69030448334E+01 -0.44358398939E+02  0.37139807576E+01  0.45045679454E+02  0.00000000000E+00 0. -1.
         11    1    3    3    0    0  0.38729334909E+01  0.26461652536E+02 -0.70356456994E+01  0.27653552745E+02  0.51100000000E-03 0. -1.
        -11    1    3    3    0    0  0.28342892999E+01  0.14022015194E+02  0.27423865629E+01  0.14566083560E+02  0.51100000000E-03 0.  1.
         12    1    3    3    0    0  0.19582204254E+00  0.38747312094E+01  0.57927837892E+00  0.39226842414E+01  0.00000000000E+00 0. -1.
</event>
<event>
 7    1  0.1381440E-008  0.4614232E+02  0.7816164E-02  0.1320468E+00
        -11   -1    0    0    0    0  0.00000000000E+00  0.00000000000E+00  0.45593999997E+02  0.45594000000E+02  0.51100000000E-03 0. -1.
         11   -1    0    0    0    0 -0.00000000000E+00 -0.00000000000E+00 -0.45593999997E+02  0.45594000000E+02  0.51100000000E-03 0.  1.
    9900012    2    1    2    0    0 -0.38632073289E+02 -0.70862159714E+01  0.22055881718E+02  0.46142318057E+02  0.10000002695E+02 0.  0.
         12    1    1    2    0    0  0.38632073289E+02  0.70862159714E+01 -0.22055881718E+02  0.45045681943E+02  0.00000000000E+00 0. -1.
         11    1    3    3    0    0 -0.12000976909E+02 -0.68194691016E+01  0.77423715144E+01  0.15826336358E+02  0.51100000000E-03 0. -1.
        -11    1    3    3    0    0 -0.21507047437E+02  0.57680925688E+00  0.11945290579E+02  0.24608449070E+02  0.51100000000E-03 0.  1.
         12    1    3    3    0    0 -0.51240489434E+01 -0.84355612663E+00  0.23682196246E+01  0.57075326283E+01  0.00000000000E+00 0. -1.
</event>
<event>
 7    1  0.1381440E-008  0.4614232E+02  0.7816164E-02  0.1320468E+00
        -11   -1    0    0    0    0  0.00000000000E+00  0.00000000000E+00  0.45593999997E+02  0.45594000000E+02  0.51100000000E-03 0.  1.
         11   -1    0    0    0    0 -0.00000000000E+00 -0.00000000000E+00 -0.45593999997E+02  0.45594000000E+02  0.51100000000E-03 0. -1.
    9900012    2    1    2    0    0 -0.33109943975E+02  0.23232891350E+02  0.19826188473E+02  0.46142318965E+02  0.10000010982E+02 0.  0.
         12    1    1    2    0    0  0.33109943975E+02 -0.23232891350E+02 -0.19826188473E+02  0.45045681035E+02  0.00000000000E+00 0. -1.
         11    1    3    3    0    0 -0.18389491035E+01  0.39129359225E+01  0.10964704596E+01  0.44603866501E+01  0.51100000000E-03 0. -1.
        -11    1    3    3    0    0 -0.13755098206E+02  0.11961747526E+02  0.96401049065E+01  0.20620808748E+02  0.51100000000E-03 0.  1.
         12    1    3    3    0    0 -0.17515896665E+02  0.73582079017E+01  0.90896131072E+01  0.21061123568E+02  0.00000000000E+00 0. -1.
</event>
<event>
 7    1  0.1381440E-008  0.4614232E+02  0.7816164E-02  0.1320468E+00
        -11   -1    0    0    0    0  0.00000000000E+00  0.00000000000E+00  0.45593999997E+02  0.45594000000E+02  0.51100000000E-03 0. -1.
         11   -1    0    0    0    0 -0.00000000000E+00 -0.00000000000E+00 -0.45593999997E+02  0.45594000000E+02  0.51100000000E-03 0.  1.
    9900012    2    1    2    0    0 -0.26030360423E+02 -0.36146405089E+02  0.67060542372E+01  0.46142318431E+02  0.10000006105E+02 0.  0.
         12    1    1    2    0    0  0.26030360423E+02  0.36146405089E+02 -0.67060542372E+01  0.45045681569E+02  0.00000000000E+00 0. -1.
         11    1    3    3    0    0 -0.13082360897E+02 -0.17059229341E+02 -0.28670348825E+00  0.21499945849E+02  0.51100000000E-03 0. -1.
        -11    1    3    3    0    0 -0.27804717194E+01 -0.37154832087E+01 -0.65855953194E+00  0.46871675215E+01  0.51100000000E-03 0.  1.
         12    1    3    3    0    0 -0.10167527807E+02 -0.15371692539E+02  0.76513172574E+01  0.19955205060E+02  0.00000000000E+00 0. -1.
</event>
<event>
 7    1  0.1381440E-008  0.4614232E+02  0.7816164E-02  0.1320468E+00
        -11   -1    0    0    0    0  0.00000000000E+00  0.00000000000E+00  0.45593999997E+02  0.45594000000E+02  0.51100000000E-03 0.  1.
         11   -1    0    0    0    0 -0.00000000000E+00 -0.00000000000E+00 -0.45593999997E+02  0.45594000000E+02  0.51100000000E-03 0. -1.
    9900012    2    1    2    0    0  0.34649356850E+02 -0.21944937905E+02  0.18626734880E+02  0.46142317831E+02  0.10000000638E+02 0.  0.
         12    1    1    2    0    0 -0.34649356850E+02  0.21944937905E+02 -0.18626734880E+02  0.45045682169E+02  0.00000000000E+00 0. -1.
         11    1    3    3    0    0  0.10661206412E+02 -0.10163375971E+02  0.10878543799E+02  0.18311150940E+02  0.51100000000E-03 0. -1.
        -11    1    3    3    0    0  0.21957458237E+02 -0.10940087669E+02  0.71702894379E+01  0.25558336044E+02  0.51100000000E-03 0.  1.
         12    1    3    3    0    0  0.20306922005E+01 -0.84147426460E+00  0.57790164294E+00  0.22728308472E+01  0.00000000000E+00 0. -1.
</event>
<event>
 7    1  0.1381440E-008  0.4614232E+02  0.7816164E-02  0.1320468E+00
        -11   -1    0    0    0    0  0.00000000000E+00  0.00000000000E+00  0.45593999997E+02  0.45594000000E+02  0.51100000000E-03 0.  1.
         11   -1    0    0    0    0 -0.00000000000E+00 -0.00000000000E+00 -0.45593999997E+02  0.45594000000E+02  0.51100000000E-03 0. -1.
    9900012    2    1    2    0    0  0.22291922784E+02  0.31204264733E+02  0.23632129829E+02  0.46142317419E+02  0.99999968816E+01 0.  0.
         12    1    1    2    0    0 -0.22291922784E+02 -0.31204264733E+02 -0.23632129829E+02  0.45045682581E+02  0.00000000000E+00 0. -1.
         11    1    3    3    0    0  0.14825010380E+02  0.13382641054E+02  0.11892785477E+02  0.23244663065E+02  0.51100000000E-03 0. -1.
        -11    1    3    3    0    0  0.36680059377E+01  0.50574049410E+01  0.48139194383E+01  0.78870420891E+01  0.51100000000E-03 0.  1.
         12    1    3    3    0    0  0.37989064658E+01  0.12764218738E+02  0.69254249143E+01  0.15010612265E+02  0.00000000000E+00 0. -1.
</event>
<event>
 7    1  0.1381440E-008  0.4614232E+02  0.7816164E-02  0.1320468E+00
        -11   -1    0    0    0    0  0.00000000000E+00  0.00000000000E+00  0.45593999997E+02  0.45594000000E+02  0.51100000000E-03 0.  1.
         11   -1    0    0    0    0 -0.00000000000E+00 -0.00000000000E+00 -0.45593999997E+02  0.45594000000E+02  0.51100000000E-03 0. -1.
    9900012    2    1    2    0    0  0.25303810981E+02  0.17586786371E+02  0.32856286398E+02  0.46142318066E+02  0.10000002781E+02 0.  0.
         12    1    1    2    0    0 -0.25303810981E+02 -0.17586786371E+02 -0.32856286398E+02  0.45045681934E+02  0.00000000000E+00 0. -1.
         11    1    3    3    0    0  0.45763996406E+01  0.68862562878E+01  0.91598315699E+01  0.12339630221E+02  0.51100000000E-03 0. -1.
        -11    1    3    3    0    0  0.16763291262E+02  0.70383282487E+01  0.15010751820E+02  0.23576867242E+02  0.51100000000E-03 0.  1.
        -12    1    3    3    0    0  0.39641200781E+01  0.36622018345E+01  0.86857030079E+01  0.10225820603E+02  0.00000000000E+00 0.  1.
</event>
<event>
 7    1  0.1381440E-008  0.4614232E+02  0.7816164E-02  0.1320468E+00
        -11   -1    0    0    0    0  0.00000000000E+00  0.00000000000E+00  0.45593999997E+02  0.45594000000E+02  0.51100000000E-03 0.  1.
         11   -1    0    0    0    0 -0.00000000000E+00 -0.00000000000E+00 -0.45593999997E+02  0.45594000000E+02  0.51100000000E-03 0. -1.
    9900012    2    1    2    0    0  0.10452143369E+02 -0.31067206169E+02  0.30898137786E+02  0.46142317423E+02  0.99999969214E+01 0.  0.
         12    1    1    2    0    0 -0.10452143369E+02  0.31067206169E+02 -0.30898137786E+02  0.45045682577E+02  0.00000000000E+00 0. -1.
         11    1    3    3    0    0  0.74411889794E+00 -0.64823269102E+01  0.31625144986E+01  0.72509153436E+01  0.51100000000E-03 0. -1.
        -11    1    3    3    0    0  0.32649416722E+01 -0.10480709218E+02  0.16182528001E+02  0.19554521794E+02  0.51100000000E-03 0.  1.
        -12    1    3    3    0    0  0.64430827987E+01 -0.14104170042E+02  0.11553095286E+02  0.19336880286E+02  0.00000000000E+00 0.  1.
</event>
<event>
 7    1  0.1381440E-008  0.4614232E+02  0.7816164E-02  0.1320468E+00
        -11   -1    0    0    0    0  0.00000000000E+00  0.00000000000E+00  0.45593999997E+02  0.45594000000E+02  0.51100000000E-03 0.  1.
         11   -1    0    0    0    0 -0.00000000000E+00 -0.00000000000E+00 -0.45593999997E+02  0.45594000000E+02  0.51100000000E-03 0. -1.
    9900012    2    1    2    0    0 -0.95217391447E+01 -0.49455070580E+01  0.43749195634E+02  0.46142315689E+02  0.99999811033E+01 0.  0.
         12    1    1    2    0    0  0.95217391447E+01  0.49455070580E+01 -0.43749195634E+02  0.45045684311E+02  0.00000000000E+00 0. -1.
         11    1    3    3    0    0  0.37516122778E+00 -0.10822010122E+00  0.31315541150E+00  0.50052383560E+00  0.51100000000E-03 0. -1.
        -11    1    3    3    0    0 -0.85310131140E+01 -0.43684075602E+01  0.20174147372E+02  0.22335115666E+02  0.51100000000E-03 0.  1.
        -12    1    3    3    0    0 -0.13658872584E+01 -0.46887939666E+00  0.23261892851E+02  0.23306676187E+02  0.00000000000E+00 0.  1.
</event>
<event>
 7    1  0.1381440E-008  0.4614232E+02  0.7816164E-02  0.1320468E+00
        -11   -1    0    0    0    0  0.00000000000E+00  0.00000000000E+00  0.45593999997E+02  0.45594000000E+02  0.51100000000E-03 0.  1.
         11   -1    0    0    0    0 -0.00000000000E+00 -0.00000000000E+00 -0.45593999997E+02  0.45594000000E+02  0.51100000000E-03 0. -1.
    9900012    2    1    2    0    0  0.27177963373E+02 -0.22232510196E+01  0.35854273673E+02  0.46142317867E+02  0.10000000966E+02 0.  0.
         12    1    1    2    0    0 -0.27177963373E+02  0.22232510196E+01 -0.35854273673E+02  0.45045682133E+02  0.00000000000E+00 0. -1.
         11    1    3    3    0    0  0.23981940953E+02 -0.99791475447E+00  0.28610076276E+02  0.37345224467E+02  0.51100000000E-03 0. -1.
        -11    1    3    3    0    0  0.22997832794E+01 -0.21629583445E+01  0.29852349585E+01  0.43449994190E+01  0.51100000000E-03 0.  1.
        -12    1    3    3    0    0  0.89623914069E+00  0.93762207940E+00  0.42589624386E+01  0.44520939809E+01  0.00000000000E+00 0.  1.
</event>
<event>
 7    1  0.1381440E-008  0.4614232E+02  0.7816164E-02  0.1320468E+00
        -11   -1    0    0    0    0  0.00000000000E+00  0.00000000000E+00  0.45593999997E+02  0.45594000000E+02  0.51100000000E-03 0.  1.
         11   -1    0    0    0    0 -0.00000000000E+00 -0.00000000000E+00 -0.45593999997E+02  0.45594000000E+02  0.51100000000E-03 0. -1.
    9900012    2    1    2    0    0  0.26853825988E+02  0.74348698823E+01  0.35393618541E+02  0.46142317702E+02  0.99999994565E+01 0.  0.
         12    1    1    2    0    0 -0.26853825988E+02 -0.74348698823E+01 -0.35393618541E+02  0.45045682298E+02  0.00000000000E+00 0. -1.
         11    1    3    3    0    0  0.13856552915E+01  0.65778941986E+00 -0.16755348692E+00  0.15429847504E+01  0.51100000000E-03 0. -1.
        -11    1    3    3    0    0  0.10091904395E+02 -0.49518833153E-01  0.13522184212E+02  0.16873009588E+02  0.51100000000E-03 0.  1.
        -12    1    3    3    0    0  0.15376266301E+02  0.68265992956E+01  0.22038987816E+02  0.27726323363E+02  0.00000000000E+00 0.  1.
</event>
<event>
 7    1  0.1381440E-008  0.4614232E+02  0.7816164E-02  0.1320468E+00
        -11   -1    0    0    0    0  0.00000000000E+00  0.00000000000E+00  0.45593999997E+02  0.45594000000E+02  0.51100000000E-03 0. -1.
         11   -1    0    0    0    0 -0.00000000000E+00 -0.00000000000E+00 -0.45593999997E+02  0.45594000000E+02  0.51100000000E-03 0.  1.
    9900012    2    1    2    0    0 -0.27814710613E+01 -0.40970421100E+02 -0.18514899317E+02  0.46142317820E+02  0.10000000536E+02 0.  0.
         12    1    1    2    0    0  0.27814710613E+01  0.40970421100E+02  0.18514899317E+02  0.45045682180E+02  0.00000000000E+00 0. -1.
         11    1    3    3    0    0 -0.27474172413E+01 -0.32407538063E+01 -0.10554673335E+01  0.43777617894E+01  0.51100000000E-03 0. -1.
        -11    1    3    3    0    0  0.14369533642E+01 -0.13702670012E+02 -0.49812964856E+01  0.14650642149E+02  0.51100000000E-03 0.  1.
         12    1    3    3    0    0 -0.14710071841E+01 -0.24026997281E+02 -0.12478135498E+02  0.27113913882E+02  0.00000000000E+00 0. -1.
</event>
<event>
 7    1  0.1381440E-008  0.4614232E+02  0.7816164E-02  0.1320468E+00
        -11   -1    0    0    0    0  0.00000000000E+00  0.00000000000E+00  0.45593999997E+02  0.45594000000E+02  0.51100000000E-03 0.  1.
         11   -1    0    0    0    0 -0.00000000000E+00 -0.00000000000E+00 -0.45593999997E+02  0.45594000000E+02  0.51100000000E-03 0. -1.
    9900012    2    1    2    0    0  0.32690040160E+02 -0.70703670199E+01  0.30174239610E+02  0.46142317060E+02  0.99999936064E+01 0.  0.
         12    1    1    2    0    0 -0.32690040160E+02  0.70703670199E+01 -0.30174239610E+02  0.45045682940E+02  0.00000000000E+00 0. -1.
         11    1    3    3    0    0  0.27579489331E+01  0.50802148650E+00  0.58086119353E+01  0.64501427135E+01  0.51100000000E-03 0. -1.
        -11    1    3    3    0    0  0.27350610335E+02 -0.66038693638E+01  0.23850642827E+02  0.36885229290E+02  0.51100000000E-03 0.  1.
        -12    1    3    3    0    0  0.25814808922E+01 -0.97451914252E+00  0.51498484829E+00  0.28069450565E+01  0.00000000000E+00 0.  1.
</event>
<event>
 7    1  0.1381440E-008  0.4614232E+02  0.7816164E-02  0.1320468E+00
        -11   -1    0    0    0    0  0.00000000000E+00  0.00000000000E+00  0.45593999997E+02  0.45594000000E+02  0.51100000000E-03 0.  1.
         11   -1    0    0    0    0 -0.00000000000E+00 -0.00000000000E+00 -0.45593999997E+02  0.45594000000E+02  0.51100000000E-03 0. -1.
    9900012    2    1    2    0    0  0.38156403669E+02  0.12625580720E+02  0.20341999295E+02  0.46142319133E+02  0.10000012511E+02 0.  0.
         12    1    1    2    0    0 -0.38156403669E+02 -0.12625580720E+02 -0.20341999295E+02  0.45045680867E+02  0.00000000000E+00 0. -1.
         11    1    3    3    0    0  0.13473380533E+02  0.79686648030E+00  0.33679479883E+01  0.13910789090E+02  0.51100000000E-03 0. -1.
        -11    1    3    3    0    0  0.12775757270E+02  0.60811446830E+01  0.80356746343E+01  0.16271827235E+02  0.51100000000E-03 0.  1.
         12    1    3    3    0    0  0.11907265866E+02  0.57475695568E+01  0.89383766724E+01  0.15959702809E+02  0.00000000000E+00 0. -1.
</event>
<event>
 7    1  0.1381440E-008  0.4614232E+02  0.7816164E-02  0.1320468E+00
        -11   -1    0    0    0    0  0.00000000000E+00  0.00000000000E+00  0.45593999997E+02  0.45594000000E+02  0.51100000000E-03 0.  1.
         11   -1    0    0    0    0 -0.00000000000E+00 -0.00000000000E+00 -0.45593999997E+02  0.45594000000E+02  0.51100000000E-03 0. -1.
    9900012    2    1    2    0    0 -0.57610186327E+01 -0.19168013790E+02  0.40354817031E+02  0.46142319342E+02  0.10000014417E+02 0.  0.
         12    1    1    2    0    0  0.57610186327E+01  0.19168013790E+02 -0.40354817031E+02  0.45045680658E+02  0.00000000000E+00 0. -1.
         11    1    3    3    0    0  0.11573172110E+00 -0.29444000504E+01  0.97851466251E+01  0.10219196653E+02  0.51100000000E-03 0. -1.
        -11    1    3    3    0    0 -0.46638982121E+01 -0.14496218369E+02  0.19960596190E+02  0.25106128616E+02  0.51100000000E-03 0.  1.
        -12    1    3    3    0    0 -0.12128521417E+01 -0.17273953702E+01  0.10609074216E+02  0.10816994074E+02  0.00000000000E+00 0.  1.
</event>
<event>
 7    1  0.1381440E-008  0.4614232E+02  0.7816164E-02  0.1320468E+00
        -11   -1    0    0    0    0  0.00000000000E+00  0.00000000000E+00  0.45593999997E+02  0.45594000000E+02  0.51100000000E-03 0.  1.
         11   -1    0    0    0    0 -0.00000000000E+00 -0.00000000000E+00 -0.45593999997E+02  0.45594000000E+02  0.51100000000E-03 0. -1.
    9900012    2    1    2    0    0 -0.29094248396E+02  0.14424724951E+02  0.31218031808E+02  0.46142317748E+02  0.99999998763E+01 0.  0.
         12    1    1    2    0    0  0.29094248396E+02 -0.14424724951E+02 -0.31218031808E+02  0.45045682252E+02  0.00000000000E+00 0. -1.
         11    1    3    3    0    0 -0.15123222267E+02  0.12087123180E+02  0.17280315623E+02  0.25950331535E+02  0.51100000000E-03 0. -1.
        -11    1    3    3    0    0 -0.77191759953E+01  0.20597465231E+01  0.99945028814E+01  0.12795246066E+02  0.51100000000E-03 0.  1.
         12    1    3    3    0    0 -0.62518501334E+01  0.27785524810E+00  0.39432133035E+01  0.73967401459E+01  0.00000000000E+00 0. -1.
</event>
<event>
 7    1  0.1381440E-008  0.4614232E+02  0.7816164E-02  0.1320468E+00
        -11   -1    0    0    0    0  0.00000000000E+00  0.00000000000E+00  0.45593999997E+02  0.45594000000E+02  0.51100000000E-03 0. -1.
         11   -1    0    0    0    0 -0.00000000000E+00 -0.00000000000E+00 -0.45593999997E+02  0.45594000000E+02  0.51100000000E-03 0.  1.
    9900012    2    1    2    0    0 -0.28151421079E+02 -0.22676732841E+02 -0.26877069990E+02  0.46142316385E+02  0.99999874476E+01 0.  0.
         12    1    1    2    0    0  0.28151421079E+02  0.22676732841E+02  0.26877069990E+02  0.45045683615E+02  0.00000000000E+00 0. -1.
         11    1    3    3    0    0 -0.20193289682E+02 -0.14121170512E+02 -0.15072343040E+02  0.28885150679E+02  0.51100000000E-03 0.  1.
        -11    1    3    3    0    0 -0.64837447573E+01 -0.89345748919E+01 -0.10721100000E+02  0.15388552890E+02  0.51100000000E-03 0. -1.
        -12    1    3    3    0    0 -0.14743866400E+01  0.37901256210E+00 -0.10836269505E+01  0.18686128155E+01  0.00000000000E+00 0.  1.
</event>
<event>
 7    1  0.1381440E-008  0.4614232E+02  0.7816164E-02  0.1320468E+00
        -11   -1    0    0    0    0  0.00000000000E+00  0.00000000000E+00  0.45593999997E+02  0.45594000000E+02  0.51100000000E-03 0.  1.
         11   -1    0    0    0    0 -0.00000000000E+00 -0.00000000000E+00 -0.45593999997E+02  0.45594000000E+02  0.51100000000E-03 0. -1.
    9900012    2    1    2    0    0  0.37077973169E+02  0.11420170080E+02  0.22889235608E+02  0.46142317791E+02  0.10000000271E+02 0.  0.
         12    1    1    2    0    0 -0.37077973169E+02 -0.11420170080E+02 -0.22889235608E+02  0.45045682209E+02  0.00000000000E+00 0. -1.
         11    1    3    3    0    0  0.11708850505E+02  0.25487848596E+01  0.76516569380E+01  0.14217641807E+02  0.51100000000E-03 0.  1.
        -11    1    3    3    0    0  0.13780251774E+01  0.22897912151E+00 -0.97807338144E+00  0.17052896025E+01  0.51100000000E-03 0. -1.
         12    1    3    3    0    0  0.23991097487E+02  0.86424060986E+01  0.16215652052E+02  0.30219386381E+02  0.00000000000E+00 0. -1.
</event>
<event>
 7    1  0.1381440E-008  0.4614232E+02  0.7816164E-02  0.1320468E+00
        -11   -1    0    0    0    0  0.00000000000E+00  0.00000000000E+00  0.45593999997E+02  0.45594000000E+02  0.51100000000E-03 0. -1.
         11   -1    0    0    0    0 -0.00000000000E+00 -0.00000000000E+00 -0.45593999997E+02  0.45594000000E+02  0.51100000000E-03 0.  1.
    9900012    2    1    2    0    0 -0.33385200465E+02  0.13254057157E+02 -0.27182197086E+02  0.46142317858E+02  0.10000000884E+02 0.  0.
         12    1    1    2    0    0  0.33385200465E+02 -0.13254057157E+02  0.27182197086E+02  0.45045682142E+02  0.00000000000E+00 0. -1.
         11    1    3    3    0    0 -0.78894292551E+01  0.15635921649E+01 -0.10649053496E+02  0.13345046087E+02  0.51100000000E-03 0. -1.
        -11    1    3    3    0    0 -0.10229489938E+01  0.19471987041E+00  0.11018314457E+00  0.10471299148E+01  0.51100000000E-03 0.  1.
         12    1    3    3    0    0 -0.24472822216E+02  0.11495745122E+02 -0.16643326734E+02  0.31750141857E+02  0.00000000000E+00 0. -1.
</event>
<event>
 7    1  0.1381440E-008  0.4614232E+02  0.7816164E-02  0.1320468E+00
        -11   -1    0    0    0    0  0.00000000000E+00  0.00000000000E+00  0.45593999997E+02  0.45594000000E+02  0.51100000000E-03 0.  1.
         11   -1    0    0    0    0 -0.00000000000E+00 -0.00000000000E+00 -0.45593999997E+02  0.45594000000E+02  0.51100000000E-03 0. -1.
    9900012    2    1    2    0    0  0.48246953590E+01  0.37089523431E+02  0.25103842345E+02  0.46142319474E+02  0.10000015616E+02 0.  0.
         12    1    1    2    0    0 -0.48246953590E+01 -0.37089523431E+02 -0.25103842345E+02  0.45045680526E+02  0.00000000000E+00 0. -1.
         11    1    3    3    0    0  0.24502142629E+01  0.15365571400E+01  0.20695998278E+01  0.35563747675E+01  0.51100000000E-03 0. -1.
        -11    1    3    3    0    0  0.30580732051E+01  0.18601070344E+02  0.11879496350E+02  0.22281697949E+02  0.51100000000E-03 0.  1.
         12    1    3    3    0    0 -0.68359210907E+00  0.16951895947E+02  0.11154746166E+02  0.20304246757E+02  0.00000000000E+00 0. -1.
</event>
<event>
 7    1  0.1381440E-008  0.4614232E+02  0.7816164E-02  0.1320468E+00
        -11   -1    0    0    0    0  0.00000000000E+00  0.00000000000E+00  0.45593999997E+02  0.45594000000E+02  0.51100000000E-03 0.  1.
         11   -1    0    0    0    0 -0.00000000000E+00 -0.00000000000E+00 -0.45593999997E+02  0.45594000000E+02  0.51100000000E-03 0. -1.
    9900012    2    1    2    0    0 -0.21335452413E+02 -0.28834265007E+02  0.27248798468E+02  0.46142318896E+02  0.10000010348E+02 0.  0.
         12    1    1    2    0    0  0.21335452413E+02  0.28834265007E+02 -0.27248798468E+02  0.45045681104E+02  0.00000000000E+00 0. -1.
         11    1    3    3    0    0  0.31229622422E+00 -0.18338377260E+01  0.21310286197E+01  0.28287405282E+01  0.51100000000E-03 0. -1.
        -11    1    3    3    0    0 -0.48563550245E+01 -0.26332306363E+01  0.24807963008E+01  0.60557772627E+01  0.51100000000E-03 0.  1.
        -12    1    3    3    0    0 -0.16791393613E+02 -0.24367196645E+02  0.22636973547E+02  0.37257801105E+02  0.00000000000E+00 0.  1.
</event>
<event>
 7    1  0.1381440E-008  0.4614231E+02  0.7816164E-02  0.1320468E+00
        -11   -1    0    0    0    0  0.00000000000E+00  0.00000000000E+00  0.45593999997E+02  0.45594000000E+02  0.51100000000E-03 0.  1.
         11   -1    0    0    0    0 -0.00000000000E+00 -0.00000000000E+00 -0.45593999997E+02  0.45594000000E+02  0.51100000000E-03 0. -1.
    9900012    2    1    2    0    0 -0.23016748830E+02  0.28233218585E+02  0.26499593567E+02  0.46142314107E+02  0.99999666785E+01 0.  0.
         12    1    1    2    0    0  0.23016748830E+02 -0.28233218585E+02 -0.26499593567E+02  0.45045685893E+02  0.00000000000E+00 0. -1.
         11    1    3    3    0    0 -0.11199877010E+02  0.92996097092E+01  0.10212460095E+02  0.17782416237E+02  0.51100000000E-03 0. -1.
        -11    1    3    3    0    0 -0.97175908148E+01  0.16734832653E+02  0.10995770175E+02  0.22257429258E+02  0.51100000000E-03 0.  1.
         12    1    3    3    0    0 -0.20992810052E+01  0.21987762228E+01  0.52913632974E+01  0.61024686121E+01  0.00000000000E+00 0. -1.
</event>
<event>
 7    1  0.1381440E-008  0.4614232E+02  0.7816164E-02  0.1320468E+00
        -11   -1    0    0    0    0  0.00000000000E+00  0.00000000000E+00  0.45593999997E+02  0.45594000000E+02  0.51100000000E-03 0. -1.
         11   -1    0    0    0    0 -0.00000000000E+00 -0.00000000000E+00 -0.45593999997E+02  0.45594000000E+02  0.51100000000E-03 0.  1.
    9900012    2    1    2    0    0 -0.18234686673E+02  0.87988842019E+01 -0.40239152675E+02  0.46142316863E+02  0.99999918094E+01 0.  0.
         12    1    1    2    0    0  0.18234686673E+02 -0.87988842019E+01  0.40239152675E+02  0.45045683137E+02  0.00000000000E+00 0. -1.
         11    1    3    3    0    0 -0.18574751507E+02  0.84912207494E+01 -0.36986528030E+02  0.42250745311E+02  0.51100000000E-03 0.  1.
        -11    1    3    3    0    0  0.24939261481E+00  0.10011305707E+01 -0.70474574580E+00  0.12494502484E+01  0.51100000000E-03 0. -1.
        -12    1    3    3    0    0  0.90672219378E-01 -0.69346711817E+00 -0.25478788994E+01  0.26421213033E+01  0.00000000000E+00 0.  1.
</event>
<event>
 7    1  0.1381440E-008  0.4614232E+02  0.7816164E-02  0.1320468E+00
        -11   -1    0    0    0    0  0.00000000000E+00  0.00000000000E+00  0.45593999997E+02  0.45594000000E+02  0.51100000000E-03 0. -1.
         11   -1    0    0    0    0 -0.00000000000E+00 -0.00000000000E+00 -0.45593999997E+02  0.45594000000E+02  0.51100000000E-03 0.  1.
    9900012    2    1    2    0    0  0.10771064425E+02 -0.25193061117E+02 -0.35754824381E+02  0.46142316258E+02  0.99999862926E+01 0.  0.
         12    1    1    2    0    0 -0.10771064425E+02  0.25193061117E+02  0.35754824381E+02  0.45045683742E+02  0.00000000000E+00 0. -1.
         11    1    3    3    0    0  0.90026623477E+00  0.40108494934E+00 -0.37257798500E+01  0.38539310037E+01  0.51100000000E-03 0. -1.
        -11    1    3    3    0    0  0.10139858222E+01 -0.52545640662E+01 -0.75273583713E+01  0.92357855694E+01  0.51100000000E-03 0.  1.
         12    1    3    3    0    0  0.88568123678E+01 -0.20339582000E+02 -0.24501686160E+02  0.33052599685E+02  0.00000000000E+00 0. -1.
</event>
<event>
 7    1  0.1381440E-008  0.4614232E+02  0.7816164E-02  0.1320468E+00
        -11   -1    0    0    0    0  0.00000000000E+00  0.00000000000E+00  0.45593999997E+02  0.45594000000E+02  0.51100000000E-03 0.  1.
         11   -1    0    0    0    0 -0.00000000000E+00 -0.00000000000E+00 -0.45593999997E+02  0.45594000000E+02  0.51100000000E-03 0. -1.
    9900012    2    1    2    0    0  0.12331210930E+02  0.66752521531E+01  0.42807659937E+02  0.46142317592E+02  0.99999984605E+01 0.  0.
         12    1    1    2    0    0 -0.12331210930E+02 -0.66752521531E+01 -0.42807659937E+02  0.45045682408E+02  0.00000000000E+00 0. -1.
         11    1    3    3    0    0  0.68137977476E-01 -0.20541876209E+01  0.61956505619E+01  0.65276654106E+01  0.51100000000E-03 0. -1.
        -11    1    3    3    0    0  0.73244425411E+01  0.49550296594E+01  0.23344033578E+02  0.24962846020E+02  0.51100000000E-03 0.  1.
         12    1    3    3    0    0  0.49386304113E+01  0.37744101146E+01  0.13267975797E+02  0.14651806162E+02  0.00000000000E+00 0. -1.
</event>
<event>
 7    1  0.1381440E-008  0.4614232E+02  0.7816164E-02  0.1320468E+00
        -11   -1    0    0    0    0  0.00000000000E+00  0.00000000000E+00  0.45593999997E+02  0.45594000000E+02  0.51100000000E-03 0.  1.
         11   -1    0    0    0    0 -0.00000000000E+00 -0.00000000000E+00 -0.45593999997E+02  0.45594000000E+02  0.51100000000E-03 0. -1.
    9900012    2    1    2    0    0  0.15110201258E+02 -0.31886076827E+02  0.28001303918E+02  0.46142322088E+02  0.10000039454E+02 0.  0.
         12    1    1    2    0    0 -0.15110201258E+02  0.31886076827E+02 -0.28001303918E+02  0.45045677912E+02  0.00000000000E+00 0. -1.
         11    1    3    3    0    0  0.52484137380E+01 -0.13206233711E+02  0.83172683772E+01  0.16465946954E+02  0.51100000000E-03 0. -1.
        -11    1    3    3    0    0  0.63935098571E+01 -0.11320074321E+02  0.16337271909E+02  0.20878876996E+02  0.51100000000E-03 0.  1.
        -12    1    3    3    0    0  0.34682776628E+01 -0.73597687957E+01  0.33467636310E+01  0.87974981372E+01  0.00000000000E+00 0.  1.
</event>
<event>
 7    1  0.1381440E-008  0.4614232E+02  0.7816164E-02  0.1320468E+00
        -11   -1    0    0    0    0  0.00000000000E+00  0.00000000000E+00  0.45593999997E+02  0.45594000000E+02  0.51100000000E-03 0. -1.
         11   -1    0    0    0    0 -0.00000000000E+00 -0.00000000000E+00 -0.45593999997E+02  0.45594000000E+02  0.51100000000E-03 0.  1.
    9900012    2    1    2    0    0 -0.10207848159E+02 -0.38246387326E+02 -0.21497144644E+02  0.46142317239E+02  0.99999952390E+01 0.  0.
         12    1    1    2    0    0  0.10207848159E+02  0.38246387326E+02  0.21497144644E+02  0.45045682761E+02  0.00000000000E+00 0. -1.
         11    1    3    3    0    0 -0.87661575165E+00 -0.72889717023E+01 -0.80770484743E+01  0.10914956526E+02  0.51100000000E-03 0. -1.
        -11    1    3    3    0    0 -0.71257078117E+01 -0.27892079492E+02 -0.12091097857E+02  0.31224004514E+02  0.51100000000E-03 0.  1.
         12    1    3    3    0    0 -0.22055245952E+01 -0.30653361319E+01 -0.13289983130E+01  0.40033561992E+01  0.00000000000E+00 0. -1.
</event>
<event>
 7    1  0.1381440E-008  0.4614232E+02  0.7816164E-02  0.1320468E+00
        -11   -1    0    0    0    0  0.00000000000E+00  0.00000000000E+00  0.45593999997E+02  0.45594000000E+02  0.51100000000E-03 0.  1.
         11   -1    0    0    0    0 -0.00000000000E+00 -0.00000000000E+00 -0.45593999997E+02  0.45594000000E+02  0.51100000000E-03 0. -1.
    9900012    2    1    2    0    0 -0.23325195386E+02 -0.22048628131E+02  0.31605486191E+02  0.46142317636E+02  0.99999988602E+01 0.  0.
         12    1    1    2    0    0  0.23325195386E+02  0.22048628131E+02 -0.31605486191E+02  0.45045682364E+02  0.00000000000E+00 0. -1.
         11    1    3    3    0    0 -0.22718769716E+01 -0.30048253999E+01  0.31468339384E+00  0.37801357856E+01  0.51100000000E-03 0. -1.
        -11    1    3    3    0    0 -0.17827947754E+02 -0.14593846109E+02  0.24616476417E+02  0.33716271692E+02  0.51100000000E-03 0.  1.
         12    1    3    3    0    0 -0.32253706603E+01 -0.44499566221E+01  0.66743263804E+01  0.86459101584E+01  0.00000000000E+00 0. -1.
</event>
<event>
 7    1  0.1381440E-008  0.4614232E+02  0.7816164E-02  0.1320468E+00
        -11   -1    0    0    0    0  0.00000000000E+00  0.00000000000E+00  0.45593999997E+02  0.45594000000E+02  0.51100000000E-03 0.  1.
         11   -1    0    0    0    0 -0.00000000000E+00 -0.00000000000E+00 -0.45593999997E+02  0.45594000000E+02  0.51100000000E-03 0. -1.
    9900012    2    1    2    0    0 -0.35278491845E+02  0.26387698998E+01  0.27885096105E+02  0.46142315654E+02  0.99999807843E+01 0.  0.
         12    1    1    2    0    0  0.35278491845E+02 -0.26387698998E+01 -0.27885096105E+02  0.45045684346E+02  0.00000000000E+00 0. -1.
         11    1    3    3    0    0 -0.76364126043E+01 -0.83666203423E+00  0.98243065188E+01  0.12471238898E+02  0.51100000000E-03 0. -1.
        -11    1    3    3    0    0 -0.13685255956E+02  0.82358304640E+00  0.12021888643E+02  0.18234317273E+02  0.51100000000E-03 0.  1.
        -12    1    3    3    0    0 -0.13956823284E+02  0.26518488876E+01  0.60389009439E+01  0.15436759483E+02  0.00000000000E+00 0.  1.
</event>
<event>
 7    1  0.1381440E-008  0.4614232E+02  0.7816164E-02  0.1320468E+00
        -11   -1    0    0    0    0  0.00000000000E+00  0.00000000000E+00  0.45593999997E+02  0.45594000000E+02  0.51100000000E-03 0.  1.
         11   -1    0    0    0    0 -0.00000000000E+00 -0.00000000000E+00 -0.45593999997E+02  0.45594000000E+02  0.51100000000E-03 0. -1.
    9900012    2    1    2    0    0  0.22639673522E+02  0.24815882067E+01  0.38863870581E+02  0.46142317258E+02  0.99999954104E+01 0.  0.
         12    1    1    2    0    0 -0.22639673522E+02 -0.24815882067E+01 -0.38863870581E+02  0.45045682742E+02  0.00000000000E+00 0. -1.
         11    1    3    3    0    0  0.15039042614E+01  0.33965382066E+00  0.47947743964E+00  0.16146181039E+01  0.51100000000E-03 0. -1.
        -11    1    3    3    0    0  0.48216250152E+01 -0.17631992905E+01  0.50034589400E+01  0.71687893783E+01  0.51100000000E-03 0.  1.
        -12    1    3    3    0    0  0.16314144245E+02  0.39051336765E+01  0.33380934201E+02  0.37358909776E+02  0.00000000000E+00 0.  1.
</event>
<event>
 7    1  0.1381440E-008  0.4614232E+02  0.7816164E-02  0.1320468E+00
        -11   -1    0    0    0    0  0.00000000000E+00  0.00000000000E+00  0.45593999997E+02  0.45594000000E+02  0.51100000000E-03 0. -1.
         11   -1    0    0    0    0 -0.00000000000E+00 -0.00000000000E+00 -0.45593999997E+02  0.45594000000E+02  0.51100000000E-03 0.  1.
    9900012    2    1    2    0    0  0.44345119011E+02  0.64954456941E+01 -0.45202976759E+01  0.46142317788E+02  0.10000000248E+02 0.  0.
         12    1    1    2    0    0 -0.44345119011E+02 -0.64954456941E+01  0.45202976759E+01  0.45045682212E+02  0.00000000000E+00 0. -1.
         11    1    3    3    0    0  0.15439952566E+02  0.26673471365E+01 -0.53107578228E+01  0.16544214242E+02  0.51100000000E-03 0. -1.
        -11    1    3    3    0    0  0.24691146771E+02  0.20150522355E+01 -0.67438876722E+00  0.24782412410E+02  0.51100000000E-03 0.  1.
         12    1    3    3    0    0  0.42140196736E+01  0.18130463221E+01  0.14648489142E+01  0.48156911359E+01  0.00000000000E+00 0. -1.
</event>
<event>
 7    1  0.1381440E-008  0.4614232E+02  0.7816164E-02  0.1320468E+00
        -11   -1    0    0    0    0  0.00000000000E+00  0.00000000000E+00  0.45593999997E+02  0.45594000000E+02  0.51100000000E-03 0.  1.
         11   -1    0    0    0    0 -0.00000000000E+00 -0.00000000000E+00 -0.45593999997E+02  0.45594000000E+02  0.51100000000E-03 0. -1.
    9900012    2    1    2    0    0  0.12793459859E+02  0.11464565979E+02  0.41641381564E+02  0.46142317113E+02  0.99999940879E+01 0.  0.
         12    1    1    2    0    0 -0.12793459859E+02 -0.11464565979E+02 -0.41641381564E+02  0.45045682887E+02  0.00000000000E+00 0. -1.
         11    1    3    3    0    0  0.66609052255E+01  0.72102329099E+01  0.29798131264E+02  0.31373296673E+02  0.51100000000E-03 0. -1.
        -11    1    3    3    0    0  0.50061650469E+01  0.29824345278E+01  0.11691587190E+02  0.13063300328E+02  0.51100000000E-03 0.  1.
         12    1    3    3    0    0  0.11263895870E+01  0.12718985411E+01  0.15166310985E+00  0.17057201117E+01  0.00000000000E+00 0. -1.
</event>
<event>
 7    1  0.1381440E-008  0.4614232E+02  0.7816164E-02  0.1320468E+00
        -11   -1    0    0    0    0  0.00000000000E+00  0.00000000000E+00  0.45593999997E+02  0.45594000000E+02  0.51100000000E-03 0.  1.
         11   -1    0    0    0    0 -0.00000000000E+00 -0.00000000000E+00 -0.45593999997E+02  0.45594000000E+02  0.51100000000E-03 0. -1.
    9900012    2    1    2    0    0 -0.53749074984E+01  0.36491218109E+02  0.25857587762E+02  0.46142317915E+02  0.10000001401E+02 0.  0.
         12    1    1    2    0    0  0.53749074984E+01 -0.36491218109E+02 -0.25857587762E+02  0.45045682085E+02  0.00000000000E+00 0. -1.
         11    1    3    3    0    0 -0.57100154435E+00  0.55330554543E+00  0.28198141026E+01  0.29297681861E+01  0.51100000000E-03 0. -1.
        -11    1    3    3    0    0 -0.46984853616E+01  0.17667645564E+02  0.11098245084E+02  0.21386736747E+02  0.51100000000E-03 0.  1.
         12    1    3    3    0    0 -0.10542059243E+00  0.18270266999E+02  0.11939528576E+02  0.21825812982E+02  0.00000000000E+00 0. -1.
</event>
<event>
 7    1  0.1381440E-008  0.4614232E+02  0.7816164E-02  0.1320468E+00
        -11   -1    0    0    0    0  0.00000000000E+00  0.00000000000E+00  0.45593999997E+02  0.45594000000E+02  0.51100000000E-03 0.  1.
         11   -1    0    0    0    0 -0.00000000000E+00 -0.00000000000E+00 -0.45593999997E+02  0.45594000000E+02  0.51100000000E-03 0. -1.
    9900012    2    1    2    0    0 -0.26671451308E+02 -0.52942580742E+01  0.35912641415E+02  0.46142319887E+02  0.10000019389E+02 0.  0.
         12    1    1    2    0    0  0.26671451308E+02  0.52942580742E+01 -0.35912641415E+02  0.45045680113E+02  0.00000000000E+00 0. -1.
         11    1    3    3    0    0 -0.82045440992E+01 -0.34600025094E+01  0.92000441375E+01  0.12803396957E+02  0.51100000000E-03 0. -1.
        -11    1    3    3    0    0 -0.75321260986E+01 -0.96580279052E+00  0.52383332960E+01  0.92252823576E+01  0.51100000000E-03 0.  1.
        -12    1    3    3    0    0 -0.10934781110E+02 -0.86845277426E+00  0.21474263981E+02  0.24113640573E+02  0.00000000000E+00 0.  1.
</event>
<event>
 7    1  0.1381440E-008  0.4614232E+02  0.7816164E-02  0.1320468E+00
        -11   -1    0    0    0    0  0.00000000000E+00  0.00000000000E+00  0.45593999997E+02  0.45594000000E+02  0.51100000000E-03 0. -1.
         11   -1    0    0    0    0 -0.00000000000E+00 -0.00000000000E+00 -0.45593999997E+02  0.45594000000E+02  0.51100000000E-03 0.  1.
    9900012    2    1    2    0    0  0.40794854936E+02  0.19082251056E+02  0.87234538221E+00  0.46142317842E+02  0.10000000737E+02 0.  0.
         12    1    1    2    0    0 -0.40794854936E+02 -0.19082251056E+02 -0.87234538221E+00  0.45045682158E+02  0.00000000000E+00 0. -1.
         11    1    3    3    0    0  0.16033659748E+02  0.42739895149E+01 -0.31694304413E+01  0.16893505287E+02  0.51100000000E-03 0. -1.
        -11    1    3    3    0    0  0.21135181507E+02  0.13617300928E+02  0.37613979115E+01  0.25421937306E+02  0.51100000000E-03 0.  1.
        -12    1    3    3    0    0  0.36260136815E+01  0.11909606130E+01  0.28037791200E+00  0.38268752493E+01  0.00000000000E+00 0.  1.
</event>
<event>
 7    1  0.1381440E-008  0.4614232E+02  0.7816164E-02  0.1320468E+00
        -11   -1    0    0    0    0  0.00000000000E+00  0.00000000000E+00  0.45593999997E+02  0.45594000000E+02  0.51100000000E-03 0. -1.
         11   -1    0    0    0    0 -0.00000000000E+00 -0.00000000000E+00 -0.45593999997E+02  0.45594000000E+02  0.51100000000E-03 0.  1.
    9900012    2    1    2    0    0  0.31307467554E+02  0.16403394849E+02 -0.27926415733E+02  0.46142316712E+02  0.99999904334E+01 0.  0.
         12    1    1    2    0    0 -0.31307467554E+02 -0.16403394849E+02  0.27926415733E+02  0.45045683288E+02  0.00000000000E+00 0. -1.
         11    1    3    3    0    0  0.61787047942E+01  0.63566879816E+01 -0.94416411463E+01  0.12951002387E+02  0.51100000000E-03 0. -1.
        -11    1    3    3    0    0  0.10452109881E+02  0.54619357077E+01 -0.52712117298E+01  0.12917624240E+02  0.51100000000E-03 0.  1.
         12    1    3    3    0    0  0.14676652878E+02  0.45847711595E+01 -0.13213562857E+02  0.20273690085E+02  0.00000000000E+00 0. -1.
</event>
<event>
 7    1  0.1381440E-008  0.4614231E+02  0.7816164E-02  0.1320468E+00
        -11   -1    0    0    0    0  0.00000000000E+00  0.00000000000E+00  0.45593999997E+02  0.45594000000E+02  0.51100000000E-03 0. -1.
         11   -1    0    0    0    0 -0.00000000000E+00 -0.00000000000E+00 -0.45593999997E+02  0.45594000000E+02  0.51100000000E-03 0.  1.
    9900012    2    1    2    0    0  0.13750431092E+01 -0.40487907172E+02 -0.19696518714E+02  0.46142309639E+02  0.99999259324E+01 0.  0.
         12    1    1    2    0    0 -0.13750431092E+01  0.40487907172E+02  0.19696518714E+02  0.45045690361E+02  0.00000000000E+00 0. -1.
         11    1    3    3    0    0 -0.10537197208E+01 -0.23917611163E+02 -0.74834542185E+01  0.25083152439E+02  0.51100000000E-03 0.  1.
        -11    1    3    3    0    0  0.10061453729E+01 -0.15987001661E+01 -0.25870182611E+01  0.32032537328E+01  0.51100000000E-03 0. -1.
         12    1    3    3    0    0  0.14226174571E+01 -0.14971595843E+02 -0.96260462340E+01  0.17855903466E+02  0.00000000000E+00 0. -1.
</event>
<event>
 7    1  0.1381440E-008  0.4614232E+02  0.7816164E-02  0.1320468E+00
        -11   -1    0    0    0    0  0.00000000000E+00  0.00000000000E+00  0.45593999997E+02  0.45594000000E+02  0.51100000000E-03 0.  1.
         11   -1    0    0    0    0 -0.00000000000E+00 -0.00000000000E+00 -0.45593999997E+02  0.45594000000E+02  0.51100000000E-03 0. -1.
    9900012    2    1    2    0    0 -0.10115069356E+02  0.32396648773E+02  0.29618510509E+02  0.46142316028E+02  0.99999841927E+01 0.  0.
         12    1    1    2    0    0  0.10115069356E+02 -0.32396648773E+02 -0.29618510509E+02  0.45045683972E+02  0.00000000000E+00 0. -1.
         11    1    3    3    0    0 -0.68555864033E+01  0.27026272154E+02  0.22049908998E+02  0.35547390039E+02  0.51100000000E-03 0. -1.
        -11    1    3    3    0    0 -0.28915414284E+01  0.52804394548E+01  0.45336949192E+01  0.75364741457E+01  0.51100000000E-03 0.  1.
         12    1    3    3    0    0 -0.36794152457E+00  0.89937163991E-01  0.30349065915E+01  0.30584518434E+01  0.00000000000E+00 0. -1.
</event>
<event>
 7    1  0.1381440E-008  0.4614232E+02  0.7816164E-02  0.1320468E+00
        -11   -1    0    0    0    0  0.00000000000E+00  0.00000000000E+00  0.45593999997E+02  0.45594000000E+02  0.51100000000E-03 0.  1.
         11   -1    0    0    0    0 -0.00000000000E+00 -0.00000000000E+00 -0.45593999997E+02  0.45594000000E+02  0.51100000000E-03 0. -1.
    9900012    2    1    2    0    0  0.19647212022E+02 -0.41814107649E+01  0.40318934762E+02  0.46142316116E+02  0.99999849968E+01 0.  0.
         12    1    1    2    0    0 -0.19647212022E+02  0.41814107649E+01 -0.40318934762E+02  0.45045683884E+02  0.00000000000E+00 0. -1.
         11    1    3    3    0    0  0.12022458746E+02  0.22780781521E+01  0.19924607701E+02  0.23382026146E+02  0.51100000000E-03 0. -1.
        -11    1    3    3    0    0  0.60153633193E+01 -0.42419477668E+01  0.14575683273E+02  0.16328786234E+02  0.51100000000E-03 0.  1.
         12    1    3    3    0    0  0.16093899576E+01 -0.22175411502E+01  0.58186437876E+01  0.64315037368E+01  0.00000000000E+00 0. -1.
</event>
<event>
 7    1  0.1381440E-008  0.4614232E+02  0.7816164E-02  0.1320468E+00
        -11   -1    0    0    0    0  0.00000000000E+00  0.00000000000E+00  0.45593999997E+02  0.45594000000E+02  0.51100000000E-03 0.  1.
         11   -1    0    0    0    0 -0.00000000000E+00 -0.00000000000E+00 -0.45593999997E+02  0.45594000000E+02  0.51100000000E-03 0. -1.
    9900012    2    1    2    0    0  0.68918532325E+01  0.36491266974E+02 -0.25495161872E+02  0.46142317796E+02  0.10000000320E+02 0.  0.
         12    1    1    2    0    0 -0.68918532325E+01 -0.36491266974E+02  0.25495161872E+02  0.45045682204E+02  0.00000000000E+00 0. -1.
         11    1    3    3    0    0 -0.35738335928E-01  0.31924536268E-01 -0.94528996615E+00  0.94650398092E+00  0.51100000000E-03 0. -1.
        -11    1    3    3    0    0  0.52908427903E+01  0.35093445335E+02 -0.24379976068E+02  0.43057242785E+02  0.51100000000E-03 0.  1.
        -12    1    3    3    0    0  0.16367487781E+01  0.13658971025E+01 -0.16989583838E+00  0.21385710307E+01  0.00000000000E+00 0.  1.
</event>
<event>
 7    1  0.1381440E-008  0.4614232E+02  0.7816164E-02  0.1320468E+00
        -11   -1    0    0    0    0  0.00000000000E+00  0.00000000000E+00  0.45593999997E+02  0.45594000000E+02  0.51100000000E-03 0. -1.
         11   -1    0    0    0    0 -0.00000000000E+00 -0.00000000000E+00 -0.45593999997E+02  0.45594000000E+02  0.51100000000E-03 0.  1.
    9900012    2    1    2    0    0  0.41206508305E+02  0.12185476302E+02 -0.13514855957E+02  0.46142317733E+02  0.99999997439E+01 0.  0.
         12    1    1    2    0    0 -0.41206508305E+02 -0.12185476302E+02  0.13514855957E+02  0.45045682267E+02  0.00000000000E+00 0. -1.
         11    1    3    3    0    0  0.63351870758E+01  0.37159015773E+01 -0.31134334811E+01  0.79772168154E+01  0.51100000000E-03 0.  1.
        -11    1    3    3    0    0  0.57901217415E+01 -0.14938796902E+01 -0.16976460202E+01  0.62160428394E+01  0.51100000000E-03 0. -1.
        -12    1    3    3    0    0  0.29081199487E+02  0.99634544151E+01 -0.87037764555E+01  0.31949058078E+02  0.00000000000E+00 0.  1.
</event>
<event>
 7    1  0.1381440E-008  0.4614232E+02  0.7816164E-02  0.1320468E+00
        -11   -1    0    0    0    0  0.00000000000E+00  0.00000000000E+00  0.45593999997E+02  0.45594000000E+02  0.51100000000E-03 0. -1.
         11   -1    0    0    0    0 -0.00000000000E+00 -0.00000000000E+00 -0.45593999997E+02  0.45594000000E+02  0.51100000000E-03 0.  1.
    9900012    2    1    2    0    0 -0.36077321092E+02 -0.23109114948E+02 -0.13910755100E+02  0.46142318761E+02  0.10000009115E+02 0.  0.
         12    1    1    2    0    0  0.36077321092E+02  0.23109114948E+02  0.13910755100E+02  0.45045681239E+02  0.00000000000E+00 0. -1.
         11    1    3    3    0    0 -0.25745653626E+01 -0.15891298328E+01  0.11337197578E+01  0.32309505075E+01  0.51100000000E-03 0. -1.
        -11    1    3    3    0    0 -0.23007085516E+02 -0.17636743090E+02 -0.10485240058E+02  0.30827276073E+02  0.51100000000E-03 0.  1.
         12    1    3    3    0    0 -0.10495670213E+02 -0.38832420254E+01 -0.45592347992E+01  0.12084092180E+02  0.00000000000E+00 0. -1.
</event>
<event>
 7    1  0.1381440E-008  0.4614232E+02  0.7816164E-02  0.1320468E+00
        -11   -1    0    0    0    0  0.00000000000E+00  0.00000000000E+00  0.45593999997E+02  0.45594000000E+02  0.51100000000E-03 0.  1.
         11   -1    0    0    0    0 -0.00000000000E+00 -0.00000000000E+00 -0.45593999997E+02  0.45594000000E+02  0.51100000000E-03 0. -1.
    9900012    2    1    2    0    0  0.34190089187E+02  0.21344363385E+02  0.20113911075E+02  0.46142318013E+02  0.10000002295E+02 0.  0.
         12    1    1    2    0    0 -0.34190089187E+02 -0.21344363385E+02 -0.20113911075E+02  0.45045681987E+02  0.00000000000E+00 0. -1.
         11    1    3    3    0    0  0.25911892192E+01  0.19243862228E+01  0.35608795505E+01  0.48059741301E+01  0.51100000000E-03 0. -1.
        -11    1    3    3    0    0  0.23729817258E+02  0.13907009318E+02  0.84668294078E+01  0.28778400507E+02  0.51100000000E-03 0.  1.
        -12    1    3    3    0    0  0.78690827105E+01  0.55129678443E+01  0.80862021168E+01  0.12557943376E+02  0.00000000000E+00 0.  1.
</event>
<event>
 7    1  0.1381440E-008  0.4614232E+02  0.7816164E-02  0.1320468E+00
        -11   -1    0    0    0    0  0.00000000000E+00  0.00000000000E+00  0.45593999997E+02  0.45594000000E+02  0.51100000000E-03 0.  1.
         11   -1    0    0    0    0 -0.00000000000E+00 -0.00000000000E+00 -0.45593999997E+02  0.45594000000E+02  0.51100000000E-03 0. -1.
    9900012    2    1    2    0    0 -0.63146893330E+01  0.36696082841E+02  0.25350255259E+02  0.46142320530E+02  0.10000025247E+02 0.  0.
         12    1    1    2    0    0  0.63146893330E+01 -0.36696082841E+02 -0.25350255259E+02  0.45045679470E+02  0.00000000000E+00 0. -1.
         11    1    3    3    0    0  0.16325832084E+01  0.31994120903E+01  0.28153160502E+01  0.45637233022E+01  0.51100000000E-03 0. -1.
        -11    1    3    3    0    0 -0.18339027230E+01  0.14365078750E+02  0.64782625243E+01  0.15864632750E+02  0.51100000000E-03 0.  1.
         12    1    3    3    0    0 -0.61133698184E+01  0.19131592000E+02  0.16056676684E+02  0.25713964477E+02  0.00000000000E+00 0. -1.
</event>
<event>
 7    1  0.1381440E-008  0.4614232E+02  0.7816164E-02  0.1320468E+00
        -11   -1    0    0    0    0  0.00000000000E+00  0.00000000000E+00  0.45593999997E+02  0.45594000000E+02  0.51100000000E-03 0.  1.
         11   -1    0    0    0    0 -0.00000000000E+00 -0.00000000000E+00 -0.45593999997E+02  0.45594000000E+02  0.51100000000E-03 0. -1.
    9900012    2    1    2    0    0 -0.13797062050E+02  0.42726218800E+02 -0.36365642501E+01  0.46142319921E+02  0.10000019699E+02 0.  0.
         12    1    1    2    0    0  0.13797062050E+02 -0.42726218800E+02  0.36365642501E+01  0.45045680079E+02  0.00000000000E+00 0. -1.
         11    1    3    3    0    0  0.21527079790E+00  0.32654286194E+01  0.52720029027E+00  0.33147105443E+01  0.51100000000E-03 0. -1.
        -11    1    3    3    0    0 -0.13667028161E+02  0.28537155046E+02 -0.21454599105E+01  0.31713717464E+02  0.51100000000E-03 0.  1.
        -12    1    3    3    0    0 -0.34530468740E+00  0.10923635135E+02 -0.20183046298E+01  0.11113891913E+02  0.00000000000E+00 0.  1.
</event>
<event>
 7    1  0.1381440E-008  0.4614232E+02  0.7816164E-02  0.1320468E+00
        -11   -1    0    0    0    0  0.00000000000E+00  0.00000000000E+00  0.45593999997E+02  0.45594000000E+02  0.51100000000E-03 0.  1.
         11   -1    0    0    0    0 -0.00000000000E+00 -0.00000000000E+00 -0.45593999997E+02  0.45594000000E+02  0.51100000000E-03 0. -1.
    9900012    2    1    2    0    0  0.81599287874E+01  0.22761118077E+02  0.38006062668E+02  0.46142315041E+02  0.99999751946E+01 0.  0.
         12    1    1    2    0    0 -0.81599287874E+01 -0.22761118077E+02 -0.38006062668E+02  0.45045684959E+02  0.00000000000E+00 0. -1.
         11    1    3    3    0    0  0.40487103273E+01  0.12841208495E+02  0.28006860590E+02  0.31075278459E+02  0.51100000000E-03 0. -1.
        -11    1    3    3    0    0  0.33499598413E+01  0.81864244459E+01  0.97384679933E+01  0.13155893556E+02  0.51100000000E-03 0.  1.
         12    1    3    3    0    0  0.76125861877E+00  0.17334851363E+01  0.26073408456E+00  0.19111430259E+01  0.00000000000E+00 0. -1.
</event>
<event>
 7    1  0.1381440E-008  0.4614232E+02  0.7816164E-02  0.1320468E+00
        -11   -1    0    0    0    0  0.00000000000E+00  0.00000000000E+00  0.45593999997E+02  0.45594000000E+02  0.51100000000E-03 0.  1.
         11   -1    0    0    0    0 -0.00000000000E+00 -0.00000000000E+00 -0.45593999997E+02  0.45594000000E+02  0.51100000000E-03 0. -1.
    9900012    2    1    2    0    0 -0.22226799021E+01 -0.33208960726E+02  0.30353552112E+02  0.46142317585E+02  0.99999983928E+01 0.  0.
         12    1    1    2    0    0  0.22226799021E+01  0.33208960726E+02 -0.30353552112E+02  0.45045682415E+02  0.00000000000E+00 0. -1.
         11    1    3    3    0    0  0.69623656117E+00 -0.15932778546E+01  0.23248315445E+01  0.29031227399E+01  0.51100000000E-03 0. -1.
        -11    1    3    3    0    0 -0.59722579573E+01 -0.18899183308E+02  0.16038899744E+02  0.25496927267E+02  0.51100000000E-03 0.  1.
        -12    1    3    3    0    0  0.30533414940E+01 -0.12716499563E+02  0.11989820823E+02  0.17742267578E+02  0.00000000000E+00 0.  1.
</event>
<event>
 7    1  0.1381440E-008  0.4614232E+02  0.7816164E-02  0.1320468E+00
        -11   -1    0    0    0    0  0.00000000000E+00  0.00000000000E+00  0.45593999997E+02  0.45594000000E+02  0.51100000000E-03 0.  1.
         11   -1    0    0    0    0 -0.00000000000E+00 -0.00000000000E+00 -0.45593999997E+02  0.45594000000E+02  0.51100000000E-03 0. -1.
    9900012    2    1    2    0    0  0.29092483174E+02  0.10487790169E+02  0.32752820171E+02  0.46142317088E+02  0.99999938578E+01 0.  0.
         12    1    1    2    0    0 -0.29092483174E+02 -0.10487790169E+02 -0.32752820171E+02  0.45045682912E+02  0.00000000000E+00 0. -1.
         11    1    3    3    0    0  0.11591785911E+02  0.15130599898E+01  0.79391628367E+01  0.14131141424E+02  0.51100000000E-03 0. -1.
        -11    1    3    3    0    0  0.61837395927E+00  0.17437097150E+01  0.25359391087E+01  0.31390918030E+01  0.51100000000E-03 0.  1.
         12    1    3    3    0    0  0.16882323304E+02  0.72310204644E+01  0.22277718226E+02  0.28872083861E+02  0.00000000000E+00 0. -1.
</event>
<event>
 7    1  0.1381440E-008  0.4614231E+02  0.7816164E-02  0.1320468E+00
        -11   -1    0    0    0    0  0.00000000000E+00  0.00000000000E+00  0.45593999997E+02  0.45594000000E+02  0.51100000000E-03 0. -1.
         11   -1    0    0    0    0 -0.00000000000E+00 -0.00000000000E+00 -0.45593999997E+02  0.45594000000E+02  0.51100000000E-03 0.  1.
    9900012    2    1    2    0    0 -0.41372484325E+02 -0.62837536148E+01 -0.16671709548E+02  0.46142312992E+02  0.99999565154E+01 0.  0.
         12    1    1    2    0    0  0.41372484325E+02  0.62837536148E+01  0.16671709548E+02  0.45045687008E+02  0.00000000000E+00 0. -1.
         11    1    3    3    0    0 -0.21536156159E+02 -0.77131929092E+01 -0.74292503535E+01  0.24051884084E+02  0.51100000000E-03 0. -1.
        -11    1    3    3    0    0 -0.74952313400E+01  0.18185659863E+01 -0.37704917052E+01  0.85850033807E+01  0.51100000000E-03 0.  1.
         12    1    3    3    0    0 -0.12341096827E+02 -0.38912669184E+00 -0.54719674890E+01  0.13505425527E+02  0.00000000000E+00 0. -1.
</event>
<event>
 7    1  0.1381440E-008  0.4614232E+02  0.7816164E-02  0.1320468E+00
        -11   -1    0    0    0    0  0.00000000000E+00  0.00000000000E+00  0.45593999997E+02  0.45594000000E+02  0.51100000000E-03 0.  1.
         11   -1    0    0    0    0 -0.00000000000E+00 -0.00000000000E+00 -0.45593999997E+02  0.45594000000E+02  0.51100000000E-03 0. -1.
    9900012    2    1    2    0    0  0.23237504238E+02 -0.12843514926E+02  0.36389228792E+02  0.46142318176E+02  0.10000003785E+02 0.  0.
         12    1    1    2    0    0 -0.23237504238E+02  0.12843514926E+02 -0.36389228792E+02  0.45045681824E+02  0.00000000000E+00 0. -1.
         11    1    3    3    0    0  0.15660515180E+02 -0.84210900808E+01  0.17793128858E+02  0.25154759563E+02  0.51100000000E-03 0. -1.
        -11    1    3    3    0    0  0.79860829384E+01 -0.42788090551E+01  0.16280377830E+02  0.18631597628E+02  0.51100000000E-03 0.  1.
         12    1    3    3    0    0 -0.40909388024E+00 -0.14361579009E+00  0.23157221047E+01  0.23559609852E+01  0.00000000000E+00 0. -1.
</event>
<event>
 7    1  0.1381440E-008  0.4614232E+02  0.7816164E-02  0.1320468E+00
        -11   -1    0    0    0    0  0.00000000000E+00  0.00000000000E+00  0.45593999997E+02  0.45594000000E+02  0.51100000000E-03 0.  1.
         11   -1    0    0    0    0 -0.00000000000E+00 -0.00000000000E+00 -0.45593999997E+02  0.45594000000E+02  0.51100000000E-03 0. -1.
    9900012    2    1    2    0    0  0.73554912311E+01  0.15405874460E+02  0.41685359081E+02  0.46142318955E+02  0.10000010885E+02 0.  0.
         12    1    1    2    0    0 -0.73554912311E+01 -0.15405874460E+02 -0.41685359081E+02  0.45045681045E+02  0.00000000000E+00 0. -1.
         11    1    3    3    0    0  0.26327678513E+01  0.31800336934E+01  0.68310405350E+01  0.79816787646E+01  0.51100000000E-03 0. -1.
        -11    1    3    3    0    0  0.39853582520E+01  0.11744179184E+02  0.35116140262E+02  0.37241806243E+02  0.51100000000E-03 0.  1.
        -12    1    3    3    0    0  0.73736512788E+00  0.48166158197E+00 -0.26182171580E+00  0.91883394703E+00  0.00000000000E+00 0.  1.
</event>
<event>
 7    1  0.1381440E-008  0.4614231E+02  0.7816164E-02  0.1320468E+00
        -11   -1    0    0    0    0  0.00000000000E+00  0.00000000000E+00  0.45593999997E+02  0.45594000000E+02  0.51100000000E-03 0.  1.
         11   -1    0    0    0    0 -0.00000000000E+00 -0.00000000000E+00 -0.45593999997E+02  0.45594000000E+02  0.51100000000E-03 0. -1.
    9900012    2    1    2    0    0  0.18328776724E+01 -0.37961640978E+02  0.24179927412E+02  0.46142306355E+02  0.99998959852E+01 0.  0.
         12    1    1    2    0    0 -0.18328776724E+01  0.37961640978E+02 -0.24179927412E+02  0.45045693645E+02  0.00000000000E+00 0. -1.
         11    1    3    3    0    0  0.29303752557E+00 -0.78916502990E-01  0.88420688874E+00  0.93483735968E+00  0.51100000000E-03 0. -1.
        -11    1    3    3    0    0  0.22640801726E+01 -0.11244901880E+02  0.10878560076E+02  0.15808761713E+02  0.51100000000E-03 0.  1.
        -12    1    3    3    0    0 -0.72424002576E+00 -0.26637822596E+02  0.12417160447E+02  0.29398707281E+02  0.00000000000E+00 0.  1.
</event>
<event>
 7    1  0.1381440E-008  0.4614232E+02  0.7816164E-02  0.1320468E+00
        -11   -1    0    0    0    0  0.00000000000E+00  0.00000000000E+00  0.45593999997E+02  0.45594000000E+02  0.51100000000E-03 0.  1.
         11   -1    0    0    0    0 -0.00000000000E+00 -0.00000000000E+00 -0.45593999997E+02  0.45594000000E+02  0.51100000000E-03 0. -1.
    9900012    2    1    2    0    0 -0.29595831094E+02  0.20684382374E+02  0.26932444511E+02  0.46142318080E+02  0.10000002904E+02 0.  0.
         12    1    1    2    0    0  0.29595831094E+02 -0.20684382374E+02 -0.26932444511E+02  0.45045681920E+02  0.00000000000E+00 0. -1.
         11    1    3    3    0    0 -0.14066456166E+02  0.73869139350E+01  0.68009295532E+01  0.17282486210E+02  0.51100000000E-03 0. -1.
        -11    1    3    3    0    0 -0.31552653633E+01  0.41339622116E+01  0.62286822441E+01  0.81142976183E+01  0.51100000000E-03 0.  1.
        -12    1    3    3    0    0 -0.12374109565E+02  0.91635062274E+01  0.13902832714E+02  0.20745534251E+02  0.00000000000E+00 0.  1.
</event>
<event>
 7    1  0.1381440E-008  0.4614231E+02  0.7816164E-02  0.1320468E+00
        -11   -1    0    0    0    0  0.00000000000E+00  0.00000000000E+00  0.45593999997E+02  0.45594000000E+02  0.51100000000E-03 0. -1.
         11   -1    0    0    0    0 -0.00000000000E+00 -0.00000000000E+00 -0.45593999997E+02  0.45594000000E+02  0.51100000000E-03 0.  1.
    9900012    2    1    2    0    0  0.37809791072E+00  0.19631193025E+02 -0.40541185232E+02  0.46142307668E+02  0.99999079668E+01 0.  0.
         12    1    1    2    0    0 -0.37809791072E+00 -0.19631193025E+02  0.40541185232E+02  0.45045692332E+02  0.00000000000E+00 0. -1.
         11    1    3    3    0    0 -0.36264733932E+00  0.86249736425E+01 -0.21883250292E+02  0.23524419803E+02  0.51100000000E-03 0.  1.
        -11    1    3    3    0    0 -0.25120869902E+01  0.72724777113E+01 -0.12930864143E+02  0.15046818961E+02  0.51100000000E-03 0. -1.
         12    1    3    3    0    0  0.32528322402E+01  0.37337416709E+01 -0.57270707967E+01  0.75710689046E+01  0.00000000000E+00 0. -1.
</event>
<event>
 7    1  0.1381440E-008  0.4614232E+02  0.7816164E-02  0.1320468E+00
        -11   -1    0    0    0    0  0.00000000000E+00  0.00000000000E+00  0.45593999997E+02  0.45594000000E+02  0.51100000000E-03 0.  1.
         11   -1    0    0    0    0 -0.00000000000E+00 -0.00000000000E+00 -0.45593999997E+02  0.45594000000E+02  0.51100000000E-03 0. -1.
    9900012    2    1    2    0    0  0.24574853538E+02  0.37117014539E+02 -0.68932772004E+01  0.46142318017E+02  0.10000002336E+02 0.  0.
         12    1    1    2    0    0 -0.24574853538E+02 -0.37117014539E+02  0.68932772004E+01  0.45045681983E+02  0.00000000000E+00 0. -1.
         11    1    3    3    0    0  0.16508776715E+01  0.51722353819E+01 -0.85816830416E-01  0.54299890167E+01  0.51100000000E-03 0. -1.
        -11    1    3    3    0    0  0.53485593767E+01  0.13634662983E+02 -0.39651596754E+01  0.15173450945E+02  0.51100000000E-03 0.  1.
         12    1    3    3    0    0  0.17575416490E+02  0.18310116175E+02 -0.28423006946E+01  0.25538878056E+02  0.00000000000E+00 0. -1.
</event>
<event>
 7    1  0.1381440E-008  0.4614232E+02  0.7816164E-02  0.1320468E+00
        -11   -1    0    0    0    0  0.00000000000E+00  0.00000000000E+00  0.45593999997E+02  0.45594000000E+02  0.51100000000E-03 0. -1.
         11   -1    0    0    0    0 -0.00000000000E+00 -0.00000000000E+00 -0.45593999997E+02  0.45594000000E+02  0.51100000000E-03 0.  1.
    9900012    2    1    2    0    0  0.17559280242E+02  0.14251336348E+02 -0.38957471265E+02  0.46142317880E+02  0.10000001084E+02 0.  0.
         12    1    1    2    0    0 -0.17559280242E+02 -0.14251336348E+02  0.38957471265E+02  0.45045682120E+02  0.00000000000E+00 0. -1.
         11    1    3    3    0    0  0.83241608933E+01  0.10249696023E+01 -0.11035514582E+02  0.13860909047E+02  0.51100000000E-03 0. -1.
        -11    1    3    3    0    0  0.84280497491E+01  0.12397558666E+02 -0.26520023146E+02  0.30463800016E+02  0.51100000000E-03 0.  1.
        -12    1    3    3    0    0  0.80706959946E+00  0.82880807994E+00 -0.14019335363E+01  0.18176088171E+01  0.00000000000E+00 0.  1.
</event>
<event>
 7    1  0.1381440E-008  0.4614232E+02  0.7816164E-02  0.1320468E+00
        -11   -1    0    0    0    0  0.00000000000E+00  0.00000000000E+00  0.45593999997E+02  0.45594000000E+02  0.51100000000E-03 0.  1.
         11   -1    0    0    0    0 -0.00000000000E+00 -0.00000000000E+00 -0.45593999997E+02  0.45594000000E+02  0.51100000000E-03 0. -1.
    9900012    2    1    2    0    0 -0.10781218591E+02  0.37466739142E+02  0.22563735190E+02  0.46142319164E+02  0.10000012792E+02 0.  0.
         12    1    1    2    0    0  0.10781218591E+02 -0.37466739142E+02 -0.22563735190E+02  0.45045680836E+02  0.00000000000E+00 0. -1.
         11    1    3    3    0    0 -0.74118026962E+00  0.88357982230E+00 -0.13201848154E+00  0.11608146428E+01  0.51100000000E-03 0. -1.
        -11    1    3    3    0    0 -0.29645290720E+01  0.25113501333E+02  0.16093948163E+02  0.29974848616E+02  0.51100000000E-03 0.  1.
        -12    1    3    3    0    0 -0.70755092497E+01  0.11469657987E+02  0.66018055084E+01  0.15006655905E+02  0.00000000000E+00 0.  1.
</event>
<event>
 7    1  0.1381440E-008  0.4614232E+02  0.7816164E-02  0.1320468E+00
        -11   -1    0    0    0    0  0.00000000000E+00  0.00000000000E+00  0.45593999997E+02  0.45594000000E+02  0.51100000000E-03 0.  1.
         11   -1    0    0    0    0 -0.00000000000E+00 -0.00000000000E+00 -0.45593999997E+02  0.45594000000E+02  0.51100000000E-03 0. -1.
    9900012    2    1    2    0    0 -0.22735365599E+02 -0.14819115051E+02  0.35952895162E+02  0.46142315519E+02  0.99999795541E+01 0.  0.
         12    1    1    2    0    0  0.22735365599E+02  0.14819115051E+02 -0.35952895162E+02  0.45045684481E+02  0.00000000000E+00 0. -1.
         11    1    3    3    0    0 -0.15478078651E+02 -0.82771159713E+01  0.28109190110E+02  0.33139223534E+02  0.51100000000E-03 0.  1.
        -11    1    3    3    0    0 -0.34639491806E+01 -0.52699888610E+01  0.40877467265E+01  0.75154108392E+01  0.51100000000E-03 0. -1.
        -12    1    3    3    0    0 -0.37933377673E+01 -0.12720102191E+01  0.37559583259E+01  0.54876811460E+01  0.00000000000E+00 0.  1.
</event>
<event>
 7    1  0.1381440E-008  0.4614232E+02  0.7816164E-02  0.1320468E+00
        -11   -1    0    0    0    0  0.00000000000E+00  0.00000000000E+00  0.45593999997E+02  0.45594000000E+02  0.51100000000E-03 0.  1.
         11   -1    0    0    0    0 -0.00000000000E+00 -0.00000000000E+00 -0.45593999997E+02  0.45594000000E+02  0.51100000000E-03 0. -1.
    9900012    2    1    2    0    0  0.14959724391E+02 -0.39984327437E+01  0.42300503890E+02  0.46142318214E+02  0.10000004129E+02 0.  0.
         12    1    1    2    0    0 -0.14959724391E+02  0.39984327437E+01 -0.42300503890E+02  0.45045681786E+02  0.00000000000E+00 0. -1.
         11    1    3    3    0    0  0.50087089005E+01 -0.24138629906E+00  0.20562670670E+02  0.21165274804E+02  0.51100000000E-03 0. -1.
        -11    1    3    3    0    0  0.47487464293E+01 -0.16259436555E+01  0.41508094331E+01  0.65133328359E+01  0.51100000000E-03 0.  1.
        -12    1    3    3    0    0  0.52022690608E+01 -0.21311027892E+01  0.17587023787E+02  0.18463710574E+02  0.00000000000E+00 0.  1.
</event>
<event>
 7    1  0.1381440E-008  0.4614232E+02  0.7816164E-02  0.1320468E+00
        -11   -1    0    0    0    0  0.00000000000E+00  0.00000000000E+00  0.45593999997E+02  0.45594000000E+02  0.51100000000E-03 0. -1.
         11   -1    0    0    0    0 -0.00000000000E+00 -0.00000000000E+00 -0.45593999997E+02  0.45594000000E+02  0.51100000000E-03 0.  1.
    9900012    2    1    2    0    0  0.44807202381E+02 -0.45778496717E+01 -0.68659129860E+00  0.46142317627E+02  0.99999987769E+01 0.  0.
         12    1    1    2    0    0 -0.44807202381E+02  0.45778496717E+01  0.68659129860E+00  0.45045682373E+02  0.00000000000E+00 0. -1.
         11    1    3    3    0    0  0.13336048206E+02  0.12023199179E+01 -0.29364955367E+01  0.13708346408E+02  0.51100000000E-03 0. -1.
        -11    1    3    3    0    0  0.41377494449E+01 -0.12711119029E+01 -0.12635314456E+01  0.45092358458E+01  0.51100000000E-03 0.  1.
         12    1    3    3    0    0  0.27333404730E+02 -0.45090576867E+01  0.35134356836E+01  0.27924735373E+02  0.00000000000E+00 0. -1.
</event>
<event>
 7    1  0.1381440E-008  0.4614232E+02  0.7816164E-02  0.1320468E+00
        -11   -1    0    0    0    0  0.00000000000E+00  0.00000000000E+00  0.45593999997E+02  0.45594000000E+02  0.51100000000E-03 0.  1.
         11   -1    0    0    0    0 -0.00000000000E+00 -0.00000000000E+00 -0.45593999997E+02  0.45594000000E+02  0.51100000000E-03 0. -1.
    9900012    2    1    2    0    0  0.13683339055E+02 -0.98933198289E+01  0.41761249541E+02  0.46142317541E+02  0.99999979932E+01 0.  0.
         12    1    1    2    0    0 -0.13683339055E+02  0.98933198289E+01 -0.41761249541E+02  0.45045682459E+02  0.00000000000E+00 0. -1.
         11    1    3    3    0    0 -0.99186597034E-01 -0.12732502231E+01  0.15343218811E+01  0.19962835489E+01  0.51100000000E-03 0. -1.
        -11    1    3    3    0    0  0.10594985234E+02 -0.80044034139E+01  0.37880307372E+02  0.40140277441E+02  0.51100000000E-03 0.  1.
        -12    1    3    3    0    0  0.31875404176E+01 -0.61566619194E+00  0.23466202881E+01  0.40057565516E+01  0.00000000000E+00 0.  1.
</event>
<event>
 7    1  0.1381440E-008  0.4614232E+02  0.7816164E-02  0.1320468E+00
        -11   -1    0    0    0    0  0.00000000000E+00  0.00000000000E+00  0.45593999997E+02  0.45594000000E+02  0.51100000000E-03 0.  1.
         11   -1    0    0    0    0 -0.00000000000E+00 -0.00000000000E+00 -0.45593999997E+02  0.45594000000E+02  0.51100000000E-03 0. -1.
    9900012    2    1    2    0    0 -0.99582192585E+01 -0.43462388443E+02 -0.64006162971E+01  0.46142320641E+02  0.10000026261E+02 0.  0.
         12    1    1    2    0    0  0.99582192585E+01  0.43462388443E+02  0.64006162971E+01  0.45045679359E+02  0.00000000000E+00 0. -1.
         11    1    3    3    0    0 -0.12109470289E+01 -0.36130043038E+01  0.17021759840E+01  0.41734393667E+01  0.51100000000E-03 0. -1.
        -11    1    3    3    0    0 -0.48700212295E+01 -0.32557883525E+02 -0.65883599660E+01  0.33572896415E+02  0.51100000000E-03 0.  1.
        -12    1    3    3    0    0 -0.38772510001E+01 -0.72915006136E+01 -0.15144323150E+01  0.83959848590E+01  0.00000000000E+00 0.  1.
</event>
<event>
 7    1  0.1381440E-008  0.4614232E+02  0.7816164E-02  0.1320468E+00
        -11   -1    0    0    0    0  0.00000000000E+00  0.00000000000E+00  0.45593999997E+02  0.45594000000E+02  0.51100000000E-03 0.  1.
         11   -1    0    0    0    0 -0.00000000000E+00 -0.00000000000E+00 -0.45593999997E+02  0.45594000000E+02  0.51100000000E-03 0. -1.
    9900012    2    1    2    0    0 -0.10182044987E+02  0.38205237619E+02  0.21582379191E+02  0.46142319705E+02  0.10000017729E+02 0.  0.
         12    1    1    2    0    0  0.10182044987E+02 -0.38205237619E+02 -0.21582379191E+02  0.45045680295E+02  0.00000000000E+00 0. -1.
         11    1    3    3    0    0 -0.17129458955E+01  0.25989169554E+01  0.57596672687E-01  0.31131769336E+01  0.51100000000E-03 0. -1.
        -11    1    3    3    0    0 -0.35345224312E+01  0.13640677771E+02  0.44623520549E+01  0.14780849941E+02  0.51100000000E-03 0.  1.
         12    1    3    3    0    0 -0.49345766608E+01  0.21965642893E+02  0.17062430463E+02  0.28248292830E+02  0.00000000000E+00 0. -1.
</event>
<event>
 7    1  0.1381440E-008  0.4614232E+02  0.7816164E-02  0.1320468E+00
        -11   -1    0    0    0    0  0.00000000000E+00  0.00000000000E+00  0.45593999997E+02  0.45594000000E+02  0.51100000000E-03 0.  1.
         11   -1    0    0    0    0 -0.00000000000E+00 -0.00000000000E+00 -0.45593999997E+02  0.45594000000E+02  0.51100000000E-03 0. -1.
    9900012    2    1    2    0    0 -0.72147312053E+01  0.32783287719E+02 -0.30038594931E+02  0.46142317794E+02  0.10000000297E+02 0.  0.
         12    1    1    2    0    0  0.72147312053E+01 -0.32783287719E+02  0.30038594931E+02  0.45045682206E+02  0.00000000000E+00 0. -1.
         11    1    3    3    0    0 -0.20291173868E+01  0.44503880828E+01 -0.79630973929E+00  0.49555404265E+01  0.51100000000E-03 0. -1.
        -11    1    3    3    0    0 -0.38927865147E+01  0.21273873248E+02 -0.19759107054E+02  0.29294261924E+02  0.51100000000E-03 0.  1.
         12    1    3    3    0    0 -0.12928273038E+01  0.70590263879E+01 -0.94831781375E+01  0.11892515443E+02  0.00000000000E+00 0. -1.
</event>
<event>
 7    1  0.1381440E-008  0.4614232E+02  0.7816164E-02  0.1320468E+00
        -11   -1    0    0    0    0  0.00000000000E+00  0.00000000000E+00  0.45593999997E+02  0.45594000000E+02  0.51100000000E-03 0.  1.
         11   -1    0    0    0    0 -0.00000000000E+00 -0.00000000000E+00 -0.45593999997E+02  0.45594000000E+02  0.51100000000E-03 0. -1.
    9900012    2    1    2    0    0  0.12779463932E+02  0.37131779475E+02  0.22068751183E+02  0.46142317364E+02  0.99999963782E+01 0.  0.
         12    1    1    2    0    0 -0.12779463932E+02 -0.37131779475E+02 -0.22068751183E+02  0.45045682636E+02  0.00000000000E+00 0. -1.
         11    1    3    3    0    0  0.10672437442E+02  0.32238786771E+02  0.17518530342E+02  0.38211767808E+02  0.51100000000E-03 0. -1.
        -11    1    3    3    0    0 -0.97837185753E+00  0.21518584766E+01  0.15187920420E+01  0.28097038853E+01  0.51100000000E-03 0.  1.
         12    1    3    3    0    0  0.30853983476E+01  0.27411342270E+01  0.30314287994E+01  0.51208456703E+01  0.00000000000E+00 0. -1.
</event>
<event>
 7    1  0.1381440E-008  0.4614232E+02  0.7816164E-02  0.1320468E+00
        -11   -1    0    0    0    0  0.00000000000E+00  0.00000000000E+00  0.45593999997E+02  0.45594000000E+02  0.51100000000E-03 0. -1.
         11   -1    0    0    0    0 -0.00000000000E+00 -0.00000000000E+00 -0.45593999997E+02  0.45594000000E+02  0.51100000000E-03 0.  1.
    9900012    2    1    2    0    0  0.20823913455E+01 -0.43920347036E+02  0.97867375328E+01  0.46142317976E+02  0.10000001956E+02 0.  0.
         12    1    1    2    0    0 -0.20823913455E+01  0.43920347036E+02 -0.97867375328E+01  0.45045682024E+02  0.00000000000E+00 0. -1.
         11    1    3    3    0    0  0.28796464714E+01 -0.87065376804E+01  0.37933524894E+01  0.99239954429E+01  0.51100000000E-03 0. -1.
        -11    1    3    3    0    0  0.19541258062E+01 -0.23943896107E+02  0.52708876957E+01  0.24594939028E+02  0.51100000000E-03 0.  1.
         12    1    3    3    0    0 -0.27513809320E+01 -0.11269913249E+02  0.72249734768E+00  0.11623383504E+02  0.00000000000E+00 0. -1.
</event>
<event>
 7    1  0.1381440E-008  0.4614232E+02  0.7816164E-02  0.1320468E+00
        -11   -1    0    0    0    0  0.00000000000E+00  0.00000000000E+00  0.45593999997E+02  0.45594000000E+02  0.51100000000E-03 0.  1.
         11   -1    0    0    0    0 -0.00000000000E+00 -0.00000000000E+00 -0.45593999997E+02  0.45594000000E+02  0.51100000000E-03 0. -1.
    9900012    2    1    2    0    0 -0.40823865445E+02 -0.18265683547E+02  0.53749611410E+01  0.46142318825E+02  0.10000009699E+02 0.  0.
         12    1    1    2    0    0  0.40823865445E+02  0.18265683547E+02 -0.53749611410E+01  0.45045681175E+02  0.00000000000E+00 0. -1.
         11    1    3    3    0    0 -0.11915473555E+02 -0.61780641940E+01  0.33759577958E+01  0.13839945033E+02  0.51100000000E-03 0. -1.
        -11    1    3    3    0    0 -0.11122300923E+02 -0.11659041367E+01  0.23509573039E+01  0.11427681776E+02  0.51100000000E-03 0.  1.
        -12    1    3    3    0    0 -0.17786090967E+02 -0.10921715216E+02 -0.35195395871E+00  0.20874692016E+02  0.00000000000E+00 0.  1.
</event>
<event>
 7    1  0.1381440E-008  0.4614232E+02  0.7816164E-02  0.1320468E+00
        -11   -1    0    0    0    0  0.00000000000E+00  0.00000000000E+00  0.45593999997E+02  0.45594000000E+02  0.51100000000E-03 0.  1.
         11   -1    0    0    0    0 -0.00000000000E+00 -0.00000000000E+00 -0.45593999997E+02  0.45594000000E+02  0.51100000000E-03 0. -1.
    9900012    2    1    2    0    0 -0.42135198061E+02 -0.15567690010E+02  0.33742522428E+01  0.46142318008E+02  0.10000002251E+02 0.  0.
         12    1    1    2    0    0  0.42135198061E+02  0.15567690010E+02 -0.33742522428E+01  0.45045681992E+02  0.00000000000E+00 0. -1.
         11    1    3    3    0    0 -0.28389221266E+02 -0.82740119747E+01  0.19555212415E+01  0.29634966203E+02  0.51100000000E-03 0.  1.
        -11    1    3    3    0    0 -0.30470425115E+01 -0.34901485001E+01 -0.13383131205E+01  0.48225187287E+01  0.51100000000E-03 0. -1.
         12    1    3    3    0    0 -0.10698934284E+02 -0.38035295355E+01  0.27570441218E+01  0.11684833076E+02  0.00000000000E+00 0. -1.
</event>
<event>
 7    1  0.1381440E-008  0.4614232E+02  0.7816164E-02  0.1320468E+00
        -11   -1    0    0    0    0  0.00000000000E+00  0.00000000000E+00  0.45593999997E+02  0.45594000000E+02  0.51100000000E-03 0. -1.
         11   -1    0    0    0    0 -0.00000000000E+00 -0.00000000000E+00 -0.45593999997E+02  0.45594000000E+02  0.51100000000E-03 0.  1.
    9900012    2    1    2    0    0 -0.19211368919E+02  0.19613051192E+02 -0.35712253061E+02  0.46142317726E+02  0.99999996815E+01 0.  0.
         12    1    1    2    0    0  0.19211368919E+02 -0.19613051192E+02  0.35712253061E+02  0.45045682274E+02  0.00000000000E+00 0. -1.
         11    1    3    3    0    0 -0.69714517154E+00 -0.52489586291E+00 -0.31603550463E+01  0.32786233905E+01  0.51100000000E-03 0. -1.
        -11    1    3    3    0    0 -0.95173995835E+01  0.72980215400E+01 -0.11508396255E+02  0.16621828956E+02  0.51100000000E-03 0.  1.
        -12    1    3    3    0    0 -0.89968241641E+01  0.12839925515E+02 -0.21043501760E+02  0.26241865379E+02  0.00000000000E+00 0.  1.
</event>
<event>
 7    1  0.1381440E-008  0.4614232E+02  0.7816164E-02  0.1320468E+00
        -11   -1    0    0    0    0  0.00000000000E+00  0.00000000000E+00  0.45593999997E+02  0.45594000000E+02  0.51100000000E-03 0. -1.
         11   -1    0    0    0    0 -0.00000000000E+00 -0.00000000000E+00 -0.45593999997E+02  0.45594000000E+02  0.51100000000E-03 0.  1.
    9900012    2    1    2    0    0  0.10553824974E+01 -0.80436089569E+01 -0.44309141244E+02  0.46142317909E+02  0.10000001348E+02 0.  0.
         12    1    1    2    0    0 -0.10553824974E+01  0.80436089569E+01  0.44309141244E+02  0.45045682091E+02  0.00000000000E+00 0. -1.
         11    1    3    3    0    0  0.41255287895E+01 -0.33929597200E+01 -0.12523599089E+02  0.13615164261E+02  0.51100000000E-03 0. -1.
        -11    1    3    3    0    0  0.43486331504E+00 -0.24171038994E+01 -0.75958462935E+01  0.79830056081E+01  0.51100000000E-03 0.  1.
         12    1    3    3    0    0 -0.35050096071E+01 -0.22335453376E+01 -0.24189695862E+02  0.24544148040E+02  0.00000000000E+00 0. -1.
</event>
<event>
 7    1  0.1381440E-008  0.4614232E+02  0.7816164E-02  0.1320468E+00
        -11   -1    0    0    0    0  0.00000000000E+00  0.00000000000E+00  0.45593999997E+02  0.45594000000E+02  0.51100000000E-03 0. -1.
         11   -1    0    0    0    0 -0.00000000000E+00 -0.00000000000E+00 -0.45593999997E+02  0.45594000000E+02  0.51100000000E-03 0.  1.
    9900012    2    1    2    0    0 -0.78793851276E+01  0.32366784379E+02 -0.30321937680E+02  0.46142319345E+02  0.10000014440E+02 0.  0.
         12    1    1    2    0    0  0.78793851276E+01 -0.32366784379E+02  0.30321937680E+02  0.45045680655E+02  0.00000000000E+00 0. -1.
         11    1    3    3    0    0 -0.40954554896E+00  0.51655002386E+00  0.76725630751E+00  0.10115502886E+01  0.51100000000E-03 0. -1.
        -11    1    3    3    0    0 -0.52764083509E+01  0.22642546408E+02 -0.22146736359E+02  0.32109240486E+02  0.51100000000E-03 0.  1.
         12    1    3    3    0    0 -0.21934312277E+01  0.92076879476E+01 -0.89424576277E+01  0.13021528571E+02  0.00000000000E+00 0. -1.
</event>
<event>
 7    1  0.1381440E-008  0.4614232E+02  0.7816164E-02  0.1320468E+00
        -11   -1    0    0    0    0  0.00000000000E+00  0.00000000000E+00  0.45593999997E+02  0.45594000000E+02  0.51100000000E-03 0.  1.
         11   -1    0    0    0    0 -0.00000000000E+00 -0.00000000000E+00 -0.45593999997E+02  0.45594000000E+02  0.51100000000E-03 0. -1.
    9900012    2    1    2    0    0 -0.25933893748E+02  0.20758820989E+02  0.30423972994E+02  0.46142316228E+02  0.99999860160E+01 0.  0.
         12    1    1    2    0    0  0.25933893748E+02 -0.20758820989E+02 -0.30423972994E+02  0.45045683772E+02  0.00000000000E+00 0. -1.
         11    1    3    3    0    0 -0.11106714436E+02  0.10270161827E+02  0.17981778858E+02  0.23498504222E+02  0.51100000000E-03 0. -1.
        -11    1    3    3    0    0 -0.78712825231E+01  0.23538112644E+01  0.54513980122E+01  0.98597797427E+01  0.51100000000E-03 0.  1.
        -12    1    3    3    0    0 -0.69558967886E+01  0.81348478969E+01  0.69907961242E+01  0.12784032263E+02  0.00000000000E+00 0.  1.
</event>
<event>
 7    1  0.1381440E-008  0.4614232E+02  0.7816164E-02  0.1320468E+00
        -11   -1    0    0    0    0  0.00000000000E+00  0.00000000000E+00  0.45593999997E+02  0.45594000000E+02  0.51100000000E-03 0.  1.
         11   -1    0    0    0    0 -0.00000000000E+00 -0.00000000000E+00 -0.45593999997E+02  0.45594000000E+02  0.51100000000E-03 0. -1.
    9900012    2    1    2    0    0  0.30280960050E+01  0.44800076696E+02 -0.35912763440E+01  0.46142317597E+02  0.99999985065E+01 0.  0.
         12    1    1    2    0    0 -0.30280960050E+01 -0.44800076696E+02  0.35912763440E+01  0.45045682403E+02  0.00000000000E+00 0. -1.
         11    1    3    3    0    0 -0.64055109767E+00  0.14861476562E+01 -0.17244775756E+01  0.23649024789E+01  0.51100000000E-03 0. -1.
        -11    1    3    3    0    0  0.43856956180E+01  0.38711904707E+02 -0.65604375070E+00  0.38965064940E+02  0.51100000000E-03 0.  1.
        -12    1    3    3    0    0 -0.71704851535E+00  0.46020243323E+01 -0.12107550177E+01  0.48123501786E+01  0.00000000000E+00 0.  1.
</event>
<event>
 7    1  0.1381440E-008  0.4614232E+02  0.7816164E-02  0.1320468E+00
        -11   -1    0    0    0    0  0.00000000000E+00  0.00000000000E+00  0.45593999997E+02  0.45594000000E+02  0.51100000000E-03 0.  1.
         11   -1    0    0    0    0 -0.00000000000E+00 -0.00000000000E+00 -0.45593999997E+02  0.45594000000E+02  0.51100000000E-03 0. -1.
    9900012    2    1    2    0    0 -0.97661777752E+01 -0.48994620929E+01  0.43700463376E+02  0.46142318115E+02  0.10000003231E+02 0.  0.
         12    1    1    2    0    0  0.97661777752E+01  0.48994620929E+01 -0.43700463376E+02  0.45045681885E+02  0.00000000000E+00 0. -1.
         11    1    3    3    0    0 -0.21585313188E+00  0.70787631068E+00  0.53359401084E+01  0.53870157367E+01  0.51100000000E-03 0. -1.
        -11    1    3    3    0    0 -0.28251564355E+01 -0.46110895303E+01  0.26802455573E+02  0.27342554389E+02  0.51100000000E-03 0.  1.
        -12    1    3    3    0    0 -0.67251682079E+01 -0.99624887325E+00  0.11562067695E+02  0.13412747990E+02  0.00000000000E+00 0.  1.
</event>
<event>
 7    1  0.1381440E-008  0.4614232E+02  0.7816164E-02  0.1320468E+00
        -11   -1    0    0    0    0  0.00000000000E+00  0.00000000000E+00  0.45593999997E+02  0.45594000000E+02  0.51100000000E-03 0.  1.
         11   -1    0    0    0    0 -0.00000000000E+00 -0.00000000000E+00 -0.45593999997E+02  0.45594000000E+02  0.51100000000E-03 0. -1.
    9900012    2    1    2    0    0  0.31018757706E+02 -0.21760645125E+02  0.24360305473E+02  0.46142317758E+02  0.99999999729E+01 0.  0.
         12    1    1    2    0    0 -0.31018757706E+02  0.21760645125E+02 -0.24360305473E+02  0.45045682242E+02  0.00000000000E+00 0. -1.
         11    1    3    3    0    0  0.55171789176E+01 -0.53471910030E+01  0.35857304767E+01  0.84787486190E+01  0.51100000000E-03 0. -1.
        -11    1    3    3    0    0  0.22454485547E+02 -0.16336078339E+02  0.16144763612E+02  0.32120472740E+02  0.51100000000E-03 0.  1.
        -12    1    3    3    0    0  0.30470932411E+01 -0.77375782606E-01  0.46298113844E+01  0.55430963988E+01  0.00000000000E+00 0.  1.
</event>
<event>
 7    1  0.1381440E-008  0.4614232E+02  0.7816164E-02  0.1320468E+00
        -11   -1    0    0    0    0  0.00000000000E+00  0.00000000000E+00  0.45593999997E+02  0.45594000000E+02  0.51100000000E-03 0.  1.
         11   -1    0    0    0    0 -0.00000000000E+00 -0.00000000000E+00 -0.45593999997E+02  0.45594000000E+02  0.51100000000E-03 0. -1.
    9900012    2    1    2    0    0  0.15510264508E+02 -0.17919157212E+02  0.38307297580E+02  0.46142317098E+02  0.99999939489E+01 0.  0.
         12    1    1    2    0    0 -0.15510264508E+02  0.17919157212E+02 -0.38307297580E+02  0.45045682902E+02  0.00000000000E+00 0. -1.
         11    1    3    3    0    0  0.14204046733E+02 -0.18293922494E+02  0.33096961415E+02  0.40395932951E+02  0.51100000000E-03 0. -1.
        -11    1    3    3    0    0 -0.19866455282E+00 -0.13921732713E+00  0.30719409701E+01  0.30815046088E+01  0.51100000000E-03 0.  1.
         12    1    3    3    0    0  0.15048823275E+01  0.51398260932E+00  0.21383951946E+01  0.26648795378E+01  0.00000000000E+00 0. -1.
</event>
<event>
 7    1  0.1381440E-008  0.4614232E+02  0.7816164E-02  0.1320468E+00
        -11   -1    0    0    0    0  0.00000000000E+00  0.00000000000E+00  0.45593999997E+02  0.45594000000E+02  0.51100000000E-03 0.  1.
         11   -1    0    0    0    0 -0.00000000000E+00 -0.00000000000E+00 -0.45593999997E+02  0.45594000000E+02  0.51100000000E-03 0. -1.
    9900012    2    1    2    0    0  0.37109043051E+02  0.21915416713E+02  0.13105230946E+02  0.46142316034E+02  0.99999842498E+01 0.  0.
         12    1    1    2    0    0 -0.37109043051E+02 -0.21915416713E+02 -0.13105230946E+02  0.45045683966E+02  0.00000000000E+00 0. -1.
         11    1    3    3    0    0  0.94042669888E+01  0.24133541959E+01  0.12194505675E+01  0.97852734259E+01  0.51100000000E-03 0. -1.
        -11    1    3    3    0    0  0.79733233052E+01  0.85107980288E+01  0.54428932937E+01  0.12869835092E+02  0.51100000000E-03 0.  1.
         12    1    3    3    0    0  0.19731452757E+02  0.10991264488E+02  0.64428870852E+01  0.23487207516E+02  0.00000000000E+00 0. -1.
</event>
<event>
 7    1  0.1381440E-008  0.4614231E+02  0.7816164E-02  0.1320468E+00
        -11   -1    0    0    0    0  0.00000000000E+00  0.00000000000E+00  0.45593999997E+02  0.45594000000E+02  0.51100000000E-03 0. -1.
         11   -1    0    0    0    0 -0.00000000000E+00 -0.00000000000E+00 -0.45593999997E+02  0.45594000000E+02  0.51100000000E-03 0.  1.
    9900012    2    1    2    0    0 -0.15357172893E+02 -0.39185022396E+02 -0.16056328536E+02  0.46142307359E+02  0.99999051425E+01 0.  0.
         12    1    1    2    0    0  0.15357172893E+02  0.39185022396E+02  0.16056328536E+02  0.45045692641E+02  0.00000000000E+00 0. -1.
         11    1    3    3    0    0  0.23414189166E+00  0.20138045024E+00  0.11723557233E-01  0.30905373980E+00  0.51100000000E-03 0. -1.
        -11    1    3    3    0    0 -0.95627448371E+01 -0.15408987874E+02 -0.80542512543E+01  0.19843234607E+02  0.51100000000E-03 0.  1.
         12    1    3    3    0    0 -0.60285699480E+01 -0.23977414972E+02 -0.80138008387E+01  0.25990019012E+02  0.00000000000E+00 0. -1.
</event>
<event>
 7    1  0.1381440E-008  0.4614232E+02  0.7816164E-02  0.1320468E+00
        -11   -1    0    0    0    0  0.00000000000E+00  0.00000000000E+00  0.45593999997E+02  0.45594000000E+02  0.51100000000E-03 0.  1.
         11   -1    0    0    0    0 -0.00000000000E+00 -0.00000000000E+00 -0.45593999997E+02  0.45594000000E+02  0.51100000000E-03 0. -1.
    9900012    2    1    2    0    0 -0.42513746861E+02  0.13585689513E+02  0.60929422744E+01  0.46142316775E+02  0.99999910053E+01 0.  0.
         12    1    1    2    0    0  0.42513746861E+02 -0.13585689513E+02 -0.60929422744E+01  0.45045683225E+02  0.00000000000E+00 0. -1.
         11    1    3    3    0    0 -0.80250460908E+01 -0.70002993612E+00  0.18709105404E+01  0.82699282453E+01  0.51100000000E-03 0. -1.
        -11    1    3    3    0    0 -0.19679494020E+02  0.56048095111E+01  0.26911810110E+01  0.20638285540E+02  0.51100000000E-03 0.  1.
         12    1    3    3    0    0 -0.14809206749E+02  0.86809099379E+01  0.15308507230E+01  0.17234102989E+02  0.00000000000E+00 0. -1.
</event>
<event>
 7    1  0.1381440E-008  0.4614232E+02  0.7816164E-02  0.1320468E+00
        -11   -1    0    0    0    0  0.00000000000E+00  0.00000000000E+00  0.45593999997E+02  0.45594000000E+02  0.51100000000E-03 0. -1.
         11   -1    0    0    0    0 -0.00000000000E+00 -0.00000000000E+00 -0.45593999997E+02  0.45594000000E+02  0.51100000000E-03 0.  1.
    9900012    2    1    2    0    0  0.32476656877E+02 -0.28991475599E+02 -0.11570421831E+02  0.46142316959E+02  0.99999926821E+01 0.  0.
         12    1    1    2    0    0 -0.32476656877E+02  0.28991475599E+02  0.11570421831E+02  0.45045683041E+02  0.00000000000E+00 0. -1.
         11    1    3    3    0    0  0.14632964087E+02 -0.10769851650E+02 -0.77174535046E+01  0.19740122375E+02  0.51100000000E-03 0. -1.
        -11    1    3    3    0    0  0.23853485411E+01 -0.52928249226E+01  0.35095023386E+00  0.58161026170E+01  0.51100000000E-03 0.  1.
        -12    1    3    3    0    0  0.15458344249E+02 -0.12928799026E+02 -0.42039185606E+01  0.20586091966E+02  0.00000000000E+00 0.  1.
</event>
<event>
 7    1  0.1381440E-008  0.4614231E+02  0.7816164E-02  0.1320468E+00
        -11   -1    0    0    0    0  0.00000000000E+00  0.00000000000E+00  0.45593999997E+02  0.45594000000E+02  0.51100000000E-03 0. -1.
         11   -1    0    0    0    0 -0.00000000000E+00 -0.00000000000E+00 -0.45593999997E+02  0.45594000000E+02  0.51100000000E-03 0.  1.
    9900012    2    1    2    0    0 -0.93065840028E+01 -0.30852507036E+02 -0.31474182018E+02  0.46142313970E+02  0.99999654289E+01 0.  0.
         12    1    1    2    0    0  0.93065840028E+01  0.30852507036E+02  0.31474182018E+02  0.45045686030E+02  0.00000000000E+00 0. -1.
         11    1    3    3    0    0  0.29724119298E+00 -0.41100832542E+01 -0.12517263504E+01  0.43067337740E+01  0.51100000000E-03 0. -1.
        -11    1    3    3    0    0 -0.21495627165E+01 -0.15980466548E+01 -0.23331770469E+01  0.35521948675E+01  0.51100000000E-03 0.  1.
         12    1    3    3    0    0 -0.74542624793E+01 -0.25144377127E+02 -0.27889278621E+02  0.38283385328E+02  0.00000000000E+00 0. -1.
</event>
<event>
 7    1  0.1381440E-008  0.4614232E+02  0.7816164E-02  0.1320468E+00
        -11   -1    0    0    0    0  0.00000000000E+00  0.00000000000E+00  0.45593999997E+02  0.45594000000E+02  0.51100000000E-03 0. -1.
         11   -1    0    0    0    0 -0.00000000000E+00 -0.00000000000E+00 -0.45593999997E+02  0.45594000000E+02  0.51100000000E-03 0.  1.
    9900012    2    1    2    0    0 -0.28357426782E+02  0.31404957932E+02 -0.15449867484E+02  0.46142318280E+02  0.10000004729E+02 0.  0.
         12    1    1    2    0    0  0.28357426782E+02 -0.31404957932E+02  0.15449867484E+02  0.45045681720E+02  0.00000000000E+00 0. -1.
         11    1    3    3    0    0 -0.12765551662E+02  0.11740011725E+02 -0.35616660481E+01  0.17705158848E+02  0.51100000000E-03 0. -1.
        -11    1    3    3    0    0 -0.15064560137E+02  0.20118259855E+02 -0.11649845353E+02  0.27702062175E+02  0.51100000000E-03 0.  1.
        -12    1    3    3    0    0 -0.52731498295E+00 -0.45331364830E+00 -0.23835608240E+00  0.73509725683E+00  0.00000000000E+00 0.  1.
</event>
<event>
 7    1  0.1381440E-008  0.4614232E+02  0.7816164E-02  0.1320468E+00
        -11   -1    0    0    0    0  0.00000000000E+00  0.00000000000E+00  0.45593999997E+02  0.45594000000E+02  0.51100000000E-03 0.  1.
         11   -1    0    0    0    0 -0.00000000000E+00 -0.00000000000E+00 -0.45593999997E+02  0.45594000000E+02  0.51100000000E-03 0. -1.
    9900012    2    1    2    0    0  0.51386393964E+01 -0.54317558332E+01  0.44420754487E+02  0.46142323011E+02  0.10000047869E+02 0.  0.
         12    1    1    2    0    0 -0.51386393964E+01  0.54317558332E+01 -0.44420754487E+02  0.45045676989E+02  0.00000000000E+00 0. -1.
         11    1    3    3    0    0 -0.50949998844E+00 -0.19528225826E+01  0.13133400866E+02  0.13287562788E+02  0.51100000000E-03 0. -1.
        -11    1    3    3    0    0  0.54303238671E+01 -0.94361749134E+00  0.28704826685E+02  0.29229196132E+02  0.51100000000E-03 0.  1.
         12    1    3    3    0    0  0.21781551778E+00 -0.25353157592E+01  0.25825269356E+01  0.36255640902E+01  0.00000000000E+00 0. -1.
</event>
<event>
 7    1  0.1381440E-008  0.4614232E+02  0.7816164E-02  0.1320468E+00
        -11   -1    0    0    0    0  0.00000000000E+00  0.00000000000E+00  0.45593999997E+02  0.45594000000E+02  0.51100000000E-03 0.  1.
         11   -1    0    0    0    0 -0.00000000000E+00 -0.00000000000E+00 -0.45593999997E+02  0.45594000000E+02  0.51100000000E-03 0. -1.
    9900012    2    1    2    0    0  0.32528969646E+02 -0.13880125731E+02  0.27898417509E+02  0.46142318120E+02  0.10000003273E+02 0.  0.
         12    1    1    2    0    0 -0.32528969646E+02  0.13880125731E+02 -0.27898417509E+02  0.45045681880E+02  0.00000000000E+00 0. -1.
         11    1    3    3    0    0  0.79845620082E+01 -0.62162248455E+01  0.12444199710E+02  0.16039101860E+02  0.51100000000E-03 0. -1.
        -11    1    3    3    0    0  0.48863594561E+01 -0.56770486171E+00  0.33481897897E+01  0.59505607024E+01  0.51100000000E-03 0.  1.
         12    1    3    3    0    0  0.19658048182E+02 -0.70961960233E+01  0.12106028009E+02  0.24152655557E+02  0.00000000000E+00 0. -1.
</event>
<event>
 7    1  0.1381440E-008  0.4614232E+02  0.7816164E-02  0.1320468E+00
        -11   -1    0    0    0    0  0.00000000000E+00  0.00000000000E+00  0.45593999997E+02  0.45594000000E+02  0.51100000000E-03 0. -1.
         11   -1    0    0    0    0 -0.00000000000E+00 -0.00000000000E+00 -0.45593999997E+02  0.45594000000E+02  0.51100000000E-03 0.  1.
    9900012    2    1    2    0    0  0.38031583972E+02  0.43352387475E+01 -0.23746955531E+02  0.46142316839E+02  0.99999915937E+01 0.  0.
         12    1    1    2    0    0 -0.38031583972E+02 -0.43352387475E+01  0.23746955531E+02  0.45045683161E+02  0.00000000000E+00 0. -1.
         11    1    3    3    0    0  0.70152891266E+01 -0.13969887290E+01 -0.31793533137E+01  0.78277804513E+01  0.51100000000E-03 0. -1.
        -11    1    3    3    0    0  0.28598071074E+02  0.72072118183E+01 -0.18667843575E+02  0.34903895991E+02  0.51100000000E-03 0.  1.
        -12    1    3    3    0    0  0.24182237709E+01 -0.14749843419E+01 -0.18997586432E+01  0.34106403969E+01  0.00000000000E+00 0.  1.
</event>
<event>
 7    1  0.1381440E-008  0.4614232E+02  0.7816164E-02  0.1320468E+00
        -11   -1    0    0    0    0  0.00000000000E+00  0.00000000000E+00  0.45593999997E+02  0.45594000000E+02  0.51100000000E-03 0.  1.
         11   -1    0    0    0    0 -0.00000000000E+00 -0.00000000000E+00 -0.45593999997E+02  0.45594000000E+02  0.51100000000E-03 0. -1.
    9900012    2    1    2    0    0  0.32964760300E+02 -0.22889136935E+02  0.20457896654E+02  0.46142317113E+02  0.99999940890E+01 0.  0.
         12    1    1    2    0    0 -0.32964760300E+02  0.22889136935E+02 -0.20457896654E+02  0.45045682887E+02  0.00000000000E+00 0. -1.
         11    1    3    3    0    0  0.47805844283E+01 -0.13659653024E+01  0.51725151107E+01  0.71745913831E+01  0.51100000000E-03 0. -1.
        -11    1    3    3    0    0  0.21386618284E+02 -0.13918743966E+02  0.12383898159E+02  0.28363353276E+02  0.51100000000E-03 0.  1.
        -12    1    3    3    0    0  0.67975575877E+01 -0.76044276673E+01  0.29014833843E+01  0.10604372454E+02  0.00000000000E+00 0.  1.
</event>
<event>
 7    1  0.1381440E-008  0.4614231E+02  0.7816164E-02  0.1320468E+00
        -11   -1    0    0    0    0  0.00000000000E+00  0.00000000000E+00  0.45593999997E+02  0.45594000000E+02  0.51100000000E-03 0.  1.
         11   -1    0    0    0    0 -0.00000000000E+00 -0.00000000000E+00 -0.45593999997E+02  0.45594000000E+02  0.51100000000E-03 0. -1.
    9900012    2    1    2    0    0 -0.13713940493E+02 -0.16068594126E+02  0.39784945219E+02  0.46142314889E+02  0.99999738078E+01 0.  0.
         12    1    1    2    0    0  0.13713940493E+02  0.16068594126E+02 -0.39784945219E+02  0.45045685111E+02  0.00000000000E+00 0. -1.
         11    1    3    3    0    0 -0.12354177193E+01 -0.10264089200E+01 -0.11214825691E-01  0.16062061654E+01  0.51100000000E-03 0. -1.
        -11    1    3    3    0    0 -0.87676508300E+01 -0.82634128819E+01  0.27346830672E+02  0.29883186604E+02  0.51100000000E-03 0.  1.
        -12    1    3    3    0    0 -0.37108719433E+01 -0.67787723240E+01  0.12449329373E+02  0.14652922119E+02  0.00000000000E+00 0.  1.
</event>
<event>
 7    1  0.1381440E-008  0.4614232E+02  0.7816164E-02  0.1320468E+00
        -11   -1    0    0    0    0  0.00000000000E+00  0.00000000000E+00  0.45593999997E+02  0.45594000000E+02  0.51100000000E-03 0.  1.
         11   -1    0    0    0    0 -0.00000000000E+00 -0.00000000000E+00 -0.45593999997E+02  0.45594000000E+02  0.51100000000E-03 0. -1.
    9900012    2    1    2    0    0  0.88420195754E+01 -0.97348743549E+01  0.43083225764E+02  0.46142318396E+02  0.10000005794E+02 0.  0.
         12    1    1    2    0    0 -0.88420195754E+01  0.97348743549E+01 -0.43083225764E+02  0.45045681604E+02  0.00000000000E+00 0. -1.
         11    1    3    3    0    0  0.17607491952E+01 -0.81677464873E+00  0.16505620920E+01  0.25478842273E+01  0.51100000000E-03 0. -1.
        -11    1    3    3    0    0  0.58116110981E+00 -0.46587122814E+01  0.80488041393E+01  0.93179717048E+01  0.51100000000E-03 0.  1.
        -12    1    3    3    0    0  0.65001092704E+01 -0.42593874248E+01  0.33383859533E+02  0.34276462464E+02  0.00000000000E+00 0.  1.
</event>
<event>
 7    1  0.1381440E-008  0.4614232E+02  0.7816164E-02  0.1320468E+00
        -11   -1    0    0    0    0  0.00000000000E+00  0.00000000000E+00  0.45593999997E+02  0.45594000000E+02  0.51100000000E-03 0. -1.
         11   -1    0    0    0    0 -0.00000000000E+00 -0.00000000000E+00 -0.45593999997E+02  0.45594000000E+02  0.51100000000E-03 0.  1.
    9900012    2    1    2    0    0 -0.21045052129E+02  0.35856127585E+02  0.17336590722E+02  0.46142317828E+02  0.10000000607E+02 0.  0.
         12    1    1    2    0    0  0.21045052129E+02 -0.35856127585E+02 -0.17336590722E+02  0.45045682172E+02  0.00000000000E+00 0. -1.
         11    1    3    3    0    0 -0.92686598290E+01  0.22477929968E+02  0.13754694445E+02  0.27934870864E+02  0.51100000000E-03 0. -1.
        -11    1    3    3    0    0 -0.34273361800E+01  0.38334595450E+01  0.57036588466E+00  0.51737184768E+01  0.51100000000E-03 0.  1.
         12    1    3    3    0    0 -0.83490561201E+01  0.95447380720E+01  0.30115303930E+01  0.13033728487E+02  0.00000000000E+00 0. -1.
</event>
<event>
 7    1  0.1381440E-008  0.4614232E+02  0.7816164E-02  0.1320468E+00
        -11   -1    0    0    0    0  0.00000000000E+00  0.00000000000E+00  0.45593999997E+02  0.45594000000E+02  0.51100000000E-03 0.  1.
         11   -1    0    0    0    0 -0.00000000000E+00 -0.00000000000E+00 -0.45593999997E+02  0.45594000000E+02  0.51100000000E-03 0. -1.
    9900012    2    1    2    0    0 -0.24975875064E+02  0.36955330985E+02  0.62946479623E+01  0.46142318560E+02  0.10000007287E+02 0.  0.
         12    1    1    2    0    0  0.24975875064E+02 -0.36955330985E+02 -0.62946479623E+01  0.45045681440E+02  0.00000000000E+00 0. -1.
         11    1    3    3    0    0 -0.10791600592E+02  0.14443315233E+02  0.58092022645E+00  0.18038998499E+02  0.51100000000E-03 0. -1.
        -11    1    3    3    0    0 -0.14942287940E+02  0.20672882612E+02  0.50224154071E+01  0.25997397969E+02  0.51100000000E-03 0.  1.
        -12    1    3    3    0    0  0.75801346862E+00  0.18391331396E+01  0.69131232875E+00  0.21059220925E+01  0.00000000000E+00 0.  1.
</event>
<event>
 7    1  0.1381440E-008  0.4614232E+02  0.7816164E-02  0.1320468E+00
        -11   -1    0    0    0    0  0.00000000000E+00  0.00000000000E+00  0.45593999997E+02  0.45594000000E+02  0.51100000000E-03 0.  1.
         11   -1    0    0    0    0 -0.00000000000E+00 -0.00000000000E+00 -0.45593999997E+02  0.45594000000E+02  0.51100000000E-03 0. -1.
    9900012    2    1    2    0    0  0.37330618692E+02  0.13372806065E+01  0.25174394537E+02  0.46142317059E+02  0.99999935943E+01 0.  0.
         12    1    1    2    0    0 -0.37330618692E+02 -0.13372806065E+01 -0.25174394537E+02  0.45045682941E+02  0.00000000000E+00 0. -1.
         11    1    3    3    0    0  0.14594067600E+02  0.19010937498E+01  0.53463095863E+01  0.15658352181E+02  0.51100000000E-03 0. -1.
        -11    1    3    3    0    0  0.59236571202E+01 -0.38405302130E+00  0.78412417107E+01  0.98347487120E+01  0.51100000000E-03 0.  1.
         12    1    3    3    0    0  0.16812893971E+02 -0.17976012204E+00  0.11986843240E+02  0.20649216166E+02  0.00000000000E+00 0. -1.
</event>
<event>
 7    1  0.1381440E-008  0.4614232E+02  0.7816164E-02  0.1320468E+00
        -11   -1    0    0    0    0  0.00000000000E+00  0.00000000000E+00  0.45593999997E+02  0.45594000000E+02  0.51100000000E-03 0.  1.
         11   -1    0    0    0    0 -0.00000000000E+00 -0.00000000000E+00 -0.45593999997E+02  0.45594000000E+02  0.51100000000E-03 0. -1.
    9900012    2    1    2    0    0 -0.75502515523E+01  0.18759167111E+01  0.44368773995E+02  0.46142317989E+02  0.10000002076E+02 0.  0.
         12    1    1    2    0    0  0.75502515523E+01 -0.18759167111E+01 -0.44368773995E+02  0.45045682011E+02  0.00000000000E+00 0. -1.
         11    1    3    3    0    0  0.25923391461E-01 -0.25440739389E+00  0.70889294842E+00  0.75360773466E+00  0.51100000000E-03 0. -1.
        -11    1    3    3    0    0 -0.12636803591E+01 -0.15596045981E+01  0.12755183811E+01  0.23782770978E+01  0.51100000000E-03 0.  1.
        -12    1    3    3    0    0 -0.63124945846E+01  0.36899287031E+01  0.42384362666E+02  0.43010433156E+02  0.00000000000E+00 0.  1.
</event>
<event>
 7    1  0.1381440E-008  0.4614232E+02  0.7816164E-02  0.1320468E+00
        -11   -1    0    0    0    0  0.00000000000E+00  0.00000000000E+00  0.45593999997E+02  0.45594000000E+02  0.51100000000E-03 0.  1.
         11   -1    0    0    0    0 -0.00000000000E+00 -0.00000000000E+00 -0.45593999997E+02  0.45594000000E+02  0.51100000000E-03 0. -1.
    9900012    2    1    2    0    0 -0.39635050734E+02  0.87117932395E+01  0.19552006944E+02  0.46142316925E+02  0.99999923791E+01 0.  0.
         12    1    1    2    0    0  0.39635050734E+02 -0.87117932395E+01 -0.19552006944E+02  0.45045683075E+02  0.00000000000E+00 0. -1.
         11    1    3    3    0    0 -0.24057113216E+01  0.23349197598E+00 -0.83584419239E+00  0.25574599197E+01  0.51100000000E-03 0. -1.
        -11    1    3    3    0    0 -0.42449242112E+01  0.22772349636E+01  0.38643101874E+01  0.61756031385E+01  0.51100000000E-03 0.  1.
        -12    1    3    3    0    0 -0.32984415201E+02  0.62010663000E+01  0.16523540949E+02  0.37409253867E+02  0.00000000000E+00 0.  1.
</event>
<event>
 7    1  0.1381440E-008  0.4614232E+02  0.7816164E-02  0.1320468E+00
        -11   -1    0    0    0    0  0.00000000000E+00  0.00000000000E+00  0.45593999997E+02  0.45594000000E+02  0.51100000000E-03 0.  1.
         11   -1    0    0    0    0 -0.00000000000E+00 -0.00000000000E+00 -0.45593999997E+02  0.45594000000E+02  0.51100000000E-03 0. -1.
    9900012    2    1    2    0    0  0.22175440134E+02  0.34801978290E+02  0.18060610918E+02  0.46142317579E+02  0.99999983386E+01 0.  0.
         12    1    1    2    0    0 -0.22175440134E+02 -0.34801978290E+02 -0.18060610918E+02  0.45045682421E+02  0.00000000000E+00 0. -1.
         11    1    3    3    0    0 -0.57656215803E+00  0.88165777608E+00  0.19648802856E+01  0.22294616288E+01  0.51100000000E-03 0. -1.
        -11    1    3    3    0    0  0.15505014832E+02  0.23079428815E+02  0.10448407519E+02  0.29702436589E+02  0.51100000000E-03 0.  1.
         12    1    3    3    0    0  0.72469874601E+01  0.10840891699E+02  0.56473231135E+01  0.14210419361E+02  0.00000000000E+00 0. -1.
</event>
<event>
 7    1  0.1381440E-008  0.4614232E+02  0.7816164E-02  0.1320468E+00
        -11   -1    0    0    0    0  0.00000000000E+00  0.00000000000E+00  0.45593999997E+02  0.45594000000E+02  0.51100000000E-03 0.  1.
         11   -1    0    0    0    0 -0.00000000000E+00 -0.00000000000E+00 -0.45593999997E+02  0.45594000000E+02  0.51100000000E-03 0. -1.
    9900012    2    1    2    0    0  0.64220513202E+01  0.12996419534E+01  0.44566599473E+02  0.46142316511E+02  0.99999886042E+01 0.  0.
         12    1    1    2    0    0 -0.64220513202E+01 -0.12996419534E+01 -0.44566599473E+02  0.45045683489E+02  0.00000000000E+00 0. -1.
         11    1    3    3    0    0  0.22564037908E+01 -0.12810643174E+01  0.36844128032E+01  0.45063712473E+01  0.51100000000E-03 0. -1.
        -11    1    3    3    0    0  0.46534217625E+01  0.41550021603E+01  0.32384759909E+02  0.32980161487E+02  0.51100000000E-03 0.  1.
        -12    1    3    3    0    0 -0.48777423312E+00 -0.15742958895E+01  0.84974267607E+01  0.86557837776E+01  0.00000000000E+00 0.  1.
</event>
<event>
 7    1  0.1381440E-008  0.4614232E+02  0.7816164E-02  0.1320468E+00
        -11   -1    0    0    0    0  0.00000000000E+00  0.00000000000E+00  0.45593999997E+02  0.45594000000E+02  0.51100000000E-03 0. -1.
         11   -1    0    0    0    0 -0.00000000000E+00 -0.00000000000E+00 -0.45593999997E+02  0.45594000000E+02  0.51100000000E-03 0.  1.
    9900012    2    1    2    0    0 -0.60052564584E+01 -0.13010080390E+02 -0.42705834905E+02  0.46142316169E+02  0.99999854830E+01 0.  0.
         12    1    1    2    0    0  0.60052564584E+01  0.13010080390E+02  0.42705834905E+02  0.45045683831E+02  0.00000000000E+00 0. -1.
         11    1    3    3    0    0  0.58674351748E+00 -0.57049568939E-01  0.32692353257E+00  0.67409336586E+00  0.51100000000E-03 0. -1.
        -11    1    3    3    0    0 -0.31758395620E+01 -0.40893478299E+01 -0.14653671628E+02  0.15541519072E+02  0.51100000000E-03 0.  1.
        -12    1    3    3    0    0 -0.34161604139E+01 -0.88636829910E+01 -0.28379086809E+02  0.29926703732E+02  0.00000000000E+00 0.  1.
</event>
<event>
 7    1  0.1381440E-008  0.4614232E+02  0.7816164E-02  0.1320468E+00
        -11   -1    0    0    0    0  0.00000000000E+00  0.00000000000E+00  0.45593999997E+02  0.45594000000E+02  0.51100000000E-03 0.  1.
         11   -1    0    0    0    0 -0.00000000000E+00 -0.00000000000E+00 -0.45593999997E+02  0.45594000000E+02  0.51100000000E-03 0. -1.
    9900012    2    1    2    0    0 -0.29555421443E+02 -0.16059763866E+00  0.33993599803E+02  0.46142317012E+02  0.99999931691E+01 0.  0.
         12    1    1    2    0    0  0.29555421443E+02  0.16059763866E+00 -0.33993599803E+02  0.45045682988E+02  0.00000000000E+00 0. -1.
         11    1    3    3    0    0 -0.40160818167E+01  0.73525533873E+00  0.15388125034E+01  0.43631935269E+01  0.51100000000E-03 0. -1.
        -11    1    3    3    0    0 -0.22676361699E+02  0.90932521836E+00  0.26160703954E+02  0.34632740057E+02  0.51100000000E-03 0.  1.
        -12    1    3    3    0    0 -0.28629779271E+01 -0.18051781957E+01  0.62940833459E+01  0.71463834276E+01  0.00000000000E+00 0.  1.
</event>
<event>
 7    1  0.1381440E-008  0.4614232E+02  0.7816164E-02  0.1320468E+00
        -11   -1    0    0    0    0  0.00000000000E+00  0.00000000000E+00  0.45593999997E+02  0.45594000000E+02  0.51100000000E-03 0.  1.
         11   -1    0    0    0    0 -0.00000000000E+00 -0.00000000000E+00 -0.45593999997E+02  0.45594000000E+02  0.51100000000E-03 0. -1.
    9900012    2    1    2    0    0 -0.36875750975E+02  0.12463272435E+02  0.22670670370E+02  0.46142318022E+02  0.10000002383E+02 0.  0.
         12    1    1    2    0    0  0.36875750975E+02 -0.12463272435E+02 -0.22670670370E+02  0.45045681978E+02  0.00000000000E+00 0. -1.
         11    1    3    3    0    0 -0.47269827841E+01  0.33138320775E+01  0.20024319620E+01  0.61102850426E+01  0.51100000000E-03 0. -1.
        -11    1    3    3    0    0 -0.15492694811E+02  0.79012980488E+01  0.12644122177E+02  0.21501812232E+02  0.51100000000E-03 0.  1.
         12    1    3    3    0    0 -0.16656073380E+02  0.12481423086E+01  0.80241162311E+01  0.18530220748E+02  0.00000000000E+00 0. -1.
</event>
<event>
 7    1  0.1381440E-008  0.4614232E+02  0.7816164E-02  0.1320468E+00
        -11   -1    0    0    0    0  0.00000000000E+00  0.00000000000E+00  0.45593999997E+02  0.45594000000E+02  0.51100000000E-03 0.  1.
         11   -1    0    0    0    0 -0.00000000000E+00 -0.00000000000E+00 -0.45593999997E+02  0.45594000000E+02  0.51100000000E-03 0. -1.
    9900012    2    1    2    0    0 -0.10103834097E+02  0.25641975790E+02  0.35630254316E+02  0.46142318648E+02  0.10000008086E+02 0.  0.
         12    1    1    2    0    0  0.10103834097E+02 -0.25641975790E+02 -0.35630254316E+02  0.45045681352E+02  0.00000000000E+00 0. -1.
         11    1    3    3    0    0 -0.51380129376E+00  0.29630650780E+01  0.16956013400E+01  0.34523630445E+01  0.51100000000E-03 0. -1.
        -11    1    3    3    0    0 -0.26973548121E+01  0.15829607635E+02  0.19059302002E+02  0.24922062393E+02  0.51100000000E-03 0.  1.
        -12    1    3    3    0    0 -0.68926779911E+01  0.68493030765E+01  0.14875350974E+02  0.17767893210E+02  0.00000000000E+00 0.  1.
</event>
<event>
 7    1  0.1381440E-008  0.4614232E+02  0.7816164E-02  0.1320468E+00
        -11   -1    0    0    0    0  0.00000000000E+00  0.00000000000E+00  0.45593999997E+02  0.45594000000E+02  0.51100000000E-03 0. -1.
         11   -1    0    0    0    0 -0.00000000000E+00 -0.00000000000E+00 -0.45593999997E+02  0.45594000000E+02  0.51100000000E-03 0.  1.
    9900012    2    1    2    0    0 -0.66802601366E+01  0.20771309813E+02 -0.39408632588E+02  0.46142317529E+02  0.99999978805E+01 0.  0.
         12    1    1    2    0    0  0.66802601366E+01 -0.20771309813E+02  0.39408632588E+02  0.45045682471E+02  0.00000000000E+00 0. -1.
         11    1    3    3    0    0  0.65586205427E+00  0.14222154742E+01 -0.37808875314E+00  0.16111496689E+01  0.51100000000E-03 0. -1.
        -11    1    3    3    0    0 -0.50728299679E+01  0.92137632198E+01 -0.24582403364E+02  0.26738017727E+02  0.51100000000E-03 0.  1.
        -12    1    3    3    0    0 -0.22632922230E+01  0.10135331119E+02 -0.14448140471E+02  0.17793150133E+02  0.00000000000E+00 0.  1.
</event>
<event>
 7    1  0.1381440E-008  0.4614232E+02  0.7816164E-02  0.1320468E+00
        -11   -1    0    0    0    0  0.00000000000E+00  0.00000000000E+00  0.45593999997E+02  0.45594000000E+02  0.51100000000E-03 0.  1.
         11   -1    0    0    0    0 -0.00000000000E+00 -0.00000000000E+00 -0.45593999997E+02  0.45594000000E+02  0.51100000000E-03 0. -1.
    9900012    2    1    2    0    0 -0.15523739968E+02 -0.25731291237E+02  0.33556334073E+02  0.46142318656E+02  0.10000008159E+02 0.  0.
         12    1    1    2    0    0  0.15523739968E+02  0.25731291237E+02 -0.33556334073E+02  0.45045681344E+02  0.00000000000E+00 0. -1.
         11    1    3    3    0    0 -0.37909369123E+01 -0.22390848090E+01  0.20113389746E+01  0.48404739630E+01  0.51100000000E-03 0. -1.
        -11    1    3    3    0    0 -0.12133537770E+02 -0.22266042534E+02  0.29731600277E+02  0.39076430803E+02  0.51100000000E-03 0.  1.
        -12    1    3    3    0    0  0.40073471384E+00 -0.12261638940E+01  0.18133948211E+01  0.22254138903E+01  0.00000000000E+00 0.  1.
</event>
<event>
 7    1  0.2326169E-008  0.4614232E+02  0.7816164E-02  0.1320468E+00
        -11   -1    0    0    0    0  0.00000000000E+00  0.00000000000E+00  0.45593999997E+02  0.45594000000E+02  0.51100000000E-03 0. -1.
         11   -1    0    0    0    0 -0.00000000000E+00 -0.00000000000E+00 -0.45593999997E+02  0.45594000000E+02  0.51100000000E-03 0.  1.
    9900012    2    1    2    0    0  0.13085620525E+01  0.60703437755E+00 -0.45022580630E+02  0.46142316612E+02  0.99999895173E+01 0.  0.
         12    1    1    2    0    0 -0.13085620525E+01 -0.60703437755E+00  0.45022580630E+02  0.45045683388E+02  0.00000000000E+00 0. -1.
         11    1    3    3    0    0 -0.15586631309E+00 -0.48783888567E+00  0.38112723779E-01  0.51355031571E+00  0.51100000000E-03 0. -1.
        -11    1    3    3    0    0  0.38804924891E+01  0.50889647275E+00 -0.36648858912E+02  0.36857238874E+02  0.51100000000E-03 0.  1.
        -12    1    3    3    0    0 -0.24160641235E+01  0.58597679047E+00 -0.84118344415E+01  0.87715274222E+01  0.00000000000E+00 0.  1.
</event>
<event>
 7    1  0.1381440E-008  0.4614232E+02  0.7816164E-02  0.1320468E+00
        -11   -1    0    0    0    0  0.00000000000E+00  0.00000000000E+00  0.45593999997E+02  0.45594000000E+02  0.51100000000E-03 0.  1.
         11   -1    0    0    0    0 -0.00000000000E+00 -0.00000000000E+00 -0.45593999997E+02  0.45594000000E+02  0.51100000000E-03 0. -1.
    9900012    2    1    2    0    0  0.22773256327E+02  0.12638485961E+02  0.36752700954E+02  0.46142316982E+02  0.99999928981E+01 0.  0.
         12    1    1    2    0    0 -0.22773256327E+02 -0.12638485961E+02 -0.36752700954E+02  0.45045683018E+02  0.00000000000E+00 0. -1.
         11    1    3    3    0    0  0.12997428325E+02  0.10895996840E+02  0.19435521949E+02  0.25795259330E+02  0.51100000000E-03 0. -1.
        -11    1    3    3    0    0  0.58326714639E+01  0.18359022702E+01  0.69616639711E+01  0.92658166969E+01  0.51100000000E-03 0.  1.
         12    1    3    3    0    0  0.39431565374E+01 -0.93413148745E-01  0.10355515034E+02  0.11081240956E+02  0.00000000000E+00 0. -1.
</event>
<event>
 7    1  0.1381440E-008  0.4614232E+02  0.7816164E-02  0.1320468E+00
        -11   -1    0    0    0    0  0.00000000000E+00  0.00000000000E+00  0.45593999997E+02  0.45594000000E+02  0.51100000000E-03 0. -1.
         11   -1    0    0    0    0 -0.00000000000E+00 -0.00000000000E+00 -0.45593999997E+02  0.45594000000E+02  0.51100000000E-03 0.  1.
    9900012    2    1    2    0    0 -0.37644481602E+02 -0.22979850586E+02 -0.91614834872E+01  0.46142319766E+02  0.10000018284E+02 0.  0.
         12    1    1    2    0    0  0.37644481602E+02  0.22979850586E+02  0.91614834872E+01  0.45045680234E+02  0.00000000000E+00 0. -1.
         11    1    3    3    0    0 -0.17628220901E+01 -0.20855171334E+01  0.16611698422E+01  0.31963117716E+01  0.51100000000E-03 0. -1.
        -11    1    3    3    0    0 -0.17116016072E+02 -0.10191205883E+02 -0.60884121626E+01  0.20829965109E+02  0.51100000000E-03 0.  1.
         12    1    3    3    0    0 -0.18765643440E+02 -0.10703127570E+02 -0.47342411668E+01  0.22116042885E+02  0.00000000000E+00 0. -1.
</event>
<event>
 7    1  0.1381440E-008  0.4614232E+02  0.7816164E-02  0.1320468E+00
        -11   -1    0    0    0    0  0.00000000000E+00  0.00000000000E+00  0.45593999997E+02  0.45594000000E+02  0.51100000000E-03 0.  1.
         11   -1    0    0    0    0 -0.00000000000E+00 -0.00000000000E+00 -0.45593999997E+02  0.45594000000E+02  0.51100000000E-03 0. -1.
    9900012    2    1    2    0    0 -0.44524247827E+02 -0.39840740963E+01  0.55526592218E+01  0.46142317461E+02  0.99999972623E+01 0.  0.
         12    1    1    2    0    0  0.44524247827E+02  0.39840740963E+01 -0.55526592218E+01  0.45045682539E+02  0.00000000000E+00 0. -1.
         11    1    3    3    0    0 -0.23673548774E+02  0.19808241393E+00  0.72872370904E+01  0.24770546479E+02  0.51100000000E-03 0. -1.
        -11    1    3    3    0    0 -0.89048007943E+01 -0.19229698755E+01 -0.13367469305E+01  0.92076154864E+01  0.51100000000E-03 0.  1.
         12    1    3    3    0    0 -0.11945898259E+02 -0.22591866347E+01 -0.39783093809E+00  0.12164155496E+02  0.00000000000E+00 0. -1.
</event>
<event>
 7    1  0.1381440E-008  0.4614232E+02  0.7816164E-02  0.1320468E+00
        -11   -1    0    0    0    0  0.00000000000E+00  0.00000000000E+00  0.45593999997E+02  0.45594000000E+02  0.51100000000E-03 0.  1.
         11   -1    0    0    0    0 -0.00000000000E+00 -0.00000000000E+00 -0.45593999997E+02  0.45594000000E+02  0.51100000000E-03 0. -1.
    9900012    2    1    2    0    0 -0.25412927758E+02 -0.36347864585E+01  0.37014657070E+02  0.46142318655E+02  0.10000008148E+02 0.  0.
         12    1    1    2    0    0  0.25412927758E+02  0.36347864585E+01 -0.37014657070E+02  0.45045681345E+02  0.00000000000E+00 0. -1.
         11    1    3    3    0    0 -0.85176634232E+01  0.31097139342E+01  0.11850977290E+02  0.14922016416E+02  0.51100000000E-03 0. -1.
        -11    1    3    3    0    0 -0.16489040017E+02 -0.70859858107E+01  0.24365815753E+02  0.30262065580E+02  0.51100000000E-03 0.  1.
        -12    1    3    3    0    0 -0.40622431721E+00  0.34148541797E+00  0.79786402761E+00  0.95823665821E+00  0.00000000000E+00 0.  1.
</event>
<event>
 7    1  0.1381440E-008  0.4614232E+02  0.7816164E-02  0.1320468E+00
        -11   -1    0    0    0    0  0.00000000000E+00  0.00000000000E+00  0.45593999997E+02  0.45594000000E+02  0.51100000000E-03 0.  1.
         11   -1    0    0    0    0 -0.00000000000E+00 -0.00000000000E+00 -0.45593999997E+02  0.45594000000E+02  0.51100000000E-03 0. -1.
    9900012    2    1    2    0    0  0.13223619575E+02 -0.33405591502E+02  0.27171966467E+02  0.46142318521E+02  0.10000006930E+02 0.  0.
         12    1    1    2    0    0 -0.13223619575E+02  0.33405591502E+02 -0.27171966467E+02  0.45045681479E+02  0.00000000000E+00 0. -1.
         11    1    3    3    0    0  0.59786680764E+00 -0.54161712115E+00  0.28992146242E+01  0.30093586566E+01  0.51100000000E-03 0. -1.
        -11    1    3    3    0    0  0.77424511257E+01 -0.26079806523E+02  0.17225010156E+02  0.32199422865E+02  0.51100000000E-03 0.  1.
        -12    1    3    3    0    0  0.48833016415E+01 -0.67841678578E+01  0.70477416865E+01  0.10933537000E+02  0.00000000000E+00 0.  1.
</event>
<event>
 7    1  0.1381440E-008  0.4614232E+02  0.7816164E-02  0.1320468E+00
        -11   -1    0    0    0    0  0.00000000000E+00  0.00000000000E+00  0.45593999997E+02  0.45594000000E+02  0.51100000000E-03 0.  1.
         11   -1    0    0    0    0 -0.00000000000E+00 -0.00000000000E+00 -0.45593999997E+02  0.45594000000E+02  0.51100000000E-03 0. -1.
    9900012    2    1    2    0    0  0.28494673281E+02  0.27608778664E+02  0.21328902915E+02  0.46142321358E+02  0.10000032803E+02 0.  0.
         12    1    1    2    0    0 -0.28494673281E+02 -0.27608778664E+02 -0.21328902915E+02  0.45045678642E+02  0.00000000000E+00 0. -1.
         11    1    3    3    0    0  0.37521691080E+01  0.39091204699E+01 -0.15292524264E+00  0.54206440811E+01  0.51100000000E-03 0. -1.
        -11    1    3    3    0    0  0.81524029103E+01  0.79158646629E+01  0.45388285011E+01  0.12236157526E+02  0.51100000000E-03 0.  1.
         12    1    3    3    0    0  0.16590101262E+02  0.15783793532E+02  0.16942999657E+02  0.28485519752E+02  0.00000000000E+00 0. -1.
</event>
<event>
 7    1  0.1381440E-008  0.4614232E+02  0.7816164E-02  0.1320468E+00
        -11   -1    0    0    0    0  0.00000000000E+00  0.00000000000E+00  0.45593999997E+02  0.45594000000E+02  0.51100000000E-03 0.  1.
         11   -1    0    0    0    0 -0.00000000000E+00 -0.00000000000E+00 -0.45593999997E+02  0.45594000000E+02  0.51100000000E-03 0. -1.
    9900012    2    1    2    0    0  0.15905116543E+00  0.31250470679E+02  0.32442197458E+02  0.46142318844E+02  0.10000009872E+02 0.  0.
         12    1    1    2    0    0 -0.15905116543E+00 -0.31250470679E+02 -0.32442197458E+02  0.45045681156E+02  0.00000000000E+00 0. -1.
         11    1    3    3    0    0  0.84442322174E+00  0.67830732203E+01  0.13312784791E+02  0.14965071735E+02  0.51100000000E-03 0. -1.
        -11    1    3    3    0    0 -0.16667592002E+01  0.17544460333E+02  0.13921731351E+02  0.22458868597E+02  0.51100000000E-03 0.  1.
         12    1    3    3    0    0  0.98138714387E+00  0.69229371262E+01  0.52076813161E+01  0.87183785114E+01  0.00000000000E+00 0. -1.
</event>
<event>
 7    1  0.1381440E-008  0.4614232E+02  0.7816164E-02  0.1320468E+00
        -11   -1    0    0    0    0  0.00000000000E+00  0.00000000000E+00  0.45593999997E+02  0.45594000000E+02  0.51100000000E-03 0.  1.
         11   -1    0    0    0    0 -0.00000000000E+00 -0.00000000000E+00 -0.45593999997E+02  0.45594000000E+02  0.51100000000E-03 0. -1.
    9900012    2    1    2    0    0  0.29994116160E+02  0.29327321215E+02  0.16412637438E+02  0.46142318281E+02  0.10000004738E+02 0.  0.
         12    1    1    2    0    0 -0.29994116160E+02 -0.29327321215E+02 -0.16412637438E+02  0.45045681719E+02  0.00000000000E+00 0. -1.
         11    1    3    3    0    0  0.56330636444E+00  0.18920614529E+00  0.15488985744E+01  0.16589756118E+01  0.51100000000E-03 0. -1.
        -11    1    3    3    0    0  0.97910244254E+01  0.14099119262E+02  0.68422099336E+01  0.18478775942E+02  0.51100000000E-03 0.  1.
        -12    1    3    3    0    0  0.19639785370E+02  0.15038995808E+02  0.80215289300E+01  0.26004566727E+02  0.00000000000E+00 0.  1.
</event>
<event>
 7    1  0.1381440E-008  0.4614232E+02  0.7816164E-02  0.1320468E+00
        -11   -1    0    0    0    0  0.00000000000E+00  0.00000000000E+00  0.45593999997E+02  0.45594000000E+02  0.51100000000E-03 0. -1.
         11   -1    0    0    0    0 -0.00000000000E+00 -0.00000000000E+00 -0.45593999997E+02  0.45594000000E+02  0.51100000000E-03 0.  1.
    9900012    2    1    2    0    0  0.68798966266E+01  0.54861594864E+01 -0.44177851901E+02  0.46142317387E+02  0.99999965883E+01 0.  0.
         12    1    1    2    0    0 -0.68798966266E+01 -0.54861594864E+01  0.44177851901E+02  0.45045682613E+02  0.00000000000E+00 0. -1.
         11    1    3    3    0    0  0.29281682607E+00 -0.42147847852E+00 -0.10959339408E+02  0.10971349339E+02  0.51100000000E-03 0. -1.
        -11    1    3    3    0    0  0.55725863931E+01  0.66466594506E+01 -0.32668996721E+02  0.33800815788E+02  0.51100000000E-03 0.  1.
        -12    1    3    3    0    0  0.10144934074E+01 -0.73902148574E+00 -0.54951577207E+00  0.13701522594E+01  0.00000000000E+00 0.  1.
</event>
<event>
 7    1  0.1381440E-008  0.4614232E+02  0.7816164E-02  0.1320468E+00
        -11   -1    0    0    0    0  0.00000000000E+00  0.00000000000E+00  0.45593999997E+02  0.45594000000E+02  0.51100000000E-03 0.  1.
         11   -1    0    0    0    0 -0.00000000000E+00 -0.00000000000E+00 -0.45593999997E+02  0.45594000000E+02  0.51100000000E-03 0. -1.
    9900012    2    1    2    0    0  0.76919647866E+01 -0.40974976237E+02  0.17058679548E+02  0.46142317101E+02  0.99999939831E+01 0.  0.
         12    1    1    2    0    0 -0.76919647866E+01  0.40974976237E+02 -0.17058679548E+02  0.45045682899E+02  0.00000000000E+00 0. -1.
         11    1    3    3    0    0 -0.14450021757E+01 -0.18400133022E+02  0.83985116094E+01  0.20277769208E+02  0.51100000000E-03 0. -1.
        -11    1    3    3    0    0  0.71773536110E+01 -0.16949616236E+02  0.62525609053E+01  0.19439609398E+02  0.51100000000E-03 0.  1.
         12    1    3    3    0    0  0.19596133513E+01 -0.56252269782E+01  0.24076070334E+01  0.64249384954E+01  0.00000000000E+00 0. -1.
</event>
<event>
 7    1  0.1381440E-008  0.4614231E+02  0.7816164E-02  0.1320468E+00
        -11   -1    0    0    0    0  0.00000000000E+00  0.00000000000E+00  0.45593999997E+02  0.45594000000E+02  0.51100000000E-03 0. -1.
         11   -1    0    0    0    0 -0.00000000000E+00 -0.00000000000E+00 -0.45593999997E+02  0.45594000000E+02  0.51100000000E-03 0.  1.
    9900012    2    1    2    0    0 -0.14660995247E+01 -0.44925422523E+02 -0.29446149065E+01  0.46142314373E+02  0.99999691049E+01 0.  0.
         12    1    1    2    0    0  0.14660995247E+01  0.44925422523E+02  0.29446149065E+01  0.45045685627E+02  0.00000000000E+00 0. -1.
         11    1    3    3    0    0  0.23019628644E+01 -0.25143221742E+02 -0.25676846962E+01  0.25378605903E+02  0.51100000000E-03 0.  1.
        -11    1    3    3    0    0 -0.19193356350E+01 -0.17206941094E+02 -0.15513651446E+01  0.17383020600E+02  0.51100000000E-03 0. -1.
         12    1    3    3    0    0 -0.18487267542E+01 -0.25752596863E+01  0.11744349343E+01  0.33806878706E+01  0.00000000000E+00 0. -1.
</event>
<event>
 7    1  0.1381440E-008  0.4614232E+02  0.7816164E-02  0.1320468E+00
        -11   -1    0    0    0    0  0.00000000000E+00  0.00000000000E+00  0.45593999997E+02  0.45594000000E+02  0.51100000000E-03 0. -1.
         11   -1    0    0    0    0 -0.00000000000E+00 -0.00000000000E+00 -0.45593999997E+02  0.45594000000E+02  0.51100000000E-03 0.  1.
    9900012    2    1    2    0    0  0.33281453946E+02  0.29742758022E+02  0.60684944884E+01  0.46142318111E+02  0.10000003187E+02 0.  0.
         12    1    1    2    0    0 -0.33281453946E+02 -0.29742758022E+02 -0.60684944884E+01  0.45045681889E+02  0.00000000000E+00 0. -1.
         11    1    3    3    0    0  0.63895185280E+01  0.68915489182E+01 -0.13705597054E+01  0.94972536914E+01  0.51100000000E-03 0. -1.
        -11    1    3    3    0    0  0.20256995250E+02  0.14408385706E+02  0.30508455529E+01  0.25045061271E+02  0.51100000000E-03 0.  1.
        -12    1    3    3    0    0  0.66349401679E+01  0.84428233982E+01  0.43882086410E+01  0.11600003148E+02  0.00000000000E+00 0.  1.
</event>
<event>
 7    1  0.1381440E-008  0.4614231E+02  0.7816164E-02  0.1320468E+00
        -11   -1    0    0    0    0  0.00000000000E+00  0.00000000000E+00  0.45593999997E+02  0.45594000000E+02  0.51100000000E-03 0.  1.
         11   -1    0    0    0    0 -0.00000000000E+00 -0.00000000000E+00 -0.45593999997E+02  0.45594000000E+02  0.51100000000E-03 0. -1.
    9900012    2    1    2    0    0  0.43170560602E+00 -0.31714891246E+02  0.31985827411E+02  0.46142313729E+02  0.99999632334E+01 0.  0.
         12    1    1    2    0    0 -0.43170560602E+00  0.31714891246E+02 -0.31985827411E+02  0.45045686271E+02  0.00000000000E+00 0. -1.
         11    1    3    3    0    0  0.10435919349E+01 -0.25816120135E+00  0.87850742840E+00  0.13883468210E+01  0.51100000000E-03 0. -1.
        -11    1    3    3    0    0 -0.53723111847E+00 -0.12888460134E+02  0.17466616988E+02  0.21713676132E+02  0.51100000000E-03 0.  1.
        -12    1    3    3    0    0 -0.74655210375E-01 -0.18568269911E+02  0.13640702994E+02  0.23040290776E+02  0.00000000000E+00 0.  1.
</event>
<event>
 7    1  0.1381440E-008  0.4614232E+02  0.7816164E-02  0.1320468E+00
        -11   -1    0    0    0    0  0.00000000000E+00  0.00000000000E+00  0.45593999997E+02  0.45594000000E+02  0.51100000000E-03 0.  1.
         11   -1    0    0    0    0 -0.00000000000E+00 -0.00000000000E+00 -0.45593999997E+02  0.45594000000E+02  0.51100000000E-03 0. -1.
    9900012    2    1    2    0    0 -0.34547105163E+02 -0.18536637618E+02  0.22181167521E+02  0.46142316501E+02  0.99999885122E+01 0.  0.
         12    1    1    2    0    0  0.34547105163E+02  0.18536637618E+02 -0.22181167521E+02  0.45045683499E+02  0.00000000000E+00 0. -1.
         11    1    3    3    0    0 -0.29624948604E+01 -0.78874863073E-01  0.10520554427E+01  0.31447444980E+01  0.51100000000E-03 0. -1.
        -11    1    3    3    0    0 -0.20941376412E+02 -0.13410148103E+02  0.10032899138E+02  0.26814779200E+02  0.51100000000E-03 0.  1.
        -12    1    3    3    0    0 -0.10643233890E+02 -0.50476146516E+01  0.11096212939E+02  0.16182792803E+02  0.00000000000E+00 0.  1.
</event>
<event>
 7    1  0.1381440E-008  0.4614232E+02  0.7816164E-02  0.1320468E+00
        -11   -1    0    0    0    0  0.00000000000E+00  0.00000000000E+00  0.45593999997E+02  0.45594000000E+02  0.51100000000E-03 0.  1.
         11   -1    0    0    0    0 -0.00000000000E+00 -0.00000000000E+00 -0.45593999997E+02  0.45594000000E+02  0.51100000000E-03 0. -1.
    9900012    2    1    2    0    0 -0.17926743277E+02 -0.61423873907E+01  0.40865835130E+02  0.46142317318E+02  0.99999959622E+01 0.  0.
         12    1    1    2    0    0  0.17926743277E+02  0.61423873907E+01 -0.40865835130E+02  0.45045682682E+02  0.00000000000E+00 0. -1.
         11    1    3    3    0    0 -0.69929030312E+01 -0.63847512750E+01  0.14406262306E+02  0.17239667501E+02  0.51100000000E-03 0. -1.
        -11    1    3    3    0    0 -0.41663603200E+01 -0.52747439837E+00  0.14950693943E+02  0.15529328292E+02  0.51100000000E-03 0.  1.
         12    1    3    3    0    0 -0.67674799259E+01  0.76983828270E+00  0.11508878881E+02  0.13373321525E+02  0.00000000000E+00 0. -1.
</event>
<event>
 7    1  0.1381440E-008  0.4614232E+02  0.7816164E-02  0.1320468E+00
        -11   -1    0    0    0    0  0.00000000000E+00  0.00000000000E+00  0.45593999997E+02  0.45594000000E+02  0.51100000000E-03 0. -1.
         11   -1    0    0    0    0 -0.00000000000E+00 -0.00000000000E+00 -0.45593999997E+02  0.45594000000E+02  0.51100000000E-03 0.  1.
    9900012    2    1    2    0    0  0.43339011810E+02  0.45915229495E+01  0.11391288710E+02  0.46142317786E+02  0.10000000231E+02 0.  0.
         12    1    1    2    0    0 -0.43339011810E+02 -0.45915229495E+01 -0.11391288710E+02  0.45045682214E+02  0.00000000000E+00 0. -1.
         11    1    3    3    0    0  0.16599108564E+02  0.53624063315E+00  0.19835685607E+01  0.16725803527E+02  0.51100000000E-03 0. -1.
        -11    1    3    3    0    0  0.42559844404E+01  0.26264537812E+01  0.35656450478E+01  0.61421077726E+01  0.51100000000E-03 0.  1.
        -12    1    3    3    0    0  0.22483918805E+02  0.14288285351E+01  0.58420751011E+01  0.23274406487E+02  0.00000000000E+00 0.  1.
</event>
<event>
 7    1  0.1381440E-008  0.4614232E+02  0.7816164E-02  0.1320468E+00
        -11   -1    0    0    0    0  0.00000000000E+00  0.00000000000E+00  0.45593999997E+02  0.45594000000E+02  0.51100000000E-03 0.  1.
         11   -1    0    0    0    0 -0.00000000000E+00 -0.00000000000E+00 -0.45593999997E+02  0.45594000000E+02  0.51100000000E-03 0. -1.
    9900012    2    1    2    0    0  0.72534047193E+01 -0.22000030676E+02  0.38632891185E+02  0.46142317509E+02  0.99999976974E+01 0.  0.
         12    1    1    2    0    0 -0.72534047193E+01  0.22000030676E+02 -0.38632891185E+02  0.45045682491E+02  0.00000000000E+00 0. -1.
         11    1    3    3    0    0  0.23655039062E+01 -0.40783949497E+01  0.12931251131E+02  0.13763944571E+02  0.51100000000E-03 0. -1.
        -11    1    3    3    0    0  0.53016406931E+01 -0.18211875808E+02  0.23927603594E+02  0.30533752283E+02  0.51100000000E-03 0.  1.
        -12    1    3    3    0    0 -0.41373987991E+00  0.29024008159E+00  0.17740364607E+01  0.18446206540E+01  0.00000000000E+00 0.  1.
</event>
<event>
 7    1  0.1381440E-008  0.4614232E+02  0.7816164E-02  0.1320468E+00
        -11   -1    0    0    0    0  0.00000000000E+00  0.00000000000E+00  0.45593999997E+02  0.45594000000E+02  0.51100000000E-03 0. -1.
         11   -1    0    0    0    0 -0.00000000000E+00 -0.00000000000E+00 -0.45593999997E+02  0.45594000000E+02  0.51100000000E-03 0.  1.
    9900012    2    1    2    0    0 -0.11229099982E+02  0.41835390224E+02  0.12362076273E+02  0.46142317727E+02  0.99999996931E+01 0.  0.
         12    1    1    2    0    0  0.11229099982E+02 -0.41835390224E+02 -0.12362076273E+02  0.45045682273E+02  0.00000000000E+00 0. -1.
         11    1    3    3    0    0 -0.32931611622E-01  0.58352675570E+01 -0.41688543920E+00  0.58502329597E+01  0.51100000000E-03 0. -1.
        -11    1    3    3    0    0 -0.12129193739E+01  0.10643521625E+02  0.15745533817E+01  0.10827508698E+02  0.51100000000E-03 0.  1.
         12    1    3    3    0    0 -0.99832489964E+01  0.25356601042E+02  0.11204408330E+02  0.29464576070E+02  0.00000000000E+00 0. -1.
</event>
<event>
 7    1  0.1381440E-008  0.4614232E+02  0.7816164E-02  0.1320468E+00
        -11   -1    0    0    0    0  0.00000000000E+00  0.00000000000E+00  0.45593999997E+02  0.45594000000E+02  0.51100000000E-03 0.  1.
         11   -1    0    0    0    0 -0.00000000000E+00 -0.00000000000E+00 -0.45593999997E+02  0.45594000000E+02  0.51100000000E-03 0. -1.
    9900012    2    1    2    0    0  0.39630371510E+02  0.16340482596E+02  0.13839644140E+02  0.46142317994E+02  0.10000002124E+02 0.  0.
         12    1    1    2    0    0 -0.39630371510E+02 -0.16340482596E+02 -0.13839644140E+02  0.45045682006E+02  0.00000000000E+00 0. -1.
         11    1    3    3    0    0  0.18769066773E+02  0.98302451736E+01  0.73082750513E+01  0.22412551667E+02  0.51100000000E-03 0.  1.
        -11    1    3    3    0    0  0.16384573345E+02  0.21149935122E+01  0.42986558261E+01  0.17070614617E+02  0.51100000000E-03 0. -1.
         12    1    3    3    0    0  0.44767313915E+01  0.43952439107E+01  0.22327132622E+01  0.66591517101E+01  0.00000000000E+00 0. -1.
</event>
<event>
 7    1  0.1381440E-008  0.4614232E+02  0.7816164E-02  0.1320468E+00
        -11   -1    0    0    0    0  0.00000000000E+00  0.00000000000E+00  0.45593999997E+02  0.45594000000E+02  0.51100000000E-03 0. -1.
         11   -1    0    0    0    0 -0.00000000000E+00 -0.00000000000E+00 -0.45593999997E+02  0.45594000000E+02  0.51100000000E-03 0.  1.
    9900012    2    1    2    0    0 -0.16243007999E+02  0.19258970753E+02 -0.37341267797E+02  0.46142317144E+02  0.99999943686E+01 0.  0.
         12    1    1    2    0    0  0.16243007999E+02 -0.19258970753E+02  0.37341267797E+02  0.45045682856E+02  0.00000000000E+00 0. -1.
         11    1    3    3    0    0 -0.50642918122E+01  0.23414453098E+01 -0.10588435020E+02  0.11968474177E+02  0.51100000000E-03 0. -1.
        -11    1    3    3    0    0 -0.20761715041E+01  0.85446266686E+01 -0.94866539390E+01  0.12935135726E+02  0.51100000000E-03 0.  1.
        -12    1    3    3    0    0 -0.91025446829E+01  0.83728987751E+01 -0.17266178837E+02  0.21238707241E+02  0.00000000000E+00 0.  1.
</event>
<event>
 7    1  0.1381440E-008  0.4614232E+02  0.7816164E-02  0.1320468E+00
        -11   -1    0    0    0    0  0.00000000000E+00  0.00000000000E+00  0.45593999997E+02  0.45594000000E+02  0.51100000000E-03 0.  1.
         11   -1    0    0    0    0 -0.00000000000E+00 -0.00000000000E+00 -0.45593999997E+02  0.45594000000E+02  0.51100000000E-03 0. -1.
    9900012    2    1    2    0    0  0.40823122893E+01 -0.41879363324E+02  0.16080023145E+02  0.46142317739E+02  0.99999997940E+01 0.  0.
         12    1    1    2    0    0 -0.40823122893E+01  0.41879363324E+02 -0.16080023145E+02  0.45045682261E+02  0.00000000000E+00 0. -1.
         11    1    3    3    0    0  0.12123703457E+01 -0.29238474044E+02  0.94296552481E+01  0.30745350944E+02  0.51100000000E-03 0. -1.
        -11    1    3    3    0    0  0.36894672926E+01 -0.76817938470E+01  0.25069146252E+01  0.88829469665E+01  0.51100000000E-03 0.  1.
        -12    1    3    3    0    0 -0.81952534901E+00 -0.49590954331E+01  0.41434532715E+01  0.65140198284E+01  0.00000000000E+00 0.  1.
</event>
<event>
 7    1  0.1381440E-008  0.4614232E+02  0.7816164E-02  0.1320468E+00
        -11   -1    0    0    0    0  0.00000000000E+00  0.00000000000E+00  0.45593999997E+02  0.45594000000E+02  0.51100000000E-03 0. -1.
         11   -1    0    0    0    0 -0.00000000000E+00 -0.00000000000E+00 -0.45593999997E+02  0.45594000000E+02  0.51100000000E-03 0.  1.
    9900012    2    1    2    0    0  0.17816368205E+02  0.58933327879E+01 -0.40950690865E+02  0.46142318412E+02  0.10000005937E+02 0.  0.
         12    1    1    2    0    0 -0.17816368205E+02 -0.58933327879E+01  0.40950690865E+02  0.45045681588E+02  0.00000000000E+00 0. -1.
         11    1    3    3    0    0  0.58414002916E+01 -0.34419379603E+00 -0.48992916552E+01  0.76317419846E+01  0.51100000000E-03 0. -1.
        -11    1    3    3    0    0  0.77476834551E+01  0.40434003501E+01 -0.24699676000E+02  0.26200184733E+02  0.51100000000E-03 0.  1.
         12    1    3    3    0    0  0.42272844587E+01  0.21941262338E+01 -0.11351723210E+02  0.12310391694E+02  0.00000000000E+00 0. -1.
</event>
<event>
 7    1  0.1381440E-008  0.4614232E+02  0.7816164E-02  0.1320468E+00
        -11   -1    0    0    0    0  0.00000000000E+00  0.00000000000E+00  0.45593999997E+02  0.45594000000E+02  0.51100000000E-03 0. -1.
         11   -1    0    0    0    0 -0.00000000000E+00 -0.00000000000E+00 -0.45593999997E+02  0.45594000000E+02  0.51100000000E-03 0.  1.
    9900012    2    1    2    0    0  0.32924427748E+02  0.96603211610E+01 -0.29185161955E+02  0.46142318455E+02  0.10000006331E+02 0.  0.
         12    1    1    2    0    0 -0.32924427748E+02 -0.96603211610E+01  0.29185161955E+02  0.45045681545E+02  0.00000000000E+00 0. -1.
         11    1    3    3    0    0  0.58885987975E+01  0.82324985393E+00 -0.15159361209E+01  0.61360735576E+01  0.51100000000E-03 0. -1.
        -11    1    3    3    0    0  0.24232508745E+02  0.80078576813E+01 -0.26677485563E+02  0.36919215877E+02  0.51100000000E-03 0.  1.
        -12    1    3    3    0    0  0.28033202055E+01  0.82921362572E+00 -0.99174027141E+00  0.30870290212E+01  0.00000000000E+00 0.  1.
</event>
<event>
 7    1  0.1381440E-008  0.4614232E+02  0.7816164E-02  0.1320468E+00
        -11   -1    0    0    0    0  0.00000000000E+00  0.00000000000E+00  0.45593999997E+02  0.45594000000E+02  0.51100000000E-03 0.  1.
         11   -1    0    0    0    0 -0.00000000000E+00 -0.00000000000E+00 -0.45593999997E+02  0.45594000000E+02  0.51100000000E-03 0. -1.
    9900012    2    1    2    0    0 -0.22035564737E+02  0.81428672598E+01  0.38434895206E+02  0.46142316855E+02  0.99999917362E+01 0.  0.
         12    1    1    2    0    0  0.22035564737E+02 -0.81428672598E+01 -0.38434895206E+02  0.45045683145E+02  0.00000000000E+00 0. -1.
         11    1    3    3    0    0 -0.43208215476E+01  0.29004543378E+01  0.12754484683E+02  0.13775304497E+02  0.51100000000E-03 0. -1.
        -11    1    3    3    0    0  0.45207907930E+00 -0.11370012563E+00  0.10675039484E-01  0.46628042002E+00  0.51100000000E-03 0.  1.
        -12    1    3    3    0    0 -0.18166822269E+02  0.53561130476E+01  0.25669735484E+02  0.31900731938E+02  0.00000000000E+00 0.  1.
</event>
<event>
 7    1  0.1381440E-008  0.4614232E+02  0.7816164E-02  0.1320468E+00
        -11   -1    0    0    0    0  0.00000000000E+00  0.00000000000E+00  0.45593999997E+02  0.45594000000E+02  0.51100000000E-03 0.  1.
         11   -1    0    0    0    0 -0.00000000000E+00 -0.00000000000E+00 -0.45593999997E+02  0.45594000000E+02  0.51100000000E-03 0. -1.
    9900012    2    1    2    0    0  0.13089285917E+02  0.31559576280E+02  0.29356045473E+02  0.46142315783E+02  0.99999819585E+01 0.  0.
         12    1    1    2    0    0 -0.13089285917E+02 -0.31559576280E+02 -0.29356045473E+02  0.45045684217E+02  0.00000000000E+00 0. -1.
         11    1    3    3    0    0  0.85670824124E+01  0.24859943924E+02  0.17878105288E+02  0.31796829432E+02  0.51100000000E-03 0. -1.
        -11    1    3    3    0    0  0.48076725109E+01  0.65688319470E+01  0.11423018659E+02  0.14026711078E+02  0.51100000000E-03 0.  1.
         12    1    3    3    0    0 -0.28546900647E+00  0.13080040900E+00  0.54921526628E-01  0.31877527310E+00  0.00000000000E+00 0. -1.
</event>
<event>
 7    1  0.1381440E-008  0.4614232E+02  0.7816164E-02  0.1320468E+00
        -11   -1    0    0    0    0  0.00000000000E+00  0.00000000000E+00  0.45593999997E+02  0.45594000000E+02  0.51100000000E-03 0.  1.
         11   -1    0    0    0    0 -0.00000000000E+00 -0.00000000000E+00 -0.45593999997E+02  0.45594000000E+02  0.51100000000E-03 0. -1.
    9900012    2    1    2    0    0  0.20202778518E+00  0.21036584407E+02  0.39831328722E+02  0.46142318225E+02  0.10000004234E+02 0.  0.
         12    1    1    2    0    0 -0.20202778518E+00 -0.21036584407E+02 -0.39831328722E+02  0.45045681775E+02  0.00000000000E+00 0. -1.
         11    1    3    3    0    0 -0.24104666189E+01  0.11510827331E+02  0.14613447736E+02  0.18757994300E+02  0.51100000000E-03 0. -1.
        -11    1    3    3    0    0  0.88806291870E+00  0.66815329255E+01  0.12093349273E+02  0.13844877568E+02  0.51100000000E-03 0.  1.
         12    1    3    3    0    0  0.17244314854E+01  0.28442241514E+01  0.13124531713E+02  0.13539446357E+02  0.00000000000E+00 0. -1.
</event>
<event>
 7    1  0.1381440E-008  0.4614232E+02  0.7816164E-02  0.1320468E+00
        -11   -1    0    0    0    0  0.00000000000E+00  0.00000000000E+00  0.45593999997E+02  0.45594000000E+02  0.51100000000E-03 0.  1.
         11   -1    0    0    0    0 -0.00000000000E+00 -0.00000000000E+00 -0.45593999997E+02  0.45594000000E+02  0.51100000000E-03 0. -1.
    9900012    2    1    2    0    0  0.29971946112E+02  0.33506559109E+02 -0.28471727204E+01  0.46142318192E+02  0.10000003929E+02 0.  0.
         12    1    1    2    0    0 -0.29971946112E+02 -0.33506559109E+02  0.28471727204E+01  0.45045681808E+02  0.00000000000E+00 0. -1.
         11    1    3    3    0    0  0.92382460734E+01  0.86233822590E+01 -0.49397085196E+01  0.13568663627E+02  0.51100000000E-03 0. -1.
        -11    1    3    3    0    0  0.15824084417E+02  0.19537941206E+02  0.27190361918E+01  0.25288850354E+02  0.51100000000E-03 0.  1.
        -12    1    3    3    0    0  0.49096156217E+01  0.53452356443E+01 -0.62650039256E+00  0.72848042107E+01  0.00000000000E+00 0.  1.
</event>
<event>
 7    1  0.1381440E-008  0.4614232E+02  0.7816164E-02  0.1320468E+00
        -11   -1    0    0    0    0  0.00000000000E+00  0.00000000000E+00  0.45593999997E+02  0.45594000000E+02  0.51100000000E-03 0.  1.
         11   -1    0    0    0    0 -0.00000000000E+00 -0.00000000000E+00 -0.45593999997E+02  0.45594000000E+02  0.51100000000E-03 0. -1.
    9900012    2    1    2    0    0  0.13856344038E+02 -0.10118407056E+01  0.42849635190E+02  0.46142319546E+02  0.10000016273E+02 0.  0.
         12    1    1    2    0    0 -0.13856344038E+02  0.10118407056E+01 -0.42849635190E+02  0.45045680454E+02  0.00000000000E+00 0. -1.
         11    1    3    3    0    0  0.97402349817E+00  0.15498455117E+01  0.13249950575E+02  0.13375796551E+02  0.51100000000E-03 0. -1.
        -11    1    3    3    0    0  0.19988013257E+01  0.10443137971E+01  0.26523279960E+01  0.34814712559E+01  0.51100000000E-03 0.  1.
        -12    1    3    3    0    0  0.10883519214E+02 -0.36060000144E+01  0.26947356619E+02  0.29285051738E+02  0.00000000000E+00 0.  1.
</event>
<event>
 7    1  0.1381440E-008  0.4614232E+02  0.7816164E-02  0.1320468E+00
        -11   -1    0    0    0    0  0.00000000000E+00  0.00000000000E+00  0.45593999997E+02  0.45594000000E+02  0.51100000000E-03 0. -1.
         11   -1    0    0    0    0 -0.00000000000E+00 -0.00000000000E+00 -0.45593999997E+02  0.45594000000E+02  0.51100000000E-03 0.  1.
    9900012    2    1    2    0    0 -0.12643405195E+02  0.51424437256E+01 -0.42927997818E+02  0.46142318530E+02  0.10000007011E+02 0.  0.
         12    1    1    2    0    0  0.12643405195E+02 -0.51424437256E+01  0.42927997818E+02  0.45045681470E+02  0.00000000000E+00 0. -1.
         11    1    3    3    0    0 -0.96294478973E+01  0.68635013338E+01 -0.25165433090E+02  0.27805268210E+02  0.51100000000E-03 0. -1.
        -11    1    3    3    0    0 -0.27107951093E+01 -0.10267649829E+01 -0.17057750719E+02  0.17302298007E+02  0.51100000000E-03 0.  1.
         12    1    3    3    0    0 -0.30316218878E+00 -0.69429262531E+00 -0.70481400925E+00  0.10347523133E+01  0.00000000000E+00 0. -1.
</event>
<event>
 7    1  0.1381440E-008  0.4614232E+02  0.7816164E-02  0.1320468E+00
        -11   -1    0    0    0    0  0.00000000000E+00  0.00000000000E+00  0.45593999997E+02  0.45594000000E+02  0.51100000000E-03 0. -1.
         11   -1    0    0    0    0 -0.00000000000E+00 -0.00000000000E+00 -0.45593999997E+02  0.45594000000E+02  0.51100000000E-03 0.  1.
    9900012    2    1    2    0    0  0.25735903261E+02 -0.31377696418E+02 -0.19550369954E+02  0.46142317471E+02  0.99999973519E+01 0.  0.
         12    1    1    2    0    0 -0.25735903261E+02  0.31377696418E+02  0.19550369954E+02  0.45045682529E+02  0.00000000000E+00 0. -1.
         11    1    3    3    0    0  0.11642767028E+02 -0.15431654817E+02 -0.49180228364E+01  0.19946852968E+02  0.51100000000E-03 0. -1.
        -11    1    3    3    0    0  0.73096172344E+01 -0.51240399724E+01 -0.53599281590E+01  0.10412258155E+02  0.51100000000E-03 0.  1.
         12    1    3    3    0    0  0.67835189986E+01 -0.10822001629E+02 -0.92724189588E+01  0.15783206348E+02  0.00000000000E+00 0. -1.
</event>
<event>
 7    1  0.1381440E-008  0.4614232E+02  0.7816164E-02  0.1320468E+00
        -11   -1    0    0    0    0  0.00000000000E+00  0.00000000000E+00  0.45593999997E+02  0.45594000000E+02  0.51100000000E-03 0. -1.
         11   -1    0    0    0    0 -0.00000000000E+00 -0.00000000000E+00 -0.45593999997E+02  0.45594000000E+02  0.51100000000E-03 0.  1.
    9900012    2    1    2    0    0  0.31468985954E+02  0.29706322815E+02 -0.12504028580E+02  0.46142318488E+02  0.10000006626E+02 0.  0.
         12    1    1    2    0    0 -0.31468985954E+02 -0.29706322815E+02  0.12504028580E+02  0.45045681512E+02  0.00000000000E+00 0. -1.
         11    1    3    3    0    0  0.97251407971E+01  0.55771168595E+01 -0.92506366031E+00  0.11248926128E+02  0.51100000000E-03 0. -1.
        -11    1    3    3    0    0  0.19718381264E+02  0.22099746663E+02 -0.87928316668E+01  0.30895424439E+02  0.51100000000E-03 0.  1.
         12    1    3    3    0    0  0.20254638929E+01  0.20294592924E+01 -0.27861332526E+01  0.39979679216E+01  0.00000000000E+00 0. -1.
</event>
<event>
 7    1  0.1381440E-008  0.4614232E+02  0.7816164E-02  0.1320468E+00
        -11   -1    0    0    0    0  0.00000000000E+00  0.00000000000E+00  0.45593999997E+02  0.45594000000E+02  0.51100000000E-03 0.  1.
         11   -1    0    0    0    0 -0.00000000000E+00 -0.00000000000E+00 -0.45593999997E+02  0.45594000000E+02  0.51100000000E-03 0. -1.
    9900012    2    1    2    0    0 -0.86503498864E+01 -0.44164962506E+02 -0.19341726752E+01  0.46142317740E+02  0.99999998094E+01 0.  0.
         12    1    1    2    0    0  0.86503498864E+01  0.44164962506E+02  0.19341726752E+01  0.45045682260E+02  0.00000000000E+00 0. -1.
         11    1    3    3    0    0 -0.56133503980E-01 -0.44576984844E+01 -0.65353606417E+00  0.45057004335E+01  0.51100000000E-03 0. -1.
        -11    1    3    3    0    0 -0.21922450747E+01 -0.29250365882E+02 -0.15410872818E+01  0.29372858100E+02  0.51100000000E-03 0.  1.
        -12    1    3    3    0    0 -0.64019713077E+01 -0.10456898140E+02  0.26045067077E+00  0.12263759207E+02  0.00000000000E+00 0.  1.
</event>
<event>
 7    1  0.1381440E-008  0.4614232E+02  0.7816164E-02  0.1320468E+00
        -11   -1    0    0    0    0  0.00000000000E+00  0.00000000000E+00  0.45593999997E+02  0.45594000000E+02  0.51100000000E-03 0. -1.
         11   -1    0    0    0    0 -0.00000000000E+00 -0.00000000000E+00 -0.45593999997E+02  0.45594000000E+02  0.51100000000E-03 0.  1.
    9900012    2    1    2    0    0 -0.15686118918E+02  0.42207812095E+02 -0.12488807445E+01  0.46142318390E+02  0.10000005736E+02 0.  0.
         12    1    1    2    0    0  0.15686118918E+02 -0.42207812095E+02  0.12488807445E+01  0.45045681610E+02  0.00000000000E+00 0. -1.
         11    1    3    3    0    0 -0.55814746942E+01  0.12234659968E+02  0.40339685737E+01  0.14039681870E+02  0.51100000000E-03 0. -1.
        -11    1    3    3    0    0 -0.18158751354E+01  0.58651552589E+01 -0.15999381227E+01  0.63448602015E+01  0.51100000000E-03 0.  1.
         12    1    3    3    0    0 -0.82887690884E+01  0.24107996868E+02 -0.36829111955E+01  0.25757776318E+02  0.00000000000E+00 0. -1.
</event>
<event>
 7    1  0.1381440E-008  0.4614232E+02  0.7816164E-02  0.1320468E+00
        -11   -1    0    0    0    0  0.00000000000E+00  0.00000000000E+00  0.45593999997E+02  0.45594000000E+02  0.51100000000E-03 0. -1.
         11   -1    0    0    0    0 -0.00000000000E+00 -0.00000000000E+00 -0.45593999997E+02  0.45594000000E+02  0.51100000000E-03 0.  1.
    9900012    2    1    2    0    0  0.20482717880E+02 -0.69797074145E+01 -0.39507659459E+02  0.46142320925E+02  0.10000028853E+02 0.  0.
         12    1    1    2    0    0 -0.20482717880E+02  0.69797074145E+01  0.39507659459E+02  0.45045679075E+02  0.00000000000E+00 0. -1.
         11    1    3    3    0    0  0.84704583907E+01 -0.48654318884E+01 -0.10171922167E+02  0.14102804460E+02  0.51100000000E-03 0. -1.
        -11    1    3    3    0    0  0.80388927799E+01  0.46393810316E+00 -0.20274286505E+02  0.21814805276E+02  0.51100000000E-03 0.  1.
         12    1    3    3    0    0  0.39733667098E+01 -0.25782136292E+01 -0.90614507869E+01  0.10224711189E+02  0.00000000000E+00 0. -1.
</event>
<event>
 7    1  0.1381440E-008  0.4614232E+02  0.7816164E-02  0.1320468E+00
        -11   -1    0    0    0    0  0.00000000000E+00  0.00000000000E+00  0.45593999997E+02  0.45594000000E+02  0.51100000000E-03 0.  1.
         11   -1    0    0    0    0 -0.00000000000E+00 -0.00000000000E+00 -0.45593999997E+02  0.45594000000E+02  0.51100000000E-03 0. -1.
    9900012    2    1    2    0    0 -0.33973113025E+02 -0.17282542175E+00  0.29578897614E+02  0.46142318062E+02  0.10000002745E+02 0.  0.
         12    1    1    2    0    0  0.33973113025E+02  0.17282542175E+00 -0.29578897614E+02  0.45045681938E+02  0.00000000000E+00 0. -1.
         11    1    3    3    0    0 -0.16435160335E+02 -0.31059069927E+01  0.10937053810E+02  0.19984501490E+02  0.51100000000E-03 0. -1.
        -11    1    3    3    0    0 -0.12955592156E+02  0.93360162199E+00  0.10975615275E+02  0.17005384765E+02  0.51100000000E-03 0.  1.
         12    1    3    3    0    0 -0.45823605339E+01  0.19994799489E+01  0.76662285290E+01  0.91524318073E+01  0.00000000000E+00 0. -1.
</event>
<event>
 7    1  0.1381440E-008  0.4614232E+02  0.7816164E-02  0.1320468E+00
        -11   -1    0    0    0    0  0.00000000000E+00  0.00000000000E+00  0.45593999997E+02  0.45594000000E+02  0.51100000000E-03 0.  1.
         11   -1    0    0    0    0 -0.00000000000E+00 -0.00000000000E+00 -0.45593999997E+02  0.45594000000E+02  0.51100000000E-03 0. -1.
    9900012    2    1    2    0    0 -0.88675237087E+01 -0.36975194937E+01  0.44009190361E+02  0.46142318039E+02  0.10000002534E+02 0.  0.
         12    1    1    2    0    0  0.88675237087E+01  0.36975194937E+01 -0.44009190361E+02  0.45045681961E+02  0.00000000000E+00 0. -1.
         11    1    3    3    0    0 -0.61884199655E+00  0.10901035997E+01  0.13319097337E+02  0.13377953707E+02  0.51100000000E-03 0. -1.
        -11    1    3    3    0    0 -0.29509942188E+01  0.13872720837E+01  0.71652876208E+01  0.78723717940E+01  0.51100000000E-03 0.  1.
         12    1    3    3    0    0 -0.52976874934E+01 -0.61748951770E+01  0.23524805403E+02  0.24891992538E+02  0.00000000000E+00 0. -1.
</event>
<event>
 7    1  0.1381440E-008  0.4614232E+02  0.7816164E-02  0.1320468E+00
        -11   -1    0    0    0    0  0.00000000000E+00  0.00000000000E+00  0.45593999997E+02  0.45594000000E+02  0.51100000000E-03 0. -1.
         11   -1    0    0    0    0 -0.00000000000E+00 -0.00000000000E+00 -0.45593999997E+02  0.45594000000E+02  0.51100000000E-03 0.  1.
    9900012    2    1    2    0    0  0.39933812559E+02 -0.19943080458E+02 -0.60562064060E+01  0.46142317858E+02  0.10000000881E+02 0.  0.
         12    1    1    2    0    0 -0.39933812559E+02  0.19943080458E+02  0.60562064060E+01  0.45045682142E+02  0.00000000000E+00 0. -1.
         11    1    3    3    0    0  0.61082027925E+01 -0.93001373772E+00 -0.37130005287E+01  0.72084284067E+01  0.51100000000E-03 0. -1.
        -11    1    3    3    0    0  0.18181182674E+02 -0.93970580688E+01 -0.42431842589E+00  0.20470470199E+02  0.51100000000E-03 0.  1.
         12    1    3    3    0    0  0.15644427092E+02 -0.96160086510E+01 -0.19188874514E+01  0.18463419252E+02  0.00000000000E+00 0. -1.
</event>
<event>
 7    1  0.1381440E-008  0.4614232E+02  0.7816164E-02  0.1320468E+00
        -11   -1    0    0    0    0  0.00000000000E+00  0.00000000000E+00  0.45593999997E+02  0.45594000000E+02  0.51100000000E-03 0. -1.
         11   -1    0    0    0    0 -0.00000000000E+00 -0.00000000000E+00 -0.45593999997E+02  0.45594000000E+02  0.51100000000E-03 0.  1.
    9900012    2    1    2    0    0 -0.78610895800E-01 -0.20572198876E+02 -0.40073582106E+02  0.46142317309E+02  0.99999958751E+01 0.  0.
         12    1    1    2    0    0  0.78610895800E-01  0.20572198876E+02  0.40073582106E+02  0.45045682691E+02  0.00000000000E+00 0. -1.
         11    1    3    3    0    0 -0.99060570517E+00 -0.46183891495E+01 -0.12428828694E+02  0.13296112250E+02  0.51100000000E-03 0. -1.
        -11    1    3    3    0    0 -0.25340173560E+00 -0.83977611884E+01 -0.73633959032E+01  0.11171669746E+02  0.51100000000E-03 0.  1.
        -12    1    3    3    0    0  0.11653965450E+01 -0.75560485384E+01 -0.20281357509E+02  0.21674535313E+02  0.00000000000E+00 0.  1.
</event>
<event>
 7    1  0.1381440E-008  0.4614232E+02  0.7816164E-02  0.1320468E+00
        -11   -1    0    0    0    0  0.00000000000E+00  0.00000000000E+00  0.45593999997E+02  0.45594000000E+02  0.51100000000E-03 0.  1.
         11   -1    0    0    0    0 -0.00000000000E+00 -0.00000000000E+00 -0.45593999997E+02  0.45594000000E+02  0.51100000000E-03 0. -1.
    9900012    2    1    2    0    0 -0.32917252235E+01  0.33858654657E+02  0.29527436527E+02  0.46142318099E+02  0.10000003078E+02 0.  0.
         12    1    1    2    0    0  0.32917252235E+01 -0.33858654657E+02 -0.29527436527E+02  0.45045681901E+02  0.00000000000E+00 0. -1.
         11    1    3    3    0    0  0.71660242755E+00  0.19463335750E+02  0.13324628924E+02  0.23598319723E+02  0.51100000000E-03 0.  1.
        -11    1    3    3    0    0 -0.14660979387E+01  0.12280256201E+02  0.12721765885E+02  0.17742532599E+02  0.51100000000E-03 0. -1.
         12    1    3    3    0    0 -0.25422297123E+01  0.21150627064E+01  0.34810417175E+01  0.48014657764E+01  0.00000000000E+00 0. -1.
</event>
<event>
 7    1  0.1381440E-008  0.4614232E+02  0.7816164E-02  0.1320468E+00
        -11   -1    0    0    0    0  0.00000000000E+00  0.00000000000E+00  0.45593999997E+02  0.45594000000E+02  0.51100000000E-03 0. -1.
         11   -1    0    0    0    0 -0.00000000000E+00 -0.00000000000E+00 -0.45593999997E+02  0.45594000000E+02  0.51100000000E-03 0.  1.
    9900012    2    1    2    0    0  0.35654559229E+02 -0.60734080703E+01 -0.26851057311E+02  0.46142321427E+02  0.10000033431E+02 0.  0.
         12    1    1    2    0    0 -0.35654559229E+02  0.60734080703E+01  0.26851057311E+02  0.45045678573E+02  0.00000000000E+00 0. -1.
         11    1    3    3    0    0  0.12961220723E+01  0.41475079264E+00 -0.28255716859E+01  0.31362088993E+01  0.51100000000E-03 0. -1.
        -11    1    3    3    0    0  0.12898434528E+02 -0.58247632957E+01 -0.10625058579E+02  0.17697156573E+02  0.51100000000E-03 0.  1.
        -12    1    3    3    0    0  0.21460002629E+02 -0.66339556729E+00 -0.13400427046E+02  0.25308955955E+02  0.00000000000E+00 0.  1.
</event>
<event>
 7    1  0.1381440E-008  0.4614232E+02  0.7816164E-02  0.1320468E+00
        -11   -1    0    0    0    0  0.00000000000E+00  0.00000000000E+00  0.45593999997E+02  0.45594000000E+02  0.51100000000E-03 0.  1.
         11   -1    0    0    0    0 -0.00000000000E+00 -0.00000000000E+00 -0.45593999997E+02  0.45594000000E+02  0.51100000000E-03 0. -1.
    9900012    2    1    2    0    0  0.27713561476E+02  0.35510194151E+02 -0.31317244083E+00  0.46142318128E+02  0.10000003343E+02 0.  0.
         12    1    1    2    0    0 -0.27713561476E+02 -0.35510194151E+02  0.31317244083E+00  0.45045681872E+02  0.00000000000E+00 0. -1.
         11    1    3    3    0    0  0.15542638847E+02  0.21803967044E+02 -0.20254942522E+00  0.26777371561E+02  0.51100000000E-03 0.  1.
        -11    1    3    3    0    0  0.10516530720E+02  0.10797032697E+02  0.22914140903E+01  0.15245455462E+02  0.51100000000E-03 0. -1.
        -12    1    3    3    0    0  0.16543919097E+01  0.29091944104E+01 -0.24020371060E+01  0.41194911053E+01  0.00000000000E+00 0.  1.
</event>
<event>
 7    1  0.1381440E-008  0.4614232E+02  0.7816164E-02  0.1320468E+00
        -11   -1    0    0    0    0  0.00000000000E+00  0.00000000000E+00  0.45593999997E+02  0.45594000000E+02  0.51100000000E-03 0. -1.
         11   -1    0    0    0    0 -0.00000000000E+00 -0.00000000000E+00 -0.45593999997E+02  0.45594000000E+02  0.51100000000E-03 0.  1.
    9900012    2    1    2    0    0 -0.38224044005E+02 -0.21103369926E+02  0.11076267471E+02  0.46142318038E+02  0.10000002523E+02 0.  0.
         12    1    1    2    0    0  0.38224044005E+02  0.21103369926E+02 -0.11076267471E+02  0.45045681962E+02  0.00000000000E+00 0. -1.
         11    1    3    3    0    0 -0.18156053908E+01 -0.23468364083E+01  0.13141963872E+01  0.32451774169E+01  0.51100000000E-03 0. -1.
        -11    1    3    3    0    0 -0.19733096182E+02 -0.14123277474E+02  0.77474711788E+01  0.25473228329E+02  0.51100000000E-03 0.  1.
        -12    1    3    3    0    0 -0.16675342432E+02 -0.46332560436E+01  0.20145999055E+01  0.17423912292E+02  0.00000000000E+00 0.  1.
</event>
<event>
 7    1  0.1381440E-008  0.4614232E+02  0.7816164E-02  0.1320468E+00
        -11   -1    0    0    0    0  0.00000000000E+00  0.00000000000E+00  0.45593999997E+02  0.45594000000E+02  0.51100000000E-03 0.  1.
         11   -1    0    0    0    0 -0.00000000000E+00 -0.00000000000E+00 -0.45593999997E+02  0.45594000000E+02  0.51100000000E-03 0. -1.
    9900012    2    1    2    0    0 -0.31672515975E+02  0.29917136765E+02  0.11442467351E+02  0.46142318748E+02  0.10000008999E+02 0.  0.
         12    1    1    2    0    0  0.31672515975E+02 -0.29917136765E+02 -0.11442467351E+02  0.45045681252E+02  0.00000000000E+00 0. -1.
         11    1    3    3    0    0 -0.15077420483E+02  0.17890030654E+02  0.10362502146E+02  0.25588342194E+02  0.51100000000E-03 0. -1.
        -11    1    3    3    0    0 -0.81219440679E+01  0.52587241883E+01  0.27748880669E+00  0.96797291196E+01  0.51100000000E-03 0.  1.
         12    1    3    3    0    0 -0.84731514240E+01  0.67683819226E+01  0.80247639752E+00  0.10874247435E+02  0.00000000000E+00 0. -1.
</event>
<event>
 7    1  0.1381440E-008  0.4614232E+02  0.7816164E-02  0.1320468E+00
        -11   -1    0    0    0    0  0.00000000000E+00  0.00000000000E+00  0.45593999997E+02  0.45594000000E+02  0.51100000000E-03 0.  1.
         11   -1    0    0    0    0 -0.00000000000E+00 -0.00000000000E+00 -0.45593999997E+02  0.45594000000E+02  0.51100000000E-03 0. -1.
    9900012    2    1    2    0    0 -0.44369094823E+02 -0.19814982889E+01 -0.75213340532E+01  0.46142318999E+02  0.10000011286E+02 0.  0.
         12    1    1    2    0    0  0.44369094823E+02  0.19814982889E+01  0.75213340532E+01  0.45045681001E+02  0.00000000000E+00 0. -1.
         11    1    3    3    0    0 -0.22430408248E+02  0.12172037704E+01 -0.57100276624E+01  0.23177774168E+02  0.51100000000E-03 0. -1.
        -11    1    3    3    0    0 -0.16374950591E+02 -0.46300309888E+00 -0.29938964047E+01  0.16652831431E+02  0.51100000000E-03 0.  1.
         12    1    3    3    0    0 -0.55637359843E+01 -0.27356989604E+01  0.11825900140E+01  0.63117134002E+01  0.00000000000E+00 0. -1.
</event>
<event>
 7    1  0.1381440E-008  0.4614232E+02  0.7816164E-02  0.1320468E+00
        -11   -1    0    0    0    0  0.00000000000E+00  0.00000000000E+00  0.45593999997E+02  0.45594000000E+02  0.51100000000E-03 0. -1.
         11   -1    0    0    0    0 -0.00000000000E+00 -0.00000000000E+00 -0.45593999997E+02  0.45594000000E+02  0.51100000000E-03 0.  1.
    9900012    2    1    2    0    0 -0.10664353327E+02  0.26170668661E+02  0.35078214838E+02  0.46142317784E+02  0.10000000208E+02 0.  0.
         12    1    1    2    0    0  0.10664353327E+02 -0.26170668661E+02 -0.35078214838E+02  0.45045682216E+02  0.00000000000E+00 0. -1.
         11    1    3    3    0    0 -0.32448638799E+00  0.20077099923E+01  0.63717425938E+01  0.66884448694E+01  0.51100000000E-03 0. -1.
        -11    1    3    3    0    0 -0.90847062874E+01  0.15462547690E+02  0.16201675767E+02  0.24168503621E+02  0.51100000000E-03 0.  1.
         12    1    3    3    0    0 -0.12551606521E+01  0.87004109791E+01  0.12504796478E+02  0.15285369293E+02  0.00000000000E+00 0. -1.
</event>
<event>
 7    1  0.1381440E-008  0.4614232E+02  0.7816164E-02  0.1320468E+00
        -11   -1    0    0    0    0  0.00000000000E+00  0.00000000000E+00  0.45593999997E+02  0.45594000000E+02  0.51100000000E-03 0.  1.
         11   -1    0    0    0    0 -0.00000000000E+00 -0.00000000000E+00 -0.45593999997E+02  0.45594000000E+02  0.51100000000E-03 0. -1.
    9900012    2    1    2    0    0 -0.26341623256E+01 -0.20507093026E+02  0.40020417338E+02  0.46142317860E+02  0.10000000903E+02 0.  0.
         12    1    1    2    0    0  0.26341623256E+01  0.20507093026E+02 -0.40020417338E+02  0.45045682140E+02  0.00000000000E+00 0. -1.
         11    1    3    3    0    0 -0.75024140580E+00 -0.31200197625E+01  0.12424788749E+01  0.34410956832E+01  0.51100000000E-03 0. -1.
        -11    1    3    3    0    0 -0.27728220717E+01 -0.13084435129E+02  0.31119669834E+02  0.33872183805E+02  0.51100000000E-03 0.  1.
        -12    1    3    3    0    0  0.88890115195E+00 -0.43026381348E+01  0.76582686287E+01  0.88290383716E+01  0.00000000000E+00 0.  1.
</event>
<event>
 7    1  0.1381440E-008  0.4614232E+02  0.7816164E-02  0.1320468E+00
        -11   -1    0    0    0    0  0.00000000000E+00  0.00000000000E+00  0.45593999997E+02  0.45594000000E+02  0.51100000000E-03 0.  1.
         11   -1    0    0    0    0 -0.00000000000E+00 -0.00000000000E+00 -0.45593999997E+02  0.45594000000E+02  0.51100000000E-03 0. -1.
    9900012    2    1    2    0    0 -0.15424334176E+02 -0.17481672057E+02  0.38543412754E+02  0.46142316417E+02  0.99999877470E+01 0.  0.
         12    1    1    2    0    0  0.15424334176E+02  0.17481672057E+02 -0.38543412754E+02  0.45045683583E+02  0.00000000000E+00 0. -1.
         11    1    3    3    0    0 -0.52244331768E+01 -0.92539042524E+01  0.17221587356E+02  0.20236415623E+02  0.51100000000E-03 0. -1.
        -11    1    3    3    0    0 -0.10110495834E+02 -0.89667221910E+01  0.18037674439E+02  0.22538454523E+02  0.51100000000E-03 0.  1.
        -12    1    3    3    0    0 -0.89405165169E-01  0.73895438669E+00  0.32841509591E+01  0.33674462715E+01  0.00000000000E+00 0.  1.
</event>
<event>
 7    1  0.1381440E-008  0.4614232E+02  0.7816164E-02  0.1320468E+00
        -11   -1    0    0    0    0  0.00000000000E+00  0.00000000000E+00  0.45593999997E+02  0.45594000000E+02  0.51100000000E-03 0.  1.
         11   -1    0    0    0    0 -0.00000000000E+00 -0.00000000000E+00 -0.45593999997E+02  0.45594000000E+02  0.51100000000E-03 0. -1.
    9900012    2    1    2    0    0 -0.23548759304E+02 -0.38008871532E+02  0.54676416637E+01  0.46142317796E+02  0.10000000316E+02 0.  0.
         12    1    1    2    0    0  0.23548759304E+02  0.38008871532E+02 -0.54676416637E+01  0.45045682204E+02  0.00000000000E+00 0. -1.
         11    1    3    3    0    0  0.89500448389E+00 -0.21849127858E+01  0.79453040216E+00  0.24912157130E+01  0.51100000000E-03 0. -1.
        -11    1    3    3    0    0 -0.14452371711E+02 -0.20551702300E+02  0.19680905067E+01  0.25201525668E+02  0.51100000000E-03 0.  1.
         12    1    3    3    0    0 -0.99913920764E+01 -0.15272256447E+02  0.27050207548E+01  0.18449576415E+02  0.00000000000E+00 0. -1.
</event>
<event>
 7    1  0.1381440E-008  0.4614232E+02  0.7816164E-02  0.1320468E+00
        -11   -1    0    0    0    0  0.00000000000E+00  0.00000000000E+00  0.45593999997E+02  0.45594000000E+02  0.51100000000E-03 0. -1.
         11   -1    0    0    0    0 -0.00000000000E+00 -0.00000000000E+00 -0.45593999997E+02  0.45594000000E+02  0.51100000000E-03 0.  1.
    9900012    2    1    2    0    0  0.56930657992E+01 -0.44673998593E+02 -0.96770857236E+00  0.46142316430E+02  0.99999878583E+01 0.  0.
         12    1    1    2    0    0 -0.56930657992E+01  0.44673998593E+02  0.96770857236E+00  0.45045683570E+02  0.00000000000E+00 0. -1.
         11    1    3    3    0    0  0.26366803191E+01 -0.33329122302E+01  0.34028794212E+00  0.42633535139E+01  0.51100000000E-03 0. -1.
        -11    1    3    3    0    0  0.32098345872E+01 -0.16087164310E+02 -0.25140496474E+01  0.16595792826E+02  0.51100000000E-03 0.  1.
         12    1    3    3    0    0 -0.15344910721E+00 -0.25253922052E+02  0.12060531329E+01  0.25283170090E+02  0.00000000000E+00 0. -1.
</event>
<event>
 7    1  0.1381440E-008  0.4614232E+02  0.7816164E-02  0.1320468E+00
        -11   -1    0    0    0    0  0.00000000000E+00  0.00000000000E+00  0.45593999997E+02  0.45594000000E+02  0.51100000000E-03 0.  1.
         11   -1    0    0    0    0 -0.00000000000E+00 -0.00000000000E+00 -0.45593999997E+02  0.45594000000E+02  0.51100000000E-03 0. -1.
    9900012    2    1    2    0    0 -0.43610556326E+02 -0.59783439925E+01  0.95651604020E+01  0.46142317483E+02  0.99999974632E+01 0.  0.
         12    1    1    2    0    0  0.43610556326E+02  0.59783439925E+01 -0.95651604020E+01  0.45045682517E+02  0.00000000000E+00 0. -1.
         11    1    3    3    0    0 -0.19454056174E+01  0.97695860113E+00  0.15239962534E+01  0.26573701221E+01  0.51100000000E-03 0. -1.
        -11    1    3    3    0    0 -0.23406000491E+02 -0.65482971772E+01  0.26882114768E+01  0.24452965794E+02  0.51100000000E-03 0.  1.
         12    1    3    3    0    0 -0.18259150217E+02 -0.40700541644E+00  0.53529526718E+01  0.19031981567E+02  0.00000000000E+00 0. -1.
</event>
<event>
 7    1  0.1381440E-008  0.4614233E+02  0.7816164E-02  0.1320468E+00
        -11   -1    0    0    0    0  0.00000000000E+00  0.00000000000E+00  0.45593999997E+02  0.45594000000E+02  0.51100000000E-03 0.  1.
         11   -1    0    0    0    0 -0.00000000000E+00 -0.00000000000E+00 -0.45593999997E+02  0.45594000000E+02  0.51100000000E-03 0. -1.
    9900012    2    1    2    0    0  0.96661232928E+01 -0.15905227332E+02  0.41020755485E+02  0.46142327882E+02  0.10000092287E+02 0.  0.
         12    1    1    2    0    0 -0.96661232928E+01  0.15905227332E+02 -0.41020755485E+02  0.45045672118E+02  0.00000000000E+00 0. -1.
         11    1    3    3    0    0  0.14079393640E+01 -0.18269437306E+01  0.61103177716E+00  0.23860797852E+01  0.51100000000E-03 0. -1.
        -11    1    3    3    0    0  0.72183308764E+01 -0.13973988594E+02  0.37514429086E+02  0.40678115096E+02  0.51100000000E-03 0.  1.
         12    1    3    3    0    0  0.10398530524E+01 -0.10429500793E+00  0.28952946222E+01  0.30781330004E+01  0.00000000000E+00 0. -1.
</event>
<event>
 7    1  0.1381440E-008  0.4614232E+02  0.7816164E-02  0.1320468E+00
        -11   -1    0    0    0    0  0.00000000000E+00  0.00000000000E+00  0.45593999997E+02  0.45594000000E+02  0.51100000000E-03 0. -1.
         11   -1    0    0    0    0 -0.00000000000E+00 -0.00000000000E+00 -0.45593999997E+02  0.45594000000E+02  0.51100000000E-03 0.  1.
    9900012    2    1    2    0    0 -0.16517901988E+02  0.41172653716E+02 -0.78156870475E+01  0.46142318031E+02  0.10000002458E+02 0.  0.
         12    1    1    2    0    0  0.16517901988E+02 -0.41172653716E+02  0.78156870475E+01  0.45045681969E+02  0.00000000000E+00 0. -1.
         11    1    3    3    0    0 -0.34295450266E+01  0.74128593547E+01 -0.42735468013E+01  0.92182137872E+01  0.51100000000E-03 0. -1.
        -11    1    3    3    0    0 -0.66031827031E+01  0.24982140467E+02 -0.25499939183E+01  0.25965589410E+02  0.51100000000E-03 0.  1.
        -12    1    3    3    0    0 -0.64851742580E+01  0.87776538934E+01 -0.99214632780E+00  0.10958514834E+02  0.00000000000E+00 0.  1.
</event>
<event>
 7    1  0.1381440E-008  0.4614232E+02  0.7816164E-02  0.1320468E+00
        -11   -1    0    0    0    0  0.00000000000E+00  0.00000000000E+00  0.45593999997E+02  0.45594000000E+02  0.51100000000E-03 0.  1.
         11   -1    0    0    0    0 -0.00000000000E+00 -0.00000000000E+00 -0.45593999997E+02  0.45594000000E+02  0.51100000000E-03 0. -1.
    9900012    2    1    2    0    0 -0.28713045510E+02  0.11007499431E+02  0.32916700253E+02  0.46142321164E+02  0.10000031034E+02 0.  0.
         12    1    1    2    0    0  0.28713045510E+02 -0.11007499431E+02 -0.32916700253E+02  0.45045678836E+02  0.00000000000E+00 0. -1.
         11    1    3    3    0    0 -0.16961864498E+02  0.11423812169E+02  0.21811138861E+02  0.29898730916E+02  0.51100000000E-03 0. -1.
        -11    1    3    3    0    0 -0.60679849487E+01  0.34859452995E+00  0.50326704453E+01  0.78911172565E+01  0.51100000000E-03 0.  1.
         12    1    3    3    0    0 -0.56831960638E+01 -0.76490726771E+00  0.60728909471E+01  0.83524729920E+01  0.00000000000E+00 0. -1.
</event>
<event>
 7    1  0.1381440E-008  0.4614232E+02  0.7816164E-02  0.1320468E+00
        -11   -1    0    0    0    0  0.00000000000E+00  0.00000000000E+00  0.45593999997E+02  0.45594000000E+02  0.51100000000E-03 0.  1.
         11   -1    0    0    0    0 -0.00000000000E+00 -0.00000000000E+00 -0.45593999997E+02  0.45594000000E+02  0.51100000000E-03 0. -1.
    9900012    2    1    2    0    0  0.30112437842E+02  0.11272641324E+02  0.31548094663E+02  0.46142316166E+02  0.99999854521E+01 0.  0.
         12    1    1    2    0    0 -0.30112437842E+02 -0.11272641324E+02 -0.31548094663E+02  0.45045683834E+02  0.00000000000E+00 0. -1.
         11    1    3    3    0    0  0.75782631647E+01  0.58093024210E+01  0.80109574091E+01  0.12464088658E+02  0.51100000000E-03 0. -1.
        -11    1    3    3    0    0  0.10210436149E+02  0.15464896884E+01  0.14896045859E+02  0.18125584658E+02  0.51100000000E-03 0.  1.
         12    1    3    3    0    0  0.12323738529E+02  0.39168492144E+01  0.86410913948E+01  0.15552642849E+02  0.00000000000E+00 0. -1.
</event>
<event>
 7    1  0.1381440E-008  0.4614232E+02  0.7816164E-02  0.1320468E+00
        -11   -1    0    0    0    0  0.00000000000E+00  0.00000000000E+00  0.45593999997E+02  0.45594000000E+02  0.51100000000E-03 0.  1.
         11   -1    0    0    0    0 -0.00000000000E+00 -0.00000000000E+00 -0.45593999997E+02  0.45594000000E+02  0.51100000000E-03 0. -1.
    9900012    2    1    2    0    0  0.22375700528E+02 -0.33856916227E+02 -0.19548673692E+02  0.46142318813E+02  0.10000009594E+02 0.  0.
         12    1    1    2    0    0 -0.22375700528E+02  0.33856916227E+02  0.19548673692E+02  0.45045681187E+02  0.00000000000E+00 0. -1.
         11    1    3    3    0    0  0.25741392656E+00 -0.48732993193E+00 -0.24265983889E+01  0.24883995649E+01  0.51100000000E-03 0. -1.
        -11    1    3    3    0    0  0.52806280595E+01 -0.79293440592E+01 -0.26544997082E+01  0.98896864902E+01  0.51100000000E-03 0.  1.
         12    1    3    3    0    0  0.16837658541E+02 -0.25440242235E+02 -0.14467575595E+02  0.33764232758E+02  0.00000000000E+00 0. -1.
</event>
<event>
 7    1  0.1381440E-008  0.4614232E+02  0.7816164E-02  0.1320468E+00
        -11   -1    0    0    0    0  0.00000000000E+00  0.00000000000E+00  0.45593999997E+02  0.45594000000E+02  0.51100000000E-03 0.  1.
         11   -1    0    0    0    0 -0.00000000000E+00 -0.00000000000E+00 -0.45593999997E+02  0.45594000000E+02  0.51100000000E-03 0. -1.
    9900012    2    1    2    0    0  0.41862590340E+01  0.28070107567E+02  0.34980814007E+02  0.46142322603E+02  0.10000044154E+02 0.  0.
         12    1    1    2    0    0 -0.41862590340E+01 -0.28070107567E+02 -0.34980814007E+02  0.45045677397E+02  0.00000000000E+00 0. -1.
         11    1    3    3    0    0  0.16101642809E+01  0.16186696365E+01  0.59711350609E+01  0.63927439007E+01  0.51100000000E-03 0. -1.
        -11    1    3    3    0    0  0.17916365415E+01  0.19482866412E+02  0.17382754142E+02  0.26171591219E+02  0.51100000000E-03 0.  1.
         12    1    3    3    0    0  0.78445821165E+00  0.69685715193E+01  0.11626924804E+02  0.13577987483E+02  0.00000000000E+00 0. -1.
</event>
<event>
 7    1  0.1381440E-008  0.4614233E+02  0.7816164E-02  0.1320468E+00
        -11   -1    0    0    0    0  0.00000000000E+00  0.00000000000E+00  0.45593999997E+02  0.45594000000E+02  0.51100000000E-03 0.  1.
         11   -1    0    0    0    0 -0.00000000000E+00 -0.00000000000E+00 -0.45593999997E+02  0.45594000000E+02  0.51100000000E-03 0. -1.
    9900012    2    1    2    0    0  0.25411543950E+02  0.18419256583E+02  0.32312493058E+02  0.46142325550E+02  0.10000071029E+02 0.  0.
         12    1    1    2    0    0 -0.25411543950E+02 -0.18419256583E+02 -0.32312493058E+02  0.45045674450E+02  0.00000000000E+00 0. -1.
         11    1    3    3    0    0  0.11170470763E+02  0.60314758576E+01  0.11341250417E+02  0.17022986794E+02  0.51100000000E-03 0. -1.
        -11    1    3    3    0    0  0.65683259194E+01  0.10351431328E+02  0.13034161780E+02  0.17893697479E+02  0.51100000000E-03 0.  1.
        -12    1    3    3    0    0  0.76727472669E+01  0.20363493978E+01  0.79370808613E+01  0.11225641277E+02  0.00000000000E+00 0.  1.
</event>
<event>
 7    1  0.1381440E-008  0.4614232E+02  0.7816164E-02  0.1320468E+00
        -11   -1    0    0    0    0  0.00000000000E+00  0.00000000000E+00  0.45593999997E+02  0.45594000000E+02  0.51100000000E-03 0. -1.
         11   -1    0    0    0    0 -0.00000000000E+00 -0.00000000000E+00 -0.45593999997E+02  0.45594000000E+02  0.51100000000E-03 0.  1.
    9900012    2    1    2    0    0 -0.30914445085E+02 -0.32740993494E+02 -0.11991079283E+01  0.46142318412E+02  0.10000005936E+02 0.  0.
         12    1    1    2    0    0  0.30914445085E+02  0.32740993494E+02  0.11991079283E+01  0.45045681588E+02  0.00000000000E+00 0. -1.
         11    1    3    3    0    0 -0.52503534901E+01 -0.32051123073E+01  0.64460416601E+00  0.61850199244E+01  0.51100000000E-03 0. -1.
        -11    1    3    3    0    0 -0.13363446540E+02 -0.20330944810E+02 -0.31766448242E+01  0.24536097752E+02  0.51100000000E-03 0.  1.
        -12    1    3    3    0    0 -0.12300645055E+02 -0.92049363768E+01  0.13329327299E+01  0.15421200736E+02  0.00000000000E+00 0.  1.
</event>
<event>
 7    1  0.1381440E-008  0.4614232E+02  0.7816164E-02  0.1320468E+00
        -11   -1    0    0    0    0  0.00000000000E+00  0.00000000000E+00  0.45593999997E+02  0.45594000000E+02  0.51100000000E-03 0. -1.
         11   -1    0    0    0    0 -0.00000000000E+00 -0.00000000000E+00 -0.45593999997E+02  0.45594000000E+02  0.51100000000E-03 0.  1.
    9900012    2    1    2    0    0 -0.11306276287E+02 -0.42604245824E+02 -0.92822318973E+01  0.46142317913E+02  0.10000001386E+02 0.  0.
         12    1    1    2    0    0  0.11306276287E+02  0.42604245824E+02  0.92822318973E+01  0.45045682087E+02  0.00000000000E+00 0. -1.
         11    1    3    3    0    0 -0.76103339558E+01 -0.29034671846E+02 -0.10274170163E+02  0.31725193851E+02  0.51100000000E-03 0. -1.
        -11    1    3    3    0    0 -0.34308151027E+01 -0.69399160026E+01  0.74793409985E+00  0.77776816643E+01  0.51100000000E-03 0.  1.
        -12    1    3    3    0    0 -0.26512722898E+00 -0.66296579751E+01  0.24400416584E+00  0.66394423973E+01  0.00000000000E+00 0.  1.
</event>
<event>
 7    1  0.1381440E-008  0.4614232E+02  0.7816164E-02  0.1320468E+00
        -11   -1    0    0    0    0  0.00000000000E+00  0.00000000000E+00  0.45593999997E+02  0.45594000000E+02  0.51100000000E-03 0. -1.
         11   -1    0    0    0    0 -0.00000000000E+00 -0.00000000000E+00 -0.45593999997E+02  0.45594000000E+02  0.51100000000E-03 0.  1.
    9900012    2    1    2    0    0 -0.35885268946E+02 -0.22949527643E+01  0.27131053118E+02  0.46142318977E+02  0.10000011088E+02 0.  0.
         12    1    1    2    0    0  0.35885268946E+02  0.22949527643E+01 -0.27131053118E+02  0.45045681023E+02  0.00000000000E+00 0. -1.
         11    1    3    3    0    0 -0.24272675756E+01 -0.11441845803E+01  0.42397446522E+01  0.50175911765E+01  0.51100000000E-03 0. -1.
        -11    1    3    3    0    0 -0.21127220274E+02 -0.39544361540E+01  0.15169776431E+02  0.26308156892E+02  0.51100000000E-03 0.  1.
        -12    1    3    3    0    0 -0.12330781097E+02  0.28036679700E+01  0.77215320342E+01  0.14816570909E+02  0.00000000000E+00 0.  1.
</event>
<event>
 7    1  0.1381440E-008  0.4614232E+02  0.7816164E-02  0.1320468E+00
        -11   -1    0    0    0    0  0.00000000000E+00  0.00000000000E+00  0.45593999997E+02  0.45594000000E+02  0.51100000000E-03 0.  1.
         11   -1    0    0    0    0 -0.00000000000E+00 -0.00000000000E+00 -0.45593999997E+02  0.45594000000E+02  0.51100000000E-03 0. -1.
    9900012    2    1    2    0    0 -0.26535591450E+02  0.40333790081E+01  0.36176063578E+02  0.46142319455E+02  0.10000015442E+02 0.  0.
         12    1    1    2    0    0  0.26535591450E+02 -0.40333790081E+01 -0.36176063578E+02  0.45045680545E+02  0.00000000000E+00 0. -1.
         11    1    3    3    0    0 -0.79108947550E+01 -0.10153476892E+01  0.15422876950E+02  0.17363131067E+02  0.51100000000E-03 0. -1.
        -11    1    3    3    0    0 -0.13142457498E+02  0.28338672145E+01  0.17375818863E+02  0.21969844649E+02  0.51100000000E-03 0.  1.
         12    1    3    3    0    0 -0.54822391967E+01  0.22148594828E+01  0.33773677649E+01  0.68093437391E+01  0.00000000000E+00 0. -1.
</event>
<event>
 7    1  0.1381440E-008  0.4614232E+02  0.7816164E-02  0.1320468E+00
        -11   -1    0    0    0    0  0.00000000000E+00  0.00000000000E+00  0.45593999997E+02  0.45594000000E+02  0.51100000000E-03 0.  1.
         11   -1    0    0    0    0 -0.00000000000E+00 -0.00000000000E+00 -0.45593999997E+02  0.45594000000E+02  0.51100000000E-03 0. -1.
    9900012    2    1    2    0    0  0.60789870867E+01 -0.38286921502E+02  0.22940594902E+02  0.46142319446E+02  0.10000015363E+02 0.  0.
         12    1    1    2    0    0 -0.60789870867E+01  0.38286921502E+02 -0.22940594902E+02  0.45045680554E+02  0.00000000000E+00 0. -1.
         11    1    3    3    0    0  0.18651206928E+01 -0.78034857067E+01  0.79709010815E+01  0.11309656435E+02  0.51100000000E-03 0. -1.
        -11    1    3    3    0    0  0.67334141485E+00 -0.20566844156E+02  0.74143926048E+01  0.21872852698E+02  0.51100000000E-03 0.  1.
         12    1    3    3    0    0  0.35405249791E+01 -0.99165916400E+01  0.75553012155E+01  0.12959810313E+02  0.00000000000E+00 0. -1.
</event>
<event>
 7    1  0.1381440E-008  0.4614232E+02  0.7816164E-02  0.1320468E+00
        -11   -1    0    0    0    0  0.00000000000E+00  0.00000000000E+00  0.45593999997E+02  0.45594000000E+02  0.51100000000E-03 0.  1.
         11   -1    0    0    0    0 -0.00000000000E+00 -0.00000000000E+00 -0.45593999997E+02  0.45594000000E+02  0.51100000000E-03 0. -1.
    9900012    2    1    2    0    0 -0.28021213638E+02  0.27617218486E+02  0.21936598168E+02  0.46142317523E+02  0.99999978273E+01 0.  0.
         12    1    1    2    0    0  0.28021213638E+02 -0.27617218486E+02 -0.21936598168E+02  0.45045682477E+02  0.00000000000E+00 0. -1.
         11    1    3    3    0    0 -0.40653653030E+00  0.27767715604E+01  0.17020092945E+01  0.32821590681E+01  0.51100000000E-03 0. -1.
        -11    1    3    3    0    0 -0.20701223170E+02  0.15089104399E+02  0.11638171565E+02  0.28136608714E+02  0.51100000000E-03 0.  1.
        -12    1    3    3    0    0 -0.69134539380E+01  0.97513425268E+01  0.85964173081E+01  0.14723549741E+02  0.00000000000E+00 0.  1.
</event>
<event>
 7    1  0.1381440E-008  0.4614232E+02  0.7816164E-02  0.1320468E+00
        -11   -1    0    0    0    0  0.00000000000E+00  0.00000000000E+00  0.45593999997E+02  0.45594000000E+02  0.51100000000E-03 0.  1.
         11   -1    0    0    0    0 -0.00000000000E+00 -0.00000000000E+00 -0.45593999997E+02  0.45594000000E+02  0.51100000000E-03 0. -1.
    9900012    2    1    2    0    0  0.34849173043E+02  0.19707415691E+02 -0.20646218859E+02  0.46142318207E+02  0.10000004068E+02 0.  0.
         12    1    1    2    0    0 -0.34849173043E+02 -0.19707415691E+02  0.20646218859E+02  0.45045681793E+02  0.00000000000E+00 0. -1.
         11    1    3    3    0    0  0.10938709784E+02  0.77306498588E+01 -0.21222519076E+01  0.13561794586E+02  0.51100000000E-03 0. -1.
        -11    1    3    3    0    0  0.16491354546E+02  0.91023284950E+01 -0.12633889091E+02  0.22681100339E+02  0.51100000000E-03 0.  1.
         12    1    3    3    0    0  0.74191087135E+01  0.28744373374E+01 -0.58900778603E+01  0.98994232816E+01  0.00000000000E+00 0. -1.
</event>
<event>
 7    1  0.1381440E-008  0.4614232E+02  0.7816164E-02  0.1320468E+00
        -11   -1    0    0    0    0  0.00000000000E+00  0.00000000000E+00  0.45593999997E+02  0.45594000000E+02  0.51100000000E-03 0.  1.
         11   -1    0    0    0    0 -0.00000000000E+00 -0.00000000000E+00 -0.45593999997E+02  0.45594000000E+02  0.51100000000E-03 0. -1.
    9900012    2    1    2    0    0  0.37119808651E+02  0.17191634273E+02  0.18859509220E+02  0.46142316841E+02  0.99999916054E+01 0.  0.
         12    1    1    2    0    0 -0.37119808651E+02 -0.17191634273E+02 -0.18859509220E+02  0.45045683159E+02  0.00000000000E+00 0. -1.
         11    1    3    3    0    0  0.48211490935E+01  0.30108584145E+01  0.55410391350E+01  0.79380011294E+01  0.51100000000E-03 0. -1.
        -11    1    3    3    0    0  0.17249384857E+02  0.90836968356E+01  0.10236701343E+02  0.22019193464E+02  0.51100000000E-03 0.  1.
         12    1    3    3    0    0  0.15049274700E+02  0.50970790234E+01  0.30817687418E+01  0.16185122247E+02  0.00000000000E+00 0. -1.
</event>
<event>
 7    1  0.1381440E-008  0.4614232E+02  0.7816164E-02  0.1320468E+00
        -11   -1    0    0    0    0  0.00000000000E+00  0.00000000000E+00  0.45593999997E+02  0.45594000000E+02  0.51100000000E-03 0.  1.
         11   -1    0    0    0    0 -0.00000000000E+00 -0.00000000000E+00 -0.45593999997E+02  0.45594000000E+02  0.51100000000E-03 0. -1.
    9900012    2    1    2    0    0 -0.30331166069E+01  0.30873606716E+01  0.44837282726E+02  0.46142317471E+02  0.99999973521E+01 0.  0.
         12    1    1    2    0    0  0.30331166069E+01 -0.30873606716E+01 -0.44837282726E+02  0.45045682529E+02  0.00000000000E+00 0. -1.
         11    1    3    3    0    0 -0.39306937990E+01  0.14271958412E+01  0.21721803975E+02  0.22120669292E+02  0.51100000000E-03 0. -1.
        -11    1    3    3    0    0 -0.39800606994E+00  0.54821978150E+00 -0.14978498029E+00  0.69382242827E+00  0.51100000000E-03 0.  1.
        -12    1    3    3    0    0  0.12955832620E+01  0.11119450489E+01  0.23265263731E+02  0.23327825751E+02  0.00000000000E+00 0.  1.
</event>
<event>
 7    1  0.1381440E-008  0.4614232E+02  0.7816164E-02  0.1320468E+00
        -11   -1    0    0    0    0  0.00000000000E+00  0.00000000000E+00  0.45593999997E+02  0.45594000000E+02  0.51100000000E-03 0. -1.
         11   -1    0    0    0    0 -0.00000000000E+00 -0.00000000000E+00 -0.45593999997E+02  0.45594000000E+02  0.51100000000E-03 0.  1.
    9900012    2    1    2    0    0 -0.40579010181E+02  0.19457075277E+02  0.19696796329E+01  0.46142317815E+02  0.10000000494E+02 0.  0.
         12    1    1    2    0    0  0.40579010181E+02 -0.19457075277E+02 -0.19696796329E+01  0.45045682185E+02  0.00000000000E+00 0. -1.
         11    1    3    3    0    0 -0.37717925315E+02  0.17192611747E+02  0.85286015853E+00  0.41460284122E+02  0.51100000000E-03 0. -1.
        -11    1    3    3    0    0 -0.13809759536E+01  0.26587782683E+01  0.53444662911E+00  0.30433254714E+01  0.51100000000E-03 0.  1.
        -12    1    3    3    0    0 -0.14801089128E+01 -0.39431473804E+00  0.58237284527E+00  0.16387082222E+01  0.00000000000E+00 0.  1.
</event>
<event>
 7    1  0.1381440E-008  0.4614232E+02  0.7816164E-02  0.1320468E+00
        -11   -1    0    0    0    0  0.00000000000E+00  0.00000000000E+00  0.45593999997E+02  0.45594000000E+02  0.51100000000E-03 0.  1.
         11   -1    0    0    0    0 -0.00000000000E+00 -0.00000000000E+00 -0.45593999997E+02  0.45594000000E+02  0.51100000000E-03 0. -1.
    9900012    2    1    2    0    0 -0.93521120377E+01  0.11210067932E+02  0.42614383074E+02  0.46142320214E+02  0.10000022367E+02 0.  0.
         12    1    1    2    0    0  0.93521120377E+01 -0.11210067932E+02 -0.42614383074E+02  0.45045679786E+02  0.00000000000E+00 0. -1.
         11    1    3    3    0    0 -0.33625016498E+01  0.10263388600E+01  0.18562502800E+02  0.18892493199E+02  0.51100000000E-03 0.  1.
        -11    1    3    3    0    0  0.72952584472E+00  0.24253260873E+01  0.52527593797E+01  0.58314574465E+01  0.51100000000E-03 0. -1.
        -12    1    3    3    0    0 -0.67191362327E+01  0.77584029852E+01  0.18799120894E+02  0.21418369569E+02  0.00000000000E+00 0.  1.
</event>
<event>
 7    1  0.1381440E-008  0.4614232E+02  0.7816164E-02  0.1320468E+00
        -11   -1    0    0    0    0  0.00000000000E+00  0.00000000000E+00  0.45593999997E+02  0.45594000000E+02  0.51100000000E-03 0.  1.
         11   -1    0    0    0    0 -0.00000000000E+00 -0.00000000000E+00 -0.45593999997E+02  0.45594000000E+02  0.51100000000E-03 0. -1.
    9900012    2    1    2    0    0 -0.18624221543E+02 -0.38360793138E+02  0.14515558300E+02  0.46142317510E+02  0.99999977071E+01 0.  0.
         12    1    1    2    0    0  0.18624221543E+02  0.38360793138E+02 -0.14515558300E+02  0.45045682490E+02  0.00000000000E+00 0. -1.
         11    1    3    3    0    0 -0.95811435000E+01 -0.11223963590E+02  0.53754763137E+01  0.15705776495E+02  0.51100000000E-03 0. -1.
        -11    1    3    3    0    0 -0.72017262437E+01 -0.17682818204E+02  0.39569910680E+01  0.19498838404E+02  0.51100000000E-03 0.  1.
         12    1    3    3    0    0 -0.18413517988E+01 -0.94540113444E+01  0.51830909186E+01  0.10937702611E+02  0.00000000000E+00 0. -1.
</event>
<event>
 7    1  0.1381440E-008  0.4614232E+02  0.7816164E-02  0.1320468E+00
        -11   -1    0    0    0    0  0.00000000000E+00  0.00000000000E+00  0.45593999997E+02  0.45594000000E+02  0.51100000000E-03 0. -1.
         11   -1    0    0    0    0 -0.00000000000E+00 -0.00000000000E+00 -0.45593999997E+02  0.45594000000E+02  0.51100000000E-03 0.  1.
    9900012    2    1    2    0    0  0.35861331216E+02  0.57044925811E+01 -0.26655904623E+02  0.46142316927E+02  0.99999923967E+01 0.  0.
         12    1    1    2    0    0 -0.35861331216E+02 -0.57044925811E+01  0.26655904623E+02  0.45045683073E+02  0.00000000000E+00 0. -1.
         11    1    3    3    0    0  0.15035775759E+02 -0.15970459868E+01 -0.14102599693E+02  0.20676276912E+02  0.51100000000E-03 0. -1.
        -11    1    3    3    0    0  0.14707155582E+02  0.57475047411E+01 -0.81516620844E+01  0.17770307568E+02  0.51100000000E-03 0.  1.
        -12    1    3    3    0    0  0.61183998752E+01  0.15540338268E+01 -0.44016428461E+01  0.76957324481E+01  0.00000000000E+00 0.  1.
</event>
<event>
 7    1  0.1381440E-008  0.4614232E+02  0.7816164E-02  0.1320468E+00
        -11   -1    0    0    0    0  0.00000000000E+00  0.00000000000E+00  0.45593999997E+02  0.45594000000E+02  0.51100000000E-03 0.  1.
         11   -1    0    0    0    0 -0.00000000000E+00 -0.00000000000E+00 -0.45593999997E+02  0.45594000000E+02  0.51100000000E-03 0. -1.
    9900012    2    1    2    0    0  0.29867016715E+02  0.98265257693E+01  0.32256997841E+02  0.46142320897E+02  0.10000028595E+02 0.  0.
         12    1    1    2    0    0 -0.29867016715E+02 -0.98265257693E+01 -0.32256997841E+02  0.45045679103E+02  0.00000000000E+00 0. -1.
         11    1    3    3    0    0  0.22344742686E+01  0.45299613127E+00  0.52119615170E+01  0.56888156823E+01  0.51100000000E-03 0. -1.
        -11    1    3    3    0    0  0.24939885226E+02  0.10333698092E+02  0.25777274527E+02  0.37326278594E+02  0.51100000000E-03 0.  1.
        -12    1    3    3    0    0  0.26926572201E+01 -0.96016845364E+00  0.12677617968E+01  0.31272266208E+01  0.00000000000E+00 0.  1.
</event>
<event>
 7    1  0.1381440E-008  0.4614232E+02  0.7816164E-02  0.1320468E+00
        -11   -1    0    0    0    0  0.00000000000E+00  0.00000000000E+00  0.45593999997E+02  0.45594000000E+02  0.51100000000E-03 0. -1.
         11   -1    0    0    0    0 -0.00000000000E+00 -0.00000000000E+00 -0.45593999997E+02  0.45594000000E+02  0.51100000000E-03 0.  1.
    9900012    2    1    2    0    0  0.65259776336E+01  0.28164025072E+02 -0.34544359152E+02  0.46142318281E+02  0.10000004738E+02 0.  0.
         12    1    1    2    0    0 -0.65259776336E+01 -0.28164025072E+02  0.34544359152E+02  0.45045681719E+02  0.00000000000E+00 0. -1.
         11    1    3    3    0    0  0.46047813812E+01  0.78850418352E+01 -0.11195832506E+02  0.14447302934E+02  0.51100000000E-03 0. -1.
        -11    1    3    3    0    0 -0.23868033928E+01  0.10141961179E+02 -0.11469727387E+02  0.15495510756E+02  0.51100000000E-03 0.  1.
        -12    1    3    3    0    0  0.43079996452E+01  0.10137022058E+02 -0.11878799259E+02  0.16199504591E+02  0.00000000000E+00 0.  1.
</event>
<event>
 7    1  0.1381440E-008  0.4614232E+02  0.7816164E-02  0.1320468E+00
        -11   -1    0    0    0    0  0.00000000000E+00  0.00000000000E+00  0.45593999997E+02  0.45594000000E+02  0.51100000000E-03 0.  1.
         11   -1    0    0    0    0 -0.00000000000E+00 -0.00000000000E+00 -0.45593999997E+02  0.45594000000E+02  0.51100000000E-03 0. -1.
    9900012    2    1    2    0    0  0.35212887851E+02 -0.36383677419E+01  0.27855489848E+02  0.46142317573E+02  0.99999982865E+01 0.  0.
         12    1    1    2    0    0 -0.35212887851E+02  0.36383677419E+01 -0.27855489848E+02  0.45045682427E+02  0.00000000000E+00 0. -1.
         11    1    3    3    0    0  0.66267184041E+01 -0.32237311314E+01  0.30794036634E+01  0.79867744677E+01  0.51100000000E-03 0. -1.
        -11    1    3    3    0    0  0.21278199065E+02  0.30233157858E+00  0.15510474153E+02  0.26333020498E+02  0.51100000000E-03 0.  1.
        -12    1    3    3    0    0  0.73079703817E+01 -0.71696818902E+00  0.92656120315E+01  0.11822522607E+02  0.00000000000E+00 0.  1.
</event>
<event>
 7    1  0.1381440E-008  0.4614232E+02  0.7816164E-02  0.1320468E+00
        -11   -1    0    0    0    0  0.00000000000E+00  0.00000000000E+00  0.45593999997E+02  0.45594000000E+02  0.51100000000E-03 0.  1.
         11   -1    0    0    0    0 -0.00000000000E+00 -0.00000000000E+00 -0.45593999997E+02  0.45594000000E+02  0.51100000000E-03 0. -1.
    9900012    2    1    2    0    0 -0.25819733308E+02 -0.26598815529E+02  0.25592145300E+02  0.46142317447E+02  0.99999971349E+01 0.  0.
         12    1    1    2    0    0  0.25819733308E+02  0.26598815529E+02 -0.25592145300E+02  0.45045682553E+02  0.00000000000E+00 0. -1.
         11    1    3    3    0    0 -0.32950593633E+01 -0.21650208141E+01  0.68433912091E+01  0.78978943292E+01  0.51100000000E-03 0. -1.
        -11    1    3    3    0    0 -0.11532942186E+02 -0.11442115150E+02  0.10394554809E+02  0.19286718863E+02  0.51100000000E-03 0.  1.
         12    1    3    3    0    0 -0.10991731759E+02 -0.12991679564E+02  0.83541992822E+01  0.18957704255E+02  0.00000000000E+00 0. -1.
</event>
<event>
 7    1  0.1381440E-008  0.4614232E+02  0.7816164E-02  0.1320468E+00
        -11   -1    0    0    0    0  0.00000000000E+00  0.00000000000E+00  0.45593999997E+02  0.45594000000E+02  0.51100000000E-03 0.  1.
         11   -1    0    0    0    0 -0.00000000000E+00 -0.00000000000E+00 -0.45593999997E+02  0.45594000000E+02  0.51100000000E-03 0. -1.
    9900012    2    1    2    0    0  0.25644253203E+02 -0.26957191972E+02  0.25392827553E+02  0.46142316383E+02  0.99999874362E+01 0.  0.
         12    1    1    2    0    0 -0.25644253203E+02  0.26957191972E+02 -0.25392827553E+02  0.45045683617E+02  0.00000000000E+00 0. -1.
         11    1    3    3    0    0  0.18035038486E+02 -0.13307174982E+02  0.11478841599E+02  0.25181487722E+02  0.51100000000E-03 0. -1.
        -11    1    3    3    0    0  0.42067772374E+01 -0.85886970071E+01  0.89310452430E+01  0.13085345253E+02  0.51100000000E-03 0.  1.
         12    1    3    3    0    0  0.34024374790E+01 -0.50613199829E+01  0.49829407116E+01  0.78754834075E+01  0.00000000000E+00 0. -1.
</event>
<event>
 7    1  0.1381440E-008  0.4614232E+02  0.7816164E-02  0.1320468E+00
        -11   -1    0    0    0    0  0.00000000000E+00  0.00000000000E+00  0.45593999997E+02  0.45594000000E+02  0.51100000000E-03 0.  1.
         11   -1    0    0    0    0 -0.00000000000E+00 -0.00000000000E+00 -0.45593999997E+02  0.45594000000E+02  0.51100000000E-03 0. -1.
    9900012    2    1    2    0    0 -0.80713678690E+01 -0.32414084779E+01  0.44197961232E+02  0.46142317795E+02  0.10000000310E+02 0.  0.
         12    1    1    2    0    0  0.80713678690E+01  0.32414084779E+01 -0.44197961232E+02  0.45045682205E+02  0.00000000000E+00 0. -1.
         11    1    3    3    0    0 -0.60615957900E+00  0.18142283599E+01  0.54241987747E+01  0.57515899180E+01  0.51100000000E-03 0. -1.
        -11    1    3    3    0    0 -0.40802106030E+01 -0.44136054821E+01  0.12261010080E+02  0.13655050361E+02  0.51100000000E-03 0.  1.
        -12    1    3    3    0    0 -0.33849976870E+01 -0.64203135570E+00  0.26512752378E+02  0.26735677516E+02  0.00000000000E+00 0.  1.
</event>
<event>
 7    1  0.1381440E-008  0.4614232E+02  0.7816164E-02  0.1320468E+00
        -11   -1    0    0    0    0  0.00000000000E+00  0.00000000000E+00  0.45593999997E+02  0.45594000000E+02  0.51100000000E-03 0. -1.
         11   -1    0    0    0    0 -0.00000000000E+00 -0.00000000000E+00 -0.45593999997E+02  0.45594000000E+02  0.51100000000E-03 0.  1.
    9900012    2    1    2    0    0  0.25337617089E+02  0.63520990869E+01 -0.36698357098E+02  0.46142318562E+02  0.10000007299E+02 0.  0.
         12    1    1    2    0    0 -0.25337617089E+02 -0.63520990869E+01  0.36698357098E+02  0.45045681438E+02  0.00000000000E+00 0. -1.
         11    1    3    3    0    0  0.23265101667E+01 -0.97051910499E+00 -0.54108725882E+00  0.25782421476E+01  0.51100000000E-03 0. -1.
        -11    1    3    3    0    0  0.14149847846E+02  0.58038171022E+01 -0.22015017298E+02  0.26806034282E+02  0.51100000000E-03 0.  1.
        -12    1    3    3    0    0  0.88612590768E+01  0.15188010897E+01 -0.14142252541E+02  0.16758042132E+02  0.00000000000E+00 0.  1.
</event>
<event>
 7    1  0.1381440E-008  0.4614232E+02  0.7816164E-02  0.1320468E+00
        -11   -1    0    0    0    0  0.00000000000E+00  0.00000000000E+00  0.45593999997E+02  0.45594000000E+02  0.51100000000E-03 0.  1.
         11   -1    0    0    0    0 -0.00000000000E+00 -0.00000000000E+00 -0.45593999997E+02  0.45594000000E+02  0.51100000000E-03 0. -1.
    9900012    2    1    2    0    0  0.40211321522E+02 -0.21746193270E+01  0.20184996948E+02  0.46142318192E+02  0.10000003930E+02 0.  0.
         12    1    1    2    0    0 -0.40211321522E+02  0.21746193270E+01 -0.20184996948E+02  0.45045681808E+02  0.00000000000E+00 0. -1.
         11    1    3    3    0    0  0.22567938760E+02 -0.64509011199E+00  0.14577210486E+02  0.26874208210E+02  0.51100000000E-03 0. -1.
        -11    1    3    3    0    0  0.15275902459E+02  0.37351381046E+00  0.38475712698E+01  0.15757427247E+02  0.51100000000E-03 0.  1.
         12    1    3    3    0    0  0.23674803030E+01 -0.19030430254E+01  0.17602151924E+01  0.35106827350E+01  0.00000000000E+00 0. -1.
</event>
<event>
 7    1  0.1381440E-008  0.4614232E+02  0.7816164E-02  0.1320468E+00
        -11   -1    0    0    0    0  0.00000000000E+00  0.00000000000E+00  0.45593999997E+02  0.45594000000E+02  0.51100000000E-03 0.  1.
         11   -1    0    0    0    0 -0.00000000000E+00 -0.00000000000E+00 -0.45593999997E+02  0.45594000000E+02  0.51100000000E-03 0. -1.
    9900012    2    1    2    0    0  0.38615316756E+02  0.20667502565E+02  0.10527355179E+02  0.46142316994E+02  0.99999930038E+01 0.  0.
         12    1    1    2    0    0 -0.38615316756E+02 -0.20667502565E+02 -0.10527355179E+02  0.45045683006E+02  0.00000000000E+00 0. -1.
         11    1    3    3    0    0  0.60079442368E+01  0.20253678193E+01 -0.14014882314E+01  0.64932024671E+01  0.51100000000E-03 0. -1.
        -11    1    3    3    0    0  0.20549527865E+02  0.11848144919E+02  0.97157631596E+01  0.25633136514E+02  0.51100000000E-03 0.  1.
        -12    1    3    3    0    0  0.12057844654E+02  0.67939898263E+01  0.22130802504E+01  0.14015978012E+02  0.00000000000E+00 0.  1.
</event>
<event>
 7    1  0.1381440E-008  0.4614232E+02  0.7816164E-02  0.1320468E+00
        -11   -1    0    0    0    0  0.00000000000E+00  0.00000000000E+00  0.45593999997E+02  0.45594000000E+02  0.51100000000E-03 0. -1.
         11   -1    0    0    0    0 -0.00000000000E+00 -0.00000000000E+00 -0.45593999997E+02  0.45594000000E+02  0.51100000000E-03 0.  1.
    9900012    2    1    2    0    0 -0.97367322279E+01  0.43765577019E+02  0.43455519426E+01  0.46142317543E+02  0.99999980146E+01 0.  0.
         12    1    1    2    0    0  0.97367322279E+01 -0.43765577019E+02 -0.43455519426E+01  0.45045682457E+02  0.00000000000E+00 0. -1.
         11    1    3    3    0    0 -0.64007433982E+01  0.14816940479E+02  0.21537041867E+01  0.16283417430E+02  0.51100000000E-03 0. -1.
        -11    1    3    3    0    0 -0.37033931249E+01  0.10380972200E+02 -0.78860586505E+00  0.11049959454E+02  0.51100000000E-03 0.  1.
         12    1    3    3    0    0  0.36740429521E+00  0.18567664340E+02  0.29804536210E+01  0.18808940660E+02  0.00000000000E+00 0. -1.
</event>
<event>
 7    1  0.1381440E-008  0.4614232E+02  0.7816164E-02  0.1320468E+00
        -11   -1    0    0    0    0  0.00000000000E+00  0.00000000000E+00  0.45593999997E+02  0.45594000000E+02  0.51100000000E-03 0.  1.
         11   -1    0    0    0    0 -0.00000000000E+00 -0.00000000000E+00 -0.45593999997E+02  0.45594000000E+02  0.51100000000E-03 0. -1.
    9900012    2    1    2    0    0  0.25083279353E+02  0.36579572519E+02 -0.78661969229E+01  0.46142322262E+02  0.10000041046E+02 0.  0.
         12    1    1    2    0    0 -0.25083279353E+02 -0.36579572519E+02  0.78661969229E+01  0.45045677738E+02  0.00000000000E+00 0. -1.
         11    1    3    3    0    0  0.10648367057E+02  0.21706012238E+02 -0.43706825608E+01  0.24569117904E+02  0.51100000000E-03 0. -1.
        -11    1    3    3    0    0  0.86609549207E+01  0.77409659737E+01 -0.42412918794E+01  0.12366214110E+02  0.51100000000E-03 0.  1.
        -12    1    3    3    0    0  0.57739573759E+01  0.71325943073E+01  0.74577751733E+00  0.92069902485E+01  0.00000000000E+00 0.  1.
</event>
<event>
 7    1  0.1381440E-008  0.4614232E+02  0.7816164E-02  0.1320468E+00
        -11   -1    0    0    0    0  0.00000000000E+00  0.00000000000E+00  0.45593999997E+02  0.45594000000E+02  0.51100000000E-03 0. -1.
         11   -1    0    0    0    0 -0.00000000000E+00 -0.00000000000E+00 -0.45593999997E+02  0.45594000000E+02  0.51100000000E-03 0.  1.
    9900012    2    1    2    0    0 -0.18730208532E+01 -0.35735883538E+01 -0.44864626463E+02  0.46142318203E+02  0.10000004034E+02 0.  0.
         12    1    1    2    0    0  0.18730208532E+01  0.35735883538E+01  0.44864626463E+02  0.45045681797E+02  0.00000000000E+00 0. -1.
         11    1    3    3    0    0 -0.15220186268E+01 -0.66921056086E+01 -0.32217896251E+02  0.32940759816E+02  0.51100000000E-03 0. -1.
        -11    1    3    3    0    0  0.12240538994E+00  0.13837791417E+01 -0.92922293709E+01  0.93954965135E+01  0.51100000000E-03 0.  1.
         12    1    3    3    0    0 -0.47340761635E+00  0.17347381132E+01 -0.33545008414E+01  0.38060618739E+01  0.00000000000E+00 0. -1.
</event>
<event>
 7    1  0.1381440E-008  0.4614232E+02  0.7816164E-02  0.1320468E+00
        -11   -1    0    0    0    0  0.00000000000E+00  0.00000000000E+00  0.45593999997E+02  0.45594000000E+02  0.51100000000E-03 0. -1.
         11   -1    0    0    0    0 -0.00000000000E+00 -0.00000000000E+00 -0.45593999997E+02  0.45594000000E+02  0.51100000000E-03 0.  1.
    9900012    2    1    2    0    0 -0.18709567923E+02  0.40581045593E+02  0.56784005693E+01  0.46142318450E+02  0.10000006278E+02 0.  0.
         12    1    1    2    0    0  0.18709567923E+02 -0.40581045593E+02 -0.56784005693E+01  0.45045681550E+02  0.00000000000E+00 0. -1.
         11    1    3    3    0    0 -0.55676094996E+01  0.22938075590E+02  0.33148708229E+01  0.23835728563E+02  0.51100000000E-03 0. -1.
        -11    1    3    3    0    0 -0.11485008191E+02  0.13560634192E+02  0.20745305290E+01  0.17891335613E+02  0.51100000000E-03 0.  1.
         12    1    3    3    0    0 -0.16569502325E+01  0.40823358117E+01  0.28899921740E+00  0.44152542735E+01  0.00000000000E+00 0. -1.
</event>
<event>
 7    1  0.1381440E-008  0.4614233E+02  0.7816164E-02  0.1320468E+00
        -11   -1    0    0    0    0  0.00000000000E+00  0.00000000000E+00  0.45593999997E+02  0.45594000000E+02  0.51100000000E-03 0.  1.
         11   -1    0    0    0    0 -0.00000000000E+00 -0.00000000000E+00 -0.45593999997E+02  0.45594000000E+02  0.51100000000E-03 0. -1.
    9900012    2    1    2    0    0 -0.25143724428E+02 -0.23521802304E+01  0.37301113572E+02  0.46142326471E+02  0.10000079421E+02 0.  0.
         12    1    1    2    0    0  0.25143724428E+02  0.23521802304E+01 -0.37301113572E+02  0.45045673529E+02  0.00000000000E+00 0. -1.
         11    1    3    3    0    0 -0.45606460398E+01  0.31928445147E+01  0.91326859058E+01  0.10695779565E+02  0.51100000000E-03 0. -1.
        -11    1    3    3    0    0 -0.81452450329E+01 -0.72307311715E+00  0.10618483659E+02  0.13402240367E+02  0.51100000000E-03 0.  1.
         12    1    3    3    0    0 -0.12437833356E+02 -0.48219516279E+01  0.17549944008E+02  0.22044306539E+02  0.00000000000E+00 0. -1.
</event>
<event>
 7    1  0.1381440E-008  0.4614232E+02  0.7816164E-02  0.1320468E+00
        -11   -1    0    0    0    0  0.00000000000E+00  0.00000000000E+00  0.45593999997E+02  0.45594000000E+02  0.51100000000E-03 0.  1.
         11   -1    0    0    0    0 -0.00000000000E+00 -0.00000000000E+00 -0.45593999997E+02  0.45594000000E+02  0.51100000000E-03 0. -1.
    9900012    2    1    2    0    0 -0.42642336168E+01 -0.37689515947E+02  0.24298767790E+02  0.46142318556E+02  0.10000007248E+02 0.  0.
         12    1    1    2    0    0  0.42642336168E+01  0.37689515947E+02 -0.24298767790E+02  0.45045681444E+02  0.00000000000E+00 0. -1.
         11    1    3    3    0    0 -0.48433956474E+01 -0.22443538554E+02  0.10249198744E+02  0.25143925298E+02  0.51100000000E-03 0.  1.
        -11    1    3    3    0    0  0.15294869821E+01 -0.56476487054E+01  0.65331056390E+01  0.87702186905E+01  0.51100000000E-03 0. -1.
        -12    1    3    3    0    0 -0.95032495157E+00 -0.95983286869E+01  0.75164634075E+01  0.12228174567E+02  0.00000000000E+00 0.  1.
</event>
<event>
 7    1  0.1438944E-008  0.4614232E+02  0.7816164E-02  0.1320468E+00
        -11   -1    0    0    0    0  0.00000000000E+00  0.00000000000E+00  0.45593999997E+02  0.45594000000E+02  0.51100000000E-03 0.  1.
         11   -1    0    0    0    0 -0.00000000000E+00 -0.00000000000E+00 -0.45593999997E+02  0.45594000000E+02  0.51100000000E-03 0. -1.
    9900012    2    1    2    0    0  0.42323494513E+02  0.10577070435E+02  0.11223211794E+02  0.46142322185E+02  0.10000040343E+02 0.  0.
         12    1    1    2    0    0 -0.42323494513E+02 -0.10577070435E+02 -0.11223211794E+02  0.45045677815E+02  0.00000000000E+00 0. -1.
         11    1    3    3    0    0  0.60515259061E+00  0.99907277036E+00  0.12179077873E+01  0.16874998364E+01  0.51100000000E-03 0. -1.
        -11    1    3    3    0    0  0.40475312112E+02  0.10439456203E+02  0.97336023803E+01  0.42918249638E+02  0.51100000000E-03 0.  1.
        -12    1    3    3    0    0  0.12430298105E+01 -0.86145853833E+00  0.27170162599E+00  0.15365727111E+01  0.00000000000E+00 0.  1.
</event>
<event>
 7    1  0.1381440E-008  0.4614232E+02  0.7816164E-02  0.1320468E+00
        -11   -1    0    0    0    0  0.00000000000E+00  0.00000000000E+00  0.45593999997E+02  0.45594000000E+02  0.51100000000E-03 0.  1.
         11   -1    0    0    0    0 -0.00000000000E+00 -0.00000000000E+00 -0.45593999997E+02  0.45594000000E+02  0.51100000000E-03 0. -1.
    9900012    2    1    2    0    0  0.34273934817E+02  0.10569077469E+02  0.27252624370E+02  0.46142317172E+02  0.99999946235E+01 0.  0.
         12    1    1    2    0    0 -0.34273934817E+02 -0.10569077469E+02 -0.27252624370E+02  0.45045682828E+02  0.00000000000E+00 0. -1.
         11    1    3    3    0    0  0.20873662627E+02  0.61531762277E+01  0.11385447181E+02  0.24560125752E+02  0.51100000000E-03 0. -1.
        -11    1    3    3    0    0  0.10166010895E+02  0.40506007404E+01  0.97668785389E+01  0.14667892164E+02  0.51100000000E-03 0.  1.
         12    1    3    3    0    0  0.32342612953E+01  0.36530050139E+00  0.61002986500E+01  0.69142992560E+01  0.00000000000E+00 0. -1.
</event>
<event>
 7    1  0.1381440E-008  0.4614232E+02  0.7816164E-02  0.1320468E+00
        -11   -1    0    0    0    0  0.00000000000E+00  0.00000000000E+00  0.45593999997E+02  0.45594000000E+02  0.51100000000E-03 0. -1.
         11   -1    0    0    0    0 -0.00000000000E+00 -0.00000000000E+00 -0.45593999997E+02  0.45594000000E+02  0.51100000000E-03 0.  1.
    9900012    2    1    2    0    0  0.31330800160E+02 -0.45443134289E+01 -0.32044402871E+02  0.46142316760E+02  0.99999908684E+01 0.  0.
         12    1    1    2    0    0 -0.31330800160E+02  0.45443134289E+01  0.32044402871E+02  0.45045683240E+02  0.00000000000E+00 0. -1.
         11    1    3    3    0    0  0.67928745328E+01  0.24738028567E+01 -0.70662433946E+01  0.10109136509E+02  0.51100000000E-03 0. -1.
        -11    1    3    3    0    0  0.19666655186E+02 -0.39346189566E+01 -0.20932427945E+02  0.28990086107E+02  0.51100000000E-03 0.  1.
        -12    1    3    3    0    0  0.48712704414E+01 -0.30834973290E+01 -0.40457315314E+01  0.70430941436E+01  0.00000000000E+00 0.  1.
</event>
<event>
 7    1  0.1381440E-008  0.4614232E+02  0.7816164E-02  0.1320468E+00
        -11   -1    0    0    0    0  0.00000000000E+00  0.00000000000E+00  0.45593999997E+02  0.45594000000E+02  0.51100000000E-03 0. -1.
         11   -1    0    0    0    0 -0.00000000000E+00 -0.00000000000E+00 -0.45593999997E+02  0.45594000000E+02  0.51100000000E-03 0.  1.
    9900012    2    1    2    0    0  0.36122053401E+02  0.27487305567E+01 -0.26772278561E+02  0.46142321396E+02  0.10000033145E+02 0.  0.
         12    1    1    2    0    0 -0.36122053401E+02 -0.27487305567E+01  0.26772278561E+02  0.45045678604E+02  0.00000000000E+00 0. -1.
         11    1    3    3    0    0  0.35083074265E+02  0.14369523633E+01 -0.24429761833E+02  0.42774994979E+02  0.51100000000E-03 0. -1.
        -11    1    3    3    0    0  0.14092111888E+01  0.85940426588E+00 -0.10702800357E+01  0.19672192259E+01  0.51100000000E-03 0.  1.
         12    1    3    3    0    0 -0.37023205363E+00  0.45237392754E+00 -0.12722366926E+01  0.14001071908E+01  0.00000000000E+00 0. -1.
</event>
<event>
 7    1  0.1381440E-008  0.4614232E+02  0.7816164E-02  0.1320468E+00
        -11   -1    0    0    0    0  0.00000000000E+00  0.00000000000E+00  0.45593999997E+02  0.45594000000E+02  0.51100000000E-03 0.  1.
         11   -1    0    0    0    0 -0.00000000000E+00 -0.00000000000E+00 -0.45593999997E+02  0.45594000000E+02  0.51100000000E-03 0. -1.
    9900012    2    1    2    0    0 -0.34543234535E+02 -0.12424279453E+02  0.26105855481E+02  0.46142318048E+02  0.10000002619E+02 0.  0.
         12    1    1    2    0    0  0.34543234535E+02  0.12424279453E+02 -0.26105855481E+02  0.45045681952E+02  0.00000000000E+00 0. -1.
         11    1    3    3    0    0 -0.17985384838E+02 -0.42166957112E+01  0.12502188584E+02  0.22306037526E+02  0.51100000000E-03 0. -1.
        -11    1    3    3    0    0 -0.72207250861E+01 -0.56612770887E+00  0.70424924268E+01  0.10102280495E+02  0.51100000000E-03 0.  1.
         12    1    3    3    0    0 -0.93371246115E+01 -0.76414560332E+01  0.65611744709E+01  0.13734000027E+02  0.00000000000E+00 0. -1.
</event>
<event>
 7    1  0.1381440E-008  0.4614232E+02  0.7816164E-02  0.1320468E+00
        -11   -1    0    0    0    0  0.00000000000E+00  0.00000000000E+00  0.45593999997E+02  0.45594000000E+02  0.51100000000E-03 0.  1.
         11   -1    0    0    0    0 -0.00000000000E+00 -0.00000000000E+00 -0.45593999997E+02  0.45594000000E+02  0.51100000000E-03 0. -1.
    9900012    2    1    2    0    0  0.21506674483E+02  0.22857761888E+02  0.32312526565E+02  0.46142315425E+02  0.99999786957E+01 0.  0.
         12    1    1    2    0    0 -0.21506674483E+02 -0.22857761888E+02 -0.32312526565E+02  0.45045684575E+02  0.00000000000E+00 0. -1.
         11    1    3    3    0    0  0.37748213745E+01  0.10100251522E+02  0.11209309967E+02  0.15553552244E+02  0.51100000000E-03 0. -1.
        -11    1    3    3    0    0  0.92231979876E+01  0.69595664166E+01  0.13617691571E+02  0.17859016485E+02  0.51100000000E-03 0.  1.
        -12    1    3    3    0    0  0.85086551208E+01  0.57979439500E+01  0.74855250260E+01  0.12729746695E+02  0.00000000000E+00 0.  1.
</event>
<event>
 7    1  0.1381440E-008  0.4614232E+02  0.7816164E-02  0.1320468E+00
        -11   -1    0    0    0    0  0.00000000000E+00  0.00000000000E+00  0.45593999997E+02  0.45594000000E+02  0.51100000000E-03 0.  1.
         11   -1    0    0    0    0 -0.00000000000E+00 -0.00000000000E+00 -0.45593999997E+02  0.45594000000E+02  0.51100000000E-03 0. -1.
    9900012    2    1    2    0    0 -0.20175570062E+01 -0.28414305057E+02  0.34895132417E+02  0.46142317248E+02  0.99999953246E+01 0.  0.
         12    1    1    2    0    0  0.20175570062E+01  0.28414305057E+02 -0.34895132417E+02  0.45045682752E+02  0.00000000000E+00 0. -1.
         11    1    3    3    0    0  0.64734931662E+00 -0.22308970701E+01  0.83536601499E+01  0.86706171082E+01  0.51100000000E-03 0. -1.
        -11    1    3    3    0    0  0.54448330768E+00 -0.38564855774E+01  0.39709213304E+01  0.55621182615E+01  0.51100000000E-03 0.  1.
         12    1    3    3    0    0 -0.32093896305E+01 -0.22326922410E+02  0.22570550936E+02  0.31909581879E+02  0.00000000000E+00 0. -1.
</event>
<event>
 7    1  0.1381440E-008  0.4614231E+02  0.7816164E-02  0.1320468E+00
        -11   -1    0    0    0    0  0.00000000000E+00  0.00000000000E+00  0.45593999997E+02  0.45594000000E+02  0.51100000000E-03 0.  1.
         11   -1    0    0    0    0 -0.00000000000E+00 -0.00000000000E+00 -0.45593999997E+02  0.45594000000E+02  0.51100000000E-03 0. -1.
    9900012    2    1    2    0    0  0.87100716699E+01 -0.36978496341E+02  0.24204125719E+02  0.46142309397E+02  0.99999237276E+01 0.  0.
         12    1    1    2    0    0 -0.87100716699E+01  0.36978496341E+02 -0.24204125719E+02  0.45045690603E+02  0.00000000000E+00 0. -1.
         11    1    3    3    0    0  0.43936586335E+01 -0.10814730855E+02  0.12016966079E+02  0.16753212040E+02  0.51100000000E-03 0. -1.
        -11    1    3    3    0    0  0.13427387225E+01 -0.18061903488E+02  0.83717834915E+01  0.19952996366E+02  0.51100000000E-03 0.  1.
         12    1    3    3    0    0  0.29736743140E+01 -0.81018619978E+01  0.38153761476E+01  0.94361009906E+01  0.00000000000E+00 0. -1.
</event>
<event>
 7    1  0.1381440E-008  0.4614232E+02  0.7816164E-02  0.1320468E+00
        -11   -1    0    0    0    0  0.00000000000E+00  0.00000000000E+00  0.45593999997E+02  0.45594000000E+02  0.51100000000E-03 0.  1.
         11   -1    0    0    0    0 -0.00000000000E+00 -0.00000000000E+00 -0.45593999997E+02  0.45594000000E+02  0.51100000000E-03 0. -1.
    9900012    2    1    2    0    0  0.13657844768E+02 -0.15157736630E+02  0.40159925423E+02  0.46142319703E+02  0.10000017705E+02 0.  0.
         12    1    1    2    0    0 -0.13657844768E+02  0.15157736630E+02 -0.40159925423E+02  0.45045680297E+02  0.00000000000E+00 0. -1.
         11    1    3    3    0    0  0.43405575359E+01 -0.50415386783E+00  0.64983630306E+01  0.78309216050E+01  0.51100000000E-03 0. -1.
        -11    1    3    3    0    0  0.81485682158E+01 -0.10138803077E+02  0.28655979150E+02  0.31469979872E+02  0.51100000000E-03 0.  1.
        -12    1    3    3    0    0  0.11687190164E+01 -0.45147796857E+01  0.50055832421E+01  0.68414182260E+01  0.00000000000E+00 0.  1.
</event>
<event>
 7    1  0.1381440E-008  0.4614232E+02  0.7816164E-02  0.1320468E+00
        -11   -1    0    0    0    0  0.00000000000E+00  0.00000000000E+00  0.45593999997E+02  0.45594000000E+02  0.51100000000E-03 0. -1.
         11   -1    0    0    0    0 -0.00000000000E+00 -0.00000000000E+00 -0.45593999997E+02  0.45594000000E+02  0.51100000000E-03 0.  1.
    9900012    2    1    2    0    0  0.14212763262E+01 -0.13579916198E+02 -0.42926440987E+02  0.46142317786E+02  0.10000000227E+02 0.  0.
         12    1    1    2    0    0 -0.14212763262E+01  0.13579916198E+02  0.42926440987E+02  0.45045682214E+02  0.00000000000E+00 0. -1.
         11    1    3    3    0    0  0.22764209463E+01 -0.94728995543E+01 -0.24351740466E+02  0.26228327859E+02  0.51100000000E-03 0. -1.
        -11    1    3    3    0    0 -0.26958078326E+01 -0.35522842137E+01 -0.16471882849E+02  0.17064847724E+02  0.51100000000E-03 0.  1.
         12    1    3    3    0    0  0.18406632125E+01 -0.55473242956E+00 -0.21028176724E+01  0.28491422031E+01  0.00000000000E+00 0. -1.
</event>
<event>
 7    1  0.1381440E-008  0.4614232E+02  0.7816164E-02  0.1320468E+00
        -11   -1    0    0    0    0  0.00000000000E+00  0.00000000000E+00  0.45593999997E+02  0.45594000000E+02  0.51100000000E-03 0.  1.
         11   -1    0    0    0    0 -0.00000000000E+00 -0.00000000000E+00 -0.45593999997E+02  0.45594000000E+02  0.51100000000E-03 0. -1.
    9900012    2    1    2    0    0  0.12735123566E+02  0.41972036007E+02  0.10260523722E+02  0.46142317345E+02  0.99999962084E+01 0.  0.
         12    1    1    2    0    0 -0.12735123566E+02 -0.41972036007E+02 -0.10260523722E+02  0.45045682655E+02  0.00000000000E+00 0. -1.
         11    1    3    3    0    0 -0.10450556548E+01  0.39175160562E+00  0.41851733910E+00  0.11919595910E+01  0.51100000000E-03 0. -1.
        -11    1    3    3    0    0  0.24878669345E+01  0.68648008268E+01  0.83159340041E+00  0.73489128529E+01  0.51100000000E-03 0.  1.
         12    1    3    3    0    0  0.11292312287E+02  0.34715483574E+02  0.90104129823E+01  0.37601444901E+02  0.00000000000E+00 0. -1.
</event>
<event>
 7    1  0.1381440E-008  0.4614232E+02  0.7816164E-02  0.1320468E+00
        -11   -1    0    0    0    0  0.00000000000E+00  0.00000000000E+00  0.45593999997E+02  0.45594000000E+02  0.51100000000E-03 0. -1.
         11   -1    0    0    0    0 -0.00000000000E+00 -0.00000000000E+00 -0.45593999997E+02  0.45594000000E+02  0.51100000000E-03 0.  1.
    9900012    2    1    2    0    0 -0.44323543364E+02  0.34650824439E+00 -0.80260137037E+01  0.46142318073E+02  0.10000002840E+02 0.  0.
         12    1    1    2    0    0  0.44323543364E+02 -0.34650824439E+00  0.80260137037E+01  0.45045681927E+02  0.00000000000E+00 0. -1.
         11    1    3    3    0    0 -0.49190740217E+01  0.23663397087E+01  0.81474016587E+00  0.55191171981E+01  0.51100000000E-03 0. -1.
        -11    1    3    3    0    0 -0.51970049735E+01 -0.12874086706E+01 -0.20942876772E+01  0.57491149681E+01  0.51100000000E-03 0.  1.
        -12    1    3    3    0    0 -0.34207464369E+02 -0.73242279371E+00 -0.67464661924E+01  0.34874085906E+02  0.00000000000E+00 0.  1.
</event>
<event>
 7    1  0.1381440E-008  0.4614232E+02  0.7816164E-02  0.1320468E+00
        -11   -1    0    0    0    0  0.00000000000E+00  0.00000000000E+00  0.45593999997E+02  0.45594000000E+02  0.51100000000E-03 0.  1.
         11   -1    0    0    0    0 -0.00000000000E+00 -0.00000000000E+00 -0.45593999997E+02  0.45594000000E+02  0.51100000000E-03 0. -1.
    9900012    2    1    2    0    0 -0.39167613641E+02 -0.46170165732E+01 -0.21764528157E+02  0.46142317784E+02  0.10000000213E+02 0.  0.
         12    1    1    2    0    0  0.39167613641E+02  0.46170165732E+01  0.21764528157E+02  0.45045682216E+02  0.00000000000E+00 0. -1.
         11    1    3    3    0    0 -0.25812790973E+02  0.35428277043E+00 -0.17762094782E+02  0.31335566141E+02  0.51100000000E-03 0. -1.
        -11    1    3    3    0    0 -0.93916972581E+01 -0.33399366383E+01 -0.26885879328E+01  0.10324129962E+02  0.51100000000E-03 0.  1.
         12    1    3    3    0    0 -0.39631254100E+01 -0.16313627053E+01 -0.13138454421E+01  0.44826216813E+01  0.00000000000E+00 0. -1.
</event>
<event>
 7    1  0.1381440E-008  0.4614232E+02  0.7816164E-02  0.1320468E+00
        -11   -1    0    0    0    0  0.00000000000E+00  0.00000000000E+00  0.45593999997E+02  0.45594000000E+02  0.51100000000E-03 0.  1.
         11   -1    0    0    0    0 -0.00000000000E+00 -0.00000000000E+00 -0.45593999997E+02  0.45594000000E+02  0.51100000000E-03 0. -1.
    9900012    2    1    2    0    0 -0.12124409481E+02  0.20019026478E+02  0.38488319038E+02  0.46142318423E+02  0.10000006037E+02 0.  0.
         12    1    1    2    0    0  0.12124409481E+02 -0.20019026478E+02 -0.38488319038E+02  0.45045681577E+02  0.00000000000E+00 0. -1.
         11    1    3    3    0    0 -0.14750604962E+01  0.52602350164E+01  0.44353951766E+01  0.70369458239E+01  0.51100000000E-03 0. -1.
        -11    1    3    3    0    0 -0.11108676074E+02  0.12387949791E+02  0.31264645314E+02  0.35416691418E+02  0.51100000000E-03 0.  1.
        -12    1    3    3    0    0  0.45932708922E+00  0.23708416698E+01  0.27882785469E+01  0.36886811808E+01  0.00000000000E+00 0.  1.
</event>
<event>
 7    1  0.1381440E-008  0.4614232E+02  0.7816164E-02  0.1320468E+00
        -11   -1    0    0    0    0  0.00000000000E+00  0.00000000000E+00  0.45593999997E+02  0.45594000000E+02  0.51100000000E-03 0.  1.
         11   -1    0    0    0    0 -0.00000000000E+00 -0.00000000000E+00 -0.45593999997E+02  0.45594000000E+02  0.51100000000E-03 0. -1.
    9900012    2    1    2    0    0 -0.27448939387E+01 -0.84098048052E+00  0.44954107222E+02  0.46142318220E+02  0.10000004185E+02 0.  0.
         12    1    1    2    0    0  0.27448939387E+01  0.84098048052E+00 -0.44954107222E+02  0.45045681780E+02  0.00000000000E+00 0. -1.
         11    1    3    3    0    0 -0.32366653883E+01  0.62578440175E+00  0.51585895664E+01  0.61219813402E+01  0.51100000000E-03 0. -1.
        -11    1    3    3    0    0 -0.45356706308E+00 -0.22347804204E+01  0.13095865678E+02  0.13292917841E+02  0.51100000000E-03 0.  1.
         12    1    3    3    0    0  0.94533851265E+00  0.76801553812E+00  0.26699651977E+02  0.26727419039E+02  0.00000000000E+00 0. -1.
</event>
<event>
 7    1  0.1381440E-008  0.4614232E+02  0.7816164E-02  0.1320468E+00
        -11   -1    0    0    0    0  0.00000000000E+00  0.00000000000E+00  0.45593999997E+02  0.45594000000E+02  0.51100000000E-03 0. -1.
         11   -1    0    0    0    0 -0.00000000000E+00 -0.00000000000E+00 -0.45593999997E+02  0.45594000000E+02  0.51100000000E-03 0.  1.
    9900012    2    1    2    0    0 -0.10074261360E+02  0.27548455381E+02 -0.34186332497E+02  0.46142318016E+02  0.10000002321E+02 0.  0.
         12    1    1    2    0    0  0.10074261360E+02 -0.27548455381E+02  0.34186332497E+02  0.45045681984E+02  0.00000000000E+00 0. -1.
         11    1    3    3    0    0 -0.44273869644E+01  0.35250878875E+01 -0.91644060705E+01  0.10770995257E+02  0.51100000000E-03 0. -1.
        -11    1    3    3    0    0 -0.33476747426E+01  0.16759430044E+02 -0.19685655960E+02  0.26069339700E+02  0.51100000000E-03 0.  1.
         12    1    3    3    0    0 -0.22991996532E+01  0.72639374495E+01 -0.53362704667E+01  0.93019830579E+01  0.00000000000E+00 0. -1.
</event>
<event>
 7    1  0.1381440E-008  0.4614232E+02  0.7816164E-02  0.1320468E+00
        -11   -1    0    0    0    0  0.00000000000E+00  0.00000000000E+00  0.45593999997E+02  0.45594000000E+02  0.51100000000E-03 0. -1.
         11   -1    0    0    0    0 -0.00000000000E+00 -0.00000000000E+00 -0.45593999997E+02  0.45594000000E+02  0.51100000000E-03 0.  1.
    9900012    2    1    2    0    0  0.24732890306E+02  0.31526261819E+02 -0.20578931521E+02  0.46142317968E+02  0.10000001887E+02 0.  0.
         12    1    1    2    0    0 -0.24732890306E+02 -0.31526261819E+02  0.20578931521E+02  0.45045682032E+02  0.00000000000E+00 0. -1.
         11    1    3    3    0    0  0.11972614450E+02  0.22974436087E+02 -0.12417901073E+02  0.28729296504E+02  0.51100000000E-03 0. -1.
        -11    1    3    3    0    0  0.88557183588E+01  0.62671661110E+01 -0.54815571217E+01  0.12155187677E+02  0.51100000000E-03 0.  1.
         12    1    3    3    0    0  0.39045574975E+01  0.22846596213E+01 -0.26794733261E+01  0.52578337880E+01  0.00000000000E+00 0. -1.
</event>
<event>
 7    1  0.1381440E-008  0.4614232E+02  0.7816164E-02  0.1320468E+00
        -11   -1    0    0    0    0  0.00000000000E+00  0.00000000000E+00  0.45593999997E+02  0.45594000000E+02  0.51100000000E-03 0.  1.
         11   -1    0    0    0    0 -0.00000000000E+00 -0.00000000000E+00 -0.45593999997E+02  0.45594000000E+02  0.51100000000E-03 0. -1.
    9900012    2    1    2    0    0  0.18824122328E+02 -0.40819677126E+02 -0.29188883799E+01  0.46142317283E+02  0.99999956401E+01 0.  0.
         12    1    1    2    0    0 -0.18824122328E+02  0.40819677126E+02  0.29188883799E+01  0.45045682717E+02  0.00000000000E+00 0. -1.
         11    1    3    3    0    0  0.51945341148E+00 -0.17943595297E+01 -0.21866906717E+01  0.28759649378E+01  0.51100000000E-03 0. -1.
        -11    1    3    3    0    0  0.13272755230E+02 -0.24156013705E+02 -0.39918222372E+00  0.27565165993E+02  0.51100000000E-03 0.  1.
        -12    1    3    3    0    0  0.50319136858E+01 -0.14869303891E+02 -0.33301548445E+00  0.15701186352E+02  0.00000000000E+00 0.  1.
</event>
<event>
 7    1  0.1381440E-008  0.4614232E+02  0.7816164E-02  0.1320468E+00
        -11   -1    0    0    0    0  0.00000000000E+00  0.00000000000E+00  0.45593999997E+02  0.45594000000E+02  0.51100000000E-03 0.  1.
         11   -1    0    0    0    0 -0.00000000000E+00 -0.00000000000E+00 -0.45593999997E+02  0.45594000000E+02  0.51100000000E-03 0. -1.
    9900012    2    1    2    0    0 -0.13706422781E+02  0.21116472960E+02  0.37354279281E+02  0.46142316118E+02  0.99999850180E+01 0.  0.
         12    1    1    2    0    0  0.13706422781E+02 -0.21116472960E+02 -0.37354279281E+02  0.45045683882E+02  0.00000000000E+00 0. -1.
         11    1    3    3    0    0 -0.38285119366E+01  0.37158270114E+01  0.76542514807E+01  0.93301897097E+01  0.51100000000E-03 0. -1.
        -11    1    3    3    0    0 -0.22381618446E+01  0.43412907873E+01  0.20576514264E+01  0.53000097921E+01  0.51100000000E-03 0.  1.
        -12    1    3    3    0    0 -0.76397490001E+01  0.13059355162E+02  0.27642376374E+02  0.31512116616E+02  0.00000000000E+00 0.  1.
</event>
<event>
 7    1  0.1381440E-008  0.4614233E+02  0.7816164E-02  0.1320468E+00
        -11   -1    0    0    0    0  0.00000000000E+00  0.00000000000E+00  0.45593999997E+02  0.45594000000E+02  0.51100000000E-03 0.  1.
         11   -1    0    0    0    0 -0.00000000000E+00 -0.00000000000E+00 -0.45593999997E+02  0.45594000000E+02  0.51100000000E-03 0. -1.
    9900012    2    1    2    0    0 -0.20848655585E+02 -0.14991426960E+02  0.37009499847E+02  0.46142329832E+02  0.10000110071E+02 0.  0.
         12    1    1    2    0    0  0.20848655585E+02  0.14991426960E+02 -0.37009499847E+02  0.45045670168E+02  0.00000000000E+00 0. -1.
         11    1    3    3    0    0 -0.83910441233E+01 -0.26858607537E+01  0.74663250730E+01  0.11548570467E+02  0.51100000000E-03 0. -1.
        -11    1    3    3    0    0 -0.11608123451E+02 -0.98813004967E+01  0.23312084943E+02  0.27853939294E+02  0.51100000000E-03 0.  1.
         12    1    3    3    0    0 -0.84948801027E+00 -0.24242657096E+01  0.62310898307E+01  0.67398200709E+01  0.00000000000E+00 0. -1.
</event>
<event>
 7    1  0.1381440E-008  0.4614232E+02  0.7816164E-02  0.1320468E+00
        -11   -1    0    0    0    0  0.00000000000E+00  0.00000000000E+00  0.45593999997E+02  0.45594000000E+02  0.51100000000E-03 0. -1.
         11   -1    0    0    0    0 -0.00000000000E+00 -0.00000000000E+00 -0.45593999997E+02  0.45594000000E+02  0.51100000000E-03 0.  1.
    9900012    2    1    2    0    0 -0.15627098451E+01 -0.11011912094E+02 -0.43650993909E+02  0.46142317196E+02  0.99999948496E+01 0.  0.
         12    1    1    2    0    0  0.15627098451E+01  0.11011912094E+02  0.43650993909E+02  0.45045682804E+02  0.00000000000E+00 0. -1.
         11    1    3    3    0    0 -0.17400337946E+01 -0.15351106045E+01 -0.13268823964E+01  0.26729944499E+01  0.51100000000E-03 0. -1.
        -11    1    3    3    0    0 -0.10024168887E+01 -0.71439628620E+01 -0.33401231255E+02  0.34171381222E+02  0.51100000000E-03 0.  1.
         12    1    3    3    0    0  0.11797408382E+01 -0.23328386279E+01 -0.89228802574E+01  0.92979415247E+01  0.00000000000E+00 0. -1.
</event>
<event>
 7    1  0.1381440E-008  0.4614232E+02  0.7816164E-02  0.1320468E+00
        -11   -1    0    0    0    0  0.00000000000E+00  0.00000000000E+00  0.45593999997E+02  0.45594000000E+02  0.51100000000E-03 0.  1.
         11   -1    0    0    0    0 -0.00000000000E+00 -0.00000000000E+00 -0.45593999997E+02  0.45594000000E+02  0.51100000000E-03 0. -1.
    9900012    2    1    2    0    0  0.79409532445E+01  0.22035522430E+02  0.38477141247E+02  0.46142318900E+02  0.10000010387E+02 0.  0.
         12    1    1    2    0    0 -0.79409532445E+01 -0.22035522430E+02 -0.38477141247E+02  0.45045681100E+02  0.00000000000E+00 0. -1.
         11    1    3    3    0    0 -0.79272527678E+00  0.54956736778E+01  0.13649969511E+02  0.14736095495E+02  0.51100000000E-03 0. -1.
        -11    1    3    3    0    0  0.30950013908E+01  0.69541189762E+01  0.13710205125E+02  0.15681470887E+02  0.51100000000E-03 0.  1.
         12    1    3    3    0    0  0.56386771304E+01  0.95857297760E+01  0.11116966611E+02  0.15724752518E+02  0.00000000000E+00 0. -1.
</event>
<event>
 7    1  0.1381440E-008  0.4614232E+02  0.7816164E-02  0.1320468E+00
        -11   -1    0    0    0    0  0.00000000000E+00  0.00000000000E+00  0.45593999997E+02  0.45594000000E+02  0.51100000000E-03 0.  1.
         11   -1    0    0    0    0 -0.00000000000E+00 -0.00000000000E+00 -0.45593999997E+02  0.45594000000E+02  0.51100000000E-03 0. -1.
    9900012    2    1    2    0    0  0.62067621452E+01  0.25269850476E+02  0.36769882350E+02  0.46142317771E+02  0.10000000094E+02 0.  0.
         12    1    1    2    0    0 -0.62067621452E+01 -0.25269850476E+02 -0.36769882350E+02  0.45045682229E+02  0.00000000000E+00 0. -1.
         11    1    3    3    0    0  0.41944563924E+01  0.28938589119E+01  0.69714029520E+01  0.86352963591E+01  0.51100000000E-03 0. -1.
        -11    1    3    3    0    0  0.30524832198E+01  0.17912890553E+02  0.23088109105E+02  0.29381117815E+02  0.51100000000E-03 0.  1.
         12    1    3    3    0    0 -0.10401774670E+01  0.44631010115E+01  0.67103702932E+01  0.81259035974E+01  0.00000000000E+00 0. -1.
</event>
<event>
 7    1  0.1381440E-008  0.4614232E+02  0.7816164E-02  0.1320468E+00
        -11   -1    0    0    0    0  0.00000000000E+00  0.00000000000E+00  0.45593999997E+02  0.45594000000E+02  0.51100000000E-03 0. -1.
         11   -1    0    0    0    0 -0.00000000000E+00 -0.00000000000E+00 -0.45593999997E+02  0.45594000000E+02  0.51100000000E-03 0.  1.
    9900012    2    1    2    0    0  0.32574922185E+02  0.30714713986E+02 -0.49592473792E+01  0.46142319350E+02  0.10000014492E+02 0.  0.
         12    1    1    2    0    0 -0.32574922185E+02 -0.30714713986E+02  0.49592473792E+01  0.45045680650E+02  0.00000000000E+00 0. -1.
         11    1    3    3    0    0  0.22035486242E+02  0.21320216481E+02 -0.67493138131E+01  0.31395342360E+02  0.51100000000E-03 0. -1.
        -11    1    3    3    0    0  0.10072974265E+02  0.93949085452E+01  0.23972824120E+01  0.13981276063E+02  0.51100000000E-03 0.  1.
         12    1    3    3    0    0  0.46646167761E+00 -0.41103976827E-03 -0.60721597808E+00  0.76570092704E+00  0.00000000000E+00 0. -1.
</event>
<event>
 7    1  0.1381440E-008  0.4614232E+02  0.7816164E-02  0.1320468E+00
        -11   -1    0    0    0    0  0.00000000000E+00  0.00000000000E+00  0.45593999997E+02  0.45594000000E+02  0.51100000000E-03 0. -1.
         11   -1    0    0    0    0 -0.00000000000E+00 -0.00000000000E+00 -0.45593999997E+02  0.45594000000E+02  0.51100000000E-03 0.  1.
    9900012    2    1    2    0    0 -0.14143614642E+01 -0.43675723146E+02 -0.10933631329E+02  0.46142317580E+02  0.99999983479E+01 0.  0.
         12    1    1    2    0    0  0.14143614642E+01  0.43675723146E+02  0.10933631329E+02  0.45045682420E+02  0.00000000000E+00 0. -1.
         11    1    3    3    0    0  0.11906892462E+01 -0.18533658875E+02 -0.17819414131E+01  0.18657158617E+02  0.51100000000E-03 0. -1.
        -11    1    3    3    0    0 -0.11232820090E+01 -0.24039487517E+02 -0.86241200047E+01  0.25564314359E+02  0.51100000000E-03 0.  1.
         12    1    3    3    0    0 -0.14817687013E+01 -0.11025767538E+01 -0.52756991097E+00  0.19208446041E+01  0.00000000000E+00 0. -1.
</event>
<event>
 7    1  0.1381440E-008  0.4614232E+02  0.7816164E-02  0.1320468E+00
        -11   -1    0    0    0    0  0.00000000000E+00  0.00000000000E+00  0.45593999997E+02  0.45594000000E+02  0.51100000000E-03 0. -1.
         11   -1    0    0    0    0 -0.00000000000E+00 -0.00000000000E+00 -0.45593999997E+02  0.45594000000E+02  0.51100000000E-03 0.  1.
    9900012    2    1    2    0    0 -0.77724973379E+00 -0.43331722522E+02 -0.12282953576E+02  0.46142320492E+02  0.10000024899E+02 0.  0.
         12    1    1    2    0    0  0.77724973379E+00  0.43331722522E+02  0.12282953576E+02  0.45045679508E+02  0.00000000000E+00 0. -1.
         11    1    3    3    0    0 -0.49701942505E-01 -0.21292708475E+01  0.97465334117E+00  0.23422668553E+01  0.51100000000E-03 0. -1.
        -11    1    3    3    0    0 -0.34775422259E+01 -0.26946683569E+02 -0.75477770817E+01  0.28199042438E+02  0.51100000000E-03 0.  1.
         12    1    3    3    0    0  0.27499944346E+01 -0.14255768105E+02 -0.57098298350E+01  0.15601011198E+02  0.00000000000E+00 0. -1.
</event>
<event>
 7    1  0.1381440E-008  0.4614232E+02  0.7816164E-02  0.1320468E+00
        -11   -1    0    0    0    0  0.00000000000E+00  0.00000000000E+00  0.45593999997E+02  0.45594000000E+02  0.51100000000E-03 0.  1.
         11   -1    0    0    0    0 -0.00000000000E+00 -0.00000000000E+00 -0.45593999997E+02  0.45594000000E+02  0.51100000000E-03 0. -1.
    9900012    2    1    2    0    0  0.36950266836E+02  0.14810122018E+02  0.21082019546E+02  0.46142317837E+02  0.10000000689E+02 0.  0.
         12    1    1    2    0    0 -0.36950266836E+02 -0.14810122018E+02 -0.21082019546E+02  0.45045682163E+02  0.00000000000E+00 0. -1.
         11    1    3    3    0    0  0.65360537961E+01  0.55478339437E+01  0.18830460127E+01  0.87774895750E+01  0.51100000000E-03 0. -1.
        -11    1    3    3    0    0  0.25607757827E+02  0.84525620640E+01  0.17733637917E+02  0.32275144932E+02  0.51100000000E-03 0.  1.
         12    1    3    3    0    0  0.48064552132E+01  0.80972601040E+00  0.14653356162E+01  0.50896833297E+01  0.00000000000E+00 0. -1.
</event>
<event>
 7    1  0.1381440E-008  0.4614232E+02  0.7816164E-02  0.1320468E+00
        -11   -1    0    0    0    0  0.00000000000E+00  0.00000000000E+00  0.45593999997E+02  0.45594000000E+02  0.51100000000E-03 0. -1.
         11   -1    0    0    0    0 -0.00000000000E+00 -0.00000000000E+00 -0.45593999997E+02  0.45594000000E+02  0.51100000000E-03 0.  1.
    9900012    2    1    2    0    0  0.33052741243E+02  0.29488990549E+02 -0.81871404287E+01  0.46142317236E+02  0.99999952077E+01 0.  0.
         12    1    1    2    0    0 -0.33052741243E+02 -0.29488990549E+02  0.81871404287E+01  0.45045682764E+02  0.00000000000E+00 0. -1.
         11    1    3    3    0    0  0.11085758543E+02  0.65214938520E+01 -0.57394452215E+01  0.14084216565E+02  0.51100000000E-03 0. -1.
        -11    1    3    3    0    0  0.56285016943E+01  0.66141498547E+01  0.76857444248E+00  0.87188139422E+01  0.51100000000E-03 0.  1.
        -12    1    3    3    0    0  0.16338481006E+02  0.16353346843E+02 -0.32162696497E+01  0.23339286729E+02  0.00000000000E+00 0.  1.
</event>
<event>
 7    1  0.1381440E-008  0.4614232E+02  0.7816164E-02  0.1320468E+00
        -11   -1    0    0    0    0  0.00000000000E+00  0.00000000000E+00  0.45593999997E+02  0.45594000000E+02  0.51100000000E-03 0. -1.
         11   -1    0    0    0    0 -0.00000000000E+00 -0.00000000000E+00 -0.45593999997E+02  0.45594000000E+02  0.51100000000E-03 0.  1.
    9900012    2    1    2    0    0  0.27421468767E+02 -0.28680706565E+02 -0.21321200621E+02  0.46142317917E+02  0.10000001421E+02 0.  0.
         12    1    1    2    0    0 -0.27421468767E+02  0.28680706565E+02  0.21321200621E+02  0.45045682083E+02  0.00000000000E+00 0. -1.
         11    1    3    3    0    0  0.19578000816E+02 -0.15372358810E+02 -0.10025050315E+02  0.26834849830E+02  0.51100000000E-03 0. -1.
        -11    1    3    3    0    0  0.34707096781E+01 -0.80882873101E+01 -0.71060161887E+01  0.11312015011E+02  0.51100000000E-03 0.  1.
         12    1    3    3    0    0  0.43727582728E+01 -0.52200604448E+01 -0.41901341172E+01  0.79954530754E+01  0.00000000000E+00 0. -1.
</event>
<event>
 7    1  0.1384362E-008  0.4614232E+02  0.7816164E-02  0.1320468E+00
        -11   -1    0    0    0    0  0.00000000000E+00  0.00000000000E+00  0.45593999997E+02  0.45594000000E+02  0.51100000000E-03 0.  1.
         11   -1    0    0    0    0 -0.00000000000E+00 -0.00000000000E+00 -0.45593999997E+02  0.45594000000E+02  0.51100000000E-03 0. -1.
    9900012    2    1    2    0    0  0.43900705027E+02 -0.33188066380E+01  0.95303318365E+01  0.46142316475E+02  0.99999882706E+01 0.  0.
         12    1    1    2    0    0 -0.43900705027E+02  0.33188066380E+01 -0.95303318365E+01  0.45045683525E+02  0.00000000000E+00 0. -1.
         11    1    3    3    0    0  0.39405626014E+01  0.13329832572E+01  0.26874311906E+01  0.49524907516E+01  0.51100000000E-03 0. -1.
        -11    1    3    3    0    0  0.33124152094E+02 -0.56700332919E+01  0.45754638336E+01  0.33915978521E+02  0.51100000000E-03 0.  1.
        -12    1    3    3    0    0  0.68359903311E+01  0.10182433967E+01  0.22674368124E+01  0.72738472022E+01  0.00000000000E+00 0.  1.
</event>
<event>
 7    1  0.1381440E-008  0.4614232E+02  0.7816164E-02  0.1320468E+00
        -11   -1    0    0    0    0  0.00000000000E+00  0.00000000000E+00  0.45593999997E+02  0.45594000000E+02  0.51100000000E-03 0.  1.
         11   -1    0    0    0    0 -0.00000000000E+00 -0.00000000000E+00 -0.45593999997E+02  0.45594000000E+02  0.51100000000E-03 0. -1.
    9900012    2    1    2    0    0  0.15619442399E+02  0.26676737627E+02  0.32764279399E+02  0.46142319676E+02  0.10000017463E+02 0.  0.
         12    1    1    2    0    0 -0.15619442399E+02 -0.26676737627E+02 -0.32764279399E+02  0.45045680324E+02  0.00000000000E+00 0. -1.
         11    1    3    3    0    0  0.14053050967E+01  0.10153297055E+01  0.48302018163E+01  0.51319223175E+01  0.51100000000E-03 0. -1.
        -11    1    3    3    0    0  0.32899003173E+01  0.64213941980E+01  0.34082169374E+01  0.79795795941E+01  0.51100000000E-03 0.  1.
        -12    1    3    3    0    0  0.10924236985E+02  0.19240013724E+02  0.24525860646E+02  0.33030817765E+02  0.00000000000E+00 0.  1.
</event>
<event>
 7    1  0.1381440E-008  0.4614232E+02  0.7816164E-02  0.1320468E+00
        -11   -1    0    0    0    0  0.00000000000E+00  0.00000000000E+00  0.45593999997E+02  0.45594000000E+02  0.51100000000E-03 0.  1.
         11   -1    0    0    0    0 -0.00000000000E+00 -0.00000000000E+00 -0.45593999997E+02  0.45594000000E+02  0.51100000000E-03 0. -1.
    9900012    2    1    2    0    0 -0.26358358112E+02 -0.13644747725E+02  0.33884675622E+02  0.46142318466E+02  0.10000006429E+02 0.  0.
         12    1    1    2    0    0  0.26358358112E+02  0.13644747725E+02 -0.33884675622E+02  0.45045681534E+02  0.00000000000E+00 0. -1.
         11    1    3    3    0    0 -0.14149156567E+02 -0.72044580635E+01  0.21242305509E+02  0.26520527732E+02  0.51100000000E-03 0. -1.
        -11    1    3    3    0    0 -0.78750265667E+01 -0.58958544271E+01  0.11446075800E+02  0.15092706660E+02  0.51100000000E-03 0.  1.
         12    1    3    3    0    0 -0.43341749786E+01 -0.54443523485E+00  0.11962943120E+01  0.45290840742E+01  0.00000000000E+00 0. -1.
</event>
<event>
 7    1  0.1381440E-008  0.4614232E+02  0.7816164E-02  0.1320468E+00
        -11   -1    0    0    0    0  0.00000000000E+00  0.00000000000E+00  0.45593999997E+02  0.45594000000E+02  0.51100000000E-03 0. -1.
         11   -1    0    0    0    0 -0.00000000000E+00 -0.00000000000E+00 -0.45593999997E+02  0.45594000000E+02  0.51100000000E-03 0.  1.
    9900012    2    1    2    0    0 -0.44704442734E+02  0.27007641452E+01  0.48303395374E+01  0.46142317552E+02  0.99999980926E+01 0.  0.
         12    1    1    2    0    0  0.44704442734E+02 -0.27007641452E+01 -0.48303395374E+01  0.45045682448E+02  0.00000000000E+00 0. -1.
         11    1    3    3    0    0 -0.10312864555E+02 -0.31230824793E+01  0.59638847688E-01  0.10775545302E+02  0.51100000000E-03 0. -1.
        -11    1    3    3    0    0 -0.33348051232E+02  0.56222800245E+01  0.40010157115E+01  0.34054525113E+02  0.51100000000E-03 0.  1.
         12    1    3    3    0    0 -0.10435269476E+01  0.20156659997E+00  0.76968497826E+00  0.13122471377E+01  0.00000000000E+00 0. -1.
</event>
<event>
 7    1  0.1381440E-008  0.4614232E+02  0.7816164E-02  0.1320468E+00
        -11   -1    0    0    0    0  0.00000000000E+00  0.00000000000E+00  0.45593999997E+02  0.45594000000E+02  0.51100000000E-03 0. -1.
         11   -1    0    0    0    0 -0.00000000000E+00 -0.00000000000E+00 -0.45593999997E+02  0.45594000000E+02  0.51100000000E-03 0.  1.
    9900012    2    1    2    0    0  0.84572773336E+00 -0.43743681169E+02 -0.10718613445E+02  0.46142316835E+02  0.99999915541E+01 0.  0.
         12    1    1    2    0    0 -0.84572773336E+00  0.43743681169E+02  0.10718613445E+02  0.45045683165E+02  0.00000000000E+00 0. -1.
         11    1    3    3    0    0  0.28343873277E+01 -0.90378744018E+01 -0.45689146846E+01  0.10516268677E+02  0.51100000000E-03 0. -1.
        -11    1    3    3    0    0  0.36349993291E+00 -0.25818357299E+02 -0.55665458097E+01  0.26414127628E+02  0.51100000000E-03 0.  1.
        -12    1    3    3    0    0 -0.23521595272E+01 -0.88874494685E+01 -0.58315295052E+00  0.92119205305E+01  0.00000000000E+00 0.  1.
</event>
<event>
 7    1  0.1381440E-008  0.4614232E+02  0.7816164E-02  0.1320468E+00
        -11   -1    0    0    0    0  0.00000000000E+00  0.00000000000E+00  0.45593999997E+02  0.45594000000E+02  0.51100000000E-03 0.  1.
         11   -1    0    0    0    0 -0.00000000000E+00 -0.00000000000E+00 -0.45593999997E+02  0.45594000000E+02  0.51100000000E-03 0. -1.
    9900012    2    1    2    0    0 -0.42506412419E+02 -0.45834287354E+00  0.14903297028E+02  0.46142318328E+02  0.10000005172E+02 0.  0.
         12    1    1    2    0    0  0.42506412419E+02  0.45834287354E+00 -0.14903297028E+02  0.45045681672E+02  0.00000000000E+00 0. -1.
         11    1    3    3    0    0 -0.15739211276E+01  0.14328099116E+01 -0.52192287382E+00  0.21914779729E+01  0.51100000000E-03 0. -1.
        -11    1    3    3    0    0 -0.26465071855E+02 -0.19100131947E+01  0.81512684865E+01  0.27757726076E+02  0.51100000000E-03 0.  1.
         12    1    3    3    0    0 -0.14467419437E+02  0.18860409556E-01  0.72739514155E+01  0.16193114280E+02  0.00000000000E+00 0. -1.
</event>
<event>
 7    1  0.1381440E-008  0.4614232E+02  0.7816164E-02  0.1320468E+00
        -11   -1    0    0    0    0  0.00000000000E+00  0.00000000000E+00  0.45593999997E+02  0.45594000000E+02  0.51100000000E-03 0. -1.
         11   -1    0    0    0    0 -0.00000000000E+00 -0.00000000000E+00 -0.45593999997E+02  0.45594000000E+02  0.51100000000E-03 0.  1.
    9900012    2    1    2    0    0  0.22968147234E+02 -0.18052658332E+02 -0.34288179046E+02  0.46142317826E+02  0.10000000592E+02 0.  0.
         12    1    1    2    0    0 -0.22968147234E+02  0.18052658332E+02  0.34288179046E+02  0.45045682174E+02  0.00000000000E+00 0. -1.
         11    1    3    3    0    0  0.14372014326E+01  0.52041732656E+00 -0.31075171456E+00  0.15597913453E+01  0.51100000000E-03 0. -1.
        -11    1    3    3    0    0  0.72291825438E+01 -0.44898136021E+01 -0.13099799804E+02  0.15621275927E+02  0.51100000000E-03 0.  1.
         12    1    3    3    0    0  0.14301763257E+02 -0.14083262057E+02 -0.20877627528E+02  0.28961250553E+02  0.00000000000E+00 0. -1.
</event>
<event>
 7    1  0.1381440E-008  0.4614232E+02  0.7816164E-02  0.1320468E+00
        -11   -1    0    0    0    0  0.00000000000E+00  0.00000000000E+00  0.45593999997E+02  0.45594000000E+02  0.51100000000E-03 0. -1.
         11   -1    0    0    0    0 -0.00000000000E+00 -0.00000000000E+00 -0.45593999997E+02  0.45594000000E+02  0.51100000000E-03 0.  1.
    9900012    2    1    2    0    0 -0.70419288732E+01  0.43060765502E+02 -0.11193531923E+02  0.46142318245E+02  0.10000004413E+02 0.  0.
         12    1    1    2    0    0  0.70419288732E+01 -0.43060765502E+02  0.11193531923E+02  0.45045681755E+02  0.00000000000E+00 0. -1.
         11    1    3    3    0    0 -0.58336319287E+01  0.19106724049E+02 -0.78146927580E+01  0.21451517162E+02  0.51100000000E-03 0. -1.
        -11    1    3    3    0    0 -0.23576448024E+01  0.69187283662E+01 -0.19032127678E+01  0.75531126246E+01  0.51100000000E-03 0.  1.
         12    1    3    3    0    0  0.11493478578E+01  0.17035313086E+02 -0.14756263970E+01  0.17137688459E+02  0.00000000000E+00 0. -1.
</event>
<event>
 7    1  0.1381440E-008  0.4614232E+02  0.7816164E-02  0.1320468E+00
        -11   -1    0    0    0    0  0.00000000000E+00  0.00000000000E+00  0.45593999997E+02  0.45594000000E+02  0.51100000000E-03 0. -1.
         11   -1    0    0    0    0 -0.00000000000E+00 -0.00000000000E+00 -0.45593999997E+02  0.45594000000E+02  0.51100000000E-03 0.  1.
    9900012    2    1    2    0    0 -0.18472819974E+02 -0.40040698211E+02  0.91984173875E+01  0.46142317926E+02  0.10000001508E+02 0.  0.
         12    1    1    2    0    0  0.18472819974E+02  0.40040698211E+02 -0.91984173875E+01  0.45045682074E+02  0.00000000000E+00 0. -1.
         11    1    3    3    0    0 -0.56794278726E+01 -0.17824976300E+02 -0.14277953126E+00  0.18708449089E+02  0.51100000000E-03 0. -1.
        -11    1    3    3    0    0 -0.70823081317E+01 -0.11730706801E+02  0.64723020014E+01  0.15154512991E+02  0.51100000000E-03 0.  1.
         12    1    3    3    0    0 -0.57110839697E+01 -0.10485015110E+02  0.28688949173E+01  0.12279355846E+02  0.00000000000E+00 0. -1.
</event>
<event>
 7    1  0.1381440E-008  0.4614232E+02  0.7816164E-02  0.1320468E+00
        -11   -1    0    0    0    0  0.00000000000E+00  0.00000000000E+00  0.45593999997E+02  0.45594000000E+02  0.51100000000E-03 0.  1.
         11   -1    0    0    0    0 -0.00000000000E+00 -0.00000000000E+00 -0.45593999997E+02  0.45594000000E+02  0.51100000000E-03 0. -1.
    9900012    2    1    2    0    0  0.27093245479E+02 -0.14159635239E+02  0.33084350999E+02  0.46142317613E+02  0.99999986482E+01 0.  0.
         12    1    1    2    0    0 -0.27093245479E+02  0.14159635239E+02 -0.33084350999E+02  0.45045682387E+02  0.00000000000E+00 0. -1.
         11    1    3    3    0    0  0.64658574088E+01 -0.12615952821E+01  0.82887253587E+01  0.10587818615E+02  0.51100000000E-03 0. -1.
        -11    1    3    3    0    0  0.75642518195E+01 -0.70648913142E+00  0.79761189578E+01  0.11015239733E+02  0.51100000000E-03 0.  1.
        -12    1    3    3    0    0  0.13063136251E+02 -0.12191550826E+02  0.16819506682E+02  0.24539259265E+02  0.00000000000E+00 0.  1.
</event>
<event>
 7    1  0.1381440E-008  0.4614232E+02  0.7816164E-02  0.1320468E+00
        -11   -1    0    0    0    0  0.00000000000E+00  0.00000000000E+00  0.45593999997E+02  0.45594000000E+02  0.51100000000E-03 0.  1.
         11   -1    0    0    0    0 -0.00000000000E+00 -0.00000000000E+00 -0.45593999997E+02  0.45594000000E+02  0.51100000000E-03 0. -1.
    9900012    2    1    2    0    0 -0.43459527876E+02 -0.11830513324E+02 -0.64955169066E+00  0.46142317342E+02  0.99999961822E+01 0.  0.
         12    1    1    2    0    0  0.43459527876E+02  0.11830513324E+02  0.64955169066E+00  0.45045682658E+02  0.00000000000E+00 0. -1.
         11    1    3    3    0    0 -0.63213508361E+01 -0.10410593299E+01 -0.24084419463E+01  0.68442584545E+01  0.51100000000E-03 0. -1.
        -11    1    3    3    0    0 -0.17581432130E+02 -0.63045975576E+01  0.40239852408E+01  0.19106207462E+02  0.51100000000E-03 0.  1.
         12    1    3    3    0    0 -0.19556744909E+02 -0.44848564363E+01 -0.22650949851E+01  0.20191851426E+02  0.00000000000E+00 0. -1.
</event>
<event>
 7    1  0.1381440E-008  0.4614232E+02  0.7816164E-02  0.1320468E+00
        -11   -1    0    0    0    0  0.00000000000E+00  0.00000000000E+00  0.45593999997E+02  0.45594000000E+02  0.51100000000E-03 0. -1.
         11   -1    0    0    0    0 -0.00000000000E+00 -0.00000000000E+00 -0.45593999997E+02  0.45594000000E+02  0.51100000000E-03 0.  1.
    9900012    2    1    2    0    0 -0.32275891085E+02  0.31095694827E+02 -0.45208568163E+01  0.46142317316E+02  0.99999959381E+01 0.  0.
         12    1    1    2    0    0  0.32275891085E+02 -0.31095694827E+02  0.45208568163E+01  0.45045682684E+02  0.00000000000E+00 0. -1.
         11    1    3    3    0    0 -0.10610009395E+02  0.45285820536E+01 -0.10675197480E+01  0.11585333550E+02  0.51100000000E-03 0. -1.
        -11    1    3    3    0    0 -0.15172977692E+02  0.17322479329E+02 -0.32664652117E+01  0.23258489577E+02  0.51100000000E-03 0.  1.
        -12    1    3    3    0    0 -0.64929039975E+01  0.92446334445E+01 -0.18687185658E+00  0.11298494189E+02  0.00000000000E+00 0.  1.
</event>
<event>
 7    1  0.1381440E-008  0.4614232E+02  0.7816164E-02  0.1320468E+00
        -11   -1    0    0    0    0  0.00000000000E+00  0.00000000000E+00  0.45593999997E+02  0.45594000000E+02  0.51100000000E-03 0.  1.
         11   -1    0    0    0    0 -0.00000000000E+00 -0.00000000000E+00 -0.45593999997E+02  0.45594000000E+02  0.51100000000E-03 0. -1.
    9900012    2    1    2    0    0 -0.16334097644E+02 -0.63073254520E+01  0.41503354260E+02  0.46142317465E+02  0.99999973024E+01 0.  0.
         12    1    1    2    0    0  0.16334097644E+02  0.63073254520E+01 -0.41503354260E+02  0.45045682535E+02  0.00000000000E+00 0. -1.
         11    1    3    3    0    0 -0.83949574351E+01 -0.27232179356E-01  0.17059197339E+02  0.19012949956E+02  0.51100000000E-03 0.  1.
        -11    1    3    3    0    0 -0.69050606627E+01 -0.62834884173E+01  0.15275620854E+02  0.17902700416E+02  0.51100000000E-03 0. -1.
         12    1    3    3    0    0 -0.10340795458E+01  0.33951446973E-02  0.91685360670E+01  0.92266670931E+01  0.00000000000E+00 0. -1.
</event>
<event>
 7    1  0.1381440E-008  0.4614232E+02  0.7816164E-02  0.1320468E+00
        -11   -1    0    0    0    0  0.00000000000E+00  0.00000000000E+00  0.45593999997E+02  0.45594000000E+02  0.51100000000E-03 0.  1.
         11   -1    0    0    0    0 -0.00000000000E+00 -0.00000000000E+00 -0.45593999997E+02  0.45594000000E+02  0.51100000000E-03 0. -1.
    9900012    2    1    2    0    0  0.31085953716E+02 -0.25891603376E+02  0.19809131938E+02  0.46142319276E+02  0.10000013810E+02 0.  0.
         12    1    1    2    0    0 -0.31085953716E+02  0.25891603376E+02 -0.19809131938E+02  0.45045680724E+02  0.00000000000E+00 0. -1.
         11    1    3    3    0    0 -0.37986042934E+00  0.37448945372E+00 -0.99700170307E-01  0.54265705727E+00  0.51100000000E-03 0. -1.
        -11    1    3    3    0    0  0.20811495675E+02 -0.18420273001E+02  0.13494190755E+02  0.30895274623E+02  0.51100000000E-03 0.  1.
        -12    1    3    3    0    0  0.10654318471E+02 -0.78458198278E+01  0.64146413533E+01  0.14704387595E+02  0.00000000000E+00 0.  1.
</event>
<event>
 7    1  0.1381440E-008  0.4614232E+02  0.7816164E-02  0.1320468E+00
        -11   -1    0    0    0    0  0.00000000000E+00  0.00000000000E+00  0.45593999997E+02  0.45594000000E+02  0.51100000000E-03 0.  1.
         11   -1    0    0    0    0 -0.00000000000E+00 -0.00000000000E+00 -0.45593999997E+02  0.45594000000E+02  0.51100000000E-03 0. -1.
    9900012    2    1    2    0    0 -0.94887034779E+01 -0.25942638599E+02  0.35581700292E+02  0.46142318888E+02  0.10000010275E+02 0.  0.
         12    1    1    2    0    0  0.94887034779E+01  0.25942638599E+02 -0.35581700292E+02  0.45045681112E+02  0.00000000000E+00 0. -1.
         11    1    3    3    0    0  0.13883894886E+01 -0.44431585817E+01  0.32035178861E+01  0.56508238923E+01  0.51100000000E-03 0. -1.
        -11    1    3    3    0    0 -0.72731409321E+01 -0.11224874144E+02  0.16533255455E+02  0.21266050756E+02  0.51100000000E-03 0.  1.
         12    1    3    3    0    0 -0.36039520343E+01 -0.10274605874E+02  0.15844926951E+02  0.19225444239E+02  0.00000000000E+00 0. -1.
</event>
<event>
 7    1  0.1381440E-008  0.4614232E+02  0.7816164E-02  0.1320468E+00
        -11   -1    0    0    0    0  0.00000000000E+00  0.00000000000E+00  0.45593999997E+02  0.45594000000E+02  0.51100000000E-03 0.  1.
         11   -1    0    0    0    0 -0.00000000000E+00 -0.00000000000E+00 -0.45593999997E+02  0.45594000000E+02  0.51100000000E-03 0. -1.
    9900012    2    1    2    0    0 -0.14352063164E+02 -0.41349397431E+02 -0.10647031233E+02  0.46142315867E+02  0.99999827238E+01 0.  0.
         12    1    1    2    0    0  0.14352063164E+02  0.41349397431E+02  0.10647031233E+02  0.45045684133E+02  0.00000000000E+00 0. -1.
         11    1    3    3    0    0 -0.27415488866E+01 -0.22135272686E+01  0.32476043046E+00  0.35385396514E+01  0.51100000000E-03 0. -1.
        -11    1    3    3    0    0 -0.10184271587E+02 -0.25542867411E+02 -0.74550596797E+01  0.28490970121E+02  0.51100000000E-03 0.  1.
         12    1    3    3    0    0 -0.14262426906E+01 -0.13593002751E+02 -0.35167319834E+01  0.14112806094E+02  0.00000000000E+00 0. -1.
</event>
<event>
 7    1  0.1381440E-008  0.4614232E+02  0.7816164E-02  0.1320468E+00
        -11   -1    0    0    0    0  0.00000000000E+00  0.00000000000E+00  0.45593999997E+02  0.45594000000E+02  0.51100000000E-03 0. -1.
         11   -1    0    0    0    0 -0.00000000000E+00 -0.00000000000E+00 -0.45593999997E+02  0.45594000000E+02  0.51100000000E-03 0.  1.
    9900012    2    1    2    0    0 -0.14608560591E+02 -0.19821730225E+02 -0.37720055751E+02  0.46142316105E+02  0.99999849027E+01 0.  0.
         12    1    1    2    0    0  0.14608560591E+02  0.19821730225E+02  0.37720055751E+02  0.45045683895E+02  0.00000000000E+00 0. -1.
         11    1    3    3    0    0 -0.89138739554E+01 -0.12673557535E+02 -0.16684625319E+02  0.22769561519E+02  0.51100000000E-03 0. -1.
        -11    1    3    3    0    0 -0.16717838235E+01 -0.55792230644E+01 -0.10972120816E+02  0.12422158694E+02  0.51100000000E-03 0.  1.
         12    1    3    3    0    0 -0.40229028123E+01 -0.15689496254E+01 -0.10063309616E+02  0.10950595892E+02  0.00000000000E+00 0. -1.
</event>
<event>
 7    1  0.1381440E-008  0.4614232E+02  0.7816164E-02  0.1320468E+00
        -11   -1    0    0    0    0  0.00000000000E+00  0.00000000000E+00  0.45593999997E+02  0.45594000000E+02  0.51100000000E-03 0.  1.
         11   -1    0    0    0    0 -0.00000000000E+00 -0.00000000000E+00 -0.45593999997E+02  0.45594000000E+02  0.51100000000E-03 0. -1.
    9900012    2    1    2    0    0  0.11558556325E+01  0.38793195468E+02  0.22866251871E+02  0.46142317726E+02  0.99999996835E+01 0.  0.
         12    1    1    2    0    0 -0.11558556325E+01 -0.38793195468E+02 -0.22866251871E+02  0.45045682274E+02  0.00000000000E+00 0. -1.
         11    1    3    3    0    0 -0.16648503288E+00  0.25780736469E+02  0.14789825543E+02  0.29722264887E+02  0.51100000000E-03 0.  1.
        -11    1    3    3    0    0 -0.30732919310E+00  0.11475218335E+02  0.83043663751E+01  0.14168189306E+02  0.51100000000E-03 0. -1.
         12    1    3    3    0    0  0.16296698585E+01  0.15372406641E+01 -0.22794004712E+00  0.22518635332E+01  0.00000000000E+00 0. -1.
</event>
<event>
 7    1  0.1381440E-008  0.4614232E+02  0.7816164E-02  0.1320468E+00
        -11   -1    0    0    0    0  0.00000000000E+00  0.00000000000E+00  0.45593999997E+02  0.45594000000E+02  0.51100000000E-03 0. -1.
         11   -1    0    0    0    0 -0.00000000000E+00 -0.00000000000E+00 -0.45593999997E+02  0.45594000000E+02  0.51100000000E-03 0.  1.
    9900012    2    1    2    0    0 -0.37415347581E+02  0.15153271453E+02 -0.19989590304E+02  0.46142316624E+02  0.99999896274E+01 0.  0.
         12    1    1    2    0    0  0.37415347581E+02 -0.15153271453E+02  0.19989590304E+02  0.45045683376E+02  0.00000000000E+00 0. -1.
         11    1    3    3    0    0 -0.69734641754E+01  0.24120747965E+01 -0.12596447494E+01  0.74855869901E+01  0.51100000000E-03 0. -1.
        -11    1    3    3    0    0 -0.16673549749E+02  0.34052117817E+01 -0.11367493797E+02  0.20465156828E+02  0.51100000000E-03 0.  1.
        -12    1    3    3    0    0 -0.13768333656E+02  0.93359848747E+01 -0.73624517581E+01  0.18191572806E+02  0.00000000000E+00 0.  1.
</event>
<event>
 7    1  0.1381440E-008  0.4614232E+02  0.7816164E-02  0.1320468E+00
        -11   -1    0    0    0    0  0.00000000000E+00  0.00000000000E+00  0.45593999997E+02  0.45594000000E+02  0.51100000000E-03 0.  1.
         11   -1    0    0    0    0 -0.00000000000E+00 -0.00000000000E+00 -0.45593999997E+02  0.45594000000E+02  0.51100000000E-03 0. -1.
    9900012    2    1    2    0    0  0.30011004794E+02 -0.27541282238E+02  0.19233584848E+02  0.46142318496E+02  0.10000006702E+02 0.  0.
         12    1    1    2    0    0 -0.30011004794E+02  0.27541282238E+02 -0.19233584848E+02  0.45045681504E+02  0.00000000000E+00 0. -1.
         11    1    3    3    0    0  0.77905546592E+01 -0.13639204794E+02  0.66341617618E+01  0.17050887128E+02  0.51100000000E-03 0. -1.
        -11    1    3    3    0    0  0.20303790978E+02 -0.12457153486E+02  0.11498348159E+02  0.26450644826E+02  0.51100000000E-03 0.  1.
         12    1    3    3    0    0  0.19166591561E+01 -0.14449239576E+01  0.11010749269E+01  0.26407865417E+01  0.00000000000E+00 0. -1.
</event>
<event>
 7    1  0.1381440E-008  0.4614232E+02  0.7816164E-02  0.1320468E+00
        -11   -1    0    0    0    0  0.00000000000E+00  0.00000000000E+00  0.45593999997E+02  0.45594000000E+02  0.51100000000E-03 0. -1.
         11   -1    0    0    0    0 -0.00000000000E+00 -0.00000000000E+00 -0.45593999997E+02  0.45594000000E+02  0.51100000000E-03 0.  1.
    9900012    2    1    2    0    0  0.20439873249E+02  0.40070245710E+02  0.23875660784E+01  0.46142317838E+02  0.10000000698E+02 0.  0.
         12    1    1    2    0    0 -0.20439873249E+02 -0.40070245710E+02 -0.23875660784E+01  0.45045682162E+02  0.00000000000E+00 0. -1.
         11    1    3    3    0    0  0.54458657529E+01  0.73431924944E+01  0.10004139199E+01  0.91967797669E+01  0.51100000000E-03 0.  1.
        -11    1    3    3    0    0  0.88575754411E+01  0.11206494143E+02 -0.15795624755E+01  0.14371401168E+02  0.51100000000E-03 0. -1.
        -12    1    3    3    0    0  0.61364320554E+01  0.21520559072E+02  0.29667146340E+01  0.22574136902E+02  0.00000000000E+00 0.  1.
</event>
<event>
 7    1  0.1381440E-008  0.4614232E+02  0.7816164E-02  0.1320468E+00
        -11   -1    0    0    0    0  0.00000000000E+00  0.00000000000E+00  0.45593999997E+02  0.45594000000E+02  0.51100000000E-03 0.  1.
         11   -1    0    0    0    0 -0.00000000000E+00 -0.00000000000E+00 -0.45593999997E+02  0.45594000000E+02  0.51100000000E-03 0. -1.
    9900012    2    1    2    0    0 -0.44810878676E+02  0.31625588651E+01 -0.33312056999E+01  0.46142316991E+02  0.99999929795E+01 0.  0.
         12    1    1    2    0    0  0.44810878676E+02 -0.31625588651E+01  0.33312056999E+01  0.45045683009E+02  0.00000000000E+00 0. -1.
         11    1    3    3    0    0 -0.76137449236E+01 -0.20874545886E+01 -0.58637981067E+00  0.79164651180E+01  0.51100000000E-03 0. -1.
        -11    1    3    3    0    0 -0.31224436137E+02  0.36593672314E+01  0.60353463655E-01  0.31438193704E+02  0.51100000000E-03 0.  1.
         12    1    3    3    0    0 -0.59726976160E+01  0.15906462223E+01 -0.28051793528E+01  0.67876581690E+01  0.00000000000E+00 0. -1.
</event>
<event>
 7    1  0.1381440E-008  0.4614232E+02  0.7816164E-02  0.1320468E+00
        -11   -1    0    0    0    0  0.00000000000E+00  0.00000000000E+00  0.45593999997E+02  0.45594000000E+02  0.51100000000E-03 0.  1.
         11   -1    0    0    0    0 -0.00000000000E+00 -0.00000000000E+00 -0.45593999997E+02  0.45594000000E+02  0.51100000000E-03 0. -1.
    9900012    2    1    2    0    0  0.25928783367E+02 -0.73252414301E+01  0.36099203327E+02  0.46142318190E+02  0.10000003909E+02 0.  0.
         12    1    1    2    0    0 -0.25928783367E+02  0.73252414301E+01 -0.36099203327E+02  0.45045681810E+02  0.00000000000E+00 0. -1.
         11    1    3    3    0    0  0.13879165120E+01 -0.52282616492E+00 -0.98883803244E-01  0.14864177443E+01  0.51100000000E-03 0. -1.
        -11    1    3    3    0    0  0.87196623799E+01 -0.54107868892E+01  0.13736347611E+02  0.17146322426E+02  0.51100000000E-03 0.  1.
         12    1    3    3    0    0  0.15821204475E+02 -0.13916283759E+01  0.22461739520E+02  0.27509578020E+02  0.00000000000E+00 0. -1.
</event>
<event>
 7    1  0.1381440E-008  0.4614232E+02  0.7816164E-02  0.1320468E+00
        -11   -1    0    0    0    0  0.00000000000E+00  0.00000000000E+00  0.45593999997E+02  0.45594000000E+02  0.51100000000E-03 0.  1.
         11   -1    0    0    0    0 -0.00000000000E+00 -0.00000000000E+00 -0.45593999997E+02  0.45594000000E+02  0.51100000000E-03 0. -1.
    9900012    2    1    2    0    0 -0.11576509590E+02  0.70475031759E+01  0.42958475324E+02  0.46142317882E+02  0.10000001106E+02 0.  0.
         12    1    1    2    0    0  0.11576509590E+02 -0.70475031759E+01 -0.42958475324E+02  0.45045682118E+02  0.00000000000E+00 0. -1.
         11    1    3    3    0    0 -0.30867477516E+01  0.26723431210E+01  0.15474091176E+02  0.16003653565E+02  0.51100000000E-03 0.  1.
        -11    1    3    3    0    0 -0.77482399977E+00 -0.45547378467E+00 -0.26293714002E+00  0.93645330896E+00  0.51100000000E-03 0. -1.
         12    1    3    3    0    0 -0.77149378390E+01  0.48306338396E+01  0.27747321288E+02  0.29202211008E+02  0.00000000000E+00 0. -1.
</event>
<event>
 7    1  0.1381440E-008  0.4614232E+02  0.7816164E-02  0.1320468E+00
        -11   -1    0    0    0    0  0.00000000000E+00  0.00000000000E+00  0.45593999997E+02  0.45594000000E+02  0.51100000000E-03 0.  1.
         11   -1    0    0    0    0 -0.00000000000E+00 -0.00000000000E+00 -0.45593999997E+02  0.45594000000E+02  0.51100000000E-03 0. -1.
    9900012    2    1    2    0    0  0.39399649752E+02  0.24480009092E+01  0.21697658924E+02  0.46142317501E+02  0.99999976290E+01 0.  0.
         12    1    1    2    0    0 -0.39399649752E+02 -0.24480009092E+01 -0.21697658924E+02  0.45045682499E+02  0.00000000000E+00 0. -1.
         11    1    3    3    0    0  0.87091960822E+01  0.27004666589E+01  0.37749043204E+01  0.98687648398E+01  0.51100000000E-03 0. -1.
        -11    1    3    3    0    0  0.25439021451E+02 -0.14346751478E+01  0.11675443668E+02  0.28027095644E+02  0.51100000000E-03 0.  1.
        -12    1    3    3    0    0  0.52514322189E+01  0.11822093981E+01  0.62473109352E+01  0.82464570169E+01  0.00000000000E+00 0.  1.
</event>
<event>
 7    1  0.1381440E-008  0.4614232E+02  0.7816164E-02  0.1320468E+00
        -11   -1    0    0    0    0  0.00000000000E+00  0.00000000000E+00  0.45593999997E+02  0.45594000000E+02  0.51100000000E-03 0.  1.
         11   -1    0    0    0    0 -0.00000000000E+00 -0.00000000000E+00 -0.45593999997E+02  0.45594000000E+02  0.51100000000E-03 0. -1.
    9900012    2    1    2    0    0 -0.24754872088E+02  0.27048826182E+02  0.26166215641E+02  0.46142317289E+02  0.99999956986E+01 0.  0.
         12    1    1    2    0    0  0.24754872088E+02 -0.27048826182E+02 -0.26166215641E+02  0.45045682711E+02  0.00000000000E+00 0. -1.
         11    1    3    3    0    0 -0.82154256043E+00  0.65642470566E-01 -0.71870914883E+00  0.10935191879E+01  0.51100000000E-03 0. -1.
        -11    1    3    3    0    0 -0.11215304294E+02  0.12151532685E+02  0.13753660360E+02  0.21508276792E+02  0.51100000000E-03 0.  1.
        -12    1    3    3    0    0 -0.12718025233E+02  0.14831651026E+02  0.13131264430E+02  0.23540521310E+02  0.00000000000E+00 0.  1.
</event>
<event>
 7    1  0.1381440E-008  0.4614232E+02  0.7816164E-02  0.1320468E+00
        -11   -1    0    0    0    0  0.00000000000E+00  0.00000000000E+00  0.45593999997E+02  0.45594000000E+02  0.51100000000E-03 0. -1.
         11   -1    0    0    0    0 -0.00000000000E+00 -0.00000000000E+00 -0.45593999997E+02  0.45594000000E+02  0.51100000000E-03 0.  1.
    9900012    2    1    2    0    0 -0.18758252967E+00 -0.32222936329E+02 -0.31476345674E+02  0.46142321518E+02  0.10000034260E+02 0.  0.
         12    1    1    2    0    0  0.18758252967E+00  0.32222936329E+02  0.31476345674E+02  0.45045678482E+02  0.00000000000E+00 0. -1.
         11    1    3    3    0    0 -0.23947624349E+01 -0.23061234770E+01 -0.17305874873E+01  0.37480696262E+01  0.51100000000E-03 0. -1.
        -11    1    3    3    0    0  0.27522490762E+01 -0.21884152402E+02 -0.23267733136E+02  0.32060542835E+02  0.51100000000E-03 0.  1.
         12    1    3    3    0    0 -0.54506917103E+00 -0.80326604504E+01 -0.64780250506E+01  0.10333709057E+02  0.00000000000E+00 0. -1.
</event>
<event>
 7    1  0.1381440E-008  0.4614232E+02  0.7816164E-02  0.1320468E+00
        -11   -1    0    0    0    0  0.00000000000E+00  0.00000000000E+00  0.45593999997E+02  0.45594000000E+02  0.51100000000E-03 0.  1.
         11   -1    0    0    0    0 -0.00000000000E+00 -0.00000000000E+00 -0.45593999997E+02  0.45594000000E+02  0.51100000000E-03 0. -1.
    9900012    2    1    2    0    0 -0.39815730450E+01  0.44783416514E+02 -0.27759488583E+01  0.46142320843E+02  0.10000028107E+02 0.  0.
         12    1    1    2    0    0  0.39815730450E+01 -0.44783416514E+02  0.27759488583E+01  0.45045679157E+02  0.00000000000E+00 0. -1.
         11    1    3    3    0    0  0.18714238818E+01  0.10071414054E+02 -0.34345355085E+01  0.10804241890E+02  0.51100000000E-03 0. -1.
        -11    1    3    3    0    0 -0.42847133667E+01  0.24003857026E+02 -0.92304830294E+00  0.24400736447E+02  0.51100000000E-03 0.  1.
         12    1    3    3    0    0 -0.15682835600E+01  0.10708145434E+02  0.15816349531E+01  0.10937342506E+02  0.00000000000E+00 0. -1.
</event>
<event>
 7    1  0.1381440E-008  0.4614232E+02  0.7816164E-02  0.1320468E+00
        -11   -1    0    0    0    0  0.00000000000E+00  0.00000000000E+00  0.45593999997E+02  0.45594000000E+02  0.51100000000E-03 0.  1.
         11   -1    0    0    0    0 -0.00000000000E+00 -0.00000000000E+00 -0.45593999997E+02  0.45594000000E+02  0.51100000000E-03 0. -1.
    9900012    2    1    2    0    0 -0.99047160006E+01 -0.81381852828E+01  0.43183100068E+02  0.46142316631E+02  0.99999896923E+01 0.  0.
         12    1    1    2    0    0  0.99047160006E+01  0.81381852828E+01 -0.43183100068E+02  0.45045683369E+02  0.00000000000E+00 0. -1.
         11    1    3    3    0    0  0.10820654976E+00 -0.82783401544E+00  0.10389026129E+02  0.10422518025E+02  0.51100000000E-03 0. -1.
        -11    1    3    3    0    0 -0.59001862343E+01 -0.67988628256E+01  0.15393310549E+02  0.17832294952E+02  0.51100000000E-03 0.  1.
        -12    1    3    3    0    0 -0.41127363160E+01 -0.51148844184E+00  0.17400763389E+02  0.17887503654E+02  0.00000000000E+00 0.  1.
</event>
<event>
 7    1  0.1381440E-008  0.4614232E+02  0.7816164E-02  0.1320468E+00
        -11   -1    0    0    0    0  0.00000000000E+00  0.00000000000E+00  0.45593999997E+02  0.45594000000E+02  0.51100000000E-03 0.  1.
         11   -1    0    0    0    0 -0.00000000000E+00 -0.00000000000E+00 -0.45593999997E+02  0.45594000000E+02  0.51100000000E-03 0. -1.
    9900012    2    1    2    0    0 -0.12904394914E+02 -0.16887196772E+02  0.39716655206E+02  0.46142317370E+02  0.99999964292E+01 0.  0.
         12    1    1    2    0    0  0.12904394914E+02  0.16887196772E+02 -0.39716655206E+02  0.45045682630E+02  0.00000000000E+00 0. -1.
         11    1    3    3    0    0  0.29185474229E+00 -0.42310347375E+01  0.11565588706E+02  0.12318671865E+02  0.51100000000E-03 0. -1.
        -11    1    3    3    0    0 -0.87615098036E+01 -0.81804857898E+01  0.21795463531E+02  0.24874216220E+02  0.51100000000E-03 0.  1.
        -12    1    3    3    0    0 -0.44347398531E+01 -0.44756762449E+01  0.63556029684E+01  0.89494292838E+01  0.00000000000E+00 0.  1.
</event>
<event>
 7    1  0.1381440E-008  0.4614232E+02  0.7816164E-02  0.1320468E+00
        -11   -1    0    0    0    0  0.00000000000E+00  0.00000000000E+00  0.45593999997E+02  0.45594000000E+02  0.51100000000E-03 0.  1.
         11   -1    0    0    0    0 -0.00000000000E+00 -0.00000000000E+00 -0.45593999997E+02  0.45594000000E+02  0.51100000000E-03 0. -1.
    9900012    2    1    2    0    0  0.18530180712E+02 -0.40116775597E+02 -0.87401530801E+01  0.46142316995E+02  0.99999930154E+01 0.  0.
         12    1    1    2    0    0 -0.18530180712E+02  0.40116775597E+02  0.87401530801E+01  0.45045683005E+02  0.00000000000E+00 0. -1.
         11    1    3    3    0    0  0.16853354039E+01 -0.86777209239E+01 -0.24766394235E+01  0.91802472162E+01  0.51100000000E-03 0. -1.
        -11    1    3    3    0    0  0.13143302948E+02 -0.16815142741E+02 -0.37041249596E+01  0.21661393763E+02  0.51100000000E-03 0.  1.
        -12    1    3    3    0    0  0.37015423605E+01 -0.14623911932E+02 -0.25593886970E+01  0.15300676016E+02  0.00000000000E+00 0.  1.
</event>
<event>
 7    1  0.1381440E-008  0.4614232E+02  0.7816164E-02  0.1320468E+00
        -11   -1    0    0    0    0  0.00000000000E+00  0.00000000000E+00  0.45593999997E+02  0.45594000000E+02  0.51100000000E-03 0.  1.
         11   -1    0    0    0    0 -0.00000000000E+00 -0.00000000000E+00 -0.45593999997E+02  0.45594000000E+02  0.51100000000E-03 0. -1.
    9900012    2    1    2    0    0 -0.38900450953E+02  0.44064831440E+01  0.22281189081E+02  0.46142316912E+02  0.99999922538E+01 0.  0.
         12    1    1    2    0    0  0.38900450953E+02 -0.44064831440E+01 -0.22281189081E+02  0.45045683088E+02  0.00000000000E+00 0. -1.
         11    1    3    3    0    0 -0.28329218331E+01 -0.51514723178E+00  0.68636203410E+00  0.29600533586E+01  0.51100000000E-03 0. -1.
        -11    1    3    3    0    0 -0.28992914928E+01  0.23876626801E+01  0.49117798738E+00  0.37878859949E+01  0.51100000000E-03 0.  1.
        -12    1    3    3    0    0 -0.33168237627E+02  0.25339676957E+01  0.21103649060E+02  0.39394377558E+02  0.00000000000E+00 0.  1.
</event>
<event>
 7    1  0.1381440E-008  0.4614232E+02  0.7816164E-02  0.1320468E+00
        -11   -1    0    0    0    0  0.00000000000E+00  0.00000000000E+00  0.45593999997E+02  0.45594000000E+02  0.51100000000E-03 0.  1.
         11   -1    0    0    0    0 -0.00000000000E+00 -0.00000000000E+00 -0.45593999997E+02  0.45594000000E+02  0.51100000000E-03 0. -1.
    9900012    2    1    2    0    0  0.36193404106E+02  0.17642220587E+02  0.20196610165E+02  0.46142317519E+02  0.99999977945E+01 0.  0.
         12    1    1    2    0    0 -0.36193404106E+02 -0.17642220587E+02 -0.20196610165E+02  0.45045682481E+02  0.00000000000E+00 0. -1.
         11    1    3    3    0    0  0.11484744400E+02  0.65406674739E+01  0.63545014954E+01  0.14664902811E+02  0.51100000000E-03 0.  1.
        -11    1    3    3    0    0  0.77830780575E+01  0.40114475270E+01  0.88730893108E+01  0.12465942784E+02  0.51100000000E-03 0. -1.
         12    1    3    3    0    0  0.16925581648E+02  0.70901055858E+01  0.49690193592E+01  0.19011471924E+02  0.00000000000E+00 0. -1.
</event>
<event>
 7    1  0.1381440E-008  0.4614232E+02  0.7816164E-02  0.1320468E+00
        -11   -1    0    0    0    0  0.00000000000E+00  0.00000000000E+00  0.45593999997E+02  0.45594000000E+02  0.51100000000E-03 0.  1.
         11   -1    0    0    0    0 -0.00000000000E+00 -0.00000000000E+00 -0.45593999997E+02  0.45594000000E+02  0.51100000000E-03 0. -1.
    9900012    2    1    2    0    0 -0.29864166728E+01  0.39073559040E+02  0.22213770478E+02  0.46142319858E+02  0.10000019125E+02 0.  0.
         12    1    1    2    0    0  0.29864166728E+01 -0.39073559040E+02 -0.22213770478E+02  0.45045680142E+02  0.00000000000E+00 0. -1.
         11    1    3    3    0    0 -0.11371150098E+01  0.63980288278E+01  0.83137607306E+00  0.65512586472E+01  0.51100000000E-03 0. -1.
        -11    1    3    3    0    0  0.22991484688E+01  0.10042876191E+02  0.62153905877E+01  0.12032311760E+02  0.51100000000E-03 0.  1.
         12    1    3    3    0    0 -0.41484501318E+01  0.22632654021E+02  0.15167003817E+02  0.27558749451E+02  0.00000000000E+00 0. -1.
</event>
<event>
 7    1  0.1381440E-008  0.4614232E+02  0.7816164E-02  0.1320468E+00
        -11   -1    0    0    0    0  0.00000000000E+00  0.00000000000E+00  0.45593999997E+02  0.45594000000E+02  0.51100000000E-03 0.  1.
         11   -1    0    0    0    0 -0.00000000000E+00 -0.00000000000E+00 -0.45593999997E+02  0.45594000000E+02  0.51100000000E-03 0. -1.
    9900012    2    1    2    0    0 -0.33522511539E+02 -0.30089018082E+02  0.74822599544E-01  0.46142318882E+02  0.10000010218E+02 0.  0.
         12    1    1    2    0    0  0.33522511539E+02  0.30089018082E+02 -0.74822599544E-01  0.45045681118E+02  0.00000000000E+00 0. -1.
         11    1    3    3    0    0 -0.50329252981E+01 -0.72238915962E+01 -0.15316872521E+01  0.89364989201E+01  0.51100000000E-03 0. -1.
        -11    1    3    3    0    0 -0.27517990767E+02 -0.21581705395E+02  0.29683671558E+01  0.35097307980E+02  0.51100000000E-03 0.  1.
        -12    1    3    3    0    0 -0.97159547428E+00 -0.12834210899E+01 -0.13618573042E+01  0.21085119816E+01  0.00000000000E+00 0.  1.
</event>
<event>
 7    1  0.1381440E-008  0.4614232E+02  0.7816164E-02  0.1320468E+00
        -11   -1    0    0    0    0  0.00000000000E+00  0.00000000000E+00  0.45593999997E+02  0.45594000000E+02  0.51100000000E-03 0. -1.
         11   -1    0    0    0    0 -0.00000000000E+00 -0.00000000000E+00 -0.45593999997E+02  0.45594000000E+02  0.51100000000E-03 0.  1.
    9900012    2    1    2    0    0  0.38075985184E+02 -0.12513052454E+02 -0.20561040922E+02  0.46142317263E+02  0.99999954570E+01 0.  0.
         12    1    1    2    0    0 -0.38075985184E+02  0.12513052454E+02  0.20561040922E+02  0.45045682737E+02  0.00000000000E+00 0. -1.
         11    1    3    3    0    0  0.85871047256E+01  0.13343694050E-01 -0.62403183587E+01  0.10615089218E+02  0.51100000000E-03 0. -1.
        -11    1    3    3    0    0  0.23570902796E+02 -0.12158699575E+02 -0.12532715916E+02  0.29334116698E+02  0.51100000000E-03 0.  1.
        -12    1    3    3    0    0  0.59179776628E+01 -0.36769657338E+00 -0.17880066467E+01  0.61931113470E+01  0.00000000000E+00 0.  1.
</event>
<event>
 7    1  0.1381440E-008  0.4614232E+02  0.7816164E-02  0.1320468E+00
        -11   -1    0    0    0    0  0.00000000000E+00  0.00000000000E+00  0.45593999997E+02  0.45594000000E+02  0.51100000000E-03 0.  1.
         11   -1    0    0    0    0 -0.00000000000E+00 -0.00000000000E+00 -0.45593999997E+02  0.45594000000E+02  0.51100000000E-03 0. -1.
    9900012    2    1    2    0    0  0.29869343266E+02 -0.54308405714E+01  0.33278248000E+02  0.46142317783E+02  0.10000000195E+02 0.  0.
         12    1    1    2    0    0 -0.29869343266E+02  0.54308405714E+01 -0.33278248000E+02  0.45045682217E+02  0.00000000000E+00 0. -1.
         11    1    3    3    0    0  0.21619760928E+02  0.51948718019E+00  0.20596957287E+02  0.29865005931E+02  0.51100000000E-03 0. -1.
        -11    1    3    3    0    0  0.34932130867E+01 -0.30167809922E+01  0.58409912223E+01  0.74445069645E+01  0.51100000000E-03 0.  1.
        -12    1    3    3    0    0  0.47563692517E+01 -0.29335467594E+01  0.68402994911E+01  0.88328048872E+01  0.00000000000E+00 0.  1.
</event>
<event>
 7    1  0.1381440E-008  0.4614231E+02  0.7816164E-02  0.1320468E+00
        -11   -1    0    0    0    0  0.00000000000E+00  0.00000000000E+00  0.45593999997E+02  0.45594000000E+02  0.51100000000E-03 0.  1.
         11   -1    0    0    0    0 -0.00000000000E+00 -0.00000000000E+00 -0.45593999997E+02  0.45594000000E+02  0.51100000000E-03 0. -1.
    9900012    2    1    2    0    0  0.31738350490E+02 -0.62464345659E+01  0.31349212555E+02  0.46142312477E+02  0.99999518160E+01 0.  0.
         12    1    1    2    0    0 -0.31738350490E+02  0.62464345659E+01 -0.31349212555E+02  0.45045687523E+02  0.00000000000E+00 0. -1.
         11    1    3    3    0    0  0.13396043823E+02 -0.73457633398E+00  0.10049860306E+02  0.16762854319E+02  0.51100000000E-03 0. -1.
        -11    1    3    3    0    0  0.15316684650E+02 -0.66581599638E+01  0.19510012689E+02  0.25682143955E+02  0.51100000000E-03 0.  1.
        -12    1    3    3    0    0  0.30256220171E+01  0.11463017319E+01  0.17893395603E+01  0.36973142027E+01  0.00000000000E+00 0.  1.
</event>
<event>
 7    1  0.1381440E-008  0.4614232E+02  0.7816164E-02  0.1320468E+00
        -11   -1    0    0    0    0  0.00000000000E+00  0.00000000000E+00  0.45593999997E+02  0.45594000000E+02  0.51100000000E-03 0.  1.
         11   -1    0    0    0    0 -0.00000000000E+00 -0.00000000000E+00 -0.45593999997E+02  0.45594000000E+02  0.51100000000E-03 0. -1.
    9900012    2    1    2    0    0  0.36391469323E+02  0.23541135511E+02  0.12271489351E+02  0.46142317060E+02  0.99999936091E+01 0.  0.
         12    1    1    2    0    0 -0.36391469323E+02 -0.23541135511E+02 -0.12271489351E+02  0.45045682940E+02  0.00000000000E+00 0. -1.
         11    1    3    3    0    0  0.22259356015E+01  0.16905355351E+01  0.32123511720E+01  0.42581568796E+01  0.51100000000E-03 0. -1.
        -11    1    3    3    0    0  0.23002292005E+02  0.13876405606E+02  0.35366713318E+01  0.27095536799E+02  0.51100000000E-03 0.  1.
        -12    1    3    3    0    0  0.11163241716E+02  0.79741943691E+01  0.55224668470E+01  0.14788623382E+02  0.00000000000E+00 0.  1.
</event>
<event>
 7    1  0.1381440E-008  0.4614232E+02  0.7816164E-02  0.1320468E+00
        -11   -1    0    0    0    0  0.00000000000E+00  0.00000000000E+00  0.45593999997E+02  0.45594000000E+02  0.51100000000E-03 0.  1.
         11   -1    0    0    0    0 -0.00000000000E+00 -0.00000000000E+00 -0.45593999997E+02  0.45594000000E+02  0.51100000000E-03 0. -1.
    9900012    2    1    2    0    0  0.37942567212E+02  0.23480219741E+02  0.61769248756E+01  0.46142317336E+02  0.99999961278E+01 0.  0.
         12    1    1    2    0    0 -0.37942567212E+02 -0.23480219741E+02 -0.61769248756E+01  0.45045682664E+02  0.00000000000E+00 0. -1.
         11    1    3    3    0    0  0.85493526489E+01  0.33795926785E+01  0.15969622136E+01  0.93307752068E+01  0.51100000000E-03 0. -1.
        -11    1    3    3    0    0  0.21448688052E+02  0.15269219265E+02 -0.25816700315E+00  0.26329867577E+02  0.51100000000E-03 0.  1.
         12    1    3    3    0    0  0.79445265107E+01  0.48314077968E+01  0.48381296651E+01  0.10481674553E+02  0.00000000000E+00 0. -1.
</event>
<event>
 7    1  0.1381440E-008  0.4614232E+02  0.7816164E-02  0.1320468E+00
        -11   -1    0    0    0    0  0.00000000000E+00  0.00000000000E+00  0.45593999997E+02  0.45594000000E+02  0.51100000000E-03 0.  1.
         11   -1    0    0    0    0 -0.00000000000E+00 -0.00000000000E+00 -0.45593999997E+02  0.45594000000E+02  0.51100000000E-03 0. -1.
    9900012    2    1    2    0    0  0.33687698078E+02  0.85119142796E+01  0.28667051120E+02  0.46142317561E+02  0.99999981741E+01 0.  0.
         12    1    1    2    0    0 -0.33687698078E+02 -0.85119142796E+01 -0.28667051120E+02  0.45045682439E+02  0.00000000000E+00 0. -1.
         11    1    3    3    0    0  0.95946452816E+01  0.77743803319E+00  0.12363997505E+02  0.15669398921E+02  0.51100000000E-03 0. -1.
        -11    1    3    3    0    0  0.22113468795E+02  0.84002822848E+01  0.14896366867E+02  0.27954820527E+02  0.51100000000E-03 0.  1.
        -12    1    3    3    0    0  0.19795840011E+01 -0.66580603833E+00  0.14066867486E+01  0.25180981130E+01  0.00000000000E+00 0.  1.
</event>
<event>
 7    1  0.1381440E-008  0.4614232E+02  0.7816164E-02  0.1320468E+00
        -11   -1    0    0    0    0  0.00000000000E+00  0.00000000000E+00  0.45593999997E+02  0.45594000000E+02  0.51100000000E-03 0.  1.
         11   -1    0    0    0    0 -0.00000000000E+00 -0.00000000000E+00 -0.45593999997E+02  0.45594000000E+02  0.51100000000E-03 0. -1.
    9900012    2    1    2    0    0  0.38325735597E+02 -0.22488683716E+02  0.73831237267E+01  0.46142318516E+02  0.10000006885E+02 0.  0.
         12    1    1    2    0    0 -0.38325735597E+02  0.22488683716E+02 -0.73831237267E+01  0.45045681484E+02  0.00000000000E+00 0. -1.
         11    1    3    3    0    0  0.16088002484E+02 -0.90944119335E+01  0.63543177236E+01  0.19542505119E+02  0.51100000000E-03 0. -1.
        -11    1    3    3    0    0  0.20940774322E+02 -0.13026089493E+02  0.22718272013E+01  0.24766029875E+02  0.51100000000E-03 0.  1.
        -12    1    3    3    0    0  0.12969587916E+01 -0.36818228933E+00 -0.12430211982E+01  0.18337835217E+01  0.00000000000E+00 0.  1.
</event>
<event>
 7    1  0.1381440E-008  0.4614232E+02  0.7816164E-02  0.1320468E+00
        -11   -1    0    0    0    0  0.00000000000E+00  0.00000000000E+00  0.45593999997E+02  0.45594000000E+02  0.51100000000E-03 0.  1.
         11   -1    0    0    0    0 -0.00000000000E+00 -0.00000000000E+00 -0.45593999997E+02  0.45594000000E+02  0.51100000000E-03 0. -1.
    9900012    2    1    2    0    0  0.21859989659E+02 -0.48628704469E+01  0.39084610771E+02  0.46142318121E+02  0.10000003279E+02 0.  0.
         12    1    1    2    0    0 -0.21859989659E+02  0.48628704469E+01 -0.39084610771E+02  0.45045681879E+02  0.00000000000E+00 0. -1.
         11    1    3    3    0    0  0.54407212124E+01 -0.36240123585E+01  0.10438433517E+02  0.12316485190E+02  0.51100000000E-03 0. -1.
        -11    1    3    3    0    0  0.14677874298E+02  0.12102075084E+01  0.21369179671E+02  0.25952773189E+02  0.51100000000E-03 0.  1.
        -12    1    3    3    0    0  0.17413941484E+01 -0.24490655967E+01  0.72769975825E+01  0.78730597415E+01  0.00000000000E+00 0.  1.
</event>
<event>
 7    1  0.1381440E-008  0.4614232E+02  0.7816164E-02  0.1320468E+00
        -11   -1    0    0    0    0  0.00000000000E+00  0.00000000000E+00  0.45593999997E+02  0.45594000000E+02  0.51100000000E-03 0. -1.
         11   -1    0    0    0    0 -0.00000000000E+00 -0.00000000000E+00 -0.45593999997E+02  0.45594000000E+02  0.51100000000E-03 0.  1.
    9900012    2    1    2    0    0 -0.16764800488E+02  0.66790585677E+00 -0.41804411991E+02  0.46142317681E+02  0.99999992701E+01 0.  0.
         12    1    1    2    0    0  0.16764800488E+02 -0.66790585677E+00  0.41804411991E+02  0.45045682319E+02  0.00000000000E+00 0. -1.
         11    1    3    3    0    0 -0.91194931831E+01 -0.22001964973E+01 -0.28308936431E+02  0.29822841962E+02  0.51100000000E-03 0. -1.
        -11    1    3    3    0    0 -0.60142995203E+01  0.30043566039E+00 -0.10115603885E+02  0.11772319335E+02  0.51100000000E-03 0.  1.
         12    1    3    3    0    0 -0.16310077843E+01  0.25676666937E+01 -0.33798716748E+01  0.45471563839E+01  0.00000000000E+00 0. -1.
</event>
<event>
 7    1  0.1381440E-008  0.4614232E+02  0.7816164E-02  0.1320468E+00
        -11   -1    0    0    0    0  0.00000000000E+00  0.00000000000E+00  0.45593999997E+02  0.45594000000E+02  0.51100000000E-03 0.  1.
         11   -1    0    0    0    0 -0.00000000000E+00 -0.00000000000E+00 -0.45593999997E+02  0.45594000000E+02  0.51100000000E-03 0. -1.
    9900012    2    1    2    0    0 -0.43364170406E+02  0.12134258288E+02 -0.11924855303E+01  0.46142317399E+02  0.99999966990E+01 0.  0.
         12    1    1    2    0    0  0.43364170406E+02 -0.12134258288E+02  0.11924855303E+01  0.45045682601E+02  0.00000000000E+00 0. -1.
         11    1    3    3    0    0 -0.10945812988E+02  0.60328925666E+01  0.42726902053E+00  0.12505565711E+02  0.51100000000E-03 0. -1.
        -11    1    3    3    0    0 -0.10356107817E+02  0.34258031389E+01 -0.31686807833E+01  0.11358945129E+02  0.51100000000E-03 0.  1.
        -12    1    3    3    0    0 -0.22062249602E+02  0.26755625823E+01  0.15489262325E+01  0.22277806559E+02  0.00000000000E+00 0.  1.
</event>
<event>
 7    1  0.1381440E-008  0.4614232E+02  0.7816164E-02  0.1320468E+00
        -11   -1    0    0    0    0  0.00000000000E+00  0.00000000000E+00  0.45593999997E+02  0.45594000000E+02  0.51100000000E-03 0.  1.
         11   -1    0    0    0    0 -0.00000000000E+00 -0.00000000000E+00 -0.45593999997E+02  0.45594000000E+02  0.51100000000E-03 0. -1.
    9900012    2    1    2    0    0 -0.73390133614E+01  0.43450300567E+02  0.93447185113E+01  0.46142317626E+02  0.99999987725E+01 0.  0.
         12    1    1    2    0    0  0.73390133614E+01 -0.43450300567E+02 -0.93447185113E+01  0.45045682374E+02  0.00000000000E+00 0. -1.
         11    1    3    3    0    0  0.12102128349E+01  0.19631696641E+01  0.82251438165E+00  0.24485057494E+01  0.51100000000E-03 0. -1.
        -11    1    3    3    0    0 -0.50108895244E+01  0.31754479118E+02  0.88140430544E+01  0.33333816360E+02  0.51100000000E-03 0.  1.
        -12    1    3    3    0    0 -0.35383366719E+01  0.97326517844E+01 -0.29183892476E+00  0.10359995517E+02  0.00000000000E+00 0.  1.
</event>
<event>
 7    1  0.1381440E-008  0.4614232E+02  0.7816164E-02  0.1320468E+00
        -11   -1    0    0    0    0  0.00000000000E+00  0.00000000000E+00  0.45593999997E+02  0.45594000000E+02  0.51100000000E-03 0.  1.
         11   -1    0    0    0    0 -0.00000000000E+00 -0.00000000000E+00 -0.45593999997E+02  0.45594000000E+02  0.51100000000E-03 0. -1.
    9900012    2    1    2    0    0 -0.25347708042E+01  0.33887289671E+02  0.29569242814E+02  0.46142316690E+02  0.99999902355E+01 0.  0.
         12    1    1    2    0    0  0.25347708042E+01 -0.33887289671E+02 -0.29569242814E+02  0.45045683310E+02  0.00000000000E+00 0. -1.
         11    1    3    3    0    0 -0.39250206500E+01  0.12356219272E+02  0.84724375746E+01  0.15487547918E+02  0.51100000000E-03 0. -1.
        -11    1    3    3    0    0  0.28983846950E+01  0.69069316931E+01  0.61797542092E+01  0.97105973864E+01  0.51100000000E-03 0.  1.
        -12    1    3    3    0    0 -0.15081348492E+01  0.14624138706E+02  0.14917051030E+02  0.20944171386E+02  0.00000000000E+00 0.  1.
</event>
<event>
 7    1  0.1381440E-008  0.4614232E+02  0.7816164E-02  0.1320468E+00
        -11   -1    0    0    0    0  0.00000000000E+00  0.00000000000E+00  0.45593999997E+02  0.45594000000E+02  0.51100000000E-03 0.  1.
         11   -1    0    0    0    0 -0.00000000000E+00 -0.00000000000E+00 -0.45593999997E+02  0.45594000000E+02  0.51100000000E-03 0. -1.
    9900012    2    1    2    0    0 -0.14559011050E+02 -0.16014135617E+02  0.39505647215E+02  0.46142317585E+02  0.99999983962E+01 0.  0.
         12    1    1    2    0    0  0.14559011050E+02  0.16014135617E+02 -0.39505647215E+02  0.45045682415E+02  0.00000000000E+00 0. -1.
         11    1    3    3    0    0 -0.17865566671E+00 -0.23641915571E+01  0.10545291487E+02  0.10808537939E+02  0.51100000000E-03 0. -1.
        -11    1    3    3    0    0 -0.90683527849E+01 -0.59076656339E+01  0.14535734063E+02  0.18122447420E+02  0.51100000000E-03 0.  1.
         12    1    3    3    0    0 -0.53120025981E+01 -0.77422784260E+01  0.14424621665E+02  0.17211332227E+02  0.00000000000E+00 0. -1.
</event>
<event>
 7    1  0.1381440E-008  0.4614232E+02  0.7816164E-02  0.1320468E+00
        -11   -1    0    0    0    0  0.00000000000E+00  0.00000000000E+00  0.45593999997E+02  0.45594000000E+02  0.51100000000E-03 0. -1.
         11   -1    0    0    0    0 -0.00000000000E+00 -0.00000000000E+00 -0.45593999997E+02  0.45594000000E+02  0.51100000000E-03 0.  1.
    9900012    2    1    2    0    0 -0.41897770411E+02  0.14175341152E+02 -0.85293633125E+01  0.46142317624E+02  0.99999987530E+01 0.  0.
         12    1    1    2    0    0  0.41897770411E+02 -0.14175341152E+02  0.85293633125E+01  0.45045682376E+02  0.00000000000E+00 0. -1.
         11    1    3    3    0    0 -0.57239950193E+01  0.30204150700E-01 -0.22907104067E+01  0.61654185341E+01  0.51100000000E-03 0. -1.
        -11    1    3    3    0    0 -0.19677065957E+02  0.10557284487E+02 -0.58766750292E+01  0.23090658069E+02  0.51100000000E-03 0.  1.
        -12    1    3    3    0    0 -0.16496709435E+02  0.35878525142E+01 -0.36197787659E+00  0.16886241021E+02  0.00000000000E+00 0.  1.
</event>
<event>
 7    1  0.1381440E-008  0.4614232E+02  0.7816164E-02  0.1320468E+00
        -11   -1    0    0    0    0  0.00000000000E+00  0.00000000000E+00  0.45593999997E+02  0.45594000000E+02  0.51100000000E-03 0.  1.
         11   -1    0    0    0    0 -0.00000000000E+00 -0.00000000000E+00 -0.45593999997E+02  0.45594000000E+02  0.51100000000E-03 0. -1.
    9900012    2    1    2    0    0 -0.14632951963E+02  0.51717477467E+01  0.42287625463E+02  0.46142317353E+02  0.99999962751E+01 0.  0.
         12    1    1    2    0    0  0.14632951963E+02 -0.51717477467E+01 -0.42287625463E+02  0.45045682647E+02  0.00000000000E+00 0. -1.
         11    1    3    3    0    0 -0.22704142872E+01 -0.16484351380E+01  0.10255645179E+02  0.10632515118E+02  0.51100000000E-03 0. -1.
        -11    1    3    3    0    0 -0.57959208027E+01  0.64035043778E+01  0.20250512657E+02  0.22015467958E+02  0.51100000000E-03 0.  1.
        -12    1    3    3    0    0 -0.65666168727E+01  0.41667850687E+00  0.11781467626E+02  0.13494334276E+02  0.00000000000E+00 0.  1.
</event>
<event>
 7    1  0.1381440E-008  0.4614232E+02  0.7816164E-02  0.1320468E+00
        -11   -1    0    0    0    0  0.00000000000E+00  0.00000000000E+00  0.45593999997E+02  0.45594000000E+02  0.51100000000E-03 0. -1.
         11   -1    0    0    0    0 -0.00000000000E+00 -0.00000000000E+00 -0.45593999997E+02  0.45594000000E+02  0.51100000000E-03 0.  1.
    9900012    2    1    2    0    0  0.19292662066E+02  0.15543887155E+02 -0.37620398109E+02  0.46142316618E+02  0.99999895743E+01 0.  0.
         12    1    1    2    0    0 -0.19292662066E+02 -0.15543887155E+02  0.37620398109E+02  0.45045683382E+02  0.00000000000E+00 0. -1.
         11    1    3    3    0    0  0.13608232223E+02  0.12988477157E+02 -0.29910179199E+02  0.35334166795E+02  0.51100000000E-03 0. -1.
        -11    1    3    3    0    0  0.12842159101E+01  0.50559266399E+00 -0.51266912655E+01  0.53092182135E+01  0.51100000000E-03 0.  1.
         12    1    3    3    0    0  0.44002139324E+01  0.20498173348E+01 -0.25835276443E+01  0.54989316095E+01  0.00000000000E+00 0. -1.
</event>
<event>
 7    1  0.1381440E-008  0.4614232E+02  0.7816164E-02  0.1320468E+00
        -11   -1    0    0    0    0  0.00000000000E+00  0.00000000000E+00  0.45593999997E+02  0.45594000000E+02  0.51100000000E-03 0.  1.
         11   -1    0    0    0    0 -0.00000000000E+00 -0.00000000000E+00 -0.45593999997E+02  0.45594000000E+02  0.51100000000E-03 0. -1.
    9900012    2    1    2    0    0 -0.24611560135E+02 -0.46834399850E+01  0.37435945310E+02  0.46142317592E+02  0.99999984549E+01 0.  0.
         12    1    1    2    0    0  0.24611560135E+02  0.46834399850E+01 -0.37435945310E+02  0.45045682408E+02  0.00000000000E+00 0. -1.
         11    1    3    3    0    0  0.87270374974E+00 -0.12863089779E-01  0.13484239933E+01  0.16062455668E+01  0.51100000000E-03 0. -1.
        -11    1    3    3    0    0 -0.16764434766E+02 -0.34350334278E+01  0.21276834175E+02  0.27304750511E+02  0.51100000000E-03 0.  1.
        -12    1    3    3    0    0 -0.87198291192E+01 -0.12355434674E+01  0.14810687141E+02  0.17231321514E+02  0.00000000000E+00 0.  1.
</event>
<event>
 7    1  0.1381440E-008  0.4614232E+02  0.7816164E-02  0.1320468E+00
        -11   -1    0    0    0    0  0.00000000000E+00  0.00000000000E+00  0.45593999997E+02  0.45594000000E+02  0.51100000000E-03 0.  1.
         11   -1    0    0    0    0 -0.00000000000E+00 -0.00000000000E+00 -0.45593999997E+02  0.45594000000E+02  0.51100000000E-03 0. -1.
    9900012    2    1    2    0    0  0.36170252808E+02  0.22874148996E+02  0.14057015579E+02  0.46142316883E+02  0.99999919938E+01 0.  0.
         12    1    1    2    0    0 -0.36170252808E+02 -0.22874148996E+02 -0.14057015579E+02  0.45045683117E+02  0.00000000000E+00 0. -1.
         11    1    3    3    0    0  0.20129091143E+02  0.12309472860E+02  0.47827692272E+01  0.24074432788E+02  0.51100000000E-03 0. -1.
        -11    1    3    3    0    0  0.34124003223E+01  0.52716569360E+01  0.36604525501E+01  0.72686832331E+01  0.51100000000E-03 0.  1.
         12    1    3    3    0    0  0.12628761343E+02  0.52930192001E+01  0.56137938018E+01  0.14799200862E+02  0.00000000000E+00 0. -1.
</event>
<event>
 7    1  0.1381440E-008  0.4614232E+02  0.7816164E-02  0.1320468E+00
        -11   -1    0    0    0    0  0.00000000000E+00  0.00000000000E+00  0.45593999997E+02  0.45594000000E+02  0.51100000000E-03 0.  1.
         11   -1    0    0    0    0 -0.00000000000E+00 -0.00000000000E+00 -0.45593999997E+02  0.45594000000E+02  0.51100000000E-03 0. -1.
    9900012    2    1    2    0    0  0.44300315536E+02 -0.81582574292E+01  0.19460422551E+00  0.46142323275E+02  0.10000050278E+02 0.  0.
         12    1    1    2    0    0 -0.44300315536E+02  0.81582574292E+01 -0.19460422551E+00  0.45045676725E+02  0.00000000000E+00 0. -1.
         11    1    3    3    0    0  0.74921409840E+01 -0.12894682014E+01  0.35564822292E+01  0.83930608764E+01  0.51100000000E-03 0. -1.
        -11    1    3    3    0    0  0.30775462179E+02 -0.44416176798E+01 -0.26236238645E+01  0.31204814411E+02  0.51100000000E-03 0.  1.
         12    1    3    3    0    0  0.60327123722E+01 -0.24271715480E+01 -0.73825413925E+00  0.65444479877E+01  0.00000000000E+00 0. -1.
</event>
<event>
 7    1  0.1381440E-008  0.4614232E+02  0.7816164E-02  0.1320468E+00
        -11   -1    0    0    0    0  0.00000000000E+00  0.00000000000E+00  0.45593999997E+02  0.45594000000E+02  0.51100000000E-03 0.  1.
         11   -1    0    0    0    0 -0.00000000000E+00 -0.00000000000E+00 -0.45593999997E+02  0.45594000000E+02  0.51100000000E-03 0. -1.
    9900012    2    1    2    0    0 -0.39687912778E+02  0.15701152712E+02  0.14403363143E+02  0.46142317776E+02  0.10000000139E+02 0.  0.
         12    1    1    2    0    0  0.39687912778E+02 -0.15701152712E+02 -0.14403363143E+02  0.45045682224E+02  0.00000000000E+00 0. -1.
         11    1    3    3    0    0 -0.23821862042E+02  0.86398798563E+01  0.57837200126E+01  0.25991922832E+02  0.51100000000E-03 0. -1.
        -11    1    3    3    0    0 -0.79373515391E+01  0.74391674689E+00  0.27333932714E+01  0.84277162160E+01  0.51100000000E-03 0.  1.
         12    1    3    3    0    0 -0.79286991974E+01  0.63173561085E+01  0.58862498586E+01  0.11722678728E+02  0.00000000000E+00 0. -1.
</event>
<event>
 7    1  0.1381440E-008  0.4614232E+02  0.7816164E-02  0.1320468E+00
        -11   -1    0    0    0    0  0.00000000000E+00  0.00000000000E+00  0.45593999997E+02  0.45594000000E+02  0.51100000000E-03 0.  1.
         11   -1    0    0    0    0 -0.00000000000E+00 -0.00000000000E+00 -0.45593999997E+02  0.45594000000E+02  0.51100000000E-03 0. -1.
    9900012    2    1    2    0    0 -0.25492725584E+02 -0.18091258440E+02  0.32433633675E+02  0.46142320041E+02  0.10000020788E+02 0.  0.
         12    1    1    2    0    0  0.25492725584E+02  0.18091258440E+02 -0.32433633675E+02  0.45045679959E+02  0.00000000000E+00 0. -1.
         11    1    3    3    0    0  0.28630000389E+00 -0.64235542779E+00  0.10826535311E+01  0.12910178609E+01  0.51100000000E-03 0. -1.
        -11    1    3    3    0    0 -0.74507097372E+01 -0.87927855698E+01  0.85962581739E+01  0.14377823497E+02  0.51100000000E-03 0.  1.
        -12    1    3    3    0    0 -0.18328315850E+02 -0.86561174427E+01  0.22754721970E+02  0.30473478683E+02  0.00000000000E+00 0.  1.
</event>
<event>
 7    1  0.1381440E-008  0.4614232E+02  0.7816164E-02  0.1320468E+00
        -11   -1    0    0    0    0  0.00000000000E+00  0.00000000000E+00  0.45593999997E+02  0.45594000000E+02  0.51100000000E-03 0.  1.
         11   -1    0    0    0    0 -0.00000000000E+00 -0.00000000000E+00 -0.45593999997E+02  0.45594000000E+02  0.51100000000E-03 0. -1.
    9900012    2    1    2    0    0 -0.19792688966E+02  0.27819374630E+02  0.29384440827E+02  0.46142317587E+02  0.99999984141E+01 0.  0.
         12    1    1    2    0    0  0.19792688966E+02 -0.27819374630E+02 -0.29384440827E+02  0.45045682413E+02  0.00000000000E+00 0. -1.
         11    1    3    3    0    0  0.25999513062E+00  0.11797665136E+01 -0.43953772805E+00  0.12855505319E+01  0.51100000000E-03 0. -1.
        -11    1    3    3    0    0 -0.10040377546E+02  0.15760894815E+02  0.15644610209E+02  0.24371475448E+02  0.51100000000E-03 0.  1.
         12    1    3    3    0    0 -0.10012306551E+02  0.10878713301E+02  0.14179368346E+02  0.20485291608E+02  0.00000000000E+00 0. -1.
</event>
<event>
 7    1  0.1381440E-008  0.4614232E+02  0.7816164E-02  0.1320468E+00
        -11   -1    0    0    0    0  0.00000000000E+00  0.00000000000E+00  0.45593999997E+02  0.45594000000E+02  0.51100000000E-03 0.  1.
         11   -1    0    0    0    0 -0.00000000000E+00 -0.00000000000E+00 -0.45593999997E+02  0.45594000000E+02  0.51100000000E-03 0. -1.
    9900012    2    1    2    0    0  0.17262509432E+01  0.18595011883E+02  0.40992179701E+02  0.46142320897E+02  0.10000028593E+02 0.  0.
         12    1    1    2    0    0 -0.17262509432E+01 -0.18595011883E+02 -0.40992179701E+02  0.45045679103E+02  0.00000000000E+00 0. -1.
         11    1    3    3    0    0  0.93359743577E+00  0.43628481340E+01  0.21225272644E+02  0.21689127393E+02  0.51100000000E-03 0. -1.
        -11    1    3    3    0    0  0.11935606500E+01  0.13360993825E+02  0.18081076641E+02  0.22513686411E+02  0.51100000000E-03 0.  1.
        -12    1    3    3    0    0 -0.40090714257E+00  0.87116992407E+00  0.16858304156E+01  0.19395070930E+01  0.00000000000E+00 0.  1.
</event>
<event>
 7    1  0.1381440E-008  0.4614232E+02  0.7816164E-02  0.1320468E+00
        -11   -1    0    0    0    0  0.00000000000E+00  0.00000000000E+00  0.45593999997E+02  0.45594000000E+02  0.51100000000E-03 0.  1.
         11   -1    0    0    0    0 -0.00000000000E+00 -0.00000000000E+00 -0.45593999997E+02  0.45594000000E+02  0.51100000000E-03 0. -1.
    9900012    2    1    2    0    0 -0.23367486102E+02 -0.19609518465E+02  0.33144242989E+02  0.46142318026E+02  0.10000002416E+02 0.  0.
         12    1    1    2    0    0  0.23367486102E+02  0.19609518465E+02 -0.33144242989E+02  0.45045681974E+02  0.00000000000E+00 0. -1.
         11    1    3    3    0    0 -0.32889589725E+01 -0.84409696211E+01  0.90664906881E+01  0.12816726295E+02  0.51100000000E-03 0. -1.
        -11    1    3    3    0    0 -0.11960016224E+02 -0.74766003067E+01  0.15372217492E+02  0.20862564826E+02  0.51100000000E-03 0.  1.
         12    1    3    3    0    0 -0.81185109054E+01 -0.36919485372E+01  0.87055348093E+01  0.12463026905E+02  0.00000000000E+00 0. -1.
</event>
<event>
 7    1  0.1381440E-008  0.4614232E+02  0.7816164E-02  0.1320468E+00
        -11   -1    0    0    0    0  0.00000000000E+00  0.00000000000E+00  0.45593999997E+02  0.45594000000E+02  0.51100000000E-03 0. -1.
         11   -1    0    0    0    0 -0.00000000000E+00 -0.00000000000E+00 -0.45593999997E+02  0.45594000000E+02  0.51100000000E-03 0.  1.
    9900012    2    1    2    0    0 -0.34653077340E+02  0.23443608747E+02 -0.16693545622E+02  0.46142322897E+02  0.10000046835E+02 0.  0.
         12    1    1    2    0    0  0.34653077340E+02 -0.23443608747E+02  0.16693545622E+02  0.45045677103E+02  0.00000000000E+00 0. -1.
         11    1    3    3    0    0 -0.24249312092E+01 -0.36475052665E+00 -0.17904289507E+01  0.30362757458E+01  0.51100000000E-03 0. -1.
        -11    1    3    3    0    0 -0.28120644029E+02  0.22829390094E+02 -0.13540778282E+02  0.38669165357E+02  0.51100000000E-03 0.  1.
        -12    1    3    3    0    0 -0.41075021014E+01  0.97896917989E+00 -0.13623383895E+01  0.44368817942E+01  0.00000000000E+00 0.  1.
</event>
<event>
 7    1  0.1381440E-008  0.4614232E+02  0.7816164E-02  0.1320468E+00
        -11   -1    0    0    0    0  0.00000000000E+00  0.00000000000E+00  0.45593999997E+02  0.45594000000E+02  0.51100000000E-03 0.  1.
         11   -1    0    0    0    0 -0.00000000000E+00 -0.00000000000E+00 -0.45593999997E+02  0.45594000000E+02  0.51100000000E-03 0. -1.
    9900012    2    1    2    0    0  0.20805740133E+01  0.12840437997E+02  0.43126648719E+02  0.46142318010E+02  0.10000002274E+02 0.  0.
         12    1    1    2    0    0 -0.20805740133E+01 -0.12840437997E+02 -0.43126648719E+02  0.45045681990E+02  0.00000000000E+00 0. -1.
         11    1    3    3    0    0 -0.73883058532E+00  0.91497115668E+01  0.15806730947E+02  0.18278835737E+02  0.51100000000E-03 0. -1.
        -11    1    3    3    0    0  0.34114593569E+01  0.30959839867E+01  0.24074709805E+02  0.24511524315E+02  0.51100000000E-03 0.  1.
        -12    1    3    3    0    0 -0.59205475821E+00  0.59474244399E+00  0.32452079662E+01  0.33519579585E+01  0.00000000000E+00 0.  1.
</event>
<event>
 7    1  0.1381440E-008  0.4614232E+02  0.7816164E-02  0.1320468E+00
        -11   -1    0    0    0    0  0.00000000000E+00  0.00000000000E+00  0.45593999997E+02  0.45594000000E+02  0.51100000000E-03 0.  1.
         11   -1    0    0    0    0 -0.00000000000E+00 -0.00000000000E+00 -0.45593999997E+02  0.45594000000E+02  0.51100000000E-03 0. -1.
    9900012    2    1    2    0    0  0.33692886496E+01 -0.23289729368E+02  0.38410281774E+02  0.46142319342E+02  0.10000014413E+02 0.  0.
         12    1    1    2    0    0 -0.33692886496E+01  0.23289729368E+02 -0.38410281774E+02  0.45045680658E+02  0.00000000000E+00 0. -1.
         11    1    3    3    0    0  0.48256819169E+00 -0.67577804439E+01  0.48016694238E+01  0.83040049436E+01  0.51100000000E-03 0. -1.
        -11    1    3    3    0    0  0.25745634788E+01 -0.16782884034E+02  0.32702018606E+02  0.36847192496E+02  0.51100000000E-03 0.  1.
         12    1    3    3    0    0  0.31215697915E+00  0.25093511052E+00  0.90659374365E+00  0.99112190237E+00  0.00000000000E+00 0. -1.
</event>
<event>
 7    1  0.1381440E-008  0.4614232E+02  0.7816164E-02  0.1320468E+00
        -11   -1    0    0    0    0  0.00000000000E+00  0.00000000000E+00  0.45593999997E+02  0.45594000000E+02  0.51100000000E-03 0.  1.
         11   -1    0    0    0    0 -0.00000000000E+00 -0.00000000000E+00 -0.45593999997E+02  0.45594000000E+02  0.51100000000E-03 0. -1.
    9900012    2    1    2    0    0 -0.66076586251E+01  0.25894482348E+02  0.36261937585E+02  0.46142317787E+02  0.10000000239E+02 0.  0.
         12    1    1    2    0    0  0.66076586251E+01 -0.25894482348E+02 -0.36261937585E+02  0.45045682213E+02  0.00000000000E+00 0. -1.
         11    1    3    3    0    0  0.98732678017E+00  0.22309254114E+01  0.54402398522E+01  0.59622187374E+01  0.51100000000E-03 0. -1.
        -11    1    3    3    0    0 -0.66751016932E+01  0.22533604059E+02  0.30774933491E+02  0.38722303988E+02  0.51100000000E-03 0.  1.
         12    1    3    3    0    0 -0.91988371202E+00  0.11299528773E+01  0.46764242259E-01  0.14577950620E+01  0.00000000000E+00 0. -1.
</event>
<event>
 7    1  0.1381440E-008  0.4614232E+02  0.7816164E-02  0.1320468E+00
        -11   -1    0    0    0    0  0.00000000000E+00  0.00000000000E+00  0.45593999997E+02  0.45594000000E+02  0.51100000000E-03 0. -1.
         11   -1    0    0    0    0 -0.00000000000E+00 -0.00000000000E+00 -0.45593999997E+02  0.45594000000E+02  0.51100000000E-03 0.  1.
    9900012    2    1    2    0    0 -0.21433130404E+02 -0.29048413196E+02 -0.26942975325E+02  0.46142319769E+02  0.10000018307E+02 0.  0.
         12    1    1    2    0    0  0.21433130404E+02  0.29048413196E+02  0.26942975325E+02  0.45045680231E+02  0.00000000000E+00 0. -1.
         11    1    3    3    0    0 -0.68552268945E+01 -0.13490370881E+02 -0.13737253044E+02  0.20437621284E+02  0.51100000000E-03 0. -1.
        -11    1    3    3    0    0 -0.12459700731E+02 -0.95994086069E+01 -0.94946970900E+01  0.18372317790E+02  0.51100000000E-03 0.  1.
        -12    1    3    3    0    0 -0.21182027791E+01 -0.59586337083E+01 -0.37110251909E+01  0.73323806946E+01  0.00000000000E+00 0.  1.
</event>
<event>
 7    1  0.1381440E-008  0.4614232E+02  0.7816164E-02  0.1320468E+00
        -11   -1    0    0    0    0  0.00000000000E+00  0.00000000000E+00  0.45593999997E+02  0.45594000000E+02  0.51100000000E-03 0.  1.
         11   -1    0    0    0    0 -0.00000000000E+00 -0.00000000000E+00 -0.45593999997E+02  0.45594000000E+02  0.51100000000E-03 0. -1.
    9900012    2    1    2    0    0 -0.30871468865E+02  0.14831838643E+02  0.29258886979E+02  0.46142317692E+02  0.99999993660E+01 0.  0.
         12    1    1    2    0    0  0.30871468865E+02 -0.14831838643E+02 -0.29258886979E+02  0.45045682308E+02  0.00000000000E+00 0. -1.
         11    1    3    3    0    0 -0.60017822407E+01  0.16542478760E+01  0.16874584807E+01  0.64502280956E+01  0.51100000000E-03 0. -1.
        -11    1    3    3    0    0 -0.77817700749E+01  0.66780228625E+01  0.10558399881E+02  0.14718415104E+02  0.51100000000E-03 0.  1.
        -12    1    3    3    0    0 -0.17087916549E+02  0.64995679049E+01  0.17013028617E+02  0.24973674492E+02  0.00000000000E+00 0.  1.
</event>
<event>
 7    1  0.1381440E-008  0.4614231E+02  0.7816164E-02  0.1320468E+00
        -11   -1    0    0    0    0  0.00000000000E+00  0.00000000000E+00  0.45593999997E+02  0.45594000000E+02  0.51100000000E-03 0. -1.
         11   -1    0    0    0    0 -0.00000000000E+00 -0.00000000000E+00 -0.45593999997E+02  0.45594000000E+02  0.51100000000E-03 0.  1.
    9900012    2    1    2    0    0 -0.10574926183E+01 -0.10245912446E+02 -0.43852215856E+02  0.46142313769E+02  0.99999636006E+01 0.  0.
         12    1    1    2    0    0  0.10574926183E+01  0.10245912446E+02  0.43852215856E+02  0.45045686231E+02  0.00000000000E+00 0. -1.
         11    1    3    3    0    0  0.30206120089E+01 -0.37163582952E+01 -0.26157813959E+02  0.26592605123E+02  0.51100000000E-03 0. -1.
        -11    1    3    3    0    0 -0.44578295121E+01 -0.65339097429E+01 -0.16530812317E+02  0.18325718993E+02  0.51100000000E-03 0.  1.
        -12    1    3    3    0    0  0.37972488492E+00  0.43555918276E-02 -0.11635895805E+01  0.12239896533E+01  0.00000000000E+00 0.  1.
</event>
<event>
 7    1  0.1381440E-008  0.4614232E+02  0.7816164E-02  0.1320468E+00
        -11   -1    0    0    0    0  0.00000000000E+00  0.00000000000E+00  0.45593999997E+02  0.45594000000E+02  0.51100000000E-03 0.  1.
         11   -1    0    0    0    0 -0.00000000000E+00 -0.00000000000E+00 -0.45593999997E+02  0.45594000000E+02  0.51100000000E-03 0. -1.
    9900012    2    1    2    0    0  0.29419047320E+02 -0.15673200732E+02  0.30298249324E+02  0.46142317870E+02  0.10000000996E+02 0.  0.
         12    1    1    2    0    0 -0.29419047320E+02  0.15673200732E+02 -0.30298249324E+02  0.45045682130E+02  0.00000000000E+00 0. -1.
         11    1    3    3    0    0  0.29682118979E+00 -0.97140653346E-01 -0.12232682729E+00  0.33541502506E+00  0.51100000000E-03 0. -1.
        -11    1    3    3    0    0  0.26635140771E+02 -0.13512878953E+02  0.30340664173E+02  0.42574458590E+02  0.51100000000E-03 0.  1.
        -12    1    3    3    0    0  0.24870853595E+01 -0.20631811256E+01  0.79911978694E-01  0.32324442558E+01  0.00000000000E+00 0.  1.
</event>
<event>
 7    1  0.1381440E-008  0.4614232E+02  0.7816164E-02  0.1320468E+00
        -11   -1    0    0    0    0  0.00000000000E+00  0.00000000000E+00  0.45593999997E+02  0.45594000000E+02  0.51100000000E-03 0.  1.
         11   -1    0    0    0    0 -0.00000000000E+00 -0.00000000000E+00 -0.45593999997E+02  0.45594000000E+02  0.51100000000E-03 0. -1.
    9900012    2    1    2    0    0  0.30520504213E+02  0.17450414316E+02  0.28161948592E+02  0.46142317790E+02  0.10000000267E+02 0.  0.
         12    1    1    2    0    0 -0.30520504213E+02 -0.17450414316E+02 -0.28161948592E+02  0.45045682210E+02  0.00000000000E+00 0. -1.
         11    1    3    3    0    0  0.69908508220E+01  0.94467852085E+00  0.27131337609E+01  0.75581418211E+01  0.51100000000E-03 0. -1.
        -11    1    3    3    0    0  0.30992231370E+01  0.17846444871E+01  0.49898225349E+01  0.61390935153E+01  0.51100000000E-03 0.  1.
        -12    1    3    3    0    0  0.20430430254E+02  0.14721091308E+02  0.20458992296E+02  0.32445082454E+02  0.00000000000E+00 0.  1.
</event>
<event>
 7    1  0.1381440E-008  0.4614232E+02  0.7816164E-02  0.1320468E+00
        -11   -1    0    0    0    0  0.00000000000E+00  0.00000000000E+00  0.45593999997E+02  0.45594000000E+02  0.51100000000E-03 0. -1.
         11   -1    0    0    0    0 -0.00000000000E+00 -0.00000000000E+00 -0.45593999997E+02  0.45594000000E+02  0.51100000000E-03 0.  1.
    9900012    2    1    2    0    0  0.21734344920E+01  0.34796404100E+02 -0.28523671416E+02  0.46142318888E+02  0.10000010275E+02 0.  0.
         12    1    1    2    0    0 -0.21734344920E+01 -0.34796404100E+02  0.28523671416E+02  0.45045681112E+02  0.00000000000E+00 0. -1.
         11    1    3    3    0    0  0.83834516961E+00  0.12834272641E+02 -0.58464724973E+01  0.14128079055E+02  0.51100000000E-03 0. -1.
        -11    1    3    3    0    0  0.19609279544E+01  0.16598443168E+02 -0.19745616706E+02  0.25869730060E+02  0.51100000000E-03 0.  1.
        -12    1    3    3    0    0 -0.62583863204E+00  0.53636882911E+01 -0.29315822132E+01  0.61445097730E+01  0.00000000000E+00 0.  1.
</event>
<event>
 7    1  0.1381440E-008  0.4614232E+02  0.7816164E-02  0.1320468E+00
        -11   -1    0    0    0    0  0.00000000000E+00  0.00000000000E+00  0.45593999997E+02  0.45594000000E+02  0.51100000000E-03 0. -1.
         11   -1    0    0    0    0 -0.00000000000E+00 -0.00000000000E+00 -0.45593999997E+02  0.45594000000E+02  0.51100000000E-03 0.  1.
    9900012    2    1    2    0    0 -0.21968204457E+02 -0.35460873485E+02 -0.17001112124E+02  0.46142319087E+02  0.10000012094E+02 0.  0.
         12    1    1    2    0    0  0.21968204457E+02  0.35460873485E+02  0.17001112124E+02  0.45045680913E+02  0.00000000000E+00 0. -1.
         11    1    3    3    0    0 -0.93724105423E+01 -0.11640237853E+02 -0.42723185983E+01  0.15543163228E+02  0.51100000000E-03 0. -1.
        -11    1    3    3    0    0 -0.60862277287E+01 -0.18069754999E+02 -0.77066748635E+01  0.20565773785E+02  0.51100000000E-03 0.  1.
        -12    1    3    3    0    0 -0.65095661864E+01 -0.57508806335E+01 -0.50221186625E+01  0.10033382075E+02  0.00000000000E+00 0.  1.
</event>
<event>
 7    1  0.1381440E-008  0.4614232E+02  0.7816164E-02  0.1320468E+00
        -11   -1    0    0    0    0  0.00000000000E+00  0.00000000000E+00  0.45593999997E+02  0.45594000000E+02  0.51100000000E-03 0. -1.
         11   -1    0    0    0    0 -0.00000000000E+00 -0.00000000000E+00 -0.45593999997E+02  0.45594000000E+02  0.51100000000E-03 0.  1.
    9900012    2    1    2    0    0  0.28955704748E+02  0.80990380787E+01 -0.33542305829E+02  0.46142317237E+02  0.99999952203E+01 0.  0.
         12    1    1    2    0    0 -0.28955704748E+02 -0.80990380787E+01  0.33542305829E+02  0.45045682763E+02  0.00000000000E+00 0. -1.
         11    1    3    3    0    0  0.97433378447E+01  0.35103989376E+01 -0.57484141297E+01  0.11844821583E+02  0.51100000000E-03 0. -1.
        -11    1    3    3    0    0  0.10005945438E+02  0.42598965547E+01 -0.15526340137E+02  0.18956078209E+02  0.51100000000E-03 0.  1.
         12    1    3    3    0    0  0.92064214655E+01  0.32874258632E+00 -0.12267551562E+02  0.15341417445E+02  0.00000000000E+00 0. -1.
</event>
<event>
 7    1  0.1381440E-008  0.4614232E+02  0.7816164E-02  0.1320468E+00
        -11   -1    0    0    0    0  0.00000000000E+00  0.00000000000E+00  0.45593999997E+02  0.45594000000E+02  0.51100000000E-03 0.  1.
         11   -1    0    0    0    0 -0.00000000000E+00 -0.00000000000E+00 -0.45593999997E+02  0.45594000000E+02  0.51100000000E-03 0. -1.
    9900012    2    1    2    0    0 -0.73549308826E+01 -0.41365415605E+01  0.44248247423E+02  0.46142318916E+02  0.10000010527E+02 0.  0.
         12    1    1    2    0    0  0.73549308826E+01  0.41365415605E+01 -0.44248247423E+02  0.45045681084E+02  0.00000000000E+00 0. -1.
         11    1    3    3    0    0 -0.30557184441E+01  0.56683240549E+00  0.40157277610E+01  0.50778719851E+01  0.51100000000E-03 0. -1.
        -11    1    3    3    0    0 -0.16800955946E+01  0.93586789631E+00  0.72360725343E+01  0.74872769356E+01  0.51100000000E-03 0.  1.
         12    1    3    3    0    0 -0.26191168438E+01 -0.56392418623E+01  0.32996447128E+02  0.33577169995E+02  0.00000000000E+00 0. -1.
</event>
<event>
 7    1  0.1381440E-008  0.4614232E+02  0.7816164E-02  0.1320468E+00
        -11   -1    0    0    0    0  0.00000000000E+00  0.00000000000E+00  0.45593999997E+02  0.45594000000E+02  0.51100000000E-03 0.  1.
         11   -1    0    0    0    0 -0.00000000000E+00 -0.00000000000E+00 -0.45593999997E+02  0.45594000000E+02  0.51100000000E-03 0. -1.
    9900012    2    1    2    0    0 -0.26625309797E+02  0.14081204756E+02  0.33495165096E+02  0.46142317255E+02  0.99999953849E+01 0.  0.
         12    1    1    2    0    0  0.26625309797E+02 -0.14081204756E+02 -0.33495165096E+02  0.45045682745E+02  0.00000000000E+00 0. -1.
         11    1    3    3    0    0 -0.16884112892E+02  0.35784800500E+01  0.19643135662E+02  0.26148261252E+02  0.51100000000E-03 0. -1.
        -11    1    3    3    0    0 -0.40065181787E+01  0.31795225502E+01  0.47581767842E+01  0.69858283785E+01  0.51100000000E-03 0.  1.
         12    1    3    3    0    0 -0.57346787260E+01  0.73232021560E+01  0.90938526495E+01  0.13008227624E+02  0.00000000000E+00 0. -1.
</event>
<event>
 7    1  0.1381440E-008  0.4614232E+02  0.7816164E-02  0.1320468E+00
        -11   -1    0    0    0    0  0.00000000000E+00  0.00000000000E+00  0.45593999997E+02  0.45594000000E+02  0.51100000000E-03 0.  1.
         11   -1    0    0    0    0 -0.00000000000E+00 -0.00000000000E+00 -0.45593999997E+02  0.45594000000E+02  0.51100000000E-03 0. -1.
    9900012    2    1    2    0    0  0.39186344974E+02 -0.42100288464E+01 -0.21813284968E+02  0.46142319004E+02  0.10000011334E+02 0.  0.
         12    1    1    2    0    0 -0.39186344974E+02  0.42100288464E+01  0.21813284968E+02  0.45045680996E+02  0.00000000000E+00 0. -1.
         11    1    3    3    0    0  0.11169069577E+02  0.78281476552E+00 -0.32269275245E+01  0.11652209048E+02  0.51100000000E-03 0. -1.
        -11    1    3    3    0    0  0.88762385931E+01 -0.41951647236E+01 -0.75119247925E+01  0.12361878214E+02  0.51100000000E-03 0.  1.
        -12    1    3    3    0    0  0.19141036803E+02 -0.79767888833E+00 -0.11074432651E+02  0.22128231743E+02  0.00000000000E+00 0.  1.
</event>
<event>
 7    1  0.1381440E-008  0.4614232E+02  0.7816164E-02  0.1320468E+00
        -11   -1    0    0    0    0  0.00000000000E+00  0.00000000000E+00  0.45593999997E+02  0.45594000000E+02  0.51100000000E-03 0.  1.
         11   -1    0    0    0    0 -0.00000000000E+00 -0.00000000000E+00 -0.45593999997E+02  0.45594000000E+02  0.51100000000E-03 0. -1.
    9900012    2    1    2    0    0 -0.12027852528E+01 -0.25319749964E+02  0.37236771629E+02  0.46142316611E+02  0.99999895137E+01 0.  0.
         12    1    1    2    0    0  0.12027852528E+01  0.25319749964E+02 -0.37236771629E+02  0.45045683389E+02  0.00000000000E+00 0. -1.
         11    1    3    3    0    0 -0.16187318207E+01 -0.69764315018E+01  0.77538297988E+01  0.10555224584E+02  0.51100000000E-03 0. -1.
        -11    1    3    3    0    0  0.53547807567E+00 -0.10053105615E+02  0.22849379735E+02  0.24968897128E+02  0.51100000000E-03 0.  1.
        -12    1    3    3    0    0 -0.11953150774E+00 -0.82902128475E+01  0.66335620954E+01  0.10618194899E+02  0.00000000000E+00 0.  1.
</event>
<event>
 7    1  0.1381440E-008  0.4614232E+02  0.7816164E-02  0.1320468E+00
        -11   -1    0    0    0    0  0.00000000000E+00  0.00000000000E+00  0.45593999997E+02  0.45594000000E+02  0.51100000000E-03 0. -1.
         11   -1    0    0    0    0 -0.00000000000E+00 -0.00000000000E+00 -0.45593999997E+02  0.45594000000E+02  0.51100000000E-03 0.  1.
    9900012    2    1    2    0    0 -0.33285791650E+02  0.27777359670E+02 -0.12230606016E+02  0.46142319191E+02  0.10000013036E+02 0.  0.
         12    1    1    2    0    0  0.33285791650E+02 -0.27777359670E+02  0.12230606016E+02  0.45045680809E+02  0.00000000000E+00 0. -1.
         11    1    3    3    0    0 -0.87235145730E-01  0.18090797127E+01 -0.63654274449E-01  0.18123000594E+01  0.51100000000E-03 0. -1.
        -11    1    3    3    0    0 -0.23744219527E+02  0.21768409653E+02 -0.81104978416E+01  0.33217943874E+02  0.51100000000E-03 0.  1.
         12    1    3    3    0    0 -0.94543369779E+01  0.41998703049E+01 -0.40564539002E+01  0.11112075257E+02  0.00000000000E+00 0. -1.
</event>
<event>
 7    1  0.1381440E-008  0.4614232E+02  0.7816164E-02  0.1320468E+00
        -11   -1    0    0    0    0  0.00000000000E+00  0.00000000000E+00  0.45593999997E+02  0.45594000000E+02  0.51100000000E-03 0.  1.
         11   -1    0    0    0    0 -0.00000000000E+00 -0.00000000000E+00 -0.45593999997E+02  0.45594000000E+02  0.51100000000E-03 0. -1.
    9900012    2    1    2    0    0 -0.15758391503E+01  0.39258602971E+02  0.22031620096E+02  0.46142318072E+02  0.10000002837E+02 0.  0.
         12    1    1    2    0    0  0.15758391503E+01 -0.39258602971E+02 -0.22031620096E+02  0.45045681928E+02  0.00000000000E+00 0. -1.
         11    1    3    3    0    0  0.47335383941E+00  0.30263967122E+00  0.10445442207E+01  0.11860554447E+01  0.51100000000E-03 0. -1.
        -11    1    3    3    0    0  0.19486940775E+01  0.16941673888E+02  0.11961105058E+02  0.20829924561E+02  0.51100000000E-03 0.  1.
         12    1    3    3    0    0 -0.39978870672E+01  0.22014289412E+02  0.90259708178E+01  0.24126338067E+02  0.00000000000E+00 0. -1.
</event>
<event>
 7    1  0.1381440E-008  0.4614232E+02  0.7816164E-02  0.1320468E+00
        -11   -1    0    0    0    0  0.00000000000E+00  0.00000000000E+00  0.45593999997E+02  0.45594000000E+02  0.51100000000E-03 0.  1.
         11   -1    0    0    0    0 -0.00000000000E+00 -0.00000000000E+00 -0.45593999997E+02  0.45594000000E+02  0.51100000000E-03 0. -1.
    9900012    2    1    2    0    0 -0.20567253749E+02  0.42878480168E+01  0.39846153578E+02  0.46142317384E+02  0.99999965584E+01 0.  0.
         12    1    1    2    0    0  0.20567253749E+02 -0.42878480168E+01 -0.39846153578E+02  0.45045682616E+02  0.00000000000E+00 0. -1.
         11    1    3    3    0    0 -0.20636241963E+01 -0.93803035131E+00  0.11310481324E+02  0.11535399161E+02  0.51100000000E-03 0. -1.
        -11    1    3    3    0    0 -0.16727654231E+02  0.42339808958E+01  0.23328729143E+02  0.29016729898E+02  0.51100000000E-03 0.  1.
        -12    1    3    3    0    0 -0.17759753218E+01  0.99189747231E+00  0.52069431116E+01  0.55901883248E+01  0.00000000000E+00 0.  1.
</event>
<event>
 7    1  0.1381440E-008  0.4614232E+02  0.7816164E-02  0.1320468E+00
        -11   -1    0    0    0    0  0.00000000000E+00  0.00000000000E+00  0.45593999997E+02  0.45594000000E+02  0.51100000000E-03 0. -1.
         11   -1    0    0    0    0 -0.00000000000E+00 -0.00000000000E+00 -0.45593999997E+02  0.45594000000E+02  0.51100000000E-03 0.  1.
    9900012    2    1    2    0    0 -0.16370558968E+02  0.35245407776E+02 -0.22778926181E+02  0.46142318207E+02  0.10000004068E+02 0.  0.
         12    1    1    2    0    0  0.16370558968E+02 -0.35245407776E+02  0.22778926181E+02  0.45045681793E+02  0.00000000000E+00 0. -1.
         11    1    3    3    0    0  0.81756834355E+00  0.28945040586E+01 -0.20466928616E+01  0.36380659247E+01  0.51100000000E-03 0. -1.
        -11    1    3    3    0    0 -0.10147025353E+02  0.21817582256E+02 -0.10654758316E+02  0.26315259718E+02  0.51100000000E-03 0.  1.
        -12    1    3    3    0    0 -0.70411019580E+01  0.10533321462E+02 -0.10077475003E+02  0.16188992564E+02  0.00000000000E+00 0.  1.
</event>
<event>
 7    1  0.1381440E-008  0.4614231E+02  0.7816164E-02  0.1320468E+00
        -11   -1    0    0    0    0  0.00000000000E+00  0.00000000000E+00  0.45593999997E+02  0.45594000000E+02  0.51100000000E-03 0.  1.
         11   -1    0    0    0    0 -0.00000000000E+00 -0.00000000000E+00 -0.45593999997E+02  0.45594000000E+02  0.51100000000E-03 0. -1.
    9900012    2    1    2    0    0 -0.36529892856E+02 -0.22995895994E+02 -0.12879044319E+02  0.46142311114E+02  0.99999393871E+01 0.  0.
         12    1    1    2    0    0  0.36529892856E+02  0.22995895994E+02  0.12879044319E+02  0.45045688886E+02  0.00000000000E+00 0. -1.
         11    1    3    3    0    0 -0.19017196561E+02 -0.73966406443E+01 -0.59372822951E+01  0.21251244179E+02  0.51100000000E-03 0.  1.
        -11    1    3    3    0    0 -0.95383444749E+01 -0.10143940847E+02 -0.60712353750E+01  0.15190110285E+02  0.51100000000E-03 0. -1.
        -12    1    3    3    0    0 -0.79743518205E+01 -0.54553145029E+01 -0.87052664867E+00  0.97009566502E+01  0.00000000000E+00 0.  1.
</event>
<event>
 7    1  0.1381440E-008  0.4614232E+02  0.7816164E-02  0.1320468E+00
        -11   -1    0    0    0    0  0.00000000000E+00  0.00000000000E+00  0.45593999997E+02  0.45594000000E+02  0.51100000000E-03 0.  1.
         11   -1    0    0    0    0 -0.00000000000E+00 -0.00000000000E+00 -0.45593999997E+02  0.45594000000E+02  0.51100000000E-03 0. -1.
    9900012    2    1    2    0    0  0.21061281285E+02  0.30939484273E+02  0.25065600237E+02  0.46142316836E+02  0.99999915642E+01 0.  0.
         12    1    1    2    0    0 -0.21061281285E+02 -0.30939484273E+02 -0.25065600237E+02  0.45045683164E+02  0.00000000000E+00 0. -1.
         11    1    3    3    0    0  0.14154559346E+02  0.23169125912E+02  0.16931984678E+02  0.31997688217E+02  0.51100000000E-03 0.  1.
        -11    1    3    3    0    0  0.21307249687E+01  0.30371899872E+01  0.15888489532E+00  0.37134561505E+01  0.51100000000E-03 0. -1.
         12    1    3    3    0    0  0.47759969701E+01  0.47331683737E+01  0.79747306633E+01  0.10431172468E+02  0.00000000000E+00 0. -1.
</event>
<event>
 7    1  0.1381440E-008  0.4614232E+02  0.7816164E-02  0.1320468E+00
        -11   -1    0    0    0    0  0.00000000000E+00  0.00000000000E+00  0.45593999997E+02  0.45594000000E+02  0.51100000000E-03 0. -1.
         11   -1    0    0    0    0 -0.00000000000E+00 -0.00000000000E+00 -0.45593999997E+02  0.45594000000E+02  0.51100000000E-03 0.  1.
    9900012    2    1    2    0    0 -0.30334490326E+02 -0.30017279102E+02 -0.14418565164E+02  0.46142319082E+02  0.10000012043E+02 0.  0.
         12    1    1    2    0    0  0.30334490326E+02  0.30017279102E+02  0.14418565164E+02  0.45045680918E+02  0.00000000000E+00 0. -1.
         11    1    3    3    0    0 -0.23329358212E+01 -0.64362199812E+01 -0.27446366011E+01  0.73756726830E+01  0.51100000000E-03 0.  1.
        -11    1    3    3    0    0 -0.16461342456E+02 -0.11087218624E+02 -0.77884113890E+01  0.21320449444E+02  0.51100000000E-03 0. -1.
        -12    1    3    3    0    0 -0.11540212048E+02 -0.12493840496E+02 -0.38855171738E+01  0.17446196954E+02  0.00000000000E+00 0.  1.
</event>
<event>
 7    1  0.1381440E-008  0.4614232E+02  0.7816164E-02  0.1320468E+00
        -11   -1    0    0    0    0  0.00000000000E+00  0.00000000000E+00  0.45593999997E+02  0.45594000000E+02  0.51100000000E-03 0. -1.
         11   -1    0    0    0    0 -0.00000000000E+00 -0.00000000000E+00 -0.45593999997E+02  0.45594000000E+02  0.51100000000E-03 0.  1.
    9900012    2    1    2    0    0 -0.11483146265E+02  0.35765212885E+02 -0.24861624420E+02  0.46142317969E+02  0.10000001892E+02 0.  0.
         12    1    1    2    0    0  0.11483146265E+02 -0.35765212885E+02  0.24861624420E+02  0.45045682031E+02  0.00000000000E+00 0. -1.
         11    1    3    3    0    0 -0.82432842019E+00  0.81680904491E+01 -0.67903024934E+01  0.10653892582E+02  0.51100000000E-03 0. -1.
        -11    1    3    3    0    0 -0.66897083084E+01  0.10904885315E+02 -0.11209789599E+02  0.17009647383E+02  0.51100000000E-03 0.  1.
         12    1    3    3    0    0 -0.39691095367E+01  0.16692237121E+02 -0.68615323270E+01  0.18478778003E+02  0.00000000000E+00 0. -1.
</event>
<event>
 7    1  0.1381440E-008  0.4614232E+02  0.7816164E-02  0.1320468E+00
        -11   -1    0    0    0    0  0.00000000000E+00  0.00000000000E+00  0.45593999997E+02  0.45594000000E+02  0.51100000000E-03 0.  1.
         11   -1    0    0    0    0 -0.00000000000E+00 -0.00000000000E+00 -0.45593999997E+02  0.45594000000E+02  0.51100000000E-03 0. -1.
    9900012    2    1    2    0    0  0.10526407704E+02 -0.27018529268E+02  0.34471833424E+02  0.46142317825E+02  0.10000000585E+02 0.  0.
         12    1    1    2    0    0 -0.10526407704E+02  0.27018529268E+02 -0.34471833424E+02  0.45045682175E+02  0.00000000000E+00 0. -1.
         11    1    3    3    0    0  0.85531776367E+00 -0.72294880011E+01  0.56283722304E+01  0.92019367233E+01  0.51100000000E-03 0. -1.
        -11    1    3    3    0    0  0.33422881485E+01 -0.43525242328E+01  0.32153755002E+01  0.63603456772E+01  0.51100000000E-03 0.  1.
         12    1    3    3    0    0  0.63288017918E+01 -0.15436517034E+02  0.25628085693E+02  0.30580035425E+02  0.00000000000E+00 0. -1.
</event>
<event>
 7    1  0.1381440E-008  0.4614232E+02  0.7816164E-02  0.1320468E+00
        -11   -1    0    0    0    0  0.00000000000E+00  0.00000000000E+00  0.45593999997E+02  0.45594000000E+02  0.51100000000E-03 0.  1.
         11   -1    0    0    0    0 -0.00000000000E+00 -0.00000000000E+00 -0.45593999997E+02  0.45594000000E+02  0.51100000000E-03 0. -1.
    9900012    2    1    2    0    0 -0.18897729057E+02 -0.36461804412E+02  0.18507460081E+02  0.46142318485E+02  0.10000006604E+02 0.  0.
         12    1    1    2    0    0  0.18897729057E+02  0.36461804412E+02 -0.18507460081E+02  0.45045681515E+02  0.00000000000E+00 0. -1.
         11    1    3    3    0    0 -0.34365162206E+01 -0.17227169438E+01  0.15620701091E-01  0.38441698285E+01  0.51100000000E-03 0. -1.
        -11    1    3    3    0    0 -0.77146448086E+01 -0.17665654981E+02  0.99979562542E+01  0.21715207574E+02  0.51100000000E-03 0.  1.
         12    1    3    3    0    0 -0.77465680279E+01 -0.17073432487E+02  0.84938831258E+01  0.20582941083E+02  0.00000000000E+00 0. -1.
</event>
<event>
 7    1  0.1381440E-008  0.4614232E+02  0.7816164E-02  0.1320468E+00
        -11   -1    0    0    0    0  0.00000000000E+00  0.00000000000E+00  0.45593999997E+02  0.45594000000E+02  0.51100000000E-03 0.  1.
         11   -1    0    0    0    0 -0.00000000000E+00 -0.00000000000E+00 -0.45593999997E+02  0.45594000000E+02  0.51100000000E-03 0. -1.
    9900012    2    1    2    0    0 -0.21908413741E+02  0.54027850660E+01  0.38986469607E+02  0.46142317726E+02  0.99999996758E+01 0.  0.
         12    1    1    2    0    0  0.21908413741E+02 -0.54027850660E+01 -0.38986469607E+02  0.45045682274E+02  0.00000000000E+00 0. -1.
         11    1    3    3    0    0 -0.14746134475E+02  0.21184104695E+01  0.32185608420E+02  0.35466174512E+02  0.51100000000E-03 0.  1.
        -11    1    3    3    0    0 -0.35920050263E+01  0.21786072922E+01  0.21802422344E+01  0.47331053553E+01  0.51100000000E-03 0. -1.
         12    1    3    3    0    0 -0.35702742398E+01  0.11057673043E+01  0.46206189530E+01  0.59430378585E+01  0.00000000000E+00 0. -1.
</event>
<event>
 7    1  0.1381440E-008  0.4614232E+02  0.7816164E-02  0.1320468E+00
        -11   -1    0    0    0    0  0.00000000000E+00  0.00000000000E+00  0.45593999997E+02  0.45594000000E+02  0.51100000000E-03 0.  1.
         11   -1    0    0    0    0 -0.00000000000E+00 -0.00000000000E+00 -0.45593999997E+02  0.45594000000E+02  0.51100000000E-03 0. -1.
    9900012    2    1    2    0    0 -0.41603315149E+02  0.14202201038E+02 -0.98272656447E+01  0.46142317679E+02  0.99999992500E+01 0.  0.
         12    1    1    2    0    0  0.41603315149E+02 -0.14202201038E+02  0.98272656447E+01  0.45045682321E+02  0.00000000000E+00 0. -1.
         11    1    3    3    0    0 -0.23609532512E+02  0.97003078456E+01 -0.15541280752E+01  0.25571885188E+02  0.51100000000E-03 0. -1.
        -11    1    3    3    0    0 -0.15309340559E+02  0.30705321506E+01 -0.58245025129E+01  0.16665200444E+02  0.51100000000E-03 0.  1.
         12    1    3    3    0    0 -0.26844420781E+01  0.14313610414E+01 -0.24486350566E+01  0.39052320471E+01  0.00000000000E+00 0. -1.
</event>
<event>
 7    1  0.1381440E-008  0.4614232E+02  0.7816164E-02  0.1320468E+00
        -11   -1    0    0    0    0  0.00000000000E+00  0.00000000000E+00  0.45593999997E+02  0.45594000000E+02  0.51100000000E-03 0. -1.
         11   -1    0    0    0    0 -0.00000000000E+00 -0.00000000000E+00 -0.45593999997E+02  0.45594000000E+02  0.51100000000E-03 0.  1.
    9900012    2    1    2    0    0  0.41783223649E+02  0.16518953976E+02 -0.32248934716E+01  0.46142317001E+02  0.99999930712E+01 0.  0.
         12    1    1    2    0    0 -0.41783223649E+02 -0.16518953976E+02  0.32248934716E+01  0.45045682999E+02  0.00000000000E+00 0. -1.
         11    1    3    3    0    0  0.16563743843E+02  0.71505628688E+01  0.18966144694E+01  0.18140708535E+02  0.51100000000E-03 0. -1.
        -11    1    3    3    0    0  0.20835204079E+02  0.62665294719E+01 -0.59771310159E+01  0.22563271396E+02  0.51100000000E-03 0.  1.
        -12    1    3    3    0    0  0.43842757269E+01  0.31018616349E+01  0.85562307481E+00  0.54383370710E+01  0.00000000000E+00 0.  1.
</event>
<event>
 7    1  0.1381440E-008  0.4614232E+02  0.7816164E-02  0.1320468E+00
        -11   -1    0    0    0    0  0.00000000000E+00  0.00000000000E+00  0.45593999997E+02  0.45594000000E+02  0.51100000000E-03 0.  1.
         11   -1    0    0    0    0 -0.00000000000E+00 -0.00000000000E+00 -0.45593999997E+02  0.45594000000E+02  0.51100000000E-03 0. -1.
    9900012    2    1    2    0    0  0.20797004122E+02 -0.56482558001E+01  0.39556229411E+02  0.46142318084E+02  0.10000002949E+02 0.  0.
         12    1    1    2    0    0 -0.20797004122E+02  0.56482558001E+01 -0.39556229411E+02  0.45045681916E+02  0.00000000000E+00 0. -1.
         11    1    3    3    0    0  0.10755584667E+02 -0.70822000606E+01  0.20150872539E+02  0.23914385285E+02  0.51100000000E-03 0. -1.
        -11    1    3    3    0    0  0.94956455593E+01  0.17295812196E+01  0.15399333151E+02  0.18174107888E+02  0.51100000000E-03 0.  1.
        -12    1    3    3    0    0  0.54577389577E+00 -0.29563695911E+00  0.40060237204E+01  0.40538249106E+01  0.00000000000E+00 0.  1.
</event>
<event>
 7    1  0.1381440E-008  0.4614232E+02  0.7816164E-02  0.1320468E+00
        -11   -1    0    0    0    0  0.00000000000E+00  0.00000000000E+00  0.45593999997E+02  0.45594000000E+02  0.51100000000E-03 0.  1.
         11   -1    0    0    0    0 -0.00000000000E+00 -0.00000000000E+00 -0.45593999997E+02  0.45594000000E+02  0.51100000000E-03 0. -1.
    9900012    2    1    2    0    0 -0.41404383662E+02 -0.17215310537E+02  0.42922771082E+01  0.46142317120E+02  0.99999941550E+01 0.  0.
         12    1    1    2    0    0  0.41404383662E+02  0.17215310537E+02 -0.42922771082E+01  0.45045682880E+02  0.00000000000E+00 0. -1.
         11    1    3    3    0    0 -0.77048694521E+01 -0.18316263783E+01  0.28452803189E+01  0.84151939263E+01  0.51100000000E-03 0. -1.
        -11    1    3    3    0    0 -0.33679280833E+02 -0.14942538138E+02  0.69117445941E+00  0.36851745221E+02  0.51100000000E-03 0.  1.
        -12    1    3    3    0    0 -0.20233377325E-01 -0.44114602085E+00  0.75582232990E+00  0.87537797302E+00  0.00000000000E+00 0.  1.
</event>
<event>
 7    1  0.1381440E-008  0.4614232E+02  0.7816164E-02  0.1320468E+00
        -11   -1    0    0    0    0  0.00000000000E+00  0.00000000000E+00  0.45593999997E+02  0.45594000000E+02  0.51100000000E-03 0.  1.
         11   -1    0    0    0    0 -0.00000000000E+00 -0.00000000000E+00 -0.45593999997E+02  0.45594000000E+02  0.51100000000E-03 0. -1.
    9900012    2    1    2    0    0  0.34479860645E+02  0.28862332377E+02 -0.26867117453E+01  0.46142318295E+02  0.10000004865E+02 0.  0.
         12    1    1    2    0    0 -0.34479860645E+02 -0.28862332377E+02  0.26867117453E+01  0.45045681705E+02  0.00000000000E+00 0. -1.
         11    1    3    3    0    0  0.16383486843E+02  0.13408431623E+02 -0.47684251662E+01  0.21701210993E+02  0.51100000000E-03 0. -1.
        -11    1    3    3    0    0  0.35626878400E+01  0.10318210620E+01  0.13691908529E+01  0.39537429358E+01  0.51100000000E-03 0.  1.
        -12    1    3    3    0    0  0.14533685961E+02  0.14422079691E+02  0.71252256804E+00  0.20487364366E+02  0.00000000000E+00 0.  1.
</event>
<event>
 7    1  0.1381440E-008  0.4614232E+02  0.7816164E-02  0.1320468E+00
        -11   -1    0    0    0    0  0.00000000000E+00  0.00000000000E+00  0.45593999997E+02  0.45594000000E+02  0.51100000000E-03 0.  1.
         11   -1    0    0    0    0 -0.00000000000E+00 -0.00000000000E+00 -0.45593999997E+02  0.45594000000E+02  0.51100000000E-03 0. -1.
    9900012    2    1    2    0    0  0.33637734254E+02  0.24372486581E+02  0.17424075857E+02  0.46142315552E+02  0.99999798559E+01 0.  0.
         12    1    1    2    0    0 -0.33637734254E+02 -0.24372486581E+02 -0.17424075857E+02  0.45045684448E+02  0.00000000000E+00 0. -1.
         11    1    3    3    0    0  0.16133183846E+02  0.13617298209E+02  0.49287314590E+01  0.21679548556E+02  0.51100000000E-03 0. -1.
        -11    1    3    3    0    0  0.14404274357E+02  0.91306951660E+01  0.82040673807E+01  0.18925100682E+02  0.51100000000E-03 0.  1.
         12    1    3    3    0    0  0.31002760513E+01  0.16244932062E+01  0.42912770177E+01  0.55376663148E+01  0.00000000000E+00 0. -1.
</event>
<event>
 7    1  0.1381440E-008  0.4614232E+02  0.7816164E-02  0.1320468E+00
        -11   -1    0    0    0    0  0.00000000000E+00  0.00000000000E+00  0.45593999997E+02  0.45594000000E+02  0.51100000000E-03 0.  1.
         11   -1    0    0    0    0 -0.00000000000E+00 -0.00000000000E+00 -0.45593999997E+02  0.45594000000E+02  0.51100000000E-03 0. -1.
    9900012    2    1    2    0    0  0.12885904414E+02  0.43139242632E+02  0.14396661562E+01  0.46142318453E+02  0.10000006307E+02 0.  0.
         12    1    1    2    0    0 -0.12885904414E+02 -0.43139242632E+02 -0.14396661562E+01  0.45045681547E+02  0.00000000000E+00 0. -1.
         11    1    3    3    0    0  0.56926005028E+00  0.61311417151E+00  0.82125418080E+00  0.11723585982E+01  0.51100000000E-03 0. -1.
        -11    1    3    3    0    0  0.70371368011E+01  0.29999344100E+02 -0.28364131019E+01  0.30943936084E+02  0.51100000000E-03 0.  1.
        -12    1    3    3    0    0  0.52795075627E+01  0.12526784360E+02  0.34548250774E+01  0.14026023771E+02  0.00000000000E+00 0.  1.
</event>
<event>
 7    1  0.1381440E-008  0.4614232E+02  0.7816164E-02  0.1320468E+00
        -11   -1    0    0    0    0  0.00000000000E+00  0.00000000000E+00  0.45593999997E+02  0.45594000000E+02  0.51100000000E-03 0.  1.
         11   -1    0    0    0    0 -0.00000000000E+00 -0.00000000000E+00 -0.45593999997E+02  0.45594000000E+02  0.51100000000E-03 0. -1.
    9900012    2    1    2    0    0  0.14589670927E+02  0.40402482499E+02  0.13560769042E+02  0.46142317113E+02  0.99999940856E+01 0.  0.
         12    1    1    2    0    0 -0.14589670927E+02 -0.40402482499E+02 -0.13560769042E+02  0.45045682887E+02  0.00000000000E+00 0. -1.
         11    1    3    3    0    0  0.20759395820E+01  0.10882337944E+02  0.47211289594E+00  0.11088629091E+02  0.51100000000E-03 0. -1.
        -11    1    3    3    0    0  0.13380702680E+01  0.78784030092E+01  0.48158166016E+01  0.93301530436E+01  0.51100000000E-03 0.  1.
         12    1    3    3    0    0  0.11175661077E+02  0.21641741545E+02  0.82728395442E+01  0.25723534978E+02  0.00000000000E+00 0. -1.
</event>
<event>
 7    1  0.1381440E-008  0.4614232E+02  0.7816164E-02  0.1320468E+00
        -11   -1    0    0    0    0  0.00000000000E+00  0.00000000000E+00  0.45593999997E+02  0.45594000000E+02  0.51100000000E-03 0.  1.
         11   -1    0    0    0    0 -0.00000000000E+00 -0.00000000000E+00 -0.45593999997E+02  0.45594000000E+02  0.51100000000E-03 0. -1.
    9900012    2    1    2    0    0  0.25927083824E+02  0.20567635444E+02  0.30559322290E+02  0.46142317829E+02  0.10000000623E+02 0.  0.
         12    1    1    2    0    0 -0.25927083824E+02 -0.20567635444E+02 -0.30559322290E+02  0.45045682171E+02  0.00000000000E+00 0. -1.
         11    1    3    3    0    0  0.28698139165E+01  0.60477165075E-01  0.95029018729E+00  0.30236635237E+01  0.51100000000E-03 0. -1.
        -11    1    3    3    0    0  0.20634176549E+02  0.18085480009E+02  0.23552532808E+02  0.36160415249E+02  0.51100000000E-03 0.  1.
        -12    1    3    3    0    0  0.24230933579E+01  0.24216782696E+01  0.60564992950E+01  0.69582390569E+01  0.00000000000E+00 0.  1.
</event>
<event>
 7    1  0.1381440E-008  0.4614232E+02  0.7816164E-02  0.1320468E+00
        -11   -1    0    0    0    0  0.00000000000E+00  0.00000000000E+00  0.45593999997E+02  0.45594000000E+02  0.51100000000E-03 0.  1.
         11   -1    0    0    0    0 -0.00000000000E+00 -0.00000000000E+00 -0.45593999997E+02  0.45594000000E+02  0.51100000000E-03 0. -1.
    9900012    2    1    2    0    0 -0.16448954396E+02 -0.23530574697E+02  0.34711054164E+02  0.46142319547E+02  0.10000016285E+02 0.  0.
         12    1    1    2    0    0  0.16448954396E+02  0.23530574697E+02 -0.34711054164E+02  0.45045680453E+02  0.00000000000E+00 0. -1.
         11    1    3    3    0    0 -0.12513085612E+02 -0.14025936299E+02  0.27067501987E+02  0.32953814114E+02  0.51100000000E-03 0. -1.
        -11    1    3    3    0    0 -0.13483823722E+01 -0.70514088752E+01  0.49614385930E+01  0.87267620181E+01  0.51100000000E-03 0.  1.
        -12    1    3    3    0    0 -0.25874864110E+01 -0.24532295228E+01  0.26821135841E+01  0.44617434145E+01  0.00000000000E+00 0.  1.
</event>
<event>
 7    1  0.1381440E-008  0.4614232E+02  0.7816164E-02  0.1320468E+00
        -11   -1    0    0    0    0  0.00000000000E+00  0.00000000000E+00  0.45593999997E+02  0.45594000000E+02  0.51100000000E-03 0. -1.
         11   -1    0    0    0    0 -0.00000000000E+00 -0.00000000000E+00 -0.45593999997E+02  0.45594000000E+02  0.51100000000E-03 0.  1.
    9900012    2    1    2    0    0 -0.37730433610E+02 -0.18694735233E+02 -0.16001082495E+02  0.46142318888E+02  0.10000010280E+02 0.  0.
         12    1    1    2    0    0  0.37730433610E+02  0.18694735233E+02  0.16001082495E+02  0.45045681112E+02  0.00000000000E+00 0. -1.
         11    1    3    3    0    0 -0.68154813360E+01 -0.47613725794E+01  0.15313343804E+00  0.83153415319E+01  0.51100000000E-03 0. -1.
        -11    1    3    3    0    0 -0.24070198534E+02 -0.10543447085E+02 -0.14494665505E+02  0.30010565844E+02  0.51100000000E-03 0.  1.
        -12    1    3    3    0    0 -0.68447537397E+01 -0.33899155680E+01 -0.16595504281E+01  0.78164115129E+01  0.00000000000E+00 0.  1.
</event>
<event>
 7    1  0.1381440E-008  0.4614232E+02  0.7816164E-02  0.1320468E+00
        -11   -1    0    0    0    0  0.00000000000E+00  0.00000000000E+00  0.45593999997E+02  0.45594000000E+02  0.51100000000E-03 0.  1.
         11   -1    0    0    0    0 -0.00000000000E+00 -0.00000000000E+00 -0.45593999997E+02  0.45594000000E+02  0.51100000000E-03 0. -1.
    9900012    2    1    2    0    0  0.62993720135E+01 -0.19510805853E+02  0.40109348842E+02  0.46142317662E+02  0.99999990938E+01 0.  0.
         12    1    1    2    0    0 -0.62993720135E+01  0.19510805853E+02 -0.40109348842E+02  0.45045682338E+02  0.00000000000E+00 0. -1.
         11    1    3    3    0    0  0.74720110780E+01 -0.10493160940E+02  0.20361539078E+02  0.24094182907E+02  0.51100000000E-03 0. -1.
        -11    1    3    3    0    0  0.48268171029E+00 -0.76300927724E+01  0.15378294719E+02  0.17173911787E+02  0.51100000000E-03 0.  1.
         12    1    3    3    0    0 -0.16553207748E+01 -0.13875521403E+01  0.43695150457E+01  0.48742229683E+01  0.00000000000E+00 0. -1.
</event>
<event>
 7    1  0.1381440E-008  0.4614232E+02  0.7816164E-02  0.1320468E+00
        -11   -1    0    0    0    0  0.00000000000E+00  0.00000000000E+00  0.45593999997E+02  0.45594000000E+02  0.51100000000E-03 0. -1.
         11   -1    0    0    0    0 -0.00000000000E+00 -0.00000000000E+00 -0.45593999997E+02  0.45594000000E+02  0.51100000000E-03 0.  1.
    9900012    2    1    2    0    0  0.31650225824E+02 -0.31363138396E+02 -0.66128808855E+01  0.46142318317E+02  0.10000005066E+02 0.  0.
         12    1    1    2    0    0 -0.31650225824E+02  0.31363138396E+02  0.66128808855E+01  0.45045681683E+02  0.00000000000E+00 0. -1.
         11    1    3    3    0    0  0.10024202247E+02 -0.44101514664E+01 -0.28582011660E+01  0.11318276407E+02  0.51100000000E-03 0. -1.
        -11    1    3    3    0    0  0.19619661268E+02 -0.23409467048E+02 -0.35025771841E+01  0.30744142580E+02  0.51100000000E-03 0.  1.
         12    1    3    3    0    0  0.20063623081E+01 -0.35435198809E+01 -0.25210253535E+00  0.40798993304E+01  0.00000000000E+00 0. -1.
</event>
<event>
 7    1  0.1381440E-008  0.4614232E+02  0.7816164E-02  0.1320468E+00
        -11   -1    0    0    0    0  0.00000000000E+00  0.00000000000E+00  0.45593999997E+02  0.45594000000E+02  0.51100000000E-03 0.  1.
         11   -1    0    0    0    0 -0.00000000000E+00 -0.00000000000E+00 -0.45593999997E+02  0.45594000000E+02  0.51100000000E-03 0. -1.
    9900012    2    1    2    0    0  0.41413689213E+02 -0.15836261797E+02  0.79518990030E+01  0.46142317192E+02  0.99999948098E+01 0.  0.
         12    1    1    2    0    0 -0.41413689213E+02  0.15836261797E+02 -0.79518990030E+01  0.45045682808E+02  0.00000000000E+00 0. -1.
         11    1    3    3    0    0  0.17195650657E+02 -0.98733034693E+01  0.12537403031E+00  0.19828974805E+02  0.51100000000E-03 0. -1.
        -11    1    3    3    0    0  0.13890824548E+02 -0.40700952947E+01  0.59386559668E+01  0.15645712425E+02  0.51100000000E-03 0.  1.
         12    1    3    3    0    0  0.10327214007E+02 -0.18928630327E+01  0.18878690059E+01  0.10667629962E+02  0.00000000000E+00 0. -1.
</event>
<event>
 7    1  0.1381440E-008  0.4614231E+02  0.7816164E-02  0.1320468E+00
        -11   -1    0    0    0    0  0.00000000000E+00  0.00000000000E+00  0.45593999997E+02  0.45594000000E+02  0.51100000000E-03 0. -1.
         11   -1    0    0    0    0 -0.00000000000E+00 -0.00000000000E+00 -0.45593999997E+02  0.45594000000E+02  0.51100000000E-03 0.  1.
    9900012    2    1    2    0    0 -0.10462888734E+02 -0.41135910043E+02 -0.15082401094E+02  0.46142312543E+02  0.99999524168E+01 0.  0.
         12    1    1    2    0    0  0.10462888734E+02  0.41135910043E+02  0.15082401094E+02  0.45045687457E+02  0.00000000000E+00 0. -1.
         11    1    3    3    0    0 -0.14138820314E+01 -0.16114809461E+01  0.99229662374E-01  0.21461081113E+01  0.51100000000E-03 0. -1.
        -11    1    3    3    0    0 -0.12120677134E+01 -0.22552978829E+02 -0.77191602356E+01  0.23868208923E+02  0.51100000000E-03 0.  1.
        -12    1    3    3    0    0 -0.78369389891E+01 -0.16971450268E+02 -0.74624705211E+01  0.20127995508E+02  0.00000000000E+00 0.  1.
</event>
<event>
 7    1  0.1381440E-008  0.4614232E+02  0.7816164E-02  0.1320468E+00
        -11   -1    0    0    0    0  0.00000000000E+00  0.00000000000E+00  0.45593999997E+02  0.45594000000E+02  0.51100000000E-03 0.  1.
         11   -1    0    0    0    0 -0.00000000000E+00 -0.00000000000E+00 -0.45593999997E+02  0.45594000000E+02  0.51100000000E-03 0. -1.
    9900012    2    1    2    0    0  0.14004447092E+02 -0.42767266047E+02  0.19874148456E+01  0.46142318728E+02  0.10000008816E+02 0.  0.
         12    1    1    2    0    0 -0.14004447092E+02  0.42767266047E+02 -0.19874148456E+01  0.45045681272E+02  0.00000000000E+00 0. -1.
         11    1    3    3    0    0  0.10341888197E+01 -0.46109346277E+01 -0.34012586118E+00  0.47377157490E+01  0.51100000000E-03 0. -1.
        -11    1    3    3    0    0  0.75429693739E+01 -0.18148574595E+02 -0.32877344512E+01  0.19926774573E+02  0.51100000000E-03 0.  1.
        -12    1    3    3    0    0  0.54272888989E+01 -0.20007756824E+02  0.56152751580E+01  0.21477828406E+02  0.00000000000E+00 0.  1.
</event>
<event>
 7    1  0.1381440E-008  0.4614232E+02  0.7816164E-02  0.1320468E+00
        -11   -1    0    0    0    0  0.00000000000E+00  0.00000000000E+00  0.45593999997E+02  0.45594000000E+02  0.51100000000E-03 0.  1.
         11   -1    0    0    0    0 -0.00000000000E+00 -0.00000000000E+00 -0.45593999997E+02  0.45594000000E+02  0.51100000000E-03 0. -1.
    9900012    2    1    2    0    0  0.73215841171E+00  0.93490917270E+01  0.44058732845E+02  0.46142317499E+02  0.99999976132E+01 0.  0.
         12    1    1    2    0    0 -0.73215841171E+00 -0.93490917270E+01 -0.44058732845E+02  0.45045682501E+02  0.00000000000E+00 0. -1.
         11    1    3    3    0    0  0.10969840925E+01  0.16494107780E+01  0.50949031080E+01  0.54664401538E+01  0.51100000000E-03 0. -1.
        -11    1    3    3    0    0  0.34509644276E+01  0.48481135859E+00  0.10360814343E+02  0.10931178877E+02  0.51100000000E-03 0.  1.
        -12    1    3    3    0    0 -0.38157901084E+01  0.72148695903E+01  0.28603015394E+02  0.29744698468E+02  0.00000000000E+00 0.  1.
</event>
<event>
 7    1  0.1381440E-008  0.4614232E+02  0.7816164E-02  0.1320468E+00
        -11   -1    0    0    0    0  0.00000000000E+00  0.00000000000E+00  0.45593999997E+02  0.45594000000E+02  0.51100000000E-03 0.  1.
         11   -1    0    0    0    0 -0.00000000000E+00 -0.00000000000E+00 -0.45593999997E+02  0.45594000000E+02  0.51100000000E-03 0. -1.
    9900012    2    1    2    0    0  0.55588195803E+01 -0.24647483029E+02  0.37292285852E+02  0.46142317867E+02  0.10000000964E+02 0.  0.
         12    1    1    2    0    0 -0.55588195803E+01  0.24647483029E+02 -0.37292285852E+02  0.45045682133E+02  0.00000000000E+00 0. -1.
         11    1    3    3    0    0  0.12418444674E+01 -0.18537966103E+01  0.68571825395E+00  0.23342984682E+01  0.51100000000E-03 0. -1.
        -11    1    3    3    0    0  0.53049114145E+01 -0.21250946039E+02  0.31367333457E+02  0.38257736487E+02  0.51100000000E-03 0.  1.
        -12    1    3    3    0    0 -0.98793630159E+00 -0.15427403801E+01  0.52392341410E+01  0.55502829118E+01  0.00000000000E+00 0.  1.
</event>
<event>
 7    1  0.1381440E-008  0.4614232E+02  0.7816164E-02  0.1320468E+00
        -11   -1    0    0    0    0  0.00000000000E+00  0.00000000000E+00  0.45593999997E+02  0.45594000000E+02  0.51100000000E-03 0. -1.
         11   -1    0    0    0    0 -0.00000000000E+00 -0.00000000000E+00 -0.45593999997E+02  0.45594000000E+02  0.51100000000E-03 0.  1.
    9900012    2    1    2    0    0 -0.29368286210E+02  0.66629169263E+01 -0.33499594755E+02  0.46142317125E+02  0.99999942000E+01 0.  0.
         12    1    1    2    0    0  0.29368286210E+02 -0.66629169263E+01  0.33499594755E+02  0.45045682875E+02  0.00000000000E+00 0. -1.
         11    1    3    3    0    0 -0.19559726833E+02  0.35860716284E+01 -0.15937005955E+02  0.25483935775E+02  0.51100000000E-03 0. -1.
        -11    1    3    3    0    0 -0.29685523302E+01  0.24491878529E+01 -0.46809370498E+01  0.60598676555E+01  0.51100000000E-03 0.  1.
         12    1    3    3    0    0 -0.68400070472E+01  0.62765744496E+00 -0.12881651751E+02  0.14598513695E+02  0.00000000000E+00 0. -1.
</event>
<event>
 7    1  0.1381440E-008  0.4614232E+02  0.7816164E-02  0.1320468E+00
        -11   -1    0    0    0    0  0.00000000000E+00  0.00000000000E+00  0.45593999997E+02  0.45594000000E+02  0.51100000000E-03 0. -1.
         11   -1    0    0    0    0 -0.00000000000E+00 -0.00000000000E+00 -0.45593999997E+02  0.45594000000E+02  0.51100000000E-03 0.  1.
    9900012    2    1    2    0    0 -0.12183400957E+02 -0.37894520801E+02 -0.21087521264E+02  0.46142317424E+02  0.99999969290E+01 0.  0.
         12    1    1    2    0    0  0.12183400957E+02  0.37894520801E+02  0.21087521264E+02  0.45045682576E+02  0.00000000000E+00 0. -1.
         11    1    3    3    0    0 -0.69668792176E+01 -0.12899454515E+02 -0.74581737833E+01  0.16448637915E+02  0.51100000000E-03 0. -1.
        -11    1    3    3    0    0 -0.33716309172E+01 -0.10538816542E+02 -0.94003447838E+01  0.14518988651E+02  0.51100000000E-03 0.  1.
         12    1    3    3    0    0 -0.18448908218E+01 -0.14456249744E+02 -0.42290026972E+01  0.15174690858E+02  0.00000000000E+00 0. -1.
</event>
<event>
 7    1  0.1381440E-008  0.4614232E+02  0.7816164E-02  0.1320468E+00
        -11   -1    0    0    0    0  0.00000000000E+00  0.00000000000E+00  0.45593999997E+02  0.45594000000E+02  0.51100000000E-03 0.  1.
         11   -1    0    0    0    0 -0.00000000000E+00 -0.00000000000E+00 -0.45593999997E+02  0.45594000000E+02  0.51100000000E-03 0. -1.
    9900012    2    1    2    0    0  0.40214621007E+02 -0.85702773919E+01 -0.18396958955E+02  0.46142317675E+02  0.99999992171E+01 0.  0.
         12    1    1    2    0    0 -0.40214621007E+02  0.85702773919E+01  0.18396958955E+02  0.45045682325E+02  0.00000000000E+00 0. -1.
         11    1    3    3    0    0  0.16736295078E+02 -0.49930202454E+01 -0.44015189990E+01  0.18011307389E+02  0.51100000000E-03 0. -1.
        -11    1    3    3    0    0  0.69026749672E+01 -0.30435190907E+01 -0.24807758705E+01  0.79412958224E+01  0.51100000000E-03 0.  1.
         12    1    3    3    0    0  0.16575650962E+02 -0.53373805580E+00 -0.11514664086E+02  0.20189714464E+02  0.00000000000E+00 0. -1.
</event>
<event>
 7    1  0.1381440E-008  0.4614232E+02  0.7816164E-02  0.1320468E+00
        -11   -1    0    0    0    0  0.00000000000E+00  0.00000000000E+00  0.45593999997E+02  0.45594000000E+02  0.51100000000E-03 0.  1.
         11   -1    0    0    0    0 -0.00000000000E+00 -0.00000000000E+00 -0.45593999997E+02  0.45594000000E+02  0.51100000000E-03 0. -1.
    9900012    2    1    2    0    0 -0.25247829082E+02  0.33115788142E+02  0.17175710336E+02  0.46142319595E+02  0.10000016721E+02 0.  0.
         12    1    1    2    0    0  0.25247829082E+02 -0.33115788142E+02 -0.17175710336E+02  0.45045680405E+02  0.00000000000E+00 0. -1.
         11    1    3    3    0    0 -0.85723839480E+01  0.11278061198E+02  0.11346782818E+01  0.14211541999E+02  0.51100000000E-03 0. -1.
        -11    1    3    3    0    0 -0.97844549957E+01  0.11690932338E+02  0.10221955510E+02  0.18354885813E+02  0.51100000000E-03 0.  1.
         12    1    3    3    0    0 -0.68909901388E+01  0.10146794607E+02  0.58190765438E+01  0.13575891783E+02  0.00000000000E+00 0. -1.
</event>
<event>
 7    1  0.1381440E-008  0.4614232E+02  0.7816164E-02  0.1320468E+00
        -11   -1    0    0    0    0  0.00000000000E+00  0.00000000000E+00  0.45593999997E+02  0.45594000000E+02  0.51100000000E-03 0. -1.
         11   -1    0    0    0    0 -0.00000000000E+00 -0.00000000000E+00 -0.45593999997E+02  0.45594000000E+02  0.51100000000E-03 0.  1.
    9900012    2    1    2    0    0 -0.32358803995E+02 -0.31333447525E+02 -0.48622287129E+00  0.46142317161E+02  0.99999945241E+01 0.  0.
         12    1    1    2    0    0  0.32358803995E+02  0.31333447525E+02  0.48622287129E+00  0.45045682839E+02  0.00000000000E+00 0. -1.
         11    1    3    3    0    0 -0.11791463001E+01 -0.23005262865E+01 -0.23165109969E+01  0.34711713659E+01  0.51100000000E-03 0. -1.
        -11    1    3    3    0    0 -0.16718111180E+02 -0.15062970336E+02  0.16459953425E+01  0.22563191655E+02  0.51100000000E-03 0.  1.
         12    1    3    3    0    0 -0.14461546515E+02 -0.13969950903E+02  0.18429278308E+00  0.20107954139E+02  0.00000000000E+00 0. -1.
</event>
<event>
 7    1  0.1381440E-008  0.4614231E+02  0.7816164E-02  0.1320468E+00
        -11   -1    0    0    0    0  0.00000000000E+00  0.00000000000E+00  0.45593999997E+02  0.45594000000E+02  0.51100000000E-03 0.  1.
         11   -1    0    0    0    0 -0.00000000000E+00 -0.00000000000E+00 -0.45593999997E+02  0.45594000000E+02  0.51100000000E-03 0. -1.
    9900012    2    1    2    0    0  0.29683272368E+02  0.32481755322E+02  0.96411981402E+01  0.46142314425E+02  0.99999695819E+01 0.  0.
         12    1    1    2    0    0 -0.29683272368E+02 -0.32481755322E+02 -0.96411981402E+01  0.45045685575E+02  0.00000000000E+00 0. -1.
         11    1    3    3    0    0  0.75746455553E+01  0.52638366853E+01  0.46500773118E+01  0.10329881471E+02  0.51100000000E-03 0. -1.
        -11    1    3    3    0    0  0.20752201470E+02  0.22755377251E+02  0.44527912153E+01  0.31117332944E+02  0.51100000000E-03 0.  1.
         12    1    3    3    0    0  0.13564253429E+01  0.44625413862E+01  0.53832961305E+00  0.46951000103E+01  0.00000000000E+00 0. -1.
</event>
<event>
 7    1  0.1381440E-008  0.4614232E+02  0.7816164E-02  0.1320468E+00
        -11   -1    0    0    0    0  0.00000000000E+00  0.00000000000E+00  0.45593999997E+02  0.45594000000E+02  0.51100000000E-03 0. -1.
         11   -1    0    0    0    0 -0.00000000000E+00 -0.00000000000E+00 -0.45593999997E+02  0.45594000000E+02  0.51100000000E-03 0.  1.
    9900012    2    1    2    0    0  0.29505001009E+02 -0.33639389050E+02 -0.51922976728E+01  0.46142317240E+02  0.99999952468E+01 0.  0.
         12    1    1    2    0    0 -0.29505001009E+02  0.33639389050E+02  0.51922976728E+01  0.45045682760E+02  0.00000000000E+00 0. -1.
         11    1    3    3    0    0  0.10300510310E+02 -0.94332843302E+01  0.18621414209E+01  0.14090952304E+02  0.51100000000E-03 0. -1.
        -11    1    3    3    0    0  0.24518429534E+01 -0.60718024739E+01 -0.91960278844E+00  0.66124117159E+01  0.51100000000E-03 0.  1.
         12    1    3    3    0    0  0.16752647745E+02 -0.18134302246E+02 -0.61348363052E+01  0.25438953220E+02  0.00000000000E+00 0. -1.
</event>
<event>
 7    1  0.1381440E-008  0.4614232E+02  0.7816164E-02  0.1320468E+00
        -11   -1    0    0    0    0  0.00000000000E+00  0.00000000000E+00  0.45593999997E+02  0.45594000000E+02  0.51100000000E-03 0.  1.
         11   -1    0    0    0    0 -0.00000000000E+00 -0.00000000000E+00 -0.45593999997E+02  0.45594000000E+02  0.51100000000E-03 0. -1.
    9900012    2    1    2    0    0 -0.20563439055E+02 -0.12031751639E+01  0.40060086632E+02  0.46142320993E+02  0.10000029468E+02 0.  0.
         12    1    1    2    0    0  0.20563439055E+02  0.12031751639E+01 -0.40060086632E+02  0.45045679007E+02  0.00000000000E+00 0. -1.
         11    1    3    3    0    0  0.22846443532E+00  0.96460853592E+00  0.19394962967E+01  0.21781441118E+01  0.51100000000E-03 0. -1.
        -11    1    3    3    0    0 -0.11206605662E+02  0.15831184920E+01  0.16376326269E+02  0.19906740993E+02  0.51100000000E-03 0.  1.
        -12    1    3    3    0    0 -0.95852978283E+01 -0.37509021918E+01  0.21744264067E+02  0.24057435888E+02  0.00000000000E+00 0.  1.
</event>
<event>
 7    1  0.1381440E-008  0.4614231E+02  0.7816164E-02  0.1320468E+00
        -11   -1    0    0    0    0  0.00000000000E+00  0.00000000000E+00  0.45593999997E+02  0.45594000000E+02  0.51100000000E-03 0. -1.
         11   -1    0    0    0    0 -0.00000000000E+00 -0.00000000000E+00 -0.45593999997E+02  0.45594000000E+02  0.51100000000E-03 0.  1.
    9900012    2    1    2    0    0  0.19129907721E+02 -0.32164792777E+02 -0.25071629691E+02  0.46142313423E+02  0.99999604403E+01 0.  0.
         12    1    1    2    0    0 -0.19129907721E+02  0.32164792777E+02  0.25071629691E+02  0.45045686577E+02  0.00000000000E+00 0. -1.
         11    1    3    3    0    0  0.52154992253E+01 -0.11024080929E+02 -0.59643267427E+01  0.13575897254E+02  0.51100000000E-03 0. -1.
        -11    1    3    3    0    0  0.94058672355E+01 -0.75904163525E+01 -0.90679165162E+01  0.15109992358E+02  0.51100000000E-03 0.  1.
        -12    1    3    3    0    0  0.45085412606E+01 -0.13550295495E+02 -0.10039386432E+02  0.17456423810E+02  0.00000000000E+00 0.  1.
</event>
<event>
 7    1  0.1381440E-008  0.4614232E+02  0.7816164E-02  0.1320468E+00
        -11   -1    0    0    0    0  0.00000000000E+00  0.00000000000E+00  0.45593999997E+02  0.45594000000E+02  0.51100000000E-03 0.  1.
         11   -1    0    0    0    0 -0.00000000000E+00 -0.00000000000E+00 -0.45593999997E+02  0.45594000000E+02  0.51100000000E-03 0. -1.
    9900012    2    1    2    0    0 -0.83829236288E+01 -0.19728039124E+02  0.39618732532E+02  0.46142324251E+02  0.10000059180E+02 0.  0.
         12    1    1    2    0    0  0.83829236288E+01  0.19728039124E+02 -0.39618732532E+02  0.45045675749E+02  0.00000000000E+00 0. -1.
         11    1    3    3    0    0  0.16831287742E+00 -0.59164191580E+00 -0.30996454584E+00  0.68880161298E+00  0.51100000000E-03 0. -1.
        -11    1    3    3    0    0 -0.16915098928E+01 -0.10449666718E+02  0.21275794434E+02  0.23763757475E+02  0.51100000000E-03 0.  1.
        -12    1    3    3    0    0 -0.68597266134E+01 -0.86867304897E+01  0.18652902643E+02  0.21689765163E+02  0.00000000000E+00 0.  1.
</event>
<event>
 7    1  0.1381440E-008  0.4614232E+02  0.7816164E-02  0.1320468E+00
        -11   -1    0    0    0    0  0.00000000000E+00  0.00000000000E+00  0.45593999997E+02  0.45594000000E+02  0.51100000000E-03 0.  1.
         11   -1    0    0    0    0 -0.00000000000E+00 -0.00000000000E+00 -0.45593999997E+02  0.45594000000E+02  0.51100000000E-03 0. -1.
    9900012    2    1    2    0    0  0.30304290730E+02  0.32893937775E+02 -0.53621195420E+01  0.46142317577E+02  0.99999983196E+01 0.  0.
         12    1    1    2    0    0 -0.30304290730E+02 -0.32893937775E+02  0.53621195420E+01  0.45045682423E+02  0.00000000000E+00 0. -1.
         11    1    3    3    0    0  0.16276547418E+01  0.24304388313E+00 -0.14623452847E+01  0.22015413420E+01  0.51100000000E-03 0. -1.
        -11    1    3    3    0    0  0.14403095043E+02  0.19663665836E+02 -0.73621145340E+00  0.24385465107E+02  0.51100000000E-03 0.  1.
         12    1    3    3    0    0  0.14273540945E+02  0.12987228056E+02 -0.31635628039E+01  0.19555311128E+02  0.00000000000E+00 0. -1.
</event>
<event>
 7    1  0.1381440E-008  0.4614232E+02  0.7816164E-02  0.1320468E+00
        -11   -1    0    0    0    0  0.00000000000E+00  0.00000000000E+00  0.45593999997E+02  0.45594000000E+02  0.51100000000E-03 0.  1.
         11   -1    0    0    0    0 -0.00000000000E+00 -0.00000000000E+00 -0.45593999997E+02  0.45594000000E+02  0.51100000000E-03 0. -1.
    9900012    2    1    2    0    0  0.35807314110E+02 -0.76135487399E+01  0.26248497999E+02  0.46142317461E+02  0.99999972666E+01 0.  0.
         12    1    1    2    0    0 -0.35807314110E+02  0.76135487399E+01 -0.26248497999E+02  0.45045682539E+02  0.00000000000E+00 0. -1.
         11    1    3    3    0    0  0.47442714685E+01  0.46578870632E+00  0.74171588845E+01  0.88169902498E+01  0.51100000000E-03 0. -1.
        -11    1    3    3    0    0  0.25821310223E+02 -0.55776350073E+01  0.15287726113E+02  0.30521543930E+02  0.51100000000E-03 0.  1.
         12    1    3    3    0    0  0.52417324182E+01 -0.25017024389E+01  0.35436130009E+01  0.68037832812E+01  0.00000000000E+00 0. -1.
</event>
<event>
 7    1  0.1381440E-008  0.4614232E+02  0.7816164E-02  0.1320468E+00
        -11   -1    0    0    0    0  0.00000000000E+00  0.00000000000E+00  0.45593999997E+02  0.45594000000E+02  0.51100000000E-03 0. -1.
         11   -1    0    0    0    0 -0.00000000000E+00 -0.00000000000E+00 -0.45593999997E+02  0.45594000000E+02  0.51100000000E-03 0.  1.
    9900012    2    1    2    0    0 -0.70170535684E+01  0.20841071326E+02 -0.39313155888E+02  0.46142317402E+02  0.99999967271E+01 0.  0.
         12    1    1    2    0    0  0.70170535684E+01 -0.20841071326E+02  0.39313155888E+02  0.45045682598E+02  0.00000000000E+00 0. -1.
         11    1    3    3    0    0 -0.47016439565E+01  0.23480991539E+01 -0.10160840688E+02  0.11439480289E+02  0.51100000000E-03 0. -1.
        -11    1    3    3    0    0 -0.22869763998E+00  0.80003937354E+01 -0.14476082129E+02  0.16541328744E+02  0.51100000000E-03 0.  1.
         12    1    3    3    0    0 -0.20867119719E+01  0.10492578437E+02 -0.14676233071E+02  0.18161508370E+02  0.00000000000E+00 0. -1.
</event>
<event>
 7    1  0.1381440E-008  0.4614232E+02  0.7816164E-02  0.1320468E+00
        -11   -1    0    0    0    0  0.00000000000E+00  0.00000000000E+00  0.45593999997E+02  0.45594000000E+02  0.51100000000E-03 0.  1.
         11   -1    0    0    0    0 -0.00000000000E+00 -0.00000000000E+00 -0.45593999997E+02  0.45594000000E+02  0.51100000000E-03 0. -1.
    9900012    2    1    2    0    0 -0.12510141632E+02  0.14840557872E+02  0.40649326561E+02  0.46142317060E+02  0.99999936097E+01 0.  0.
         12    1    1    2    0    0  0.12510141632E+02 -0.14840557872E+02 -0.40649326561E+02  0.45045682940E+02  0.00000000000E+00 0. -1.
         11    1    3    3    0    0  0.26640758363E+00  0.23535472132E+01  0.27947680439E+01  0.36634527655E+01  0.51100000000E-03 0. -1.
        -11    1    3    3    0    0 -0.11942821146E+02  0.11537749569E+02  0.37713622216E+02  0.41207619962E+02  0.51100000000E-03 0.  1.
        -12    1    3    3    0    0 -0.83372806945E+00  0.94926109042E+00  0.14093630126E+00  0.12712443324E+01  0.00000000000E+00 0.  1.
</event>
<event>
 7    1  0.1381440E-008  0.4614231E+02  0.7816164E-02  0.1320468E+00
        -11   -1    0    0    0    0  0.00000000000E+00  0.00000000000E+00  0.45593999997E+02  0.45594000000E+02  0.51100000000E-03 0.  1.
         11   -1    0    0    0    0 -0.00000000000E+00 -0.00000000000E+00 -0.45593999997E+02  0.45594000000E+02  0.51100000000E-03 0. -1.
    9900012    2    1    2    0    0  0.18832231645E+02  0.33992001054E+02 -0.22781674390E+02  0.46142314609E+02  0.99999712533E+01 0.  0.
         12    1    1    2    0    0 -0.18832231645E+02 -0.33992001054E+02  0.22781674390E+02  0.45045685391E+02  0.00000000000E+00 0. -1.
         11    1    3    3    0    0  0.11248479389E+02  0.15720970778E+02 -0.16348792060E+02  0.25317192041E+02  0.51100000000E-03 0. -1.
        -11    1    3    3    0    0  0.63404055250E+01  0.15109138767E+02 -0.57061120425E+01  0.17350692534E+02  0.51100000000E-03 0.  1.
         12    1    3    3    0    0  0.12433467306E+01  0.31618915092E+01 -0.72677028716E+00  0.34744300336E+01  0.00000000000E+00 0. -1.
</event>
<event>
 7    1  0.1381440E-008  0.4614232E+02  0.7816164E-02  0.1320468E+00
        -11   -1    0    0    0    0  0.00000000000E+00  0.00000000000E+00  0.45593999997E+02  0.45594000000E+02  0.51100000000E-03 0. -1.
         11   -1    0    0    0    0 -0.00000000000E+00 -0.00000000000E+00 -0.45593999997E+02  0.45594000000E+02  0.51100000000E-03 0.  1.
    9900012    2    1    2    0    0 -0.14174767289E+02  0.28100106293E+02 -0.32226903717E+02  0.46142319579E+02  0.10000016581E+02 0.  0.
         12    1    1    2    0    0  0.14174767289E+02 -0.28100106293E+02  0.32226903717E+02  0.45045680421E+02  0.00000000000E+00 0. -1.
         11    1    3    3    0    0 -0.45044301843E+01  0.62211051988E+01 -0.11336736369E+02  0.13693561733E+02  0.51100000000E-03 0. -1.
        -11    1    3    3    0    0 -0.80165551815E+01  0.21736899402E+02 -0.19390159011E+02  0.30211524611E+02  0.51100000000E-03 0.  1.
        -12    1    3    3    0    0 -0.16537819231E+01  0.14210169282E+00 -0.15000083366E+01  0.22372332355E+01  0.00000000000E+00 0.  1.
</event>
<event>
 7    1  0.1381440E-008  0.4614232E+02  0.7816164E-02  0.1320468E+00
        -11   -1    0    0    0    0  0.00000000000E+00  0.00000000000E+00  0.45593999997E+02  0.45594000000E+02  0.51100000000E-03 0. -1.
         11   -1    0    0    0    0 -0.00000000000E+00 -0.00000000000E+00 -0.45593999997E+02  0.45594000000E+02  0.51100000000E-03 0.  1.
    9900012    2    1    2    0    0 -0.13572217394E+02 -0.42710636192E+02  0.45508132289E+01  0.46142318409E+02  0.10000005912E+02 0.  0.
         12    1    1    2    0    0  0.13572217394E+02  0.42710636192E+02 -0.45508132289E+01  0.45045681591E+02  0.00000000000E+00 0. -1.
         11    1    3    3    0    0 -0.98754468498E+01 -0.22273735698E+02  0.44301967755E+01  0.24764296803E+02  0.51100000000E-03 0. -1.
        -11    1    3    3    0    0 -0.35950357348E+01 -0.20743797001E+02  0.14811460652E+00  0.21053534957E+02  0.51100000000E-03 0.  1.
        -12    1    3    3    0    0 -0.10173480892E+00  0.30689650710E+00 -0.27498153144E-01  0.32448664971E+00  0.00000000000E+00 0.  1.
</event>
<event>
 7    1  0.1381440E-008  0.4614232E+02  0.7816164E-02  0.1320468E+00
        -11   -1    0    0    0    0  0.00000000000E+00  0.00000000000E+00  0.45593999997E+02  0.45594000000E+02  0.51100000000E-03 0. -1.
         11   -1    0    0    0    0 -0.00000000000E+00 -0.00000000000E+00 -0.45593999997E+02  0.45594000000E+02  0.51100000000E-03 0.  1.
    9900012    2    1    2    0    0 -0.32096721527E+02  0.15678706806E+02 -0.27442522367E+02  0.46142318589E+02  0.10000007553E+02 0.  0.
         12    1    1    2    0    0  0.32096721527E+02 -0.15678706806E+02  0.27442522367E+02  0.45045681411E+02  0.00000000000E+00 0. -1.
         11    1    3    3    0    0 -0.14439811654E+02  0.64743488281E+01 -0.17153157224E+02  0.23337869576E+02  0.51100000000E-03 0. -1.
        -11    1    3    3    0    0 -0.44652590272E+01  0.91451161683E+00 -0.37710132600E+01  0.59156919245E+01  0.51100000000E-03 0.  1.
         12    1    3    3    0    0 -0.13191650846E+02  0.82898463611E+01 -0.65183518829E+01  0.16888757089E+02  0.00000000000E+00 0. -1.
</event>
<event>
 7    1  0.1381440E-008  0.4614232E+02  0.7816164E-02  0.1320468E+00
        -11   -1    0    0    0    0  0.00000000000E+00  0.00000000000E+00  0.45593999997E+02  0.45594000000E+02  0.51100000000E-03 0. -1.
         11   -1    0    0    0    0 -0.00000000000E+00 -0.00000000000E+00 -0.45593999997E+02  0.45594000000E+02  0.51100000000E-03 0.  1.
    9900012    2    1    2    0    0  0.64747529968E+01 -0.44356747488E+02 -0.44350834628E+01  0.46142318305E+02  0.10000004955E+02 0.  0.
         12    1    1    2    0    0 -0.64747529968E+01  0.44356747488E+02  0.44350834628E+01  0.45045681695E+02  0.00000000000E+00 0. -1.
         11    1    3    3    0    0  0.46274935371E+01 -0.13232206018E+02 -0.92420340095E+00  0.14048456312E+02  0.51100000000E-03 0. -1.
        -11    1    3    3    0    0 -0.17785424049E+01 -0.16563901093E+02 -0.37949229238E+01  0.17085885191E+02  0.51100000000E-03 0.  1.
        -12    1    3    3    0    0  0.36258018646E+01 -0.14560640376E+02  0.28404286198E+00  0.15007976802E+02  0.00000000000E+00 0.  1.
</event>
<event>
 7    1  0.1381440E-008  0.4614232E+02  0.7816164E-02  0.1320468E+00
        -11   -1    0    0    0    0  0.00000000000E+00  0.00000000000E+00  0.45593999997E+02  0.45594000000E+02  0.51100000000E-03 0.  1.
         11   -1    0    0    0    0 -0.00000000000E+00 -0.00000000000E+00 -0.45593999997E+02  0.45594000000E+02  0.51100000000E-03 0. -1.
    9900012    2    1    2    0    0  0.27089772870E+02 -0.26821130551E+02  0.23997595703E+02  0.46142318323E+02  0.10000005124E+02 0.  0.
         12    1    1    2    0    0 -0.27089772870E+02  0.26821130551E+02 -0.23997595703E+02  0.45045681677E+02  0.00000000000E+00 0. -1.
         11    1    3    3    0    0  0.30783884625E+01 -0.10313795634E+01  0.11410753057E+01  0.34412602988E+01  0.51100000000E-03 0. -1.
        -11    1    3    3    0    0  0.25475282385E+01 -0.21231910085E+01 -0.16585118702E+00  0.33204438050E+01  0.51100000000E-03 0.  1.
        -12    1    3    3    0    0  0.21463856169E+02 -0.23666559979E+02  0.23022371585E+02  0.39380614219E+02  0.00000000000E+00 0.  1.
</event>
<event>
 7    1  0.1381440E-008  0.4614232E+02  0.7816164E-02  0.1320468E+00
        -11   -1    0    0    0    0  0.00000000000E+00  0.00000000000E+00  0.45593999997E+02  0.45594000000E+02  0.51100000000E-03 0. -1.
         11   -1    0    0    0    0 -0.00000000000E+00 -0.00000000000E+00 -0.45593999997E+02  0.45594000000E+02  0.51100000000E-03 0.  1.
    9900012    2    1    2    0    0  0.44532366506E+02  0.48585086380E+00  0.67635692078E+01  0.46142316676E+02  0.99999901072E+01 0.  0.
         12    1    1    2    0    0 -0.44532366506E+02 -0.48585086380E+00 -0.67635692078E+01  0.45045683324E+02  0.00000000000E+00 0. -1.
         11    1    3    3    0    0  0.62963048557E+01  0.49053375829E+00  0.40181507438E+01  0.74852931716E+01  0.51100000000E-03 0. -1.
        -11    1    3    3    0    0  0.17895924630E+02  0.12697061398E+01 -0.85563990286E+00  0.17961302624E+02  0.51100000000E-03 0.  1.
         12    1    3    3    0    0  0.20340137020E+02 -0.12743890342E+01  0.36010583669E+01  0.20695720881E+02  0.00000000000E+00 0. -1.
</event>
<event>
 7    1  0.1381440E-008  0.4614232E+02  0.7816164E-02  0.1320468E+00
        -11   -1    0    0    0    0  0.00000000000E+00  0.00000000000E+00  0.45593999997E+02  0.45594000000E+02  0.51100000000E-03 0.  1.
         11   -1    0    0    0    0 -0.00000000000E+00 -0.00000000000E+00 -0.45593999997E+02  0.45594000000E+02  0.51100000000E-03 0. -1.
    9900012    2    1    2    0    0 -0.34753301321E+02  0.21448928572E+02  0.19006972228E+02  0.46142317823E+02  0.10000000561E+02 0.  0.
         12    1    1    2    0    0  0.34753301321E+02 -0.21448928572E+02 -0.19006972228E+02  0.45045682177E+02  0.00000000000E+00 0. -1.
         11    1    3    3    0    0 -0.22176827552E+02  0.15708272615E+02  0.13976472153E+02  0.30559831200E+02  0.51100000000E-03 0.  1.
        -11    1    3    3    0    0 -0.69710057888E+01  0.25476948801E+01  0.32846838984E-01  0.74220448722E+01  0.51100000000E-03 0. -1.
         12    1    3    3    0    0 -0.56054679793E+01  0.31929610766E+01  0.49976532356E+01  0.81604417507E+01  0.00000000000E+00 0. -1.
</event>
<event>
 7    1  0.1381440E-008  0.4614232E+02  0.7816164E-02  0.1320468E+00
        -11   -1    0    0    0    0  0.00000000000E+00  0.00000000000E+00  0.45593999997E+02  0.45594000000E+02  0.51100000000E-03 0.  1.
         11   -1    0    0    0    0 -0.00000000000E+00 -0.00000000000E+00 -0.45593999997E+02  0.45594000000E+02  0.51100000000E-03 0. -1.
    9900012    2    1    2    0    0  0.20290263894E+02 -0.39832444137E+02  0.55493151886E+01  0.46142319698E+02  0.10000017658E+02 0.  0.
         12    1    1    2    0    0 -0.20290263894E+02  0.39832444137E+02 -0.55493151886E+01  0.45045680302E+02  0.00000000000E+00 0. -1.
         11    1    3    3    0    0  0.36670665471E+01 -0.13047853976E+02  0.13376495848E+01  0.13619220871E+02  0.51100000000E-03 0. -1.
        -11    1    3    3    0    0  0.69496747774E+01 -0.14705413359E+02 -0.72055604471E+00  0.16280858787E+02  0.51100000000E-03 0.  1.
        -12    1    3    3    0    0  0.96735225700E+01 -0.12079176802E+02  0.49322216485E+01  0.16242240040E+02  0.00000000000E+00 0.  1.
</event>
<event>
 7    1  0.1381440E-008  0.4614232E+02  0.7816164E-02  0.1320468E+00
        -11   -1    0    0    0    0  0.00000000000E+00  0.00000000000E+00  0.45593999997E+02  0.45594000000E+02  0.51100000000E-03 0. -1.
         11   -1    0    0    0    0 -0.00000000000E+00 -0.00000000000E+00 -0.45593999997E+02  0.45594000000E+02  0.51100000000E-03 0.  1.
    9900012    2    1    2    0    0 -0.36457059409E+02 -0.12444093936E+02  0.23348253566E+02  0.46142316531E+02  0.99999887802E+01 0.  0.
         12    1    1    2    0    0  0.36457059409E+02  0.12444093936E+02 -0.23348253566E+02  0.45045683469E+02  0.00000000000E+00 0. -1.
         11    1    3    3    0    0  0.42197140469E-01 -0.64303775823E-01  0.20714388956E+01  0.20728663569E+01  0.51100000000E-03 0. -1.
        -11    1    3    3    0    0 -0.16477957914E+02 -0.62599228673E+01  0.10595681334E+02  0.20566433685E+02  0.51100000000E-03 0.  1.
         12    1    3    3    0    0 -0.20021298635E+02 -0.61198672930E+01  0.10681133336E+02  0.23503016489E+02  0.00000000000E+00 0. -1.
</event>
<event>
 7    1  0.1381440E-008  0.4614232E+02  0.7816164E-02  0.1320468E+00
        -11   -1    0    0    0    0  0.00000000000E+00  0.00000000000E+00  0.45593999997E+02  0.45594000000E+02  0.51100000000E-03 0. -1.
         11   -1    0    0    0    0 -0.00000000000E+00 -0.00000000000E+00 -0.45593999997E+02  0.45594000000E+02  0.51100000000E-03 0.  1.
    9900012    2    1    2    0    0  0.23369174038E+02  0.31507812996E+02 -0.22141656366E+02  0.46142317392E+02  0.99999966346E+01 0.  0.
         12    1    1    2    0    0 -0.23369174038E+02 -0.31507812996E+02  0.22141656366E+02  0.45045682608E+02  0.00000000000E+00 0. -1.
         11    1    3    3    0    0  0.91289234211E+01  0.90986593703E+01 -0.12043210806E+02  0.17639778115E+02  0.51100000000E-03 0. -1.
        -11    1    3    3    0    0  0.10983289265E+02  0.18769105157E+02 -0.77858848761E+01  0.23098310653E+02  0.51100000000E-03 0.  1.
        -12    1    3    3    0    0  0.32569613519E+01  0.36400484686E+01 -0.23125606831E+01  0.54042286235E+01  0.00000000000E+00 0.  1.
</event>
<event>
 7    1  0.1381440E-008  0.4614232E+02  0.7816164E-02  0.1320468E+00
        -11   -1    0    0    0    0  0.00000000000E+00  0.00000000000E+00  0.45593999997E+02  0.45594000000E+02  0.51100000000E-03 0.  1.
         11   -1    0    0    0    0 -0.00000000000E+00 -0.00000000000E+00 -0.45593999997E+02  0.45594000000E+02  0.51100000000E-03 0. -1.
    9900012    2    1    2    0    0 -0.38134924563E+01  0.28315883626E+02  0.34825013376E+02  0.46142317112E+02  0.99999940782E+01 0.  0.
         12    1    1    2    0    0  0.38134924563E+01 -0.28315883626E+02 -0.34825013376E+02  0.45045682888E+02  0.00000000000E+00 0. -1.
         11    1    3    3    0    0 -0.33339714833E+01  0.52798956904E+01  0.65719305879E+01  0.90654804763E+01  0.51100000000E-03 0. -1.
        -11    1    3    3    0    0 -0.19624134189E+01  0.16806812901E+02  0.24091295767E+02  0.29439948341E+02  0.51100000000E-03 0.  1.
        -12    1    3    3    0    0  0.14828924459E+01  0.62291750340E+01  0.41617870213E+01  0.76368882944E+01  0.00000000000E+00 0.  1.
</event>
<event>
 7    1  0.1381440E-008  0.4614232E+02  0.7816164E-02  0.1320468E+00
        -11   -1    0    0    0    0  0.00000000000E+00  0.00000000000E+00  0.45593999997E+02  0.45594000000E+02  0.51100000000E-03 0.  1.
         11   -1    0    0    0    0 -0.00000000000E+00 -0.00000000000E+00 -0.45593999997E+02  0.45594000000E+02  0.51100000000E-03 0. -1.
    9900012    2    1    2    0    0 -0.38126589209E+01  0.26955194347E+02  0.35888640960E+02  0.46142318517E+02  0.10000006889E+02 0.  0.
         12    1    1    2    0    0  0.38126589209E+01 -0.26955194347E+02 -0.35888640960E+02  0.45045681483E+02  0.00000000000E+00 0. -1.
         11    1    3    3    0    0  0.18543621262E+01  0.75624255625E+01  0.58345965864E+01  0.97299258410E+01  0.51100000000E-03 0. -1.
        -11    1    3    3    0    0 -0.26444159622E+01  0.14442521970E+02  0.22896790996E+02  0.27200044390E+02  0.51100000000E-03 0.  1.
         12    1    3    3    0    0 -0.30226050849E+01  0.49502468149E+01  0.71572533780E+01  0.92123482861E+01  0.00000000000E+00 0. -1.
</event>
<event>
 7    1  0.1381440E-008  0.4614232E+02  0.7816164E-02  0.1320468E+00
        -11   -1    0    0    0    0  0.00000000000E+00  0.00000000000E+00  0.45593999997E+02  0.45594000000E+02  0.51100000000E-03 0.  1.
         11   -1    0    0    0    0 -0.00000000000E+00 -0.00000000000E+00 -0.45593999997E+02  0.45594000000E+02  0.51100000000E-03 0. -1.
    9900012    2    1    2    0    0  0.25664454039E+02 -0.16405340661E+01  0.36983211614E+02  0.46142317694E+02  0.99999993863E+01 0.  0.
         12    1    1    2    0    0 -0.25664454039E+02  0.16405340661E+01 -0.36983211614E+02  0.45045682306E+02  0.00000000000E+00 0. -1.
         11    1    3    3    0    0  0.22810441348E+01  0.88714756645E+00  0.78043374764E+01  0.81791122291E+01  0.51100000000E-03 0.  1.
        -11    1    3    3    0    0  0.18259611907E+02 -0.27402748035E+01  0.18608206611E+02  0.26214268759E+02  0.51100000000E-03 0. -1.
        -12    1    3    3    0    0  0.51237979972E+01  0.21259317099E+00  0.10570667526E+02  0.11748936706E+02  0.00000000000E+00 0.  1.
</event>
<event>
 7    1  0.1381440E-008  0.4614232E+02  0.7816164E-02  0.1320468E+00
        -11   -1    0    0    0    0  0.00000000000E+00  0.00000000000E+00  0.45593999997E+02  0.45594000000E+02  0.51100000000E-03 0. -1.
         11   -1    0    0    0    0 -0.00000000000E+00 -0.00000000000E+00 -0.45593999997E+02  0.45594000000E+02  0.51100000000E-03 0.  1.
    9900012    2    1    2    0    0 -0.28609823311E+02 -0.28751149292E+02 -0.19594964808E+02  0.46142320725E+02  0.10000027026E+02 0.  0.
         12    1    1    2    0    0  0.28609823311E+02  0.28751149292E+02  0.19594964808E+02  0.45045679275E+02  0.00000000000E+00 0. -1.
         11    1    3    3    0    0  0.34952293547E+00 -0.62084128726E+00  0.10202851011E+00  0.71973624640E+00  0.51100000000E-03 0.  1.
        -11    1    3    3    0    0 -0.94060651270E+01 -0.84443760588E+01 -0.28358346454E+01  0.12954671227E+02  0.51100000000E-03 0. -1.
        -12    1    3    3    0    0 -0.19553281120E+02 -0.19685931946E+02 -0.16861158673E+02  0.32467913252E+02  0.00000000000E+00 0.  1.
</event>
<event>
 7    1  0.1381440E-008  0.4614232E+02  0.7816164E-02  0.1320468E+00
        -11   -1    0    0    0    0  0.00000000000E+00  0.00000000000E+00  0.45593999997E+02  0.45594000000E+02  0.51100000000E-03 0.  1.
         11   -1    0    0    0    0 -0.00000000000E+00 -0.00000000000E+00 -0.45593999997E+02  0.45594000000E+02  0.51100000000E-03 0. -1.
    9900012    2    1    2    0    0  0.82553564500E+01 -0.16085880209E+02  0.41257812338E+02  0.46142317286E+02  0.99999956690E+01 0.  0.
         12    1    1    2    0    0 -0.82553564500E+01  0.16085880209E+02 -0.41257812338E+02  0.45045682714E+02  0.00000000000E+00 0. -1.
         11    1    3    3    0    0  0.22058400677E+01 -0.61915103656E+00  0.26744546811E+01  0.35216170310E+01  0.51100000000E-03 0. -1.
        -11    1    3    3    0    0  0.67037881075E+01 -0.15692854003E+02  0.34619411508E+02  0.38596762755E+02  0.51100000000E-03 0.  1.
        -12    1    3    3    0    0 -0.65427172523E+00  0.22612483111E+00  0.39639461489E+01  0.40239374997E+01  0.00000000000E+00 0.  1.
</event>
<event>
 7    1  0.1381440E-008  0.4614232E+02  0.7816164E-02  0.1320468E+00
        -11   -1    0    0    0    0  0.00000000000E+00  0.00000000000E+00  0.45593999997E+02  0.45594000000E+02  0.51100000000E-03 0.  1.
         11   -1    0    0    0    0 -0.00000000000E+00 -0.00000000000E+00 -0.45593999997E+02  0.45594000000E+02  0.51100000000E-03 0. -1.
    9900012    2    1    2    0    0  0.10091951624E+02  0.16829885883E+02  0.40546526777E+02  0.46142318963E+02  0.10000010964E+02 0.  0.
         12    1    1    2    0    0 -0.10091951624E+02 -0.16829885883E+02 -0.40546526777E+02  0.45045681037E+02  0.00000000000E+00 0. -1.
         11    1    3    3    0    0  0.14129846683E+01  0.38271146072E+01  0.45984683577E+01  0.61472956158E+01  0.51100000000E-03 0. -1.
        -11    1    3    3    0    0  0.82610945033E+01  0.11255785554E+02  0.35495324402E+02  0.38142580477E+02  0.51100000000E-03 0.  1.
        -12    1    3    3    0    0  0.41787245234E+00  0.17469857214E+01  0.45273401707E+00  0.18524428702E+01  0.00000000000E+00 0.  1.
</event>
<event>
 7    1  0.1381440E-008  0.4614232E+02  0.7816164E-02  0.1320468E+00
        -11   -1    0    0    0    0  0.00000000000E+00  0.00000000000E+00  0.45593999997E+02  0.45594000000E+02  0.51100000000E-03 0.  1.
         11   -1    0    0    0    0 -0.00000000000E+00 -0.00000000000E+00 -0.45593999997E+02  0.45594000000E+02  0.51100000000E-03 0. -1.
    9900012    2    1    2    0    0  0.20177245557E+02  0.35608850980E+02  0.18814942176E+02  0.46142317016E+02  0.99999932076E+01 0.  0.
         12    1    1    2    0    0 -0.20177245557E+02 -0.35608850980E+02 -0.18814942176E+02  0.45045682984E+02  0.00000000000E+00 0. -1.
         11    1    3    3    0    0  0.10850454192E+02  0.26241519898E+02  0.11744181175E+02  0.30729066281E+02  0.51100000000E-03 0.  1.
        -11    1    3    3    0    0  0.73705019377E+01  0.83800264681E+01  0.44947529311E+01  0.12031290313E+02  0.51100000000E-03 0. -1.
         12    1    3    3    0    0  0.19562894270E+01  0.98730461353E+00  0.25760080705E+01  0.33819604228E+01  0.00000000000E+00 0. -1.
</event>
<event>
 7    1  0.1381440E-008  0.4614232E+02  0.7816164E-02  0.1320468E+00
        -11   -1    0    0    0    0  0.00000000000E+00  0.00000000000E+00  0.45593999997E+02  0.45594000000E+02  0.51100000000E-03 0.  1.
         11   -1    0    0    0    0 -0.00000000000E+00 -0.00000000000E+00 -0.45593999997E+02  0.45594000000E+02  0.51100000000E-03 0. -1.
    9900012    2    1    2    0    0  0.35396530124E+02  0.27448295235E+02  0.47739044455E+01  0.46142318522E+02  0.10000006941E+02 0.  0.
         12    1    1    2    0    0 -0.35396530124E+02 -0.27448295235E+02 -0.47739044455E+01  0.45045681478E+02  0.00000000000E+00 0. -1.
         11    1    3    3    0    0  0.23574097206E+02  0.15324160136E+02  0.11988121144E+01  0.28142585057E+02  0.51100000000E-03 0.  1.
        -11    1    3    3    0    0  0.12156016415E+02  0.11831422348E+02  0.39519686551E+01  0.17417501151E+02  0.51100000000E-03 0. -1.
         12    1    3    3    0    0 -0.33358349636E+00  0.29271275080E+00 -0.37687632399E+00  0.58223231370E+00  0.00000000000E+00 0. -1.
</event>
<event>
 7    1  0.1381440E-008  0.4614232E+02  0.7816164E-02  0.1320468E+00
        -11   -1    0    0    0    0  0.00000000000E+00  0.00000000000E+00  0.45593999997E+02  0.45594000000E+02  0.51100000000E-03 0.  1.
         11   -1    0    0    0    0 -0.00000000000E+00 -0.00000000000E+00 -0.45593999997E+02  0.45594000000E+02  0.51100000000E-03 0. -1.
    9900012    2    1    2    0    0 -0.14890360050E+01 -0.14505094458E+02  0.42620396406E+02  0.46142321148E+02  0.10000030885E+02 0.  0.
         12    1    1    2    0    0  0.14890360050E+01  0.14505094458E+02 -0.42620396406E+02  0.45045678852E+02  0.00000000000E+00 0. -1.
         11    1    3    3    0    0 -0.12305009774E+01 -0.62037194818E+01  0.11023013513E+02  0.12708544182E+02  0.51100000000E-03 0. -1.
        -11    1    3    3    0    0 -0.29726037202E+01 -0.75464298049E+01  0.23369726222E+02  0.24737200320E+02  0.51100000000E-03 0.  1.
        -12    1    3    3    0    0  0.27140686926E+01 -0.75494517149E+00  0.82276566705E+01  0.86965766465E+01  0.00000000000E+00 0.  1.
</event>
<event>
 7    1  0.1381440E-008  0.4614231E+02  0.7816164E-02  0.1320468E+00
        -11   -1    0    0    0    0  0.00000000000E+00  0.00000000000E+00  0.45593999997E+02  0.45594000000E+02  0.51100000000E-03 0.  1.
         11   -1    0    0    0    0 -0.00000000000E+00 -0.00000000000E+00 -0.45593999997E+02  0.45594000000E+02  0.51100000000E-03 0. -1.
    9900012    2    1    2    0    0 -0.30093703793E+02 -0.12531912734E+02  0.31087529954E+02  0.46142308048E+02  0.99999114271E+01 0.  0.
         12    1    1    2    0    0  0.30093703793E+02  0.12531912734E+02 -0.31087529954E+02  0.45045691952E+02  0.00000000000E+00 0. -1.
         11    1    3    3    0    0 -0.53941475952E+01 -0.10587176121E+01  0.60851085743E+01  0.82003815694E+01  0.51100000000E-03 0.  1.
        -11    1    3    3    0    0 -0.12779078841E+02 -0.12993838168E+01  0.10520084328E+02  0.16603175264E+02  0.51100000000E-03 0. -1.
         12    1    3    3    0    0 -0.11920477358E+02 -0.10173811305E+02  0.14482337052E+02  0.21338751215E+02  0.00000000000E+00 0. -1.
</event>
<event>
 7    1  0.1381440E-008  0.4614232E+02  0.7816164E-02  0.1320468E+00
        -11   -1    0    0    0    0  0.00000000000E+00  0.00000000000E+00  0.45593999997E+02  0.45594000000E+02  0.51100000000E-03 0. -1.
         11   -1    0    0    0    0 -0.00000000000E+00 -0.00000000000E+00 -0.45593999997E+02  0.45594000000E+02  0.51100000000E-03 0.  1.
    9900012    2    1    2    0    0 -0.30284113436E+02 -0.47000086689E+01 -0.33013572687E+02  0.46142316637E+02  0.99999897529E+01 0.  0.
         12    1    1    2    0    0  0.30284113436E+02  0.47000086689E+01  0.33013572687E+02  0.45045683363E+02  0.00000000000E+00 0. -1.
         11    1    3    3    0    0 -0.13884182064E+01 -0.24692777376E+01 -0.48936068569E+01  0.56544165032E+01  0.51100000000E-03 0. -1.
        -11    1    3    3    0    0 -0.49182748098E+01  0.55774493590E+00 -0.56172579490E+01  0.74869281848E+01  0.51100000000E-03 0.  1.
         12    1    3    3    0    0 -0.23977420419E+02 -0.27884758672E+01 -0.22502707881E+02  0.33000971949E+02  0.00000000000E+00 0. -1.
</event>
<event>
 7    1  0.1381440E-008  0.4614232E+02  0.7816164E-02  0.1320468E+00
        -11   -1    0    0    0    0  0.00000000000E+00  0.00000000000E+00  0.45593999997E+02  0.45594000000E+02  0.51100000000E-03 0.  1.
         11   -1    0    0    0    0 -0.00000000000E+00 -0.00000000000E+00 -0.45593999997E+02  0.45594000000E+02  0.51100000000E-03 0. -1.
    9900012    2    1    2    0    0 -0.26981518088E+02  0.31647569613E+02  0.17307299728E+02  0.46142316470E+02  0.99999882311E+01 0.  0.
         12    1    1    2    0    0  0.26981518088E+02 -0.31647569613E+02 -0.17307299728E+02  0.45045683530E+02  0.00000000000E+00 0. -1.
         11    1    3    3    0    0 -0.38813159224E+01  0.79838795427E+01  0.69512301403E+01  0.11275040868E+02  0.51100000000E-03 0. -1.
        -11    1    3    3    0    0 -0.20074113490E+02  0.21567979930E+02  0.81293570586E+01  0.30565245576E+02  0.51100000000E-03 0.  1.
        -12    1    3    3    0    0 -0.30260886752E+01  0.20957101412E+01  0.22267125293E+01  0.43020300271E+01  0.00000000000E+00 0.  1.
</event>
<event>
 7    1  0.1381440E-008  0.4614232E+02  0.7816164E-02  0.1320468E+00
        -11   -1    0    0    0    0  0.00000000000E+00  0.00000000000E+00  0.45593999997E+02  0.45594000000E+02  0.51100000000E-03 0.  1.
         11   -1    0    0    0    0 -0.00000000000E+00 -0.00000000000E+00 -0.45593999997E+02  0.45594000000E+02  0.51100000000E-03 0. -1.
    9900012    2    1    2    0    0 -0.23939351430E+02 -0.38068691068E+02  0.26068579246E+01  0.46142317691E+02  0.99999993569E+01 0.  0.
         12    1    1    2    0    0  0.23939351430E+02  0.38068691068E+02 -0.26068579246E+01  0.45045682309E+02  0.00000000000E+00 0. -1.
         11    1    3    3    0    0 -0.43116560706E+01 -0.56635827225E+01 -0.21912612290E+01  0.74476958424E+01  0.51100000000E-03 0. -1.
        -11    1    3    3    0    0 -0.18965371264E+02 -0.28329686342E+02  0.54171387955E+01  0.34519586156E+02  0.51100000000E-03 0.  1.
         12    1    3    3    0    0 -0.66232409524E+00 -0.40754220035E+01 -0.61901964188E+00  0.41750356922E+01  0.00000000000E+00 0. -1.
</event>
<event>
 7    1  0.1381440E-008  0.4614232E+02  0.7816164E-02  0.1320468E+00
        -11   -1    0    0    0    0  0.00000000000E+00  0.00000000000E+00  0.45593999997E+02  0.45594000000E+02  0.51100000000E-03 0.  1.
         11   -1    0    0    0    0 -0.00000000000E+00 -0.00000000000E+00 -0.45593999997E+02  0.45594000000E+02  0.51100000000E-03 0. -1.
    9900012    2    1    2    0    0  0.33151240729E+02  0.78507342384E+00  0.30487577239E+02  0.46142317987E+02  0.10000002060E+02 0.  0.
         12    1    1    2    0    0 -0.33151240729E+02 -0.78507342384E+00 -0.30487577239E+02  0.45045682013E+02  0.00000000000E+00 0. -1.
         11    1    3    3    0    0  0.18286593452E+02  0.26820481977E+01  0.16425636679E+02  0.24726391228E+02  0.51100000000E-03 0. -1.
        -11    1    3    3    0    0  0.75831554413E+01  0.20066295896E+01  0.76613492929E+01  0.10964811079E+02  0.51100000000E-03 0.  1.
         12    1    3    3    0    0  0.72814918355E+01 -0.39036043635E+01  0.64005912674E+01  0.10451115680E+02  0.00000000000E+00 0. -1.
</event>
<event>
 7    1  0.1381440E-008  0.4614232E+02  0.7816164E-02  0.1320468E+00
        -11   -1    0    0    0    0  0.00000000000E+00  0.00000000000E+00  0.45593999997E+02  0.45594000000E+02  0.51100000000E-03 0.  1.
         11   -1    0    0    0    0 -0.00000000000E+00 -0.00000000000E+00 -0.45593999997E+02  0.45594000000E+02  0.51100000000E-03 0. -1.
    9900012    2    1    2    0    0  0.25097044956E+02  0.37060650090E+02 -0.50754408915E+01  0.46142317068E+02  0.99999936759E+01 0.  0.
         12    1    1    2    0    0 -0.25097044956E+02 -0.37060650090E+02  0.50754408915E+01  0.45045682932E+02  0.00000000000E+00 0. -1.
         11    1    3    3    0    0  0.12202502216E+02  0.18628237573E+02 -0.43534887840E+01  0.22690640367E+02  0.51100000000E-03 0. -1.
        -11    1    3    3    0    0  0.38901468848E+01  0.10768144143E+02 -0.17510793902E+01  0.11582419884E+02  0.51100000000E-03 0.  1.
        -12    1    3    3    0    0  0.90043958551E+01  0.76642683738E+01  0.10291272828E+01  0.11869256817E+02  0.00000000000E+00 0.  1.
</event>
<event>
 7    1  0.1381440E-008  0.4614232E+02  0.7816164E-02  0.1320468E+00
        -11   -1    0    0    0    0  0.00000000000E+00  0.00000000000E+00  0.45593999997E+02  0.45594000000E+02  0.51100000000E-03 0. -1.
         11   -1    0    0    0    0 -0.00000000000E+00 -0.00000000000E+00 -0.45593999997E+02  0.45594000000E+02  0.51100000000E-03 0.  1.
    9900012    2    1    2    0    0  0.81771314776E+01  0.43769592573E+02  0.68169461495E+01  0.46142317987E+02  0.10000002063E+02 0.  0.
         12    1    1    2    0    0 -0.81771314776E+01 -0.43769592573E+02 -0.68169461495E+01  0.45045682013E+02  0.00000000000E+00 0. -1.
         11    1    3    3    0    0  0.54905445676E+01  0.18363943077E+02  0.63297847653E+01  0.20185308034E+02  0.51100000000E-03 0.  1.
        -11    1    3    3    0    0 -0.11852740119E+01  0.37576389776E+01  0.44717785951E+00  0.39654373616E+01  0.51100000000E-03 0. -1.
        -12    1    3    3    0    0  0.38718609218E+01  0.21648010518E+02  0.39983524657E-01  0.21991572592E+02  0.00000000000E+00 0.  1.
</event>
<event>
 7    1  0.1381440E-008  0.4614232E+02  0.7816164E-02  0.1320468E+00
        -11   -1    0    0    0    0  0.00000000000E+00  0.00000000000E+00  0.45593999997E+02  0.45594000000E+02  0.51100000000E-03 0. -1.
         11   -1    0    0    0    0 -0.00000000000E+00 -0.00000000000E+00 -0.45593999997E+02  0.45594000000E+02  0.51100000000E-03 0.  1.
    9900012    2    1    2    0    0  0.20725564914E+02 -0.39779476398E+02 -0.41421786182E+01  0.46142318440E+02  0.10000006190E+02 0.  0.
         12    1    1    2    0    0 -0.20725564914E+02  0.39779476398E+02  0.41421786182E+01  0.45045681560E+02  0.00000000000E+00 0. -1.
         11    1    3    3    0    0  0.10816714836E+02 -0.29944362699E+02 -0.26554727833E+01  0.31948673107E+02  0.51100000000E-03 0.  1.
        -11    1    3    3    0    0  0.34974733442E+01 -0.32118206965E+01 -0.14858418298E+01  0.49755239106E+01  0.51100000000E-03 0. -1.
        -12    1    3    3    0    0  0.64113767338E+01 -0.66232930020E+01 -0.86400508070E-03  0.92181214225E+01  0.00000000000E+00 0.  1.
</event>
<event>
 7    1  0.1381440E-008  0.4614232E+02  0.7816164E-02  0.1320468E+00
        -11   -1    0    0    0    0  0.00000000000E+00  0.00000000000E+00  0.45593999997E+02  0.45594000000E+02  0.51100000000E-03 0.  1.
         11   -1    0    0    0    0 -0.00000000000E+00 -0.00000000000E+00 -0.45593999997E+02  0.45594000000E+02  0.51100000000E-03 0. -1.
    9900012    2    1    2    0    0  0.31035699954E+01  0.36330115504E+02  0.26450028338E+02  0.46142318317E+02  0.10000005065E+02 0.  0.
         12    1    1    2    0    0 -0.31035699954E+01 -0.36330115504E+02 -0.26450028338E+02  0.45045681683E+02  0.00000000000E+00 0. -1.
         11    1    3    3    0    0 -0.73394933971E+00  0.20961194006E+02  0.18665200940E+02  0.28076681823E+02  0.51100000000E-03 0. -1.
        -11    1    3    3    0    0  0.44700007313E+01  0.11628527612E+02  0.53518340637E+01  0.13558970797E+02  0.51100000000E-03 0.  1.
        -12    1    3    3    0    0 -0.63248139613E+00  0.37403938858E+01  0.24329933341E+01  0.45066656967E+01  0.00000000000E+00 0.  1.
</event>
<event>
 7    1  0.1381440E-008  0.4614232E+02  0.7816164E-02  0.1320468E+00
        -11   -1    0    0    0    0  0.00000000000E+00  0.00000000000E+00  0.45593999997E+02  0.45594000000E+02  0.51100000000E-03 0. -1.
         11   -1    0    0    0    0 -0.00000000000E+00 -0.00000000000E+00 -0.45593999997E+02  0.45594000000E+02  0.51100000000E-03 0.  1.
    9900012    2    1    2    0    0  0.35968924082E+01 -0.43362980944E+02 -0.11654516173E+02  0.46142317647E+02  0.99999989631E+01 0.  0.
         12    1    1    2    0    0 -0.35968924082E+01  0.43362980944E+02  0.11654516173E+02  0.45045682353E+02  0.00000000000E+00 0. -1.
         11    1    3    3    0    0  0.32020074585E+01 -0.32800091254E+02 -0.90792059705E+01  0.34183780062E+02  0.51100000000E-03 0. -1.
        -11    1    3    3    0    0  0.66831772066E+00 -0.51250999965E+01  0.12338029646E+01  0.53137151379E+01  0.51100000000E-03 0.  1.
         12    1    3    3    0    0 -0.27343277103E+00 -0.54377896944E+01 -0.38091131670E+01  0.66448224476E+01  0.00000000000E+00 0. -1.
</event>
<event>
 7    1  0.1381440E-008  0.4614232E+02  0.7816164E-02  0.1320468E+00
        -11   -1    0    0    0    0  0.00000000000E+00  0.00000000000E+00  0.45593999997E+02  0.45594000000E+02  0.51100000000E-03 0.  1.
         11   -1    0    0    0    0 -0.00000000000E+00 -0.00000000000E+00 -0.45593999997E+02  0.45594000000E+02  0.51100000000E-03 0. -1.
    9900012    2    1    2    0    0 -0.37952289417E+02  0.43787678707E+01  0.23865531786E+02  0.46142317771E+02  0.10000000089E+02 0.  0.
         12    1    1    2    0    0  0.37952289417E+02 -0.43787678707E+01 -0.23865531786E+02  0.45045682229E+02  0.00000000000E+00 0. -1.
         11    1    3    3    0    0 -0.57091654514E+01 -0.85869569060E+00  0.30216789706E+01  0.65163235420E+01  0.51100000000E-03 0. -1.
        -11    1    3    3    0    0 -0.14649749441E+02  0.62542566019E+01  0.80400508410E+01  0.17843018302E+02  0.51100000000E-03 0.  1.
        -12    1    3    3    0    0 -0.17593374524E+02 -0.10167930406E+01  0.12803801974E+02  0.21782975927E+02  0.00000000000E+00 0.  1.
</event>
<event>
 7    1  0.1381440E-008  0.4614232E+02  0.7816164E-02  0.1320468E+00
        -11   -1    0    0    0    0  0.00000000000E+00  0.00000000000E+00  0.45593999997E+02  0.45594000000E+02  0.51100000000E-03 0.  1.
         11   -1    0    0    0    0 -0.00000000000E+00 -0.00000000000E+00 -0.45593999997E+02  0.45594000000E+02  0.51100000000E-03 0. -1.
    9900012    2    1    2    0    0  0.22101201220E+02  0.35635181423E+02  0.16455525138E+02  0.46142316988E+02  0.99999929523E+01 0.  0.
         12    1    1    2    0    0 -0.22101201220E+02 -0.35635181423E+02 -0.16455525138E+02  0.45045683012E+02  0.00000000000E+00 0. -1.
         11    1    3    3    0    0  0.15599478772E+02  0.22698801643E+02  0.14628324400E+02  0.31186009828E+02  0.51100000000E-03 0. -1.
        -11    1    3    3    0    0  0.32105039422E+01  0.85744027494E+01 -0.11673675711E+00  0.91564920031E+01  0.51100000000E-03 0.  1.
        -12    1    3    3    0    0  0.32912185059E+01  0.43619770304E+01  0.19439374952E+01  0.57998151567E+01  0.00000000000E+00 0.  1.
</event>
<event>
 7    1  0.1381440E-008  0.4614232E+02  0.7816164E-02  0.1320468E+00
        -11   -1    0    0    0    0  0.00000000000E+00  0.00000000000E+00  0.45593999997E+02  0.45594000000E+02  0.51100000000E-03 0.  1.
         11   -1    0    0    0    0 -0.00000000000E+00 -0.00000000000E+00 -0.45593999997E+02  0.45594000000E+02  0.51100000000E-03 0. -1.
    9900012    2    1    2    0    0  0.27137082710E+02  0.28615878839E+02  0.21767490110E+02  0.46142318682E+02  0.10000008401E+02 0.  0.
         12    1    1    2    0    0 -0.27137082710E+02 -0.28615878839E+02 -0.21767490110E+02  0.45045681318E+02  0.00000000000E+00 0. -1.
         11    1    3    3    0    0  0.15003973345E+02  0.16786946004E+02  0.12571744017E+02  0.25787002931E+02  0.51100000000E-03 0. -1.
        -11    1    3    3    0    0  0.10630017254E+02  0.11287815296E+02  0.57140313187E+01  0.16524593646E+02  0.51100000000E-03 0.  1.
         12    1    3    3    0    0  0.15030921105E+01  0.54111753866E+00  0.34817147743E+01  0.38307221060E+01  0.00000000000E+00 0. -1.
</event>
<event>
 7    1  0.1381440E-008  0.4614231E+02  0.7816164E-02  0.1320468E+00
        -11   -1    0    0    0    0  0.00000000000E+00  0.00000000000E+00  0.45593999997E+02  0.45594000000E+02  0.51100000000E-03 0. -1.
         11   -1    0    0    0    0 -0.00000000000E+00 -0.00000000000E+00 -0.45593999997E+02  0.45594000000E+02  0.51100000000E-03 0.  1.
    9900012    2    1    2    0    0  0.12691042537E+02 -0.18243739946E+02 -0.39181851705E+02  0.46142310851E+02  0.99999369850E+01 0.  0.
         12    1    1    2    0    0 -0.12691042537E+02  0.18243739946E+02  0.39181851705E+02  0.45045689149E+02  0.00000000000E+00 0. -1.
         11    1    3    3    0    0  0.84179707167E+01 -0.84163310717E+01 -0.24410613456E+02  0.27158330384E+02  0.51100000000E-03 0. -1.
        -11    1    3    3    0    0  0.52707330498E+01 -0.85323686097E+01 -0.13873679567E+02  0.17119022343E+02  0.51100000000E-03 0.  1.
        -12    1    3    3    0    0 -0.99766122982E+00 -0.12950402643E+01 -0.89755868212E+00  0.18649581238E+01  0.00000000000E+00 0.  1.
</event>
<event>
 7    1  0.1381440E-008  0.4614232E+02  0.7816164E-02  0.1320468E+00
        -11   -1    0    0    0    0  0.00000000000E+00  0.00000000000E+00  0.45593999997E+02  0.45594000000E+02  0.51100000000E-03 0.  1.
         11   -1    0    0    0    0 -0.00000000000E+00 -0.00000000000E+00 -0.45593999997E+02  0.45594000000E+02  0.51100000000E-03 0. -1.
    9900012    2    1    2    0    0  0.36686123487E+02  0.10864767933E+01  0.26116303265E+02  0.46142318913E+02  0.10000010505E+02 0.  0.
         12    1    1    2    0    0 -0.36686123487E+02 -0.10864767933E+01 -0.26116303265E+02  0.45045681087E+02  0.00000000000E+00 0. -1.
         11    1    3    3    0    0  0.98953272753E+01 -0.15814120771E+01  0.46424001735E+01  0.11044014020E+02  0.51100000000E-03 0. -1.
        -11    1    3    3    0    0  0.26993543115E+02  0.20403670234E+01  0.21201264490E+02  0.34384707120E+02  0.51100000000E-03 0.  1.
        -12    1    3    3    0    0 -0.20274690247E+00  0.62752184704E+00  0.27263860097E+00  0.71359777305E+00  0.00000000000E+00 0.  1.
</event>
<event>
 7    1  0.1381440E-008  0.4614232E+02  0.7816164E-02  0.1320468E+00
        -11   -1    0    0    0    0  0.00000000000E+00  0.00000000000E+00  0.45593999997E+02  0.45594000000E+02  0.51100000000E-03 0.  1.
         11   -1    0    0    0    0 -0.00000000000E+00 -0.00000000000E+00 -0.45593999997E+02  0.45594000000E+02  0.51100000000E-03 0. -1.
    9900012    2    1    2    0    0 -0.59636260037E+01 -0.44105325319E+02 -0.69475855249E+01  0.46142317618E+02  0.99999986978E+01 0.  0.
         12    1    1    2    0    0  0.59636260037E+01  0.44105325319E+02  0.69475855249E+01  0.45045682382E+02  0.00000000000E+00 0. -1.
         11    1    3    3    0    0 -0.50034949631E+01 -0.14779250670E+02 -0.50954703174E+01  0.16414171628E+02  0.51100000000E-03 0. -1.
        -11    1    3    3    0    0  0.12814751181E+01 -0.17714130329E+02 -0.22035415056E+01  0.17896597085E+02  0.51100000000E-03 0.  1.
         12    1    3    3    0    0 -0.22416061587E+01 -0.11611944319E+02  0.35142629815E+00  0.11831548905E+02  0.00000000000E+00 0. -1.
</event>
<event>
 7    1  0.1381440E-008  0.4614232E+02  0.7816164E-02  0.1320468E+00
        -11   -1    0    0    0    0  0.00000000000E+00  0.00000000000E+00  0.45593999997E+02  0.45594000000E+02  0.51100000000E-03 0.  1.
         11   -1    0    0    0    0 -0.00000000000E+00 -0.00000000000E+00 -0.45593999997E+02  0.45594000000E+02  0.51100000000E-03 0. -1.
    9900012    2    1    2    0    0  0.98516728335E+01 -0.32201895518E+02  0.29918148842E+02  0.46142321376E+02  0.10000032967E+02 0.  0.
         12    1    1    2    0    0 -0.98516728335E+01  0.32201895518E+02 -0.29918148842E+02  0.45045678624E+02  0.00000000000E+00 0. -1.
         11    1    3    3    0    0  0.10969992278E+00 -0.20765113035E-01 -0.20194103092E+00  0.23075030675E+00  0.51100000000E-03 0. -1.
        -11    1    3    3    0    0  0.86661343075E+01 -0.31672187759E+02  0.26800539039E+02  0.42385118312E+02  0.51100000000E-03 0.  1.
        -12    1    3    3    0    0  0.10758386033E+01 -0.50894264582E+00  0.33195508334E+01  0.35264527577E+01  0.00000000000E+00 0.  1.
</event>
<event>
 7    1  0.1381440E-008  0.4614232E+02  0.7816164E-02  0.1320468E+00
        -11   -1    0    0    0    0  0.00000000000E+00  0.00000000000E+00  0.45593999997E+02  0.45594000000E+02  0.51100000000E-03 0. -1.
         11   -1    0    0    0    0 -0.00000000000E+00 -0.00000000000E+00 -0.45593999997E+02  0.45594000000E+02  0.51100000000E-03 0.  1.
    9900012    2    1    2    0    0  0.34844178259E+02  0.15161533734E+02 -0.24189344252E+02  0.46142320528E+02  0.10000025234E+02 0.  0.
         12    1    1    2    0    0 -0.34844178259E+02 -0.15161533734E+02  0.24189344252E+02  0.45045679472E+02  0.00000000000E+00 0. -1.
         11    1    3    3    0    0  0.49927522312E+01  0.61414715429E+01 -0.43468165621E+01  0.90299536012E+01  0.51100000000E-03 0. -1.
        -11    1    3    3    0    0  0.16435274356E+02  0.37523296708E+01 -0.12100593269E+02  0.20751447633E+02  0.51100000000E-03 0.  1.
         12    1    3    3    0    0  0.13416151672E+02  0.52677325203E+01 -0.77419344203E+01  0.16360919294E+02  0.00000000000E+00 0. -1.
</event>
<event>
 7    1  0.1381440E-008  0.4614232E+02  0.7816164E-02  0.1320468E+00
        -11   -1    0    0    0    0  0.00000000000E+00  0.00000000000E+00  0.45593999997E+02  0.45594000000E+02  0.51100000000E-03 0.  1.
         11   -1    0    0    0    0 -0.00000000000E+00 -0.00000000000E+00 -0.45593999997E+02  0.45594000000E+02  0.51100000000E-03 0. -1.
    9900012    2    1    2    0    0  0.43848377275E+02  0.83585871290E+01  0.60470940191E+01  0.46142317470E+02  0.99999973494E+01 0.  0.
         12    1    1    2    0    0 -0.43848377275E+02 -0.83585871290E+01 -0.60470940191E+01  0.45045682530E+02  0.00000000000E+00 0. -1.
         11    1    3    3    0    0  0.96673420032E+01  0.22001953070E+01  0.54338037302E+01  0.11305953477E+02  0.51100000000E-03 0.  1.
        -11    1    3    3    0    0  0.18661168559E+02  0.39691827722E+01 -0.82910951810E+00  0.19096623961E+02  0.51100000000E-03 0. -1.
        -12    1    3    3    0    0  0.15519866714E+02  0.21892090499E+01  0.14423998070E+01  0.15739740032E+02  0.00000000000E+00 0.  1.
</event>
<event>
 7    1  0.1381440E-008  0.4614232E+02  0.7816164E-02  0.1320468E+00
        -11   -1    0    0    0    0  0.00000000000E+00  0.00000000000E+00  0.45593999997E+02  0.45594000000E+02  0.51100000000E-03 0.  1.
         11   -1    0    0    0    0 -0.00000000000E+00 -0.00000000000E+00 -0.45593999997E+02  0.45594000000E+02  0.51100000000E-03 0. -1.
    9900012    2    1    2    0    0 -0.88986742170E+01 -0.26441165680E+02  0.35366532481E+02  0.46142320240E+02  0.10000022601E+02 0.  0.
         12    1    1    2    0    0  0.88986742170E+01  0.26441165680E+02 -0.35366532481E+02  0.45045679760E+02  0.00000000000E+00 0. -1.
         11    1    3    3    0    0 -0.52538673890E+01 -0.17972000348E+02  0.15946994449E+02  0.24594766746E+02  0.51100000000E-03 0. -1.
        -11    1    3    3    0    0 -0.30764220733E+01 -0.76214429956E+01  0.16128934302E+02  0.18102300629E+02  0.51100000000E-03 0.  1.
         12    1    3    3    0    0 -0.56838475465E+00 -0.84772233582E+00  0.32906037308E+01  0.34452528646E+01  0.00000000000E+00 0. -1.
</event>
<event>
 7    1  0.1381440E-008  0.4614232E+02  0.7816164E-02  0.1320468E+00
        -11   -1    0    0    0    0  0.00000000000E+00  0.00000000000E+00  0.45593999997E+02  0.45594000000E+02  0.51100000000E-03 0. -1.
         11   -1    0    0    0    0 -0.00000000000E+00 -0.00000000000E+00 -0.45593999997E+02  0.45594000000E+02  0.51100000000E-03 0.  1.
    9900012    2    1    2    0    0 -0.38976383993E+02 -0.15518908564E+02  0.16404831454E+02  0.46142317330E+02  0.99999960689E+01 0.  0.
         12    1    1    2    0    0  0.38976383993E+02  0.15518908564E+02 -0.16404831454E+02  0.45045682670E+02  0.00000000000E+00 0. -1.
         11    1    3    3    0    0 -0.27721075469E+02 -0.12440689256E+02  0.80644825958E+01  0.31436676894E+02  0.51100000000E-03 0. -1.
        -11    1    3    3    0    0 -0.11003774933E+02 -0.33021845996E+01  0.72988747360E+01  0.13611063829E+02  0.51100000000E-03 0.  1.
         12    1    3    3    0    0 -0.25153359083E+00  0.22396529208E+00  0.10414741225E+01  0.10945766064E+01  0.00000000000E+00 0. -1.
</event>
<event>
 7    1  0.1381440E-008  0.4614232E+02  0.7816164E-02  0.1320468E+00
        -11   -1    0    0    0    0  0.00000000000E+00  0.00000000000E+00  0.45593999997E+02  0.45594000000E+02  0.51100000000E-03 0.  1.
         11   -1    0    0    0    0 -0.00000000000E+00 -0.00000000000E+00 -0.45593999997E+02  0.45594000000E+02  0.51100000000E-03 0. -1.
    9900012    2    1    2    0    0  0.98749236502E+01  0.37553458732E+02  0.22832809498E+02  0.46142316861E+02  0.99999917961E+01 0.  0.
         12    1    1    2    0    0 -0.98749236502E+01 -0.37553458732E+02 -0.22832809498E+02  0.45045683139E+02  0.00000000000E+00 0. -1.
         11    1    3    3    0    0  0.29501308287E+01  0.56898154947E+01  0.97904061989E+00  0.64835016054E+01  0.51100000000E-03 0. -1.
        -11    1    3    3    0    0  0.62513584281E+01  0.17814352977E+02  0.10646273675E+02  0.21674265792E+02  0.51100000000E-03 0.  1.
         12    1    3    3    0    0  0.67343439337E+00  0.14049290260E+02  0.11207495203E+02  0.17984549464E+02  0.00000000000E+00 0. -1.
</event>
<event>
 7    1  0.1381440E-008  0.4614232E+02  0.7816164E-02  0.1320468E+00
        -11   -1    0    0    0    0  0.00000000000E+00  0.00000000000E+00  0.45593999997E+02  0.45594000000E+02  0.51100000000E-03 0.  1.
         11   -1    0    0    0    0 -0.00000000000E+00 -0.00000000000E+00 -0.45593999997E+02  0.45594000000E+02  0.51100000000E-03 0. -1.
    9900012    2    1    2    0    0 -0.59943731520E+01  0.43869981073E+02  0.82828653248E+01  0.46142316446E+02  0.99999880086E+01 0.  0.
         12    1    1    2    0    0  0.59943731520E+01 -0.43869981073E+02 -0.82828653248E+01  0.45045683554E+02  0.00000000000E+00 0. -1.
         11    1    3    3    0    0 -0.14490519426E+01  0.77203290908E+00  0.11711937945E+01  0.20167998192E+01  0.51100000000E-03 0. -1.
        -11    1    3    3    0    0 -0.32609398901E+01  0.12442257185E+02  0.23592453972E+01  0.13077061288E+02  0.51100000000E-03 0.  1.
        -12    1    3    3    0    0 -0.12843813193E+01  0.30655690980E+02  0.47524261330E+01  0.31048455339E+02  0.00000000000E+00 0.  1.
</event>
<event>
 7    1  0.1381440E-008  0.4614232E+02  0.7816164E-02  0.1320468E+00
        -11   -1    0    0    0    0  0.00000000000E+00  0.00000000000E+00  0.45593999997E+02  0.45594000000E+02  0.51100000000E-03 0.  1.
         11   -1    0    0    0    0 -0.00000000000E+00 -0.00000000000E+00 -0.45593999997E+02  0.45594000000E+02  0.51100000000E-03 0. -1.
    9900012    2    1    2    0    0 -0.32498622382E+01 -0.41630662865E+02  0.16894962541E+02  0.46142318138E+02  0.10000003436E+02 0.  0.
         12    1    1    2    0    0  0.32498622382E+01  0.41630662865E+02 -0.16894962541E+02  0.45045681862E+02  0.00000000000E+00 0. -1.
         11    1    3    3    0    0 -0.24065520572E+01 -0.48936210467E+01  0.19953256868E+01  0.58069221288E+01  0.51100000000E-03 0. -1.
        -11    1    3    3    0    0  0.11427422577E+01 -0.15095727085E+02  0.97320218574E+01  0.17997196609E+02  0.51100000000E-03 0.  1.
        -12    1    3    3    0    0 -0.19860524388E+01 -0.21641314734E+02  0.51676149966E+01  0.22338199400E+02  0.00000000000E+00 0.  1.
</event>
<event>
 7    1  0.1381440E-008  0.4614232E+02  0.7816164E-02  0.1320468E+00
        -11   -1    0    0    0    0  0.00000000000E+00  0.00000000000E+00  0.45593999997E+02  0.45594000000E+02  0.51100000000E-03 0. -1.
         11   -1    0    0    0    0 -0.00000000000E+00 -0.00000000000E+00 -0.45593999997E+02  0.45594000000E+02  0.51100000000E-03 0.  1.
    9900012    2    1    2    0    0  0.14735437689E+01  0.29783152421E+02 -0.33762495154E+02  0.46142316762E+02  0.99999908897E+01 0.  0.
         12    1    1    2    0    0 -0.14735437689E+01 -0.29783152421E+02  0.33762495154E+02  0.45045683238E+02  0.00000000000E+00 0. -1.
         11    1    3    3    0    0  0.12531951102E+01  0.94822190708E+01 -0.15467743548E+02  0.18186095436E+02  0.51100000000E-03 0. -1.
        -11    1    3    3    0    0  0.27345172884E+01  0.70309437456E+01 -0.53500987263E+01  0.92485302290E+01  0.51100000000E-03 0.  1.
         12    1    3    3    0    0 -0.25141686298E+01  0.13269989604E+02 -0.12944652880E+02  0.18707691097E+02  0.00000000000E+00 0. -1.
</event>
<event>
 7    1  0.1381440E-008  0.4614232E+02  0.7816164E-02  0.1320468E+00
        -11   -1    0    0    0    0  0.00000000000E+00  0.00000000000E+00  0.45593999997E+02  0.45594000000E+02  0.51100000000E-03 0.  1.
         11   -1    0    0    0    0 -0.00000000000E+00 -0.00000000000E+00 -0.45593999997E+02  0.45594000000E+02  0.51100000000E-03 0. -1.
    9900012    2    1    2    0    0 -0.17563390132E+02 -0.36572520420E+02  0.19572723519E+02  0.46142318423E+02  0.10000006037E+02 0.  0.
         12    1    1    2    0    0  0.17563390132E+02  0.36572520420E+02 -0.19572723519E+02  0.45045681577E+02  0.00000000000E+00 0. -1.
         11    1    3    3    0    0 -0.19628862991E+01 -0.12977632762E+02  0.36493194465E+01  0.13623120326E+02  0.51100000000E-03 0. -1.
        -11    1    3    3    0    0 -0.11795625159E+02 -0.18609627032E+02  0.13178082804E+02  0.25673271272E+02  0.51100000000E-03 0.  1.
         12    1    3    3    0    0 -0.38048786735E+01 -0.49852606259E+01  0.27453212685E+01  0.68459268252E+01  0.00000000000E+00 0. -1.
</event>
<event>
 7    1  0.1381440E-008  0.4614232E+02  0.7816164E-02  0.1320468E+00
        -11   -1    0    0    0    0  0.00000000000E+00  0.00000000000E+00  0.45593999997E+02  0.45594000000E+02  0.51100000000E-03 0. -1.
         11   -1    0    0    0    0 -0.00000000000E+00 -0.00000000000E+00 -0.45593999997E+02  0.45594000000E+02  0.51100000000E-03 0.  1.
    9900012    2    1    2    0    0  0.19230028412E+02 -0.13385829148E+02 -0.38472575931E+02  0.46142317483E+02  0.99999974598E+01 0.  0.
         12    1    1    2    0    0 -0.19230028412E+02  0.13385829148E+02  0.38472575931E+02  0.45045682517E+02  0.00000000000E+00 0. -1.
         11    1    3    3    0    0  0.10133584928E+02 -0.43262871413E+01 -0.24419873510E+02  0.26790605189E+02  0.51100000000E-03 0. -1.
        -11    1    3    3    0    0  0.37677170625E+01 -0.61092940483E+01 -0.68906022855E+01  0.99498525492E+01  0.51100000000E-03 0.  1.
         12    1    3    3    0    0  0.53287264219E+01 -0.29502479581E+01 -0.71621001356E+01  0.94018597440E+01  0.00000000000E+00 0. -1.
</event>
<event>
 7    1  0.1381440E-008  0.4614232E+02  0.7816164E-02  0.1320468E+00
        -11   -1    0    0    0    0  0.00000000000E+00  0.00000000000E+00  0.45593999997E+02  0.45594000000E+02  0.51100000000E-03 0.  1.
         11   -1    0    0    0    0 -0.00000000000E+00 -0.00000000000E+00 -0.45593999997E+02  0.45594000000E+02  0.51100000000E-03 0. -1.
    9900012    2    1    2    0    0  0.13488275803E+02  0.28389275339E+02  0.32268079458E+02  0.46142317739E+02  0.99999997976E+01 0.  0.
         12    1    1    2    0    0 -0.13488275803E+02 -0.28389275339E+02 -0.32268079458E+02  0.45045682261E+02  0.00000000000E+00 0. -1.
         11    1    3    3    0    0  0.22907028016E+01  0.63554075446E+01  0.45238272133E+01  0.81304081878E+01  0.51100000000E-03 0. -1.
        -11    1    3    3    0    0  0.16439163878E+01  0.12026403086E+02  0.13495417085E+02  0.18151118832E+02  0.51100000000E-03 0.  1.
        -12    1    3    3    0    0  0.95536566134E+01  0.10007464709E+02  0.14248835160E+02  0.19860790719E+02  0.00000000000E+00 0.  1.
</event>
<event>
 7    1  0.1381440E-008  0.4614232E+02  0.7816164E-02  0.1320468E+00
        -11   -1    0    0    0    0  0.00000000000E+00  0.00000000000E+00  0.45593999997E+02  0.45594000000E+02  0.51100000000E-03 0.  1.
         11   -1    0    0    0    0 -0.00000000000E+00 -0.00000000000E+00 -0.45593999997E+02  0.45594000000E+02  0.51100000000E-03 0. -1.
    9900012    2    1    2    0    0 -0.24790632900E+02  0.15585038073E+02  0.34229293978E+02  0.46142318103E+02  0.10000003120E+02 0.  0.
         12    1    1    2    0    0  0.24790632900E+02 -0.15585038073E+02 -0.34229293978E+02  0.45045681897E+02  0.00000000000E+00 0. -1.
         11    1    3    3    0    0 -0.16354248573E+02  0.12335644635E+02  0.23900033489E+02  0.31477629771E+02  0.51100000000E-03 0. -1.
        -11    1    3    3    0    0 -0.87232769464E+01  0.20651983231E+01  0.99407854382E+01  0.13385806669E+02  0.51100000000E-03 0.  1.
        -12    1    3    3    0    0  0.28689261869E+00  0.11841951145E+01  0.38847505015E+00  0.12788816632E+01  0.00000000000E+00 0.  1.
</event>
<event>
 7    1  0.1381440E-008  0.4614232E+02  0.7816164E-02  0.1320468E+00
        -11   -1    0    0    0    0  0.00000000000E+00  0.00000000000E+00  0.45593999997E+02  0.45594000000E+02  0.51100000000E-03 0.  1.
         11   -1    0    0    0    0 -0.00000000000E+00 -0.00000000000E+00 -0.45593999997E+02  0.45594000000E+02  0.51100000000E-03 0. -1.
    9900012    2    1    2    0    0 -0.15781467812E+02  0.55366334975E+01  0.41825882443E+02  0.46142317866E+02  0.10000000961E+02 0.  0.
         12    1    1    2    0    0  0.15781467812E+02 -0.55366334975E+01 -0.41825882443E+02  0.45045682134E+02  0.00000000000E+00 0. -1.
         11    1    3    3    0    0 -0.61595874396E+01  0.45934336980E+01  0.11351832617E+02  0.13707817280E+02  0.51100000000E-03 0. -1.
        -11    1    3    3    0    0 -0.24029816976E+01  0.16312162740E+01  0.15819680939E+02  0.16084075754E+02  0.51100000000E-03 0.  1.
        -12    1    3    3    0    0 -0.72188986747E+01 -0.68801647452E+00  0.14654368887E+02  0.16350424833E+02  0.00000000000E+00 0.  1.
</event>
<event>
 7    1  0.1381440E-008  0.4614232E+02  0.7816164E-02  0.1320468E+00
        -11   -1    0    0    0    0  0.00000000000E+00  0.00000000000E+00  0.45593999997E+02  0.45594000000E+02  0.51100000000E-03 0.  1.
         11   -1    0    0    0    0 -0.00000000000E+00 -0.00000000000E+00 -0.45593999997E+02  0.45594000000E+02  0.51100000000E-03 0. -1.
    9900012    2    1    2    0    0 -0.24355137509E+02 -0.18268864421E+02  0.33199237463E+02  0.46142317649E+02  0.99999989787E+01 0.  0.
         12    1    1    2    0    0  0.24355137509E+02  0.18268864421E+02 -0.33199237463E+02  0.45045682351E+02  0.00000000000E+00 0. -1.
         11    1    3    3    0    0 -0.86566376998E+01 -0.30999510941E+01  0.15320372956E+02  0.17867873427E+02  0.51100000000E-03 0. -1.
        -11    1    3    3    0    0 -0.81453345289E+01 -0.83657199636E+01  0.84880687076E+01  0.14435340514E+02  0.51100000000E-03 0.  1.
         12    1    3    3    0    0 -0.75531652803E+01 -0.68031933633E+01  0.93907958000E+01  0.13839103708E+02  0.00000000000E+00 0. -1.
</event>
<event>
 7    1  0.1381440E-008  0.4614232E+02  0.7816164E-02  0.1320468E+00
        -11   -1    0    0    0    0  0.00000000000E+00  0.00000000000E+00  0.45593999997E+02  0.45594000000E+02  0.51100000000E-03 0. -1.
         11   -1    0    0    0    0 -0.00000000000E+00 -0.00000000000E+00 -0.45593999997E+02  0.45594000000E+02  0.51100000000E-03 0.  1.
    9900012    2    1    2    0    0 -0.17024204083E+02 -0.60372365993E+01 -0.41265503710E+02  0.46142317112E+02  0.99999940807E+01 0.  0.
         12    1    1    2    0    0  0.17024204083E+02  0.60372365993E+01  0.41265503710E+02  0.45045682888E+02  0.00000000000E+00 0. -1.
         11    1    3    3    0    0 -0.56414133192E+01 -0.18349962834E+01 -0.11295455366E+02  0.12758529217E+02  0.51100000000E-03 0. -1.
        -11    1    3    3    0    0 -0.10930678845E+02 -0.51067557425E+01 -0.30037934277E+02  0.32370297961E+02  0.51100000000E-03 0.  1.
         12    1    3    3    0    0 -0.45211191942E+00  0.90451542655E+00  0.67885933573E-01  0.10134899331E+01  0.00000000000E+00 0. -1.
</event>
<event>
 7    1  0.1381440E-008  0.4614231E+02  0.7816164E-02  0.1320468E+00
        -11   -1    0    0    0    0  0.00000000000E+00  0.00000000000E+00  0.45593999997E+02  0.45594000000E+02  0.51100000000E-03 0.  1.
         11   -1    0    0    0    0 -0.00000000000E+00 -0.00000000000E+00 -0.45593999997E+02  0.45594000000E+02  0.51100000000E-03 0. -1.
    9900012    2    1    2    0    0  0.24108591303E+02  0.43858037251E+01  0.37797543845E+02  0.46142314639E+02  0.99999715273E+01 0.  0.
         12    1    1    2    0    0 -0.24108591303E+02 -0.43858037251E+01 -0.37797543845E+02  0.45045685361E+02  0.00000000000E+00 0. -1.
         11    1    3    3    0    0  0.25911897492E+00 -0.11009867583E+01  0.10049059716E+01  0.15129939716E+01  0.51100000000E-03 0. -1.
        -11    1    3    3    0    0  0.18093511775E+02  0.50053052319E+01  0.23087205399E+02  0.29756466561E+02  0.51100000000E-03 0.  1.
        -12    1    3    3    0    0  0.57559605534E+01  0.48148525152E+00  0.13705432474E+02  0.14872854106E+02  0.00000000000E+00 0.  1.
</event>
<event>
 7    1  0.1381440E-008  0.4614232E+02  0.7816164E-02  0.1320468E+00
        -11   -1    0    0    0    0  0.00000000000E+00  0.00000000000E+00  0.45593999997E+02  0.45594000000E+02  0.51100000000E-03 0. -1.
         11   -1    0    0    0    0 -0.00000000000E+00 -0.00000000000E+00 -0.45593999997E+02  0.45594000000E+02  0.51100000000E-03 0.  1.
    9900012    2    1    2    0    0  0.23967834056E+02  0.33620526847E+02 -0.18008792135E+02  0.46142317754E+02  0.99999999384E+01 0.  0.
         12    1    1    2    0    0 -0.23967834056E+02 -0.33620526847E+02  0.18008792135E+02  0.45045682246E+02  0.00000000000E+00 0. -1.
         11    1    3    3    0    0  0.27396033257E+01  0.80499468526E+01 -0.44703847248E+01  0.96068418619E+01  0.51100000000E-03 0. -1.
        -11    1    3    3    0    0  0.33270554952E+01  0.73660878306E+01 -0.54695434627E+01  0.97593265213E+01  0.51100000000E-03 0.  1.
         12    1    3    3    0    0  0.17901175235E+02  0.18204492164E+02 -0.80688639470E+01  0.26776149371E+02  0.00000000000E+00 0. -1.
</event>
<event>
 7    1  0.1381440E-008  0.4614232E+02  0.7816164E-02  0.1320468E+00
        -11   -1    0    0    0    0  0.00000000000E+00  0.00000000000E+00  0.45593999997E+02  0.45594000000E+02  0.51100000000E-03 0.  1.
         11   -1    0    0    0    0 -0.00000000000E+00 -0.00000000000E+00 -0.45593999997E+02  0.45594000000E+02  0.51100000000E-03 0. -1.
    9900012    2    1    2    0    0  0.29723039746E+02 -0.14383761343E+02  0.30639219204E+02  0.46142318347E+02  0.10000005343E+02 0.  0.
         12    1    1    2    0    0 -0.29723039746E+02  0.14383761343E+02 -0.30639219204E+02  0.45045681653E+02  0.00000000000E+00 0. -1.
         11    1    3    3    0    0  0.10704517241E+02 -0.75848431081E+01  0.13391951986E+02  0.18747290806E+02  0.51100000000E-03 0. -1.
        -11    1    3    3    0    0  0.10156732810E+02 -0.55644144596E+01  0.13242769680E+02  0.17592409691E+02  0.51100000000E-03 0.  1.
         12    1    3    3    0    0  0.88617896956E+01 -0.12345037749E+01  0.40044975381E+01  0.98026178500E+01  0.00000000000E+00 0. -1.
</event>
<event>
 7    1  0.1381440E-008  0.4614232E+02  0.7816164E-02  0.1320468E+00
        -11   -1    0    0    0    0  0.00000000000E+00  0.00000000000E+00  0.45593999997E+02  0.45594000000E+02  0.51100000000E-03 0. -1.
         11   -1    0    0    0    0 -0.00000000000E+00 -0.00000000000E+00 -0.45593999997E+02  0.45594000000E+02  0.51100000000E-03 0.  1.
    9900012    2    1    2    0    0 -0.33529639811E+02  0.30081153174E+02  0.29233786221E-01  0.46142319000E+02  0.10000011296E+02 0.  0.
         12    1    1    2    0    0  0.33529639811E+02 -0.30081153174E+02 -0.29233786221E-01  0.45045681000E+02  0.00000000000E+00 0. -1.
         11    1    3    3    0    0 -0.20712565762E+02  0.21691072082E+02  0.27425985973E+01  0.30117019039E+02  0.51100000000E-03 0. -1.
        -11    1    3    3    0    0 -0.51113572606E+01  0.42323825512E+01  0.60058638573E+00  0.66633129428E+01  0.51100000000E-03 0.  1.
         12    1    3    3    0    0 -0.77057167886E+01  0.41576985414E+01 -0.33139511968E+01  0.93619870178E+01  0.00000000000E+00 0. -1.
</event>
<event>
 7    1  0.1381440E-008  0.4614232E+02  0.7816164E-02  0.1320468E+00
        -11   -1    0    0    0    0  0.00000000000E+00  0.00000000000E+00  0.45593999997E+02  0.45594000000E+02  0.51100000000E-03 0.  1.
         11   -1    0    0    0    0 -0.00000000000E+00 -0.00000000000E+00 -0.45593999997E+02  0.45594000000E+02  0.51100000000E-03 0. -1.
    9900012    2    1    2    0    0 -0.20519574557E+02  0.34957008806E+02  0.19648612219E+02  0.46142319111E+02  0.10000012307E+02 0.  0.
         12    1    1    2    0    0  0.20519574557E+02 -0.34957008806E+02 -0.19648612219E+02  0.45045680889E+02  0.00000000000E+00 0. -1.
         11    1    3    3    0    0 -0.13387839683E+02  0.18934252328E+02  0.14348255892E+02  0.27269261266E+02  0.51100000000E-03 0. -1.
        -11    1    3    3    0    0 -0.31803029108E+01  0.12225528962E+02  0.36119930115E+01  0.13138659703E+02  0.51100000000E-03 0.  1.
         12    1    3    3    0    0 -0.39514319632E+01  0.37972275155E+01  0.16883633156E+01  0.57343981419E+01  0.00000000000E+00 0. -1.
</event>
<event>
 7    1  0.1381440E-008  0.4614232E+02  0.7816164E-02  0.1320468E+00
        -11   -1    0    0    0    0  0.00000000000E+00  0.00000000000E+00  0.45593999997E+02  0.45594000000E+02  0.51100000000E-03 0.  1.
         11   -1    0    0    0    0 -0.00000000000E+00 -0.00000000000E+00 -0.45593999997E+02  0.45594000000E+02  0.51100000000E-03 0. -1.
    9900012    2    1    2    0    0 -0.13055326329E+02  0.42045099498E+02  0.95331875327E+01  0.46142316501E+02  0.99999885119E+01 0.  0.
         12    1    1    2    0    0  0.13055326329E+02 -0.42045099498E+02 -0.95331875327E+01  0.45045683499E+02  0.00000000000E+00 0. -1.
         11    1    3    3    0    0 -0.67730248238E+01  0.11681503709E+02  0.51281109174E+00  0.13512748412E+02  0.51100000000E-03 0. -1.
        -11    1    3    3    0    0 -0.61639692572E+01  0.23103504304E+02  0.83914434714E+01  0.25341324983E+02  0.51100000000E-03 0.  1.
        -12    1    3    3    0    0 -0.11833224804E+00  0.72600914853E+01  0.62893296951E+00  0.72882431062E+01  0.00000000000E+00 0.  1.
</event>
<event>
 7    1  0.1381440E-008  0.4614232E+02  0.7816164E-02  0.1320468E+00
        -11   -1    0    0    0    0  0.00000000000E+00  0.00000000000E+00  0.45593999997E+02  0.45594000000E+02  0.51100000000E-03 0.  1.
         11   -1    0    0    0    0 -0.00000000000E+00 -0.00000000000E+00 -0.45593999997E+02  0.45594000000E+02  0.51100000000E-03 0. -1.
    9900012    2    1    2    0    0 -0.29092458158E+02  0.25027781745E+02 -0.23587124284E+02  0.46142318601E+02  0.10000007655E+02 0.  0.
         12    1    1    2    0    0  0.29092458158E+02 -0.25027781745E+02  0.23587124284E+02  0.45045681399E+02  0.00000000000E+00 0. -1.
         11    1    3    3    0    0 -0.48497304070E+01  0.84297631758E+01 -0.86487951250E+01  0.13014701287E+02  0.51100000000E-03 0. -1.
        -11    1    3    3    0    0 -0.12974739718E+02  0.68960479421E+01 -0.77445996654E+01  0.16609580735E+02  0.51100000000E-03 0.  1.
         12    1    3    3    0    0 -0.11267988033E+02  0.97019706270E+01 -0.71937294934E+01  0.16518036578E+02  0.00000000000E+00 0. -1.
</event>
<event>
 7    1  0.1381440E-008  0.4614232E+02  0.7816164E-02  0.1320468E+00
        -11   -1    0    0    0    0  0.00000000000E+00  0.00000000000E+00  0.45593999997E+02  0.45594000000E+02  0.51100000000E-03 0.  1.
         11   -1    0    0    0    0 -0.00000000000E+00 -0.00000000000E+00 -0.45593999997E+02  0.45594000000E+02  0.51100000000E-03 0. -1.
    9900012    2    1    2    0    0  0.36442668945E+02  0.82521319162E+01  0.25158449567E+02  0.46142318901E+02  0.10000010396E+02 0.  0.
         12    1    1    2    0    0 -0.36442668945E+02 -0.82521319162E+01 -0.25158449567E+02  0.45045681099E+02  0.00000000000E+00 0. -1.
         11    1    3    3    0    0  0.13331602892E+02  0.13442987947E+01  0.58377516538E+01  0.14615680605E+02  0.51100000000E-03 0. -1.
        -11    1    3    3    0    0  0.18219620789E+01  0.15893071453E+01  0.43050479603E+01  0.49374974654E+01  0.51100000000E-03 0.  1.
        -12    1    3    3    0    0  0.21289103975E+02  0.53185259761E+01  0.15015649953E+02  0.26589140831E+02  0.00000000000E+00 0.  1.
</event>
<event>
 7    1  0.1381440E-008  0.4614232E+02  0.7816164E-02  0.1320468E+00
        -11   -1    0    0    0    0  0.00000000000E+00  0.00000000000E+00  0.45593999997E+02  0.45594000000E+02  0.51100000000E-03 0.  1.
         11   -1    0    0    0    0 -0.00000000000E+00 -0.00000000000E+00 -0.45593999997E+02  0.45594000000E+02  0.51100000000E-03 0. -1.
    9900012    2    1    2    0    0 -0.94997533326E+01 -0.10621580375E+02  0.42732308495E+02  0.46142317939E+02  0.10000001618E+02 0.  0.
         12    1    1    2    0    0  0.94997533326E+01  0.10621580375E+02 -0.42732308495E+02  0.45045682061E+02  0.00000000000E+00 0. -1.
         11    1    3    3    0    0 -0.82706045512E+00 -0.20334701473E+01  0.80808435449E+01  0.83737125873E+01  0.51100000000E-03 0. -1.
        -11    1    3    3    0    0 -0.98272621286E+01 -0.69022852325E+01  0.23072191929E+02  0.26010433734E+02  0.51100000000E-03 0.  1.
        -12    1    3    3    0    0  0.11545692512E+01 -0.16858249953E+01  0.11579273022E+02  0.11758171617E+02  0.00000000000E+00 0.  1.
</event>
<event>
 7    1  0.1381440E-008  0.4614232E+02  0.7816164E-02  0.1320468E+00
        -11   -1    0    0    0    0  0.00000000000E+00  0.00000000000E+00  0.45593999997E+02  0.45594000000E+02  0.51100000000E-03 0.  1.
         11   -1    0    0    0    0 -0.00000000000E+00 -0.00000000000E+00 -0.45593999997E+02  0.45594000000E+02  0.51100000000E-03 0. -1.
    9900012    2    1    2    0    0 -0.42747661828E+02  0.80366313672E+01  0.11711678710E+02  0.46142318145E+02  0.10000003504E+02 0.  0.
         12    1    1    2    0    0  0.42747661828E+02 -0.80366313672E+01 -0.11711678710E+02  0.45045681855E+02  0.00000000000E+00 0. -1.
         11    1    3    3    0    0 -0.51987283013E+01  0.14654383882E+01  0.41514892745E+01  0.68124260787E+01  0.51100000000E-03 0. -1.
        -11    1    3    3    0    0 -0.26437298293E+02  0.70447998628E+01  0.39903133474E+01  0.27649277514E+02  0.51100000000E-03 0.  1.
         12    1    3    3    0    0 -0.11111635234E+02 -0.47360688369E+00  0.35698760882E+01  0.11680614553E+02  0.00000000000E+00 0. -1.
</event>
<event>
 7    1  0.1381440E-008  0.4614231E+02  0.7816164E-02  0.1320468E+00
        -11   -1    0    0    0    0  0.00000000000E+00  0.00000000000E+00  0.45593999997E+02  0.45594000000E+02  0.51100000000E-03 0.  1.
         11   -1    0    0    0    0 -0.00000000000E+00 -0.00000000000E+00 -0.45593999997E+02  0.45594000000E+02  0.51100000000E-03 0. -1.
    9900012    2    1    2    0    0 -0.48060447800E+01  0.38612548519E+02 -0.22695527859E+02  0.46142312589E+02  0.99999528347E+01 0.  0.
         12    1    1    2    0    0  0.48060447800E+01 -0.38612548519E+02  0.22695527859E+02  0.45045687411E+02  0.00000000000E+00 0. -1.
         11    1    3    3    0    0 -0.49176505338E+00  0.70492256419E+00 -0.47066488791E+00  0.97993590967E+00  0.51100000000E-03 0. -1.
        -11    1    3    3    0    0 -0.11421912494E+01  0.23543663860E+01  0.73888823042E+00  0.27191171376E+01  0.51100000000E-03 0.  1.
        -12    1    3    3    0    0 -0.31720884772E+01  0.35553259568E+02 -0.22963751202E+02  0.42443259542E+02  0.00000000000E+00 0.  1.
</event>
<event>
 7    1  0.1381440E-008  0.4614232E+02  0.7816164E-02  0.1320468E+00
        -11   -1    0    0    0    0  0.00000000000E+00  0.00000000000E+00  0.45593999997E+02  0.45594000000E+02  0.51100000000E-03 0. -1.
         11   -1    0    0    0    0 -0.00000000000E+00 -0.00000000000E+00 -0.45593999997E+02  0.45594000000E+02  0.51100000000E-03 0.  1.
    9900012    2    1    2    0    0 -0.38943699180E+02 -0.15386381559E+02 -0.16606053371E+02  0.46142318166E+02  0.10000003691E+02 0.  0.
         12    1    1    2    0    0  0.38943699180E+02  0.15386381559E+02  0.16606053371E+02  0.45045681834E+02  0.00000000000E+00 0. -1.
         11    1    3    3    0    0 -0.29827237438E+01  0.15048804482E+00 -0.59625401215E+00  0.30454567296E+01  0.51100000000E-03 0. -1.
        -11    1    3    3    0    0 -0.34786618690E+02 -0.13179288256E+02 -0.15915879943E+02  0.40461311316E+02  0.51100000000E-03 0.  1.
        -12    1    3    3    0    0 -0.11743567468E+01 -0.23575813475E+01 -0.93919415970E-01  0.26355501201E+01  0.00000000000E+00 0.  1.
</event>
<event>
 7    1  0.1381440E-008  0.4614232E+02  0.7816164E-02  0.1320468E+00
        -11   -1    0    0    0    0  0.00000000000E+00  0.00000000000E+00  0.45593999997E+02  0.45594000000E+02  0.51100000000E-03 0. -1.
         11   -1    0    0    0    0 -0.00000000000E+00 -0.00000000000E+00 -0.45593999997E+02  0.45594000000E+02  0.51100000000E-03 0.  1.
    9900012    2    1    2    0    0 -0.24870587148E+00  0.17717998720E+02 -0.41414058835E+02  0.46142316495E+02  0.99999884521E+01 0.  0.
         12    1    1    2    0    0  0.24870587148E+00 -0.17717998720E+02  0.41414058835E+02  0.45045683505E+02  0.00000000000E+00 0. -1.
         11    1    3    3    0    0 -0.52443924477E+00 -0.58882553270E+00 -0.12527958699E+01  0.14802870607E+01  0.51100000000E-03 0. -1.
        -11    1    3    3    0    0 -0.23161503248E+01  0.34985848666E+01 -0.58235757598E+01  0.71776516555E+01  0.51100000000E-03 0.  1.
         12    1    3    3    0    0  0.25918836981E+01  0.14808239386E+02 -0.34337687205E+02  0.37484377779E+02  0.00000000000E+00 0. -1.
</event>
<event>
 7    1  0.1381440E-008  0.4614232E+02  0.7816164E-02  0.1320468E+00
        -11   -1    0    0    0    0  0.00000000000E+00  0.00000000000E+00  0.45593999997E+02  0.45594000000E+02  0.51100000000E-03 0.  1.
         11   -1    0    0    0    0 -0.00000000000E+00 -0.00000000000E+00 -0.45593999997E+02  0.45594000000E+02  0.51100000000E-03 0. -1.
    9900012    2    1    2    0    0 -0.40529964098E+02 -0.16605606244E+02  0.10520900724E+02  0.46142317626E+02  0.99999987695E+01 0.  0.
         12    1    1    2    0    0  0.40529964098E+02  0.16605606244E+02 -0.10520900724E+02  0.45045682374E+02  0.00000000000E+00 0. -1.
         11    1    3    3    0    0 -0.23208994841E+02 -0.10866525631E+02  0.81234126590E+01  0.26883613118E+02  0.51100000000E-03 0. -1.
        -11    1    3    3    0    0 -0.91422128103E+01 -0.30903161980E+01  0.41162507916E+01  0.10491598072E+02  0.51100000000E-03 0.  1.
         12    1    3    3    0    0 -0.81787564464E+01 -0.26487644152E+01 -0.17187627270E+01  0.87671064353E+01  0.00000000000E+00 0. -1.
</event>
<event>
 7    1  0.1381440E-008  0.4614232E+02  0.7816164E-02  0.1320468E+00
        -11   -1    0    0    0    0  0.00000000000E+00  0.00000000000E+00  0.45593999997E+02  0.45594000000E+02  0.51100000000E-03 0.  1.
         11   -1    0    0    0    0 -0.00000000000E+00 -0.00000000000E+00 -0.45593999997E+02  0.45594000000E+02  0.51100000000E-03 0. -1.
    9900012    2    1    2    0    0 -0.14682270021E+02  0.42436214710E+02 -0.35654040637E+01  0.46142317876E+02  0.10000001051E+02 0.  0.
         12    1    1    2    0    0  0.14682270021E+02 -0.42436214710E+02  0.35654040637E+01  0.45045682124E+02  0.00000000000E+00 0. -1.
         11    1    3    3    0    0 -0.96140774373E+01  0.18813893473E+02 -0.26843187056E+01  0.21297855285E+02  0.51100000000E-03 0. -1.
        -11    1    3    3    0    0  0.12284678690E+01  0.42555012374E+01  0.34634976035E+00  0.44427899460E+01  0.51100000000E-03 0.  1.
        -12    1    3    3    0    0 -0.62966604528E+01  0.19366820000E+02 -0.12274351184E+01  0.20401672645E+02  0.00000000000E+00 0.  1.
</event>
<event>
 7    1  0.1381440E-008  0.4614232E+02  0.7816164E-02  0.1320468E+00
        -11   -1    0    0    0    0  0.00000000000E+00  0.00000000000E+00  0.45593999997E+02  0.45594000000E+02  0.51100000000E-03 0.  1.
         11   -1    0    0    0    0 -0.00000000000E+00 -0.00000000000E+00 -0.45593999997E+02  0.45594000000E+02  0.51100000000E-03 0. -1.
    9900012    2    1    2    0    0 -0.31453369657E+02 -0.15686008690E+02  0.28173535668E+02  0.46142318260E+02  0.10000004550E+02 0.  0.
         12    1    1    2    0    0  0.31453369657E+02  0.15686008690E+02 -0.28173535668E+02  0.45045681740E+02  0.00000000000E+00 0. -1.
         11    1    3    3    0    0 -0.15369471013E+01 -0.33910848135E+01  0.51534412259E+01  0.63576425925E+01  0.51100000000E-03 0. -1.
        -11    1    3    3    0    0 -0.15845272726E+02 -0.52399231359E+01  0.12516389150E+02  0.20861195072E+02  0.51100000000E-03 0.  1.
        -12    1    3    3    0    0 -0.14071149830E+02 -0.70550007403E+01  0.10503705292E+02  0.18923480596E+02  0.00000000000E+00 0.  1.
</event>
<event>
 7    1  0.1381440E-008  0.4614232E+02  0.7816164E-02  0.1320468E+00
        -11   -1    0    0    0    0  0.00000000000E+00  0.00000000000E+00  0.45593999997E+02  0.45594000000E+02  0.51100000000E-03 0.  1.
         11   -1    0    0    0    0 -0.00000000000E+00 -0.00000000000E+00 -0.45593999997E+02  0.45594000000E+02  0.51100000000E-03 0. -1.
    9900012    2    1    2    0    0 -0.43238304664E+02  0.11959701867E+02  0.40654463809E+01  0.46142319705E+02  0.10000017730E+02 0.  0.
         12    1    1    2    0    0  0.43238304664E+02 -0.11959701867E+02 -0.40654463809E+01  0.45045680295E+02  0.00000000000E+00 0. -1.
         11    1    3    3    0    0 -0.35777040095E+01  0.40908782917E+01  0.11239399242E+01  0.55496389424E+01  0.51100000000E-03 0. -1.
        -11    1    3    3    0    0 -0.34943625521E+02  0.70050350892E+01  0.32540269096E+01  0.35787095056E+02  0.51100000000E-03 0.  1.
         12    1    3    3    0    0 -0.47169751331E+01  0.86378848634E+00 -0.31252045281E+00  0.48055857072E+01  0.00000000000E+00 0. -1.
</event>
<event>
 7    1  0.1381440E-008  0.4614232E+02  0.7816164E-02  0.1320468E+00
        -11   -1    0    0    0    0  0.00000000000E+00  0.00000000000E+00  0.45593999997E+02  0.45594000000E+02  0.51100000000E-03 0.  1.
         11   -1    0    0    0    0 -0.00000000000E+00 -0.00000000000E+00 -0.45593999997E+02  0.45594000000E+02  0.51100000000E-03 0. -1.
    9900012    2    1    2    0    0  0.21401958903E+02 -0.35345615302E+02  0.17937591724E+02  0.46142316935E+02  0.99999924632E+01 0.  0.
         12    1    1    2    0    0 -0.21401958903E+02  0.35345615302E+02 -0.17937591724E+02  0.45045683065E+02  0.00000000000E+00 0. -1.
         11    1    3    3    0    0  0.10907991061E+01 -0.36803652533E+01 -0.15694792060E+00  0.38418177987E+01  0.51100000000E-03 0. -1.
        -11    1    3    3    0    0  0.96429928819E+01 -0.20124566246E+02  0.84549181867E+01  0.23863594032E+02  0.51100000000E-03 0.  1.
        -12    1    3    3    0    0  0.10668166915E+02 -0.11540683803E+02  0.96396214574E+01  0.18436905104E+02  0.00000000000E+00 0.  1.
</event>
<event>
 7    1  0.1381440E-008  0.4614232E+02  0.7816164E-02  0.1320468E+00
        -11   -1    0    0    0    0  0.00000000000E+00  0.00000000000E+00  0.45593999997E+02  0.45594000000E+02  0.51100000000E-03 0.  1.
         11   -1    0    0    0    0 -0.00000000000E+00 -0.00000000000E+00 -0.45593999997E+02  0.45594000000E+02  0.51100000000E-03 0. -1.
    9900012    2    1    2    0    0 -0.40009809292E+02 -0.17818001459E+02  0.10528413383E+02  0.46142317589E+02  0.99999984273E+01 0.  0.
         12    1    1    2    0    0  0.40009809292E+02  0.17818001459E+02 -0.10528413383E+02  0.45045682411E+02  0.00000000000E+00 0. -1.
         11    1    3    3    0    0 -0.97560839961E+01 -0.39700802458E+01  0.12053425509E+01  0.10601677368E+02  0.51100000000E-03 0. -1.
        -11    1    3    3    0    0 -0.25755949730E+02 -0.11509864703E+02  0.10882577544E+02  0.30237004253E+02  0.51100000000E-03 0.  1.
        -12    1    3    3    0    0 -0.44977755657E+01 -0.23380565103E+01 -0.15595067118E+01  0.53036359669E+01  0.00000000000E+00 0.  1.
</event>
<event>
 7    1  0.1381440E-008  0.4614232E+02  0.7816164E-02  0.1320468E+00
        -11   -1    0    0    0    0  0.00000000000E+00  0.00000000000E+00  0.45593999997E+02  0.45594000000E+02  0.51100000000E-03 0.  1.
         11   -1    0    0    0    0 -0.00000000000E+00 -0.00000000000E+00 -0.45593999997E+02  0.45594000000E+02  0.51100000000E-03 0. -1.
    9900012    2    1    2    0    0 -0.14063221831E+02  0.30282099978E+02  0.30237952919E+02  0.46142316699E+02  0.99999903152E+01 0.  0.
         12    1    1    2    0    0  0.14063221831E+02 -0.30282099978E+02 -0.30237952919E+02  0.45045683301E+02  0.00000000000E+00 0. -1.
         11    1    3    3    0    0  0.10882166375E+01  0.43740276091E+01  0.31672000624E+01  0.55088555501E+01  0.51100000000E-03 0. -1.
        -11    1    3    3    0    0 -0.13363464958E+02  0.24859384824E+02  0.25005070401E+02  0.37707091581E+02  0.51100000000E-03 0.  1.
        -12    1    3    3    0    0 -0.17879735103E+01  0.10486875453E+01  0.20656824552E+01  0.29263695678E+01  0.00000000000E+00 0.  1.
</event>
<event>
 7    1  0.1381440E-008  0.4614232E+02  0.7816164E-02  0.1320468E+00
        -11   -1    0    0    0    0  0.00000000000E+00  0.00000000000E+00  0.45593999997E+02  0.45594000000E+02  0.51100000000E-03 0.  1.
         11   -1    0    0    0    0 -0.00000000000E+00 -0.00000000000E+00 -0.45593999997E+02  0.45594000000E+02  0.51100000000E-03 0. -1.
    9900012    2    1    2    0    0 -0.40289541391E+02 -0.13501664539E+02  0.14952304769E+02  0.46142317535E+02  0.99999979369E+01 0.  0.
         12    1    1    2    0    0  0.40289541391E+02  0.13501664539E+02 -0.14952304769E+02  0.45045682465E+02  0.00000000000E+00 0. -1.
         11    1    3    3    0    0 -0.75277780861E+01 -0.58061556905E+01  0.30532696976E+01  0.99850559800E+01  0.51100000000E-03 0. -1.
        -11    1    3    3    0    0 -0.78210049687E+01  0.24303695999E+00  0.13632685563E+01  0.79426498791E+01  0.51100000000E-03 0.  1.
        -12    1    3    3    0    0 -0.24940758337E+02 -0.79385458082E+01  0.10535766515E+02  0.28214611676E+02  0.00000000000E+00 0.  1.
</event>
<event>
 7    1  0.1381440E-008  0.4614232E+02  0.7816164E-02  0.1320468E+00
        -11   -1    0    0    0    0  0.00000000000E+00  0.00000000000E+00  0.45593999997E+02  0.45594000000E+02  0.51100000000E-03 0.  1.
         11   -1    0    0    0    0 -0.00000000000E+00 -0.00000000000E+00 -0.45593999997E+02  0.45594000000E+02  0.51100000000E-03 0. -1.
    9900012    2    1    2    0    0  0.36944353846E+02  0.81918436828E+01  0.24436078575E+02  0.46142317408E+02  0.99999967840E+01 0.  0.
         12    1    1    2    0    0 -0.36944353846E+02 -0.81918436828E+01 -0.24436078575E+02  0.45045682592E+02  0.00000000000E+00 0. -1.
         11    1    3    3    0    0  0.17512565948E+01 -0.68372981812E+00  0.22661640390E+01  0.29444669871E+01  0.51100000000E-03 0. -1.
        -11    1    3    3    0    0  0.32489734713E+02  0.10086173444E+02  0.21184747067E+02  0.40076268102E+02  0.51100000000E-03 0.  1.
        -12    1    3    3    0    0  0.27033625377E+01 -0.12105999426E+01  0.98516746950E+00  0.31215823190E+01  0.00000000000E+00 0.  1.
</event>
<event>
 7    1  0.1381440E-008  0.4614231E+02  0.7816164E-02  0.1320468E+00
        -11   -1    0    0    0    0  0.00000000000E+00  0.00000000000E+00  0.45593999997E+02  0.45594000000E+02  0.51100000000E-03 0.  1.
         11   -1    0    0    0    0 -0.00000000000E+00 -0.00000000000E+00 -0.45593999997E+02  0.45594000000E+02  0.51100000000E-03 0. -1.
    9900012    2    1    2    0    0  0.19294706262E+02  0.93615295847E+01  0.39613001136E+02  0.46142314470E+02  0.99999699865E+01 0.  0.
         12    1    1    2    0    0 -0.19294706262E+02 -0.93615295847E+01 -0.39613001136E+02  0.45045685530E+02  0.00000000000E+00 0. -1.
         11    1    3    3    0    0 -0.28760502054E+00  0.25170689425E+01  0.40392122480E+01  0.47679753097E+01  0.51100000000E-03 0. -1.
        -11    1    3    3    0    0  0.15105386201E+02  0.50577458215E+01  0.23664411527E+02  0.28526441388E+02  0.51100000000E-03 0.  1.
        -12    1    3    3    0    0  0.44769250809E+01  0.17867148208E+01  0.11909377361E+02  0.12847897772E+02  0.00000000000E+00 0.  1.
</event>
<event>
 7    1  0.1381440E-008  0.4614232E+02  0.7816164E-02  0.1320468E+00
        -11   -1    0    0    0    0  0.00000000000E+00  0.00000000000E+00  0.45593999997E+02  0.45594000000E+02  0.51100000000E-03 0. -1.
         11   -1    0    0    0    0 -0.00000000000E+00 -0.00000000000E+00 -0.45593999997E+02  0.45594000000E+02  0.51100000000E-03 0.  1.
    9900012    2    1    2    0    0  0.27642723277E+02  0.35504321208E+02  0.21063109847E+01  0.46142317404E+02  0.99999967410E+01 0.  0.
         12    1    1    2    0    0 -0.27642723277E+02 -0.35504321208E+02 -0.21063109847E+01  0.45045682596E+02  0.00000000000E+00 0. -1.
         11    1    3    3    0    0  0.31653534467E+01  0.31035694907E+01 -0.24230446246E+01  0.50520047051E+01  0.51100000000E-03 0. -1.
        -11    1    3    3    0    0  0.43113940636E+01  0.87449181022E+01  0.13600254630E+01  0.98443578209E+01  0.51100000000E-03 0.  1.
        -12    1    3    3    0    0  0.20165975766E+02  0.23655833615E+02  0.31693301463E+01  0.31245954878E+02  0.00000000000E+00 0.  1.
</event>
<event>
 7    1  0.1381440E-008  0.4614232E+02  0.7816164E-02  0.1320468E+00
        -11   -1    0    0    0    0  0.00000000000E+00  0.00000000000E+00  0.45593999997E+02  0.45594000000E+02  0.51100000000E-03 0.  1.
         11   -1    0    0    0    0 -0.00000000000E+00 -0.00000000000E+00 -0.45593999997E+02  0.45594000000E+02  0.51100000000E-03 0. -1.
    9900012    2    1    2    0    0  0.39444232498E+02 -0.15765221375E+01  0.21697470556E+02  0.46142321762E+02  0.10000036484E+02 0.  0.
         12    1    1    2    0    0 -0.39444232498E+02  0.15765221375E+01 -0.21697470556E+02  0.45045678238E+02  0.00000000000E+00 0. -1.
         11    1    3    3    0    0  0.14863129891E+00  0.51286472941E+00 -0.44780532963E+00  0.69688691195E+00  0.51100000000E-03 0. -1.
        -11    1    3    3    0    0  0.21420444283E+02 -0.24418228214E+01  0.95734337001E+01  0.23589162025E+02  0.51100000000E-03 0.  1.
         12    1    3    3    0    0  0.17875156915E+02  0.35243595452E+00  0.12571842185E+02  0.21856272825E+02  0.00000000000E+00 0. -1.
</event>
<event>
 7    1  0.1381440E-008  0.4614232E+02  0.7816164E-02  0.1320468E+00
        -11   -1    0    0    0    0  0.00000000000E+00  0.00000000000E+00  0.45593999997E+02  0.45594000000E+02  0.51100000000E-03 0. -1.
         11   -1    0    0    0    0 -0.00000000000E+00 -0.00000000000E+00 -0.45593999997E+02  0.45594000000E+02  0.51100000000E-03 0.  1.
    9900012    2    1    2    0    0 -0.56170731851E+01  0.38639754717E+02 -0.22461775458E+02  0.46142317494E+02  0.99999975623E+01 0.  0.
         12    1    1    2    0    0  0.56170731851E+01 -0.38639754717E+02  0.22461775458E+02  0.45045682506E+02  0.00000000000E+00 0. -1.
         11    1    3    3    0    0 -0.65017865417E+01  0.34959149866E+02 -0.21770843798E+02  0.41693944735E+02  0.51100000000E-03 0. -1.
        -11    1    3    3    0    0  0.94215877753E+00  0.30404697149E+01 -0.14121961415E+01  0.34823005977E+01  0.51100000000E-03 0.  1.
         12    1    3    3    0    0 -0.57445420941E-01  0.64013513593E+00  0.72126448186E+00  0.96607216160E+00  0.00000000000E+00 0. -1.
</event>
<event>
 7    1  0.1381440E-008  0.4614232E+02  0.7816164E-02  0.1320468E+00
        -11   -1    0    0    0    0  0.00000000000E+00  0.00000000000E+00  0.45593999997E+02  0.45594000000E+02  0.51100000000E-03 0.  1.
         11   -1    0    0    0    0 -0.00000000000E+00 -0.00000000000E+00 -0.45593999997E+02  0.45594000000E+02  0.51100000000E-03 0. -1.
    9900012    2    1    2    0    0  0.23059769455E+02  0.21433451823E+02  0.32217505782E+02  0.46142317597E+02  0.99999985022E+01 0.  0.
         12    1    1    2    0    0 -0.23059769455E+02 -0.21433451823E+02 -0.32217505782E+02  0.45045682403E+02  0.00000000000E+00 0. -1.
         11    1    3    3    0    0  0.77183450754E+01  0.23907318953E+01  0.54470109503E+01  0.97446589603E+01  0.51100000000E-03 0. -1.
        -11    1    3    3    0    0  0.73962750104E+01  0.82130811913E+01  0.14264486554E+02  0.18045364047E+02  0.51100000000E-03 0.  1.
         12    1    3    3    0    0  0.79451493689E+01  0.10829638736E+02  0.12506008278E+02  0.18352294589E+02  0.00000000000E+00 0. -1.
</event>
<event>
 7    1  0.1381440E-008  0.4614232E+02  0.7816164E-02  0.1320468E+00
        -11   -1    0    0    0    0  0.00000000000E+00  0.00000000000E+00  0.45593999997E+02  0.45594000000E+02  0.51100000000E-03 0. -1.
         11   -1    0    0    0    0 -0.00000000000E+00 -0.00000000000E+00 -0.45593999997E+02  0.45594000000E+02  0.51100000000E-03 0.  1.
    9900012    2    1    2    0    0 -0.14053500329E+02  0.32324022447E+02 -0.28049424515E+02  0.46142317473E+02  0.99999973748E+01 0.  0.
         12    1    1    2    0    0  0.14053500329E+02 -0.32324022447E+02  0.28049424515E+02  0.45045682527E+02  0.00000000000E+00 0. -1.
         11    1    3    3    0    0  0.32667920608E-02  0.37615370717E+00 -0.25929158475E+01  0.26200601399E+01  0.51100000000E-03 0. -1.
        -11    1    3    3    0    0 -0.56409482228E+01  0.71203606661E+01 -0.67414918520E+01  0.11312274109E+02  0.51100000000E-03 0.  1.
         12    1    3    3    0    0 -0.84158188984E+01  0.24827508074E+02 -0.18715016816E+02  0.32209983224E+02  0.00000000000E+00 0. -1.
</event>
<event>
 7    1  0.1381440E-008  0.4614232E+02  0.7816164E-02  0.1320468E+00
        -11   -1    0    0    0    0  0.00000000000E+00  0.00000000000E+00  0.45593999997E+02  0.45594000000E+02  0.51100000000E-03 0. -1.
         11   -1    0    0    0    0 -0.00000000000E+00 -0.00000000000E+00 -0.45593999997E+02  0.45594000000E+02  0.51100000000E-03 0.  1.
    9900012    2    1    2    0    0 -0.36763984559E+02 -0.11719264548E+02  0.23241810406E+02  0.46142317930E+02  0.10000001538E+02 0.  0.
         12    1    1    2    0    0  0.36763984559E+02  0.11719264548E+02 -0.23241810406E+02  0.45045682070E+02  0.00000000000E+00 0. -1.
         11    1    3    3    0    0 -0.71578969136E+01 -0.26046113464E+01  0.19897679042E+01  0.78726529877E+01  0.51100000000E-03 0. -1.
        -11    1    3    3    0    0 -0.20950657691E+02 -0.80229128101E+01  0.18627047722E+02  0.29159288310E+02  0.51100000000E-03 0.  1.
        -12    1    3    3    0    0 -0.86554299552E+01 -0.10917403915E+01  0.26249947797E+01  0.91103766324E+01  0.00000000000E+00 0.  1.
</event>
<event>
 7    1  0.1381440E-008  0.4614232E+02  0.7816164E-02  0.1320468E+00
        -11   -1    0    0    0    0  0.00000000000E+00  0.00000000000E+00  0.45593999997E+02  0.45594000000E+02  0.51100000000E-03 0.  1.
         11   -1    0    0    0    0 -0.00000000000E+00 -0.00000000000E+00 -0.45593999997E+02  0.45594000000E+02  0.51100000000E-03 0. -1.
    9900012    2    1    2    0    0 -0.37248688970E+02 -0.15730393614E+02  0.19854553706E+02  0.46142318563E+02  0.10000007313E+02 0.  0.
         12    1    1    2    0    0  0.37248688970E+02  0.15730393614E+02 -0.19854553706E+02  0.45045681437E+02  0.00000000000E+00 0. -1.
         11    1    3    3    0    0 -0.76353530777E+01 -0.42574641424E+01  0.12468454382E+01  0.88305855612E+01  0.51100000000E-03 0. -1.
        -11    1    3    3    0    0 -0.25683021007E+02 -0.76823115644E+01  0.14490914389E+02  0.30473301087E+02  0.51100000000E-03 0.  1.
        -12    1    3    3    0    0 -0.39303148852E+01 -0.37906179076E+01  0.41167938790E+01  0.68384319153E+01  0.00000000000E+00 0.  1.
</event>
<event>
 7    1  0.1381440E-008  0.4614232E+02  0.7816164E-02  0.1320468E+00
        -11   -1    0    0    0    0  0.00000000000E+00  0.00000000000E+00  0.45593999997E+02  0.45594000000E+02  0.51100000000E-03 0.  1.
         11   -1    0    0    0    0 -0.00000000000E+00 -0.00000000000E+00 -0.45593999997E+02  0.45594000000E+02  0.51100000000E-03 0. -1.
    9900012    2    1    2    0    0  0.20782872585E+01 -0.14245278989E+02  0.42683325678E+02  0.46142317162E+02  0.99999945376E+01 0.  0.
         12    1    1    2    0    0 -0.20782872585E+01  0.14245278989E+02 -0.42683325678E+02  0.45045682838E+02  0.00000000000E+00 0. -1.
         11    1    3    3    0    0  0.29461612267E+01 -0.11264659701E+02  0.20552417960E+02  0.23621479810E+02  0.51100000000E-03 0. -1.
        -11    1    3    3    0    0  0.27216891786E+00 -0.29264119386E+01  0.17852669214E+02  0.18092975463E+02  0.51100000000E-03 0.  1.
        -12    1    3    3    0    0 -0.11400428861E+01 -0.54207349788E-01  0.42782385031E+01  0.44278618891E+01  0.00000000000E+00 0.  1.
</event>
<event>
 7    1  0.1381440E-008  0.4614232E+02  0.7816164E-02  0.1320468E+00
        -11   -1    0    0    0    0  0.00000000000E+00  0.00000000000E+00  0.45593999997E+02  0.45594000000E+02  0.51100000000E-03 0.  1.
         11   -1    0    0    0    0 -0.00000000000E+00 -0.00000000000E+00 -0.45593999997E+02  0.45594000000E+02  0.51100000000E-03 0. -1.
    9900012    2    1    2    0    0 -0.42502739814E+01 -0.39942880151E+02  0.20386636764E+02  0.46142318051E+02  0.10000002648E+02 0.  0.
         12    1    1    2    0    0  0.42502739814E+01  0.39942880151E+02 -0.20386636764E+02  0.45045681949E+02  0.00000000000E+00 0. -1.
         11    1    3    3    0    0  0.67621348794E+00 -0.80926823430E+00 -0.10358659599E-01  0.10546503303E+01  0.51100000000E-03 0. -1.
        -11    1    3    3    0    0 -0.68209214838E+01 -0.33395453542E+02  0.16261781735E+02  0.37765418475E+02  0.51100000000E-03 0.  1.
        -12    1    3    3    0    0  0.18944340145E+01 -0.57381583748E+01  0.41352136886E+01  0.73222492459E+01  0.00000000000E+00 0.  1.
</event>
<event>
 7    1  0.1381440E-008  0.4614232E+02  0.7816164E-02  0.1320468E+00
        -11   -1    0    0    0    0  0.00000000000E+00  0.00000000000E+00  0.45593999997E+02  0.45594000000E+02  0.51100000000E-03 0.  1.
         11   -1    0    0    0    0 -0.00000000000E+00 -0.00000000000E+00 -0.45593999997E+02  0.45594000000E+02  0.51100000000E-03 0. -1.
    9900012    2    1    2    0    0 -0.17288320316E+02  0.26220206063E+01  0.41513281027E+02  0.46142317488E+02  0.99999975077E+01 0.  0.
         12    1    1    2    0    0  0.17288320316E+02 -0.26220206063E+01 -0.41513281027E+02  0.45045682512E+02  0.00000000000E+00 0. -1.
         11    1    3    3    0    0 -0.12853701705E+02  0.38707404637E+00  0.21284705114E+02  0.24867773240E+02  0.51100000000E-03 0.  1.
        -11    1    3    3    0    0  0.51218586294E+00  0.12617913555E+01  0.67021450512E+01  0.68390935314E+01  0.51100000000E-03 0. -1.
        -12    1    3    3    0    0 -0.49468044735E+01  0.97315520443E+00  0.13526430861E+02  0.14435450717E+02  0.00000000000E+00 0.  1.
</event>
<event>
 7    1  0.1843158E-008  0.4614232E+02  0.7816164E-02  0.1320468E+00
        -11   -1    0    0    0    0  0.00000000000E+00  0.00000000000E+00  0.45593999997E+02  0.45594000000E+02  0.51100000000E-03 0. -1.
         11   -1    0    0    0    0 -0.00000000000E+00 -0.00000000000E+00 -0.45593999997E+02  0.45594000000E+02  0.51100000000E-03 0.  1.
    9900012    2    1    2    0    0 -0.18860689086E+02 -0.36107948450E+02 -0.19225087612E+02  0.46142317324E+02  0.99999960162E+01 0.  0.
         12    1    1    2    0    0  0.18860689086E+02  0.36107948450E+02  0.19225087612E+02  0.45045682676E+02  0.00000000000E+00 0. -1.
         11    1    3    3    0    0  0.66474282467E+00 -0.52483933619E+00 -0.99884303473E+00  0.13095904020E+01  0.51100000000E-03 0. -1.
        -11    1    3    3    0    0 -0.19335271127E+02 -0.32564471183E+02 -0.17512067929E+02  0.41724932791E+02  0.51100000000E-03 0.  1.
        -12    1    3    3    0    0 -0.19016078336E+00 -0.30186379300E+01 -0.71417664810E+00  0.31077941310E+01  0.00000000000E+00 0.  1.
</event>
<event>
 7    1  0.1381440E-008  0.4614232E+02  0.7816164E-02  0.1320468E+00
        -11   -1    0    0    0    0  0.00000000000E+00  0.00000000000E+00  0.45593999997E+02  0.45594000000E+02  0.51100000000E-03 0.  1.
         11   -1    0    0    0    0 -0.00000000000E+00 -0.00000000000E+00 -0.45593999997E+02  0.45594000000E+02  0.51100000000E-03 0. -1.
    9900012    2    1    2    0    0  0.15956039015E+02  0.53857959605E+01  0.41779319373E+02  0.46142317561E+02  0.99999981712E+01 0.  0.
         12    1    1    2    0    0 -0.15956039015E+02 -0.53857959605E+01 -0.41779319373E+02  0.45045682439E+02  0.00000000000E+00 0. -1.
         11    1    3    3    0    0  0.48087985146E+01  0.45679882754E+01  0.71920749649E+01  0.97835066617E+01  0.51100000000E-03 0. -1.
        -11    1    3    3    0    0  0.89819388242E+01  0.70507347549E+00  0.26708769482E+02  0.28187421329E+02  0.51100000000E-03 0.  1.
        -12    1    3    3    0    0  0.21653016761E+01  0.11273420962E+00  0.78784749260E+01  0.81713895703E+01  0.00000000000E+00 0.  1.
</event>
<event>
 7    1  0.1381440E-008  0.4614232E+02  0.7816164E-02  0.1320468E+00
        -11   -1    0    0    0    0  0.00000000000E+00  0.00000000000E+00  0.45593999997E+02  0.45594000000E+02  0.51100000000E-03 0.  1.
         11   -1    0    0    0    0 -0.00000000000E+00 -0.00000000000E+00 -0.45593999997E+02  0.45594000000E+02  0.51100000000E-03 0. -1.
    9900012    2    1    2    0    0  0.11499129592E+02 -0.39153162144E+00  0.43551465372E+02  0.46142318582E+02  0.10000007481E+02 0.  0.
         12    1    1    2    0    0 -0.11499129592E+02  0.39153162144E+00 -0.43551465372E+02  0.45045681418E+02  0.00000000000E+00 0. -1.
         11    1    3    3    0    0  0.20314938178E+01  0.34803055828E+01  0.11332047374E+02  0.12027252057E+02  0.51100000000E-03 0. -1.
        -11    1    3    3    0    0  0.52193895069E+01 -0.38932805295E+01  0.23934467035E+02  0.24804402283E+02  0.51100000000E-03 0.  1.
        -12    1    3    3    0    0  0.42482462678E+01  0.21443325230E-01  0.82849509626E+01  0.93106642416E+01  0.00000000000E+00 0.  1.
</event>
<event>
 7    1  0.1381440E-008  0.4614232E+02  0.7816164E-02  0.1320468E+00
        -11   -1    0    0    0    0  0.00000000000E+00  0.00000000000E+00  0.45593999997E+02  0.45594000000E+02  0.51100000000E-03 0.  1.
         11   -1    0    0    0    0 -0.00000000000E+00 -0.00000000000E+00 -0.45593999997E+02  0.45594000000E+02  0.51100000000E-03 0. -1.
    9900012    2    1    2    0    0 -0.18800504199E+02 -0.18130546953E+02  0.36700650787E+02  0.46142318086E+02  0.10000002961E+02 0.  0.
         12    1    1    2    0    0  0.18800504199E+02  0.18130546953E+02 -0.36700650787E+02  0.45045681914E+02  0.00000000000E+00 0. -1.
         11    1    3    3    0    0 -0.98298316868E+01 -0.57769894796E+01  0.13060217002E+02  0.17336910533E+02  0.51100000000E-03 0.  1.
        -11    1    3    3    0    0 -0.65656268957E+01 -0.57748435065E+01  0.17176721703E+02  0.19274232612E+02  0.51100000000E-03 0. -1.
        -12    1    3    3    0    0 -0.24050456162E+01 -0.65787139669E+01  0.64637120824E+01  0.95311749411E+01  0.00000000000E+00 0.  1.
</event>
<event>
 7    1  0.1381440E-008  0.4614232E+02  0.7816164E-02  0.1320468E+00
        -11   -1    0    0    0    0  0.00000000000E+00  0.00000000000E+00  0.45593999997E+02  0.45594000000E+02  0.51100000000E-03 0.  1.
         11   -1    0    0    0    0 -0.00000000000E+00 -0.00000000000E+00 -0.45593999997E+02  0.45594000000E+02  0.51100000000E-03 0. -1.
    9900012    2    1    2    0    0  0.38323022423E+02 -0.76652653390E+00  0.23661611359E+02  0.46142318046E+02  0.10000002598E+02 0.  0.
         12    1    1    2    0    0 -0.38323022423E+02  0.76652653390E+00 -0.23661611359E+02  0.45045681954E+02  0.00000000000E+00 0. -1.
         11    1    3    3    0    0 -0.35706737297E-01  0.10340616347E+01  0.67834573413E+00  0.12372193142E+01  0.51100000000E-03 0. -1.
        -11    1    3    3    0    0  0.13121533377E+02  0.11324252902E+01  0.79323258869E+01  0.15374616074E+02  0.51100000000E-03 0.  1.
         12    1    3    3    0    0  0.25237195784E+02 -0.29330134588E+01  0.15050939738E+02  0.29530482658E+02  0.00000000000E+00 0. -1.
</event>
<event>
 7    1  0.1381440E-008  0.4614232E+02  0.7816164E-02  0.1320468E+00
        -11   -1    0    0    0    0  0.00000000000E+00  0.00000000000E+00  0.45593999997E+02  0.45594000000E+02  0.51100000000E-03 0.  1.
         11   -1    0    0    0    0 -0.00000000000E+00 -0.00000000000E+00 -0.45593999997E+02  0.45594000000E+02  0.51100000000E-03 0. -1.
    9900012    2    1    2    0    0 -0.21422691067E+02 -0.22441433738E+02  0.32658291637E+02  0.46142315929E+02  0.99999832950E+01 0.  0.
         12    1    1    2    0    0  0.21422691067E+02  0.22441433738E+02 -0.32658291637E+02  0.45045684071E+02  0.00000000000E+00 0. -1.
         11    1    3    3    0    0 -0.78082973465E+01 -0.77857007762E+01  0.16317093769E+02  0.19693506375E+02  0.51100000000E-03 0. -1.
        -11    1    3    3    0    0 -0.35488328665E+01 -0.73781980465E+01  0.47827913940E+01  0.94819362425E+01  0.51100000000E-03 0.  1.
         12    1    3    3    0    0 -0.10065560854E+02 -0.72775349153E+01  0.11558406474E+02  0.16966873311E+02  0.00000000000E+00 0. -1.
</event>
<event>
 7    1  0.1381440E-008  0.4614232E+02  0.7816164E-02  0.1320468E+00
        -11   -1    0    0    0    0  0.00000000000E+00  0.00000000000E+00  0.45593999997E+02  0.45594000000E+02  0.51100000000E-03 0.  1.
         11   -1    0    0    0    0 -0.00000000000E+00 -0.00000000000E+00 -0.45593999997E+02  0.45594000000E+02  0.51100000000E-03 0. -1.
    9900012    2    1    2    0    0 -0.30126064337E+02  0.21700162355E+01  0.33418924659E+02  0.46142320426E+02  0.10000024303E+02 0.  0.
         12    1    1    2    0    0  0.30126064337E+02 -0.21700162355E+01 -0.33418924659E+02  0.45045679574E+02  0.00000000000E+00 0. -1.
         11    1    3    3    0    0 -0.82410528773E+01  0.91637779457E+00  0.36591347101E+01  0.90633309482E+01  0.51100000000E-03 0. -1.
        -11    1    3    3    0    0 -0.20520792135E+02  0.43444308719E+00  0.27722473434E+02  0.34493871691E+02  0.51100000000E-03 0.  1.
        -12    1    3    3    0    0 -0.13642193246E+01  0.81919535375E+00  0.20373165149E+01  0.25851177874E+01  0.00000000000E+00 0.  1.
</event>
<event>
 7    1  0.1381440E-008  0.4614232E+02  0.7816164E-02  0.1320468E+00
        -11   -1    0    0    0    0  0.00000000000E+00  0.00000000000E+00  0.45593999997E+02  0.45594000000E+02  0.51100000000E-03 0.  1.
         11   -1    0    0    0    0 -0.00000000000E+00 -0.00000000000E+00 -0.45593999997E+02  0.45594000000E+02  0.51100000000E-03 0. -1.
    9900012    2    1    2    0    0 -0.20030546336E+02 -0.15995339859E+01  0.40315409741E+02  0.46142316987E+02  0.99999929436E+01 0.  0.
         12    1    1    2    0    0  0.20030546336E+02  0.15995339859E+01 -0.40315409741E+02  0.45045683013E+02  0.00000000000E+00 0. -1.
         11    1    3    3    0    0 -0.24603725113E+01 -0.27978662971E+00  0.89247252867E+01  0.92618807570E+01  0.51100000000E-03 0. -1.
        -11    1    3    3    0    0 -0.12708785147E+02 -0.31645009746E+01  0.27248573678E+02  0.30232632272E+02  0.51100000000E-03 0.  1.
        -12    1    3    3    0    0 -0.48613886774E+01  0.18447536184E+01  0.41421107762E+01  0.66478039583E+01  0.00000000000E+00 0.  1.
</event>
<event>
 7    1  0.1381440E-008  0.4614232E+02  0.7816164E-02  0.1320468E+00
        -11   -1    0    0    0    0  0.00000000000E+00  0.00000000000E+00  0.45593999997E+02  0.45594000000E+02  0.51100000000E-03 0.  1.
         11   -1    0    0    0    0 -0.00000000000E+00 -0.00000000000E+00 -0.45593999997E+02  0.45594000000E+02  0.51100000000E-03 0. -1.
    9900012    2    1    2    0    0 -0.17384225987E+02  0.41243083976E+02 -0.50902150286E+01  0.46142316766E+02  0.99999909239E+01 0.  0.
         12    1    1    2    0    0  0.17384225987E+02 -0.41243083976E+02  0.50902150286E+01  0.45045683234E+02  0.00000000000E+00 0. -1.
         11    1    3    3    0    0 -0.11842688790E+02  0.18734439338E+02 -0.18323086508E+01  0.22239286192E+02  0.51100000000E-03 0. -1.
        -11    1    3    3    0    0 -0.18021404009E+01  0.92388779424E+01  0.10197301599E+01  0.94680740132E+01  0.51100000000E-03 0.  1.
        -12    1    3    3    0    0 -0.37393967956E+01  0.13269766696E+02 -0.42776365377E+01  0.14434956561E+02  0.00000000000E+00 0.  1.
</event>
<event>
 7    1  0.1381440E-008  0.4614233E+02  0.7816164E-02  0.1320468E+00
        -11   -1    0    0    0    0  0.00000000000E+00  0.00000000000E+00  0.45593999997E+02  0.45594000000E+02  0.51100000000E-03 0.  1.
         11   -1    0    0    0    0 -0.00000000000E+00 -0.00000000000E+00 -0.45593999997E+02  0.45594000000E+02  0.51100000000E-03 0. -1.
    9900012    2    1    2    0    0 -0.12511893395E+01  0.40993859303E+02  0.18629301033E+02  0.46142325044E+02  0.10000066407E+02 0.  0.
         12    1    1    2    0    0  0.12511893395E+01 -0.40993859303E+02 -0.18629301033E+02  0.45045674956E+02  0.00000000000E+00 0. -1.
         11    1    3    3    0    0 -0.27583379044E+01  0.45816313116E+01  0.22632795829E+01  0.58070825896E+01  0.51100000000E-03 0. -1.
        -11    1    3    3    0    0  0.25208307403E+01  0.13246215010E+02  0.80318773457E+01  0.15694835254E+02  0.51100000000E-03 0.  1.
        -12    1    3    3    0    0 -0.10136821754E+01  0.23166012981E+02  0.83341441044E+01  0.24640407200E+02  0.00000000000E+00 0.  1.
</event>
<event>
 7    1  0.1381440E-008  0.4614232E+02  0.7816164E-02  0.1320468E+00
        -11   -1    0    0    0    0  0.00000000000E+00  0.00000000000E+00  0.45593999997E+02  0.45594000000E+02  0.51100000000E-03 0. -1.
         11   -1    0    0    0    0 -0.00000000000E+00 -0.00000000000E+00 -0.45593999997E+02  0.45594000000E+02  0.51100000000E-03 0.  1.
    9900012    2    1    2    0    0  0.21080323736E+02  0.35369651549E+02 -0.18268037253E+02  0.46142317803E+02  0.10000000384E+02 0.  0.
         12    1    1    2    0    0 -0.21080323736E+02 -0.35369651549E+02  0.18268037253E+02  0.45045682197E+02  0.00000000000E+00 0. -1.
         11    1    3    3    0    0  0.53699411638E+01  0.46186750640E+01 -0.54372788368E+01  0.89293017006E+01  0.51100000000E-03 0. -1.
        -11    1    3    3    0    0  0.13138325903E+02  0.27035502001E+02 -0.12859507895E+02  0.32694050217E+02  0.51100000000E-03 0.  1.
        -12    1    3    3    0    0  0.25720566688E+01  0.37154744837E+01  0.28749479256E-01  0.45189658861E+01  0.00000000000E+00 0.  1.
</event>
<event>
 7    1  0.1381440E-008  0.4614232E+02  0.7816164E-02  0.1320468E+00
        -11   -1    0    0    0    0  0.00000000000E+00  0.00000000000E+00  0.45593999997E+02  0.45594000000E+02  0.51100000000E-03 0. -1.
         11   -1    0    0    0    0 -0.00000000000E+00 -0.00000000000E+00 -0.45593999997E+02  0.45594000000E+02  0.51100000000E-03 0.  1.
    9900012    2    1    2    0    0  0.29853911189E+02 -0.32894729019E+02 -0.74695529106E+01  0.46142318396E+02  0.10000005786E+02 0.  0.
         12    1    1    2    0    0 -0.29853911189E+02  0.32894729019E+02  0.74695529106E+01  0.45045681604E+02  0.00000000000E+00 0. -1.
         11    1    3    3    0    0  0.18516589069E+02 -0.13668801921E+02 -0.18146547140E+01  0.23086645246E+02  0.51100000000E-03 0. -1.
        -11    1    3    3    0    0  0.35719507299E+01 -0.70923275946E+01 -0.17845173872E+01  0.81390690680E+01  0.51100000000E-03 0.  1.
         12    1    3    3    0    0  0.77653713904E+01 -0.12133599503E+02 -0.38703808094E+01  0.14916604082E+02  0.00000000000E+00 0. -1.
</event>
<event>
 7    1  0.1381440E-008  0.4614232E+02  0.7816164E-02  0.1320468E+00
        -11   -1    0    0    0    0  0.00000000000E+00  0.00000000000E+00  0.45593999997E+02  0.45594000000E+02  0.51100000000E-03 0.  1.
         11   -1    0    0    0    0 -0.00000000000E+00 -0.00000000000E+00 -0.45593999997E+02  0.45594000000E+02  0.51100000000E-03 0. -1.
    9900012    2    1    2    0    0 -0.14917238123E+02 -0.33901797882E+02  0.25637036763E+02  0.46142317112E+02  0.99999940828E+01 0.  0.
         12    1    1    2    0    0  0.14917238123E+02  0.33901797882E+02 -0.25637036763E+02  0.45045682888E+02  0.00000000000E+00 0. -1.
         11    1    3    3    0    0  0.77960849082E+00 -0.35562756277E+01  0.48444659188E+01  0.60600112243E+01  0.51100000000E-03 0. -1.
        -11    1    3    3    0    0 -0.12241298665E+02 -0.21928178493E+02  0.14245380332E+02  0.28872569441E+02  0.51100000000E-03 0.  1.
         12    1    3    3    0    0 -0.34555479483E+01 -0.84173437607E+01  0.65471905123E+01  0.11209736447E+02  0.00000000000E+00 0. -1.
</event>
<event>
 7    1  0.1381440E-008  0.4614232E+02  0.7816164E-02  0.1320468E+00
        -11   -1    0    0    0    0  0.00000000000E+00  0.00000000000E+00  0.45593999997E+02  0.45594000000E+02  0.51100000000E-03 0.  1.
         11   -1    0    0    0    0 -0.00000000000E+00 -0.00000000000E+00 -0.45593999997E+02  0.45594000000E+02  0.51100000000E-03 0. -1.
    9900012    2    1    2    0    0 -0.15300551385E+02 -0.39019404768E+02  0.16507351821E+02  0.46142317795E+02  0.10000000309E+02 0.  0.
         12    1    1    2    0    0  0.15300551385E+02  0.39019404768E+02 -0.16507351821E+02  0.45045682205E+02  0.00000000000E+00 0. -1.
         11    1    3    3    0    0 -0.36305377954E+01 -0.11678430333E+02  0.51627260011E+01  0.13274798671E+02  0.51100000000E-03 0. -1.
        -11    1    3    3    0    0 -0.93660735685E+01 -0.20606041121E+02  0.46740500022E+01  0.23112312919E+02  0.51100000000E-03 0.  1.
         12    1    3    3    0    0 -0.23039400212E+01 -0.67349333142E+01  0.66705758178E+01  0.97552062053E+01  0.00000000000E+00 0. -1.
</event>
<event>
 7    1  0.1381440E-008  0.4614232E+02  0.7816164E-02  0.1320468E+00
        -11   -1    0    0    0    0  0.00000000000E+00  0.00000000000E+00  0.45593999997E+02  0.45594000000E+02  0.51100000000E-03 0.  1.
         11   -1    0    0    0    0 -0.00000000000E+00 -0.00000000000E+00 -0.45593999997E+02  0.45594000000E+02  0.51100000000E-03 0. -1.
    9900012    2    1    2    0    0  0.28240098513E+02 -0.30491889069E+02  0.17373977200E+02  0.46142317113E+02  0.99999940873E+01 0.  0.
         12    1    1    2    0    0 -0.28240098513E+02  0.30491889069E+02 -0.17373977200E+02  0.45045682887E+02  0.00000000000E+00 0. -1.
         11    1    3    3    0    0  0.93485698896E+01 -0.52654452176E+01  0.72192935540E+01  0.12932086916E+02  0.51100000000E-03 0. -1.
        -11    1    3    3    0    0  0.41856709327E+01 -0.70994195189E+01  0.33526261377E+01  0.88972861561E+01  0.51100000000E-03 0.  1.
         12    1    3    3    0    0  0.14705857691E+02 -0.18127024333E+02  0.68020575078E+01  0.24312944041E+02  0.00000000000E+00 0. -1.
</event>
<event>
 7    1  0.1703802E-008  0.4614232E+02  0.7816164E-02  0.1320468E+00
        -11   -1    0    0    0    0  0.00000000000E+00  0.00000000000E+00  0.45593999997E+02  0.45594000000E+02  0.51100000000E-03 0.  1.
         11   -1    0    0    0    0 -0.00000000000E+00 -0.00000000000E+00 -0.45593999997E+02  0.45594000000E+02  0.51100000000E-03 0. -1.
    9900012    2    1    2    0    0  0.39936889310E+02  0.17703975350E+02  0.10987615252E+02  0.46142316968E+02  0.99999927674E+01 0.  0.
         12    1    1    2    0    0 -0.39936889310E+02 -0.17703975350E+02 -0.10987615252E+02  0.45045683032E+02  0.00000000000E+00 0. -1.
         11    1    3    3    0    0 -0.46771029199E+00  0.18984028099E+00  0.21664370415E+00  0.54929682795E+00  0.51100000000E-03 0. -1.
        -11    1    3    3    0    0  0.40506160852E+02  0.17348239147E+02  0.10573140882E+02  0.45315579846E+02  0.51100000000E-03 0.  1.
        -12    1    3    3    0    0 -0.10156125010E+00  0.16589592160E+00  0.19783066545E+00  0.27744029361E+00  0.00000000000E+00 0.  1.
</event>
<event>
 7    1  0.1381440E-008  0.4614232E+02  0.7816164E-02  0.1320468E+00
        -11   -1    0    0    0    0  0.00000000000E+00  0.00000000000E+00  0.45593999997E+02  0.45594000000E+02  0.51100000000E-03 0.  1.
         11   -1    0    0    0    0 -0.00000000000E+00 -0.00000000000E+00 -0.45593999997E+02  0.45594000000E+02  0.51100000000E-03 0. -1.
    9900012    2    1    2    0    0  0.10981578905E+02 -0.16136005609E+02  0.40597386250E+02  0.46142317381E+02  0.99999965327E+01 0.  0.
         12    1    1    2    0    0 -0.10981578905E+02  0.16136005609E+02 -0.40597386250E+02  0.45045682619E+02  0.00000000000E+00 0. -1.
         11    1    3    3    0    0 -0.85478293233E+00 -0.92540385275E+00  0.52411575443E+00  0.13644499761E+01  0.51100000000E-03 0. -1.
        -11    1    3    3    0    0  0.50464282359E+01 -0.31231170104E+01  0.14917296032E+02  0.16054470373E+02  0.51100000000E-03 0.  1.
        -12    1    3    3    0    0  0.67899336015E+01 -0.12087484746E+02  0.25155974464E+02  0.28723397031E+02  0.00000000000E+00 0.  1.
</event>
<event>
 7    1  0.1381440E-008  0.4614232E+02  0.7816164E-02  0.1320468E+00
        -11   -1    0    0    0    0  0.00000000000E+00  0.00000000000E+00  0.45593999997E+02  0.45594000000E+02  0.51100000000E-03 0.  1.
         11   -1    0    0    0    0 -0.00000000000E+00 -0.00000000000E+00 -0.45593999997E+02  0.45594000000E+02  0.51100000000E-03 0. -1.
    9900012    2    1    2    0    0  0.34663452755E+02 -0.32087843662E+01  0.28587799150E+02  0.46142317474E+02  0.99999973782E+01 0.  0.
         12    1    1    2    0    0 -0.34663452755E+02  0.32087843662E+01 -0.28587799150E+02  0.45045682526E+02  0.00000000000E+00 0. -1.
         11    1    3    3    0    0  0.26765035140E+01 -0.15939223098E+01  0.38550685044E+01  0.49563911089E+01  0.51100000000E-03 0. -1.
        -11    1    3    3    0    0  0.13603635154E+02 -0.70323880354E-01  0.59162651499E+01  0.14834622625E+02  0.51100000000E-03 0.  1.
        -12    1    3    3    0    0  0.18383314087E+02 -0.15445381760E+01  0.18816465496E+02  0.26351303739E+02  0.00000000000E+00 0.  1.
</event>
<event>
 7    1  0.1381440E-008  0.4614232E+02  0.7816164E-02  0.1320468E+00
        -11   -1    0    0    0    0  0.00000000000E+00  0.00000000000E+00  0.45593999997E+02  0.45594000000E+02  0.51100000000E-03 0.  1.
         11   -1    0    0    0    0 -0.00000000000E+00 -0.00000000000E+00 -0.45593999997E+02  0.45594000000E+02  0.51100000000E-03 0. -1.
    9900012    2    1    2    0    0 -0.36964889478E+02  0.17699303370E+02  0.18693448818E+02  0.46142318491E+02  0.10000006653E+02 0.  0.
         12    1    1    2    0    0  0.36964889478E+02 -0.17699303370E+02 -0.18693448818E+02  0.45045681509E+02  0.00000000000E+00 0. -1.
         11    1    3    3    0    0 -0.20929784683E+01 -0.20709096879E+00  0.24294675013E+01  0.32133717711E+01  0.51100000000E-03 0. -1.
        -11    1    3    3    0    0 -0.17272062226E+02  0.79415692475E+01  0.11257269873E+02  0.22093410350E+02  0.51100000000E-03 0.  1.
         12    1    3    3    0    0 -0.17599848784E+02  0.99648250916E+01  0.50067114438E+01  0.20835536369E+02  0.00000000000E+00 0. -1.
</event>
<event>
 7    1  0.1381440E-008  0.4614232E+02  0.7816164E-02  0.1320468E+00
        -11   -1    0    0    0    0  0.00000000000E+00  0.00000000000E+00  0.45593999997E+02  0.45594000000E+02  0.51100000000E-03 0. -1.
         11   -1    0    0    0    0 -0.00000000000E+00 -0.00000000000E+00 -0.45593999997E+02  0.45594000000E+02  0.51100000000E-03 0.  1.
    9900012    2    1    2    0    0 -0.41564605932E+02  0.42369269385E+01 -0.16838807832E+02  0.46142318017E+02  0.10000002331E+02 0.  0.
         12    1    1    2    0    0  0.41564605932E+02 -0.42369269385E+01  0.16838807832E+02  0.45045681983E+02  0.00000000000E+00 0. -1.
         11    1    3    3    0    0 -0.22106667322E+00 -0.48720898037E+00 -0.17833733958E+01  0.18618979549E+01  0.51100000000E-03 0. -1.
        -11    1    3    3    0    0 -0.33806046074E+02  0.36467062785E+01 -0.11688294054E+02  0.35955019621E+02  0.51100000000E-03 0.  1.
         12    1    3    3    0    0 -0.75374931849E+01  0.10774296403E+01 -0.33671403826E+01  0.83254004407E+01  0.00000000000E+00 0. -1.
</event>
<event>
 7    1  0.1381440E-008  0.4614232E+02  0.7816164E-02  0.1320468E+00
        -11   -1    0    0    0    0  0.00000000000E+00  0.00000000000E+00  0.45593999997E+02  0.45594000000E+02  0.51100000000E-03 0.  1.
         11   -1    0    0    0    0 -0.00000000000E+00 -0.00000000000E+00 -0.45593999997E+02  0.45594000000E+02  0.51100000000E-03 0. -1.
    9900012    2    1    2    0    0 -0.14659620884E+02 -0.17522082402E+02  0.38822488909E+02  0.46142317618E+02  0.99999986990E+01 0.  0.
         12    1    1    2    0    0  0.14659620884E+02  0.17522082402E+02 -0.38822488909E+02  0.45045682382E+02  0.00000000000E+00 0. -1.
         11    1    3    3    0    0 -0.96023284202E+00 -0.72469750833E+00 -0.36238764865E+00  0.12564070433E+01  0.51100000000E-03 0. -1.
        -11    1    3    3    0    0 -0.67199750984E+01 -0.10188957422E+02  0.20055055584E+02  0.23477184103E+02  0.51100000000E-03 0.  1.
         12    1    3    3    0    0 -0.69794129440E+01 -0.66084274710E+01  0.19129820973E+02  0.21408726472E+02  0.00000000000E+00 0. -1.
</event>
<event>
 7    1  0.1381440E-008  0.4614232E+02  0.7816164E-02  0.1320468E+00
        -11   -1    0    0    0    0  0.00000000000E+00  0.00000000000E+00  0.45593999997E+02  0.45594000000E+02  0.51100000000E-03 0. -1.
         11   -1    0    0    0    0 -0.00000000000E+00 -0.00000000000E+00 -0.45593999997E+02  0.45594000000E+02  0.51100000000E-03 0.  1.
    9900012    2    1    2    0    0  0.36724511633E+02 -0.11853040914E+02  0.23236375672E+02  0.46142317766E+02  0.10000000043E+02 0.  0.
         12    1    1    2    0    0 -0.36724511633E+02  0.11853040914E+02 -0.23236375672E+02  0.45045682234E+02  0.00000000000E+00 0. -1.
         11    1    3    3    0    0  0.15581443531E+02 -0.89863086377E+01  0.12792786745E+02  0.22072392675E+02  0.51100000000E-03 0.  1.
        -11    1    3    3    0    0  0.17592411516E+02 -0.20641070672E+01  0.69600801845E+01  0.19031452845E+02  0.51100000000E-03 0. -1.
         12    1    3    3    0    0  0.35506565852E+01 -0.80262520865E+00  0.34835087430E+01  0.50384722461E+01  0.00000000000E+00 0. -1.
</event>
<event>
 7    1  0.1381440E-008  0.4614232E+02  0.7816164E-02  0.1320468E+00
        -11   -1    0    0    0    0  0.00000000000E+00  0.00000000000E+00  0.45593999997E+02  0.45594000000E+02  0.51100000000E-03 0. -1.
         11   -1    0    0    0    0 -0.00000000000E+00 -0.00000000000E+00 -0.45593999997E+02  0.45594000000E+02  0.51100000000E-03 0.  1.
    9900012    2    1    2    0    0 -0.58786924698E+01  0.43156191573E+02 -0.11493369576E+02  0.46142318293E+02  0.10000004853E+02 0.  0.
         12    1    1    2    0    0  0.58786924698E+01 -0.43156191573E+02  0.11493369576E+02  0.45045681707E+02  0.00000000000E+00 0. -1.
         11    1    3    3    0    0 -0.52252713643E+01  0.18284798372E+02 -0.45996377506E+01  0.19565121518E+02  0.51100000000E-03 0. -1.
        -11    1    3    3    0    0 -0.17773978151E+01  0.20893211200E+02 -0.77508914836E+01  0.22355351401E+02  0.51100000000E-03 0.  1.
         12    1    3    3    0    0  0.11239767097E+01  0.39781820015E+01  0.85715965816E+00  0.42218453738E+01  0.00000000000E+00 0. -1.
</event>
<event>
 7    1  0.1381440E-008  0.4614232E+02  0.7816164E-02  0.1320468E+00
        -11   -1    0    0    0    0  0.00000000000E+00  0.00000000000E+00  0.45593999997E+02  0.45594000000E+02  0.51100000000E-03 0. -1.
         11   -1    0    0    0    0 -0.00000000000E+00 -0.00000000000E+00 -0.45593999997E+02  0.45594000000E+02  0.51100000000E-03 0.  1.
    9900012    2    1    2    0    0 -0.34999671307E+02  0.26008042363E+02  0.11301252311E+02  0.46142316933E+02  0.99999924480E+01 0.  0.
         12    1    1    2    0    0  0.34999671307E+02 -0.26008042363E+02 -0.11301252311E+02  0.45045683067E+02  0.00000000000E+00 0. -1.
         11    1    3    3    0    0 -0.21330887722E+01  0.60228662880E+00  0.25937404260E+01  0.34117893475E+01  0.51100000000E-03 0. -1.
        -11    1    3    3    0    0 -0.26709184753E+02  0.18161191280E+02  0.73727399699E+01  0.33129544425E+02  0.51100000000E-03 0.  1.
        -12    1    3    3    0    0 -0.61573977818E+01  0.72445644548E+01  0.13347719152E+01  0.96009831606E+01  0.00000000000E+00 0.  1.
</event>
<event>
 7    1  0.1381440E-008  0.4614232E+02  0.7816164E-02  0.1320468E+00
        -11   -1    0    0    0    0  0.00000000000E+00  0.00000000000E+00  0.45593999997E+02  0.45594000000E+02  0.51100000000E-03 0.  1.
         11   -1    0    0    0    0 -0.00000000000E+00 -0.00000000000E+00 -0.45593999997E+02  0.45594000000E+02  0.51100000000E-03 0. -1.
    9900012    2    1    2    0    0 -0.69026945160E+01  0.53104565868E+00  0.44510497205E+02  0.46142316938E+02  0.99999924940E+01 0.  0.
         12    1    1    2    0    0  0.69026945160E+01 -0.53104565868E+00 -0.44510497205E+02  0.45045683062E+02  0.00000000000E+00 0. -1.
         11    1    3    3    0    0 -0.55348985761E+01  0.13934724599E+01  0.98168044873E+01  0.11355462049E+02  0.51100000000E-03 0. -1.
        -11    1    3    3    0    0 -0.96349823416E+00  0.30957367713E+00  0.79088499433E+01  0.79733350861E+01  0.51100000000E-03 0.  1.
         12    1    3    3    0    0 -0.40429770569E+00 -0.11720004783E+01  0.26784842775E+02  0.26813519803E+02  0.00000000000E+00 0. -1.
</event>
<event>
 7    1  0.1381440E-008  0.4614232E+02  0.7816164E-02  0.1320468E+00
        -11   -1    0    0    0    0  0.00000000000E+00  0.00000000000E+00  0.45593999997E+02  0.45594000000E+02  0.51100000000E-03 0.  1.
         11   -1    0    0    0    0 -0.00000000000E+00 -0.00000000000E+00 -0.45593999997E+02  0.45594000000E+02  0.51100000000E-03 0. -1.
    9900012    2    1    2    0    0  0.34344582839E+02 -0.10927545702E+02  0.27021324717E+02  0.46142316356E+02  0.99999871903E+01 0.  0.
         12    1    1    2    0    0 -0.34344582839E+02  0.10927545702E+02 -0.27021324717E+02  0.45045683644E+02  0.00000000000E+00 0. -1.
         11    1    3    3    0    0  0.12965549500E+02 -0.75420807788E+01  0.97953808724E+01  0.17914740942E+02  0.51100000000E-03 0. -1.
        -11    1    3    3    0    0  0.18007304208E+02 -0.13837101235E+01  0.11957562470E+02  0.21660123708E+02  0.51100000000E-03 0.  1.
         12    1    3    3    0    0  0.33717291304E+01 -0.20017547996E+01  0.52683813752E+01  0.65674517068E+01  0.00000000000E+00 0. -1.
</event>
<event>
 7    1  0.1381440E-008  0.4614232E+02  0.7816164E-02  0.1320468E+00
        -11   -1    0    0    0    0  0.00000000000E+00  0.00000000000E+00  0.45593999997E+02  0.45594000000E+02  0.51100000000E-03 0.  1.
         11   -1    0    0    0    0 -0.00000000000E+00 -0.00000000000E+00 -0.45593999997E+02  0.45594000000E+02  0.51100000000E-03 0. -1.
    9900012    2    1    2    0    0  0.39558163010E+02  0.72256894247E+01  0.20299129874E+02  0.46142317387E+02  0.99999965922E+01 0.  0.
         12    1    1    2    0    0 -0.39558163010E+02 -0.72256894247E+01 -0.20299129874E+02  0.45045682613E+02  0.00000000000E+00 0. -1.
         11    1    3    3    0    0  0.37752983678E+01  0.52495674292E-01  0.28488988235E+01  0.47298898855E+01  0.51100000000E-03 0. -1.
        -11    1    3    3    0    0  0.14995384191E+02  0.74396939609E+01  0.69950911765E+01  0.18142268163E+02  0.51100000000E-03 0.  1.
        -12    1    3    3    0    0  0.20787480451E+02 -0.26650021049E+00  0.10455139874E+02  0.23270159339E+02  0.00000000000E+00 0.  1.
</event>
<event>
 7    1  0.1381440E-008  0.4614232E+02  0.7816164E-02  0.1320468E+00
        -11   -1    0    0    0    0  0.00000000000E+00  0.00000000000E+00  0.45593999997E+02  0.45594000000E+02  0.51100000000E-03 0.  1.
         11   -1    0    0    0    0 -0.00000000000E+00 -0.00000000000E+00 -0.45593999997E+02  0.45594000000E+02  0.51100000000E-03 0. -1.
    9900012    2    1    2    0    0  0.65583647711E+01  0.11834815437E+02  0.42965550009E+02  0.46142317716E+02  0.99999995844E+01 0.  0.
         12    1    1    2    0    0 -0.65583647711E+01 -0.11834815437E+02 -0.42965550009E+02  0.45045682284E+02  0.00000000000E+00 0. -1.
         11    1    3    3    0    0 -0.45020898951E+00 -0.60386561692E+00  0.43480812158E+00  0.86971270041E+00  0.51100000000E-03 0. -1.
        -11    1    3    3    0    0  0.23821937122E+01  0.34519722975E+01  0.56792755904E+01  0.70601084353E+01  0.51100000000E-03 0.  1.
        -12    1    3    3    0    0  0.46263800485E+01  0.89867087566E+01  0.36851466297E+02  0.38212496580E+02  0.00000000000E+00 0.  1.
</event>
<event>
 7    1  0.1381440E-008  0.4614232E+02  0.7816164E-02  0.1320468E+00
        -11   -1    0    0    0    0  0.00000000000E+00  0.00000000000E+00  0.45593999997E+02  0.45594000000E+02  0.51100000000E-03 0. -1.
         11   -1    0    0    0    0 -0.00000000000E+00 -0.00000000000E+00 -0.45593999997E+02  0.45594000000E+02  0.51100000000E-03 0.  1.
    9900012    2    1    2    0    0 -0.37720256012E+02  0.24558719956E+02 -0.17790630720E+01  0.46142317578E+02  0.99999983263E+01 0.  0.
         12    1    1    2    0    0  0.37720256012E+02 -0.24558719956E+02  0.17790630720E+01  0.45045682422E+02  0.00000000000E+00 0. -1.
         11    1    3    3    0    0 -0.63983698955E+01  0.58252632641E+01 -0.29188046444E+00  0.86578302063E+01  0.51100000000E-03 0. -1.
        -11    1    3    3    0    0 -0.27524670459E+02  0.17822903817E+02  0.10840210212E+01  0.32809121997E+02  0.51100000000E-03 0.  1.
        -12    1    3    3    0    0 -0.37972156570E+01  0.91055287531E+00 -0.25712036288E+01  0.46753653745E+01  0.00000000000E+00 0.  1.
</event>
<event>
 7    1  0.1381440E-008  0.4614232E+02  0.7816164E-02  0.1320468E+00
        -11   -1    0    0    0    0  0.00000000000E+00  0.00000000000E+00  0.45593999997E+02  0.45594000000E+02  0.51100000000E-03 0.  1.
         11   -1    0    0    0    0 -0.00000000000E+00 -0.00000000000E+00 -0.45593999997E+02  0.45594000000E+02  0.51100000000E-03 0. -1.
    9900012    2    1    2    0    0  0.40895314247E+02 -0.11379017337E+02  0.15073306279E+02  0.46142319573E+02  0.10000016523E+02 0.  0.
         12    1    1    2    0    0 -0.40895314247E+02  0.11379017337E+02 -0.15073306279E+02  0.45045680427E+02  0.00000000000E+00 0. -1.
         11    1    3    3    0    0  0.32852514442E+01 -0.38453107058E+01  0.24853493172E+01  0.56352686684E+01  0.51100000000E-03 0. -1.
        -11    1    3    3    0    0  0.31559292098E+02 -0.63926668499E+01  0.92471692916E+01  0.33501720065E+02  0.51100000000E-03 0.  1.
         12    1    3    3    0    0  0.60507707054E+01 -0.11410397815E+01  0.33407876700E+01  0.70053308394E+01  0.00000000000E+00 0. -1.
</event>
<event>
 7    1  0.1381440E-008  0.4614232E+02  0.7816164E-02  0.1320468E+00
        -11   -1    0    0    0    0  0.00000000000E+00  0.00000000000E+00  0.45593999997E+02  0.45594000000E+02  0.51100000000E-03 0.  1.
         11   -1    0    0    0    0 -0.00000000000E+00 -0.00000000000E+00 -0.45593999997E+02  0.45594000000E+02  0.51100000000E-03 0. -1.
    9900012    2    1    2    0    0 -0.24893752889E+02 -0.20671454206E+02  0.31338563922E+02  0.46142317181E+02  0.99999947119E+01 0.  0.
         12    1    1    2    0    0  0.24893752889E+02  0.20671454206E+02 -0.31338563922E+02  0.45045682819E+02  0.00000000000E+00 0. -1.
         11    1    3    3    0    0 -0.29860312788E+01 -0.46986625922E+01  0.40203111613E+01  0.68670747082E+01  0.51100000000E-03 0.  1.
        -11    1    3    3    0    0 -0.45965779970E+01 -0.44560962124E+01  0.11455611346E+02  0.13123122887E+02  0.51100000000E-03 0. -1.
         12    1    3    3    0    0 -0.17311143614E+02 -0.11516695402E+02  0.15862641414E+02  0.26152119586E+02  0.00000000000E+00 0. -1.
</event>
<event>
 7    1  0.1381440E-008  0.4614232E+02  0.7816164E-02  0.1320468E+00
        -11   -1    0    0    0    0  0.00000000000E+00  0.00000000000E+00  0.45593999997E+02  0.45594000000E+02  0.51100000000E-03 0.  1.
         11   -1    0    0    0    0 -0.00000000000E+00 -0.00000000000E+00 -0.45593999997E+02  0.45594000000E+02  0.51100000000E-03 0. -1.
    9900012    2    1    2    0    0  0.28749608672E+02  0.19125597765E+02  0.28927236990E+02  0.46142317315E+02  0.99999959362E+01 0.  0.
         12    1    1    2    0    0 -0.28749608672E+02 -0.19125597765E+02 -0.28927236990E+02  0.45045682685E+02  0.00000000000E+00 0. -1.
         11    1    3    3    0    0  0.41825829695E+01  0.24209272838E+01  0.58635675435E+01  0.75984415381E+01  0.51100000000E-03 0. -1.
        -11    1    3    3    0    0  0.15448864623E+02  0.66508412502E+01  0.93261077338E+01  0.19232196786E+02  0.51100000000E-03 0.  1.
        -12    1    3    3    0    0  0.91181610794E+01  0.10053829231E+02  0.13737561712E+02  0.19311678992E+02  0.00000000000E+00 0.  1.
</event>
<event>
 7    1  0.1381440E-008  0.4614232E+02  0.7816164E-02  0.1320468E+00
        -11   -1    0    0    0    0  0.00000000000E+00  0.00000000000E+00  0.45593999997E+02  0.45594000000E+02  0.51100000000E-03 0. -1.
         11   -1    0    0    0    0 -0.00000000000E+00 -0.00000000000E+00 -0.45593999997E+02  0.45594000000E+02  0.51100000000E-03 0.  1.
    9900012    2    1    2    0    0  0.31074773377E+02 -0.14728578822E+02 -0.29095375800E+02  0.46142317993E+02  0.10000002114E+02 0.  0.
         12    1    1    2    0    0 -0.31074773377E+02  0.14728578822E+02  0.29095375800E+02  0.45045682007E+02  0.00000000000E+00 0. -1.
         11    1    3    3    0    0  0.20240180963E+02 -0.78683635323E+01 -0.16858792239E+02  0.27491725048E+02  0.51100000000E-03 0. -1.
        -11    1    3    3    0    0  0.66243986652E+01 -0.45900911486E+01 -0.37060135037E+01  0.88705203218E+01  0.51100000000E-03 0.  1.
         12    1    3    3    0    0  0.42101937492E+01 -0.22701241410E+01 -0.85305700567E+01  0.97800726232E+01  0.00000000000E+00 0. -1.
</event>
<event>
 7    1  0.1381440E-008  0.4614232E+02  0.7816164E-02  0.1320468E+00
        -11   -1    0    0    0    0  0.00000000000E+00  0.00000000000E+00  0.45593999997E+02  0.45594000000E+02  0.51100000000E-03 0.  1.
         11   -1    0    0    0    0 -0.00000000000E+00 -0.00000000000E+00 -0.45593999997E+02  0.45594000000E+02  0.51100000000E-03 0. -1.
    9900012    2    1    2    0    0  0.50231585767E+01 -0.31186565952E+02 -0.32113541039E+02  0.46142317232E+02  0.99999951757E+01 0.  0.
         12    1    1    2    0    0 -0.50231585767E+01  0.31186565952E+02  0.32113541039E+02  0.45045682768E+02  0.00000000000E+00 0. -1.
         11    1    3    3    0    0  0.43634191803E+01 -0.12269046139E+02 -0.17382881212E+02  0.21719426318E+02  0.51100000000E-03 0. -1.
        -11    1    3    3    0    0 -0.17613006313E+01 -0.11672724970E+02 -0.96714826055E+01  0.15260808111E+02  0.51100000000E-03 0.  1.
        -12    1    3    3    0    0  0.24210400277E+01 -0.72447948428E+01 -0.50591772214E+01  0.91620828029E+01  0.00000000000E+00 0.  1.
</event>
<event>
 7    1  0.1381440E-008  0.4614232E+02  0.7816164E-02  0.1320468E+00
        -11   -1    0    0    0    0  0.00000000000E+00  0.00000000000E+00  0.45593999997E+02  0.45594000000E+02  0.51100000000E-03 0.  1.
         11   -1    0    0    0    0 -0.00000000000E+00 -0.00000000000E+00 -0.45593999997E+02  0.45594000000E+02  0.51100000000E-03 0. -1.
    9900012    2    1    2    0    0  0.17897437901E+02 -0.39601084353E+02  0.11855346977E+02  0.46142318550E+02  0.10000007194E+02 0.  0.
         12    1    1    2    0    0 -0.17897437901E+02  0.39601084353E+02 -0.11855346977E+02  0.45045681450E+02  0.00000000000E+00 0. -1.
         11    1    3    3    0    0  0.15833913152E+02 -0.28279940376E+02  0.62221070926E+01  0.33002764283E+02  0.51100000000E-03 0.  1.
        -11    1    3    3    0    0  0.22678954482E+01 -0.83671968629E+01  0.52975085239E+01  0.10159573314E+02  0.51100000000E-03 0. -1.
        -12    1    3    3    0    0 -0.20437069846E+00 -0.29539471139E+01  0.33573136038E+00  0.29799809531E+01  0.00000000000E+00 0.  1.
</event>
<event>
 7    1  0.1381440E-008  0.4614232E+02  0.7816164E-02  0.1320468E+00
        -11   -1    0    0    0    0  0.00000000000E+00  0.00000000000E+00  0.45593999997E+02  0.45594000000E+02  0.51100000000E-03 0.  1.
         11   -1    0    0    0    0 -0.00000000000E+00 -0.00000000000E+00 -0.45593999997E+02  0.45594000000E+02  0.51100000000E-03 0. -1.
    9900012    2    1    2    0    0 -0.28931450604E+02 -0.21409122280E+02  0.27087529197E+02  0.46142316646E+02  0.99999898289E+01 0.  0.
         12    1    1    2    0    0  0.28931450604E+02  0.21409122280E+02 -0.27087529197E+02  0.45045683354E+02  0.00000000000E+00 0. -1.
         11    1    3    3    0    0 -0.44604993077E+01 -0.13474354713E+01  0.39981091770E+00  0.46766959977E+01  0.51100000000E-03 0. -1.
        -11    1    3    3    0    0 -0.24140718957E+02 -0.19486204934E+02  0.26423172835E+02  0.40751325836E+02  0.51100000000E-03 0.  1.
         12    1    3    3    0    0 -0.33023233964E+00 -0.57548187454E+00  0.26454544438E+00  0.71429481183E+00  0.00000000000E+00 0. -1.
</event>
<event>
 7    1  0.1381440E-008  0.4614232E+02  0.7816164E-02  0.1320468E+00
        -11   -1    0    0    0    0  0.00000000000E+00  0.00000000000E+00  0.45593999997E+02  0.45594000000E+02  0.51100000000E-03 0. -1.
         11   -1    0    0    0    0 -0.00000000000E+00 -0.00000000000E+00 -0.45593999997E+02  0.45594000000E+02  0.51100000000E-03 0.  1.
    9900012    2    1    2    0    0 -0.96401250160E+01  0.38978531275E+01 -0.43829079414E+02  0.46142317947E+02  0.10000001693E+02 0.  0.
         12    1    1    2    0    0  0.96401250160E+01 -0.38978531275E+01  0.43829079414E+02  0.45045682053E+02  0.00000000000E+00 0. -1.
         11    1    3    3    0    0 -0.17961467288E+01 -0.60582637678E+00 -0.21097473262E+01  0.28362303700E+01  0.51100000000E-03 0. -1.
        -11    1    3    3    0    0 -0.66261783340E+01  0.50391185518E+01 -0.40911191836E+02  0.41749545779E+02  0.51100000000E-03 0.  1.
        -12    1    3    3    0    0 -0.12177999532E+01 -0.53543904756E+00 -0.80814025225E+00  0.15565417974E+01  0.00000000000E+00 0.  1.
</event>
<event>
 7    1  0.1381440E-008  0.4614232E+02  0.7816164E-02  0.1320468E+00
        -11   -1    0    0    0    0  0.00000000000E+00  0.00000000000E+00  0.45593999997E+02  0.45594000000E+02  0.51100000000E-03 0.  1.
         11   -1    0    0    0    0 -0.00000000000E+00 -0.00000000000E+00 -0.45593999997E+02  0.45594000000E+02  0.51100000000E-03 0. -1.
    9900012    2    1    2    0    0  0.24139417592E+02  0.36623617305E+02  0.10252449905E+02  0.46142317019E+02  0.99999932302E+01 0.  0.
         12    1    1    2    0    0 -0.24139417592E+02 -0.36623617305E+02 -0.10252449905E+02  0.45045682981E+02  0.00000000000E+00 0. -1.
         11    1    3    3    0    0  0.26366296904E+01  0.26553701179E+01  0.38832585846E-01  0.37422339342E+01  0.51100000000E-03 0. -1.
        -11    1    3    3    0    0  0.12252938438E+02  0.26414224261E+02  0.59511706400E+01  0.29719727050E+02  0.51100000000E-03 0.  1.
        -12    1    3    3    0    0  0.92498494638E+01  0.75540229261E+01  0.42624466789E+01  0.12680356034E+02  0.00000000000E+00 0.  1.
</event>
<event>
 7    1  0.1381440E-008  0.4614232E+02  0.7816164E-02  0.1320468E+00
        -11   -1    0    0    0    0  0.00000000000E+00  0.00000000000E+00  0.45593999997E+02  0.45594000000E+02  0.51100000000E-03 0.  1.
         11   -1    0    0    0    0 -0.00000000000E+00 -0.00000000000E+00 -0.45593999997E+02  0.45594000000E+02  0.51100000000E-03 0. -1.
    9900012    2    1    2    0    0 -0.22163666744E+02  0.12478614165E+02  0.37177540247E+02  0.46142318366E+02  0.10000005516E+02 0.  0.
         12    1    1    2    0    0  0.22163666744E+02 -0.12478614165E+02 -0.37177540247E+02  0.45045681634E+02  0.00000000000E+00 0. -1.
         11    1    3    3    0    0 -0.10054129316E+02  0.18368618451E+01  0.14025540402E+02  0.17354404673E+02  0.51100000000E-03 0.  1.
        -11    1    3    3    0    0 -0.81633885490E+01  0.63436430490E+01  0.99262262714E+01  0.14332225507E+02  0.51100000000E-03 0. -1.
        -12    1    3    3    0    0 -0.39461488790E+01  0.42981092711E+01  0.13225773574E+02  0.14455688186E+02  0.00000000000E+00 0.  1.
</event>
<event>
 7    1  0.1381440E-008  0.4614232E+02  0.7816164E-02  0.1320468E+00
        -11   -1    0    0    0    0  0.00000000000E+00  0.00000000000E+00  0.45593999997E+02  0.45594000000E+02  0.51100000000E-03 0. -1.
         11   -1    0    0    0    0 -0.00000000000E+00 -0.00000000000E+00 -0.45593999997E+02  0.45594000000E+02  0.51100000000E-03 0.  1.
    9900012    2    1    2    0    0 -0.10437494149E+01 -0.18465224831E+02 -0.41073830547E+02  0.46142317668E+02  0.99999991532E+01 0.  0.
         12    1    1    2    0    0  0.10437494149E+01  0.18465224831E+02  0.41073830547E+02  0.45045682332E+02  0.00000000000E+00 0. -1.
         11    1    3    3    0    0  0.22177042964E+01 -0.27935847667E+01 -0.47539383356E+01  0.59432531626E+01  0.51100000000E-03 0. -1.
        -11    1    3    3    0    0  0.12934553856E+01 -0.45372186944E+01 -0.14936818324E+02  0.15664224277E+02  0.51100000000E-03 0.  1.
         12    1    3    3    0    0 -0.45549090970E+01 -0.11134421370E+02 -0.21383073888E+02  0.24534840228E+02  0.00000000000E+00 0. -1.
</event>
<event>
 7    1  0.1381440E-008  0.4614232E+02  0.7816164E-02  0.1320468E+00
        -11   -1    0    0    0    0  0.00000000000E+00  0.00000000000E+00  0.45593999997E+02  0.45594000000E+02  0.51100000000E-03 0.  1.
         11   -1    0    0    0    0 -0.00000000000E+00 -0.00000000000E+00 -0.45593999997E+02  0.45594000000E+02  0.51100000000E-03 0. -1.
    9900012    2    1    2    0    0 -0.25500891701E+02 -0.14611741611E+02  0.34136710292E+02  0.46142318076E+02  0.10000002873E+02 0.  0.
         12    1    1    2    0    0  0.25500891701E+02  0.14611741611E+02 -0.34136710292E+02  0.45045681924E+02  0.00000000000E+00 0. -1.
         11    1    3    3    0    0 -0.57429475978E+01 -0.39873734377E+01  0.14154087632E+02  0.15786664974E+02  0.51100000000E-03 0. -1.
        -11    1    3    3    0    0 -0.94205179864E+01 -0.50254855457E+01  0.66435655982E+01  0.12575318215E+02  0.51100000000E-03 0.  1.
         12    1    3    3    0    0 -0.10337426116E+02 -0.55988826278E+01  0.13339057061E+02  0.17780334887E+02  0.00000000000E+00 0. -1.
</event>
<event>
 7    1  0.1381440E-008  0.4614232E+02  0.7816164E-02  0.1320468E+00
        -11   -1    0    0    0    0  0.00000000000E+00  0.00000000000E+00  0.45593999997E+02  0.45594000000E+02  0.51100000000E-03 0. -1.
         11   -1    0    0    0    0 -0.00000000000E+00 -0.00000000000E+00 -0.45593999997E+02  0.45594000000E+02  0.51100000000E-03 0.  1.
    9900012    2    1    2    0    0 -0.17648800320E+02  0.40867007932E+02 -0.68935283332E+01  0.46142320708E+02  0.10000026869E+02 0.  0.
         12    1    1    2    0    0  0.17648800320E+02 -0.40867007932E+02  0.68935283332E+01  0.45045679292E+02  0.00000000000E+00 0. -1.
         11    1    3    3    0    0 -0.49873487490E+00  0.55884433429E+01 -0.29169209454E+01  0.63235957758E+01  0.51100000000E-03 0. -1.
        -11    1    3    3    0    0 -0.13125465477E+02  0.22848855597E+02 -0.45532083227E+01  0.26740975157E+02  0.51100000000E-03 0.  1.
         12    1    3    3    0    0 -0.40245999687E+01  0.12429708992E+02  0.57660093498E+00  0.13077749774E+02  0.00000000000E+00 0. -1.
</event>
<event>
 7    1  0.1381440E-008  0.4614232E+02  0.7816164E-02  0.1320468E+00
        -11   -1    0    0    0    0  0.00000000000E+00  0.00000000000E+00  0.45593999997E+02  0.45594000000E+02  0.51100000000E-03 0.  1.
         11   -1    0    0    0    0 -0.00000000000E+00 -0.00000000000E+00 -0.45593999997E+02  0.45594000000E+02  0.51100000000E-03 0. -1.
    9900012    2    1    2    0    0 -0.81634360698E+00  0.19215831655E+00  0.45037875272E+02  0.46142317069E+02  0.99999936920E+01 0.  0.
         12    1    1    2    0    0  0.81634360698E+00 -0.19215831655E+00 -0.45037875272E+02  0.45045682931E+02  0.00000000000E+00 0. -1.
         11    1    3    3    0    0 -0.17737225593E+01 -0.39145270016E+01  0.13426611867E+02  0.14097642351E+02  0.51100000000E-03 0. -1.
        -11    1    3    3    0    0 -0.42053976731E+00  0.21821028375E+01  0.23215843045E+02  0.23321959503E+02  0.51100000000E-03 0.  1.
         12    1    3    3    0    0  0.13779187196E+01  0.19245824807E+01  0.83954203594E+01  0.87227152157E+01  0.00000000000E+00 0. -1.
</event>
<event>
 7    1  0.1381440E-008  0.4614232E+02  0.7816164E-02  0.1320468E+00
        -11   -1    0    0    0    0  0.00000000000E+00  0.00000000000E+00  0.45593999997E+02  0.45594000000E+02  0.51100000000E-03 0. -1.
         11   -1    0    0    0    0 -0.00000000000E+00 -0.00000000000E+00 -0.45593999997E+02  0.45594000000E+02  0.51100000000E-03 0.  1.
    9900012    2    1    2    0    0  0.10153878508E+02 -0.26954752946E+02 -0.34633126569E+02  0.46142318619E+02  0.10000007825E+02 0.  0.
         12    1    1    2    0    0 -0.10153878508E+02  0.26954752946E+02  0.34633126569E+02  0.45045681381E+02  0.00000000000E+00 0. -1.
         11    1    3    3    0    0  0.36900096269E+01 -0.41962686106E+01 -0.50043142336E+01  0.75012000712E+01  0.51100000000E-03 0. -1.
        -11    1    3    3    0    0  0.76416853231E+01 -0.13854441447E+02 -0.19054117159E+02  0.24766919133E+02  0.51100000000E-03 0.  1.
        -12    1    3    3    0    0 -0.11778164423E+01 -0.89040428889E+01 -0.10574695176E+02  0.13874199415E+02  0.00000000000E+00 0.  1.
</event>
<event>
 7    1  0.1381440E-008  0.4614232E+02  0.7816164E-02  0.1320468E+00
        -11   -1    0    0    0    0  0.00000000000E+00  0.00000000000E+00  0.45593999997E+02  0.45594000000E+02  0.51100000000E-03 0. -1.
         11   -1    0    0    0    0 -0.00000000000E+00 -0.00000000000E+00 -0.45593999997E+02  0.45594000000E+02  0.51100000000E-03 0.  1.
    9900012    2    1    2    0    0 -0.18278756663E+02 -0.37919122852E+02 -0.16035607342E+02  0.46142317345E+02  0.99999962087E+01 0.  0.
         12    1    1    2    0    0  0.18278756663E+02  0.37919122852E+02  0.16035607342E+02  0.45045682655E+02  0.00000000000E+00 0. -1.
         11    1    3    3    0    0 -0.35783326150E+00  0.34381437812E+00 -0.11084469466E+01  0.12144578479E+01  0.51100000000E-03 0. -1.
        -11    1    3    3    0    0 -0.16879717726E+02 -0.34847603581E+02 -0.12849988140E+02  0.40797089863E+02  0.51100000000E-03 0.  1.
        -12    1    3    3    0    0 -0.10412056750E+01 -0.34153336489E+01 -0.20771722553E+01  0.41307696340E+01  0.00000000000E+00 0.  1.
</event>
<event>
 7    1  0.1381440E-008  0.4614232E+02  0.7816164E-02  0.1320468E+00
        -11   -1    0    0    0    0  0.00000000000E+00  0.00000000000E+00  0.45593999997E+02  0.45594000000E+02  0.51100000000E-03 0. -1.
         11   -1    0    0    0    0 -0.00000000000E+00 -0.00000000000E+00 -0.45593999997E+02  0.45594000000E+02  0.51100000000E-03 0.  1.
    9900012    2    1    2    0    0 -0.25701534264E+02 -0.12478060848E+02 -0.34825889602E+02  0.46142318158E+02  0.10000003617E+02 0.  0.
         12    1    1    2    0    0  0.25701534264E+02  0.12478060848E+02  0.34825889602E+02  0.45045681842E+02  0.00000000000E+00 0. -1.
         11    1    3    3    0    0 -0.40518398739E+01 -0.39144112981E+01 -0.95630276607E+01  0.11099167558E+02  0.51100000000E-03 0. -1.
        -11    1    3    3    0    0 -0.13776628448E+02 -0.36378088753E+01 -0.10902376655E+02  0.17941319957E+02  0.51100000000E-03 0.  1.
        -12    1    3    3    0    0 -0.78730659416E+01 -0.49258406741E+01 -0.14360485287E+02  0.17101830643E+02  0.00000000000E+00 0.  1.
</event>
<event>
 7    1  0.1381440E-008  0.4614232E+02  0.7816164E-02  0.1320468E+00
        -11   -1    0    0    0    0  0.00000000000E+00  0.00000000000E+00  0.45593999997E+02  0.45594000000E+02  0.51100000000E-03 0. -1.
         11   -1    0    0    0    0 -0.00000000000E+00 -0.00000000000E+00 -0.45593999997E+02  0.45594000000E+02  0.51100000000E-03 0.  1.
    9900012    2    1    2    0    0 -0.14132851353E+02  0.41366634012E+02 -0.10870950556E+02  0.46142318045E+02  0.10000002589E+02 0.  0.
         12    1    1    2    0    0  0.14132851353E+02 -0.41366634012E+02  0.10870950556E+02  0.45045681955E+02  0.00000000000E+00 0. -1.
         11    1    3    3    0    0  0.97143550301E+00  0.39435221544E+01 -0.29819328575E+00  0.40723424973E+01  0.51100000000E-03 0. -1.
        -11    1    3    3    0    0 -0.13624050100E+02  0.27700181735E+02 -0.75193433608E+01  0.31771926824E+02  0.51100000000E-03 0.  1.
        -12    1    3    3    0    0 -0.14802367556E+01  0.97229301219E+01 -0.30534139090E+01  0.10298048723E+02  0.00000000000E+00 0.  1.
</event>
<event>
 7    1  0.1381440E-008  0.4614232E+02  0.7816164E-02  0.1320468E+00
        -11   -1    0    0    0    0  0.00000000000E+00  0.00000000000E+00  0.45593999997E+02  0.45594000000E+02  0.51100000000E-03 0.  1.
         11   -1    0    0    0    0 -0.00000000000E+00 -0.00000000000E+00 -0.45593999997E+02  0.45594000000E+02  0.51100000000E-03 0. -1.
    9900012    2    1    2    0    0  0.65340978291E+01 -0.41771199132E+02  0.15543036662E+02  0.46142317632E+02  0.99999988212E+01 0.  0.
         12    1    1    2    0    0 -0.65340978291E+01  0.41771199132E+02 -0.15543036662E+02  0.45045682368E+02  0.00000000000E+00 0. -1.
         11    1    3    3    0    0  0.13980139679E+01 -0.22956732907E+01  0.31189899935E+01  0.41173605323E+01  0.51100000000E-03 0. -1.
        -11    1    3    3    0    0  0.46681197144E+01 -0.31504151071E+02  0.77688399206E+01  0.32781972948E+02  0.51100000000E-03 0.  1.
        -12    1    3    3    0    0  0.46796414674E+00 -0.79713747702E+01  0.46552067477E+01  0.92429841520E+01  0.00000000000E+00 0.  1.
</event>
<event>
 7    1  0.1381440E-008  0.4614232E+02  0.7816164E-02  0.1320468E+00
        -11   -1    0    0    0    0  0.00000000000E+00  0.00000000000E+00  0.45593999997E+02  0.45594000000E+02  0.51100000000E-03 0. -1.
         11   -1    0    0    0    0 -0.00000000000E+00 -0.00000000000E+00 -0.45593999997E+02  0.45594000000E+02  0.51100000000E-03 0.  1.
    9900012    2    1    2    0    0 -0.22604383942E+02 -0.27513841463E+02 -0.27588835304E+02  0.46142317867E+02  0.10000000961E+02 0.  0.
         12    1    1    2    0    0  0.22604383942E+02  0.27513841463E+02  0.27588835304E+02  0.45045682133E+02  0.00000000000E+00 0. -1.
         11    1    3    3    0    0 -0.16235769969E+01 -0.15046918790E+01 -0.43151809650E+01  0.48498337020E+01  0.51100000000E-03 0. -1.
        -11    1    3    3    0    0 -0.10662063941E+02 -0.81111601180E+01 -0.10282595876E+02  0.16887933686E+02  0.51100000000E-03 0.  1.
         12    1    3    3    0    0 -0.10318743003E+02 -0.17897989466E+02 -0.12991058463E+02  0.24404550479E+02  0.00000000000E+00 0. -1.
</event>
<event>
 7    1  0.1381440E-008  0.4614232E+02  0.7816164E-02  0.1320468E+00
        -11   -1    0    0    0    0  0.00000000000E+00  0.00000000000E+00  0.45593999997E+02  0.45594000000E+02  0.51100000000E-03 0.  1.
         11   -1    0    0    0    0 -0.00000000000E+00 -0.00000000000E+00 -0.45593999997E+02  0.45594000000E+02  0.51100000000E-03 0. -1.
    9900012    2    1    2    0    0  0.81382523502E+01  0.35445774242E+02  0.26579680069E+02  0.46142318126E+02  0.10000003328E+02 0.  0.
         12    1    1    2    0    0 -0.81382523502E+01 -0.35445774242E+02 -0.26579680069E+02  0.45045681874E+02  0.00000000000E+00 0. -1.
         11    1    3    3    0    0 -0.48583201428E+00  0.53926244066E+01  0.27496288685E+01  0.60726345117E+01  0.51100000000E-03 0. -1.
        -11    1    3    3    0    0  0.52770342730E+01  0.66481426141E+01  0.50598627683E+01  0.98816548427E+01  0.51100000000E-03 0.  1.
        -12    1    3    3    0    0  0.33470500914E+01  0.23405007221E+02  0.18770188432E+02  0.30188028772E+02  0.00000000000E+00 0.  1.
</event>
<event>
 7    1  0.1381440E-008  0.4614232E+02  0.7816164E-02  0.1320468E+00
        -11   -1    0    0    0    0  0.00000000000E+00  0.00000000000E+00  0.45593999997E+02  0.45594000000E+02  0.51100000000E-03 0. -1.
         11   -1    0    0    0    0 -0.00000000000E+00 -0.00000000000E+00 -0.45593999997E+02  0.45594000000E+02  0.51100000000E-03 0.  1.
    9900012    2    1    2    0    0 -0.41320884676E+02  0.14944625932E+02  0.99174673820E+01  0.46142317477E+02  0.99999974114E+01 0.  0.
         12    1    1    2    0    0  0.41320884676E+02 -0.14944625932E+02 -0.99174673820E+01  0.45045682523E+02  0.00000000000E+00 0. -1.
         11    1    3    3    0    0 -0.52596574314E+01  0.16667161081E+01 -0.19678436142E+01  0.58578449648E+01  0.51100000000E-03 0. -1.
        -11    1    3    3    0    0 -0.34675070548E+02  0.12521969569E+02  0.11775756915E+02  0.38701791827E+02  0.51100000000E-03 0.  1.
         12    1    3    3    0    0 -0.13861566965E+01  0.75594025536E+00  0.10955408148E+00  0.15826806859E+01  0.00000000000E+00 0. -1.
</event>
<event>
 7    1  0.1381440E-008  0.4614232E+02  0.7816164E-02  0.1320468E+00
        -11   -1    0    0    0    0  0.00000000000E+00  0.00000000000E+00  0.45593999997E+02  0.45594000000E+02  0.51100000000E-03 0.  1.
         11   -1    0    0    0    0 -0.00000000000E+00 -0.00000000000E+00 -0.45593999997E+02  0.45594000000E+02  0.51100000000E-03 0. -1.
    9900012    2    1    2    0    0  0.13307535118E+02  0.19973179598E+02  0.38119484201E+02  0.46142317966E+02  0.10000001867E+02 0.  0.
         12    1    1    2    0    0 -0.13307535118E+02 -0.19973179598E+02 -0.38119484201E+02  0.45045682034E+02  0.00000000000E+00 0. -1.
         11    1    3    3    0    0  0.88156512969E+01  0.13271726829E+02  0.31220385777E+02  0.35050919091E+02  0.51100000000E-03 0.  1.
        -11    1    3    3    0    0  0.48018143180E+01  0.55815015805E+01  0.66084840626E+01  0.98935657123E+01  0.51100000000E-03 0. -1.
        -12    1    3    3    0    0 -0.30993049681E+00  0.11199511884E+01  0.29061436126E+00  0.11978331621E+01  0.00000000000E+00 0.  1.
</event>
<event>
 7    1  0.2238145E-008  0.4614232E+02  0.7816164E-02  0.1320468E+00
        -11   -1    0    0    0    0  0.00000000000E+00  0.00000000000E+00  0.45593999997E+02  0.45594000000E+02  0.51100000000E-03 0.  1.
         11   -1    0    0    0    0 -0.00000000000E+00 -0.00000000000E+00 -0.45593999997E+02  0.45594000000E+02  0.51100000000E-03 0. -1.
    9900012    2    1    2    0    0  0.12005029392E+02  0.31700048961E+02  0.29666472761E+02  0.46142318288E+02  0.10000004807E+02 0.  0.
         12    1    1    2    0    0 -0.12005029392E+02 -0.31700048961E+02 -0.29666472761E+02  0.45045681712E+02  0.00000000000E+00 0. -1.
         11    1    3    3    0    0 -0.93000781308E+00  0.10044173268E+00  0.54284181340E+00  0.10815177158E+01  0.51100000000E-03 0. -1.
        -11    1    3    3    0    0  0.11976177580E+02  0.31029328162E+02  0.28349617505E+02  0.43702961553E+02  0.51100000000E-03 0.  1.
        -12    1    3    3    0    0  0.95885962437E+00  0.57027906646E+00  0.77401344264E+00  0.13578390193E+01  0.00000000000E+00 0.  1.
</event>
<event>
 7    1  0.1381440E-008  0.4614232E+02  0.7816164E-02  0.1320468E+00
        -11   -1    0    0    0    0  0.00000000000E+00  0.00000000000E+00  0.45593999997E+02  0.45594000000E+02  0.51100000000E-03 0. -1.
         11   -1    0    0    0    0 -0.00000000000E+00 -0.00000000000E+00 -0.45593999997E+02  0.45594000000E+02  0.51100000000E-03 0.  1.
    9900012    2    1    2    0    0 -0.29177681575E+02 -0.34269554522E+02  0.18368704820E+01  0.46142316940E+02  0.99999925106E+01 0.  0.
         12    1    1    2    0    0  0.29177681575E+02  0.34269554522E+02 -0.18368704820E+01  0.45045683060E+02  0.00000000000E+00 0. -1.
         11    1    3    3    0    0 -0.17202256441E+02 -0.23855648046E+02  0.46552194403E+01  0.29777183189E+02  0.51100000000E-03 0. -1.
        -11    1    3    3    0    0 -0.82736751589E+01 -0.60970817360E+01 -0.28966380063E+01  0.10677950100E+02  0.51100000000E-03 0.  1.
        -12    1    3    3    0    0 -0.37017499745E+01 -0.43168247395E+01  0.78289048048E-01  0.56871836510E+01  0.00000000000E+00 0.  1.
</event>
<event>
 7    1  0.1381440E-008  0.4614232E+02  0.7816164E-02  0.1320468E+00
        -11   -1    0    0    0    0  0.00000000000E+00  0.00000000000E+00  0.45593999997E+02  0.45594000000E+02  0.51100000000E-03 0. -1.
         11   -1    0    0    0    0 -0.00000000000E+00 -0.00000000000E+00 -0.45593999997E+02  0.45594000000E+02  0.51100000000E-03 0.  1.
    9900012    2    1    2    0    0  0.76121373287E+01  0.37660448456E+02  0.23512959252E+02  0.46142320236E+02  0.10000022568E+02 0.  0.
         12    1    1    2    0    0 -0.76121373287E+01 -0.37660448456E+02 -0.23512959252E+02  0.45045679764E+02  0.00000000000E+00 0. -1.
         11    1    3    3    0    0  0.56024242009E+01  0.77515186515E+01  0.50287859827E+01  0.10805641446E+02  0.51100000000E-03 0. -1.
        -11    1    3    3    0    0 -0.24920971561E+00  0.15802657213E+02  0.89733386443E+01  0.18174346953E+02  0.51100000000E-03 0.  1.
        -12    1    3    3    0    0  0.22589228435E+01  0.14106272592E+02  0.95108346252E+01  0.17162331838E+02  0.00000000000E+00 0.  1.
</event>
<event>
 7    1  0.1381440E-008  0.4614232E+02  0.7816164E-02  0.1320468E+00
        -11   -1    0    0    0    0  0.00000000000E+00  0.00000000000E+00  0.45593999997E+02  0.45594000000E+02  0.51100000000E-03 0.  1.
         11   -1    0    0    0    0 -0.00000000000E+00 -0.00000000000E+00 -0.45593999997E+02  0.45594000000E+02  0.51100000000E-03 0. -1.
    9900012    2    1    2    0    0  0.35609190849E+02  0.51290114453E+01  0.27107051561E+02  0.46142317902E+02  0.10000001284E+02 0.  0.
         12    1    1    2    0    0 -0.35609190849E+02 -0.51290114453E+01 -0.27107051561E+02  0.45045682098E+02  0.00000000000E+00 0. -1.
         11    1    3    3    0    0  0.13016451042E+02 -0.22694531690E+01  0.82534441538E+01  0.15578759774E+02  0.51100000000E-03 0. -1.
        -11    1    3    3    0    0  0.14820489428E+02  0.62716971645E+01  0.14007577242E+02  0.21335259845E+02  0.51100000000E-03 0.  1.
        -12    1    3    3    0    0  0.77722503786E+01  0.11267674499E+01  0.48460301655E+01  0.92282982829E+01  0.00000000000E+00 0.  1.
</event>
<event>
 7    1  0.1381440E-008  0.4614232E+02  0.7816164E-02  0.1320468E+00
        -11   -1    0    0    0    0  0.00000000000E+00  0.00000000000E+00  0.45593999997E+02  0.45594000000E+02  0.51100000000E-03 0.  1.
         11   -1    0    0    0    0 -0.00000000000E+00 -0.00000000000E+00 -0.45593999997E+02  0.45594000000E+02  0.51100000000E-03 0. -1.
    9900012    2    1    2    0    0  0.20395283863E+02  0.38232358991E+02  0.12305797426E+02  0.46142317320E+02  0.99999959739E+01 0.  0.
         12    1    1    2    0    0 -0.20395283863E+02 -0.38232358991E+02 -0.12305797426E+02  0.45045682680E+02  0.00000000000E+00 0. -1.
         11    1    3    3    0    0  0.55994827331E+01  0.61701210745E+01  0.50715410860E+01  0.97542365257E+01  0.51100000000E-03 0. -1.
        -11    1    3    3    0    0  0.11122728775E+02  0.27644746791E+02  0.71415625898E+01  0.30642275324E+02  0.51100000000E-03 0.  1.
        -12    1    3    3    0    0  0.36730723547E+01  0.44174911251E+01  0.92693750041E-01  0.57458054696E+01  0.00000000000E+00 0.  1.
</event>
<event>
 7    1  0.1381440E-008  0.4614232E+02  0.7816164E-02  0.1320468E+00
        -11   -1    0    0    0    0  0.00000000000E+00  0.00000000000E+00  0.45593999997E+02  0.45594000000E+02  0.51100000000E-03 0. -1.
         11   -1    0    0    0    0 -0.00000000000E+00 -0.00000000000E+00 -0.45593999997E+02  0.45594000000E+02  0.51100000000E-03 0.  1.
    9900012    2    1    2    0    0 -0.14261494322E+02 -0.41216282381E+02 -0.11266821090E+02  0.46142318619E+02  0.10000007824E+02 0.  0.
         12    1    1    2    0    0  0.14261494322E+02  0.41216282381E+02  0.11266821090E+02  0.45045681381E+02  0.00000000000E+00 0. -1.
         11    1    3    3    0    0 -0.90577508158E+01 -0.23518304667E+02 -0.39083235122E+01  0.25503499705E+02  0.51100000000E-03 0.  1.
        -11    1    3    3    0    0 -0.61346593048E+01 -0.16922941519E+02 -0.73049216691E+01  0.19426319139E+02  0.51100000000E-03 0. -1.
         12    1    3    3    0    0  0.93091579843E+00 -0.77503619486E+00 -0.53575908576E-01  0.12124997753E+01  0.00000000000E+00 0. -1.
</event>
<event>
 7    1  0.1381440E-008  0.4614232E+02  0.7816164E-02  0.1320468E+00
        -11   -1    0    0    0    0  0.00000000000E+00  0.00000000000E+00  0.45593999997E+02  0.45594000000E+02  0.51100000000E-03 0.  1.
         11   -1    0    0    0    0 -0.00000000000E+00 -0.00000000000E+00 -0.45593999997E+02  0.45594000000E+02  0.51100000000E-03 0. -1.
    9900012    2    1    2    0    0 -0.22142800956E+02  0.19444350183E+02  0.34069445102E+02  0.46142317879E+02  0.10000001071E+02 0.  0.
         12    1    1    2    0    0  0.22142800956E+02 -0.19444350183E+02 -0.34069445102E+02  0.45045682121E+02  0.00000000000E+00 0. -1.
         11    1    3    3    0    0 -0.12380353599E+02  0.10023693195E+02  0.25427292424E+02  0.30004912611E+02  0.51100000000E-03 0. -1.
        -11    1    3    3    0    0 -0.30900785185E+01  0.21817410932E+01  0.24700446641E+01  0.45177096356E+01  0.51100000000E-03 0.  1.
         12    1    3    3    0    0 -0.66723688383E+01  0.72389158944E+01  0.61721080139E+01  0.11619695632E+02  0.00000000000E+00 0. -1.
</event>
<event>
 7    1  0.1381440E-008  0.4614232E+02  0.7816164E-02  0.1320468E+00
        -11   -1    0    0    0    0  0.00000000000E+00  0.00000000000E+00  0.45593999997E+02  0.45594000000E+02  0.51100000000E-03 0.  1.
         11   -1    0    0    0    0 -0.00000000000E+00 -0.00000000000E+00 -0.45593999997E+02  0.45594000000E+02  0.51100000000E-03 0. -1.
    9900012    2    1    2    0    0  0.56858181461E+01 -0.81138133618E+01  0.43942587138E+02  0.46142318080E+02  0.10000002912E+02 0.  0.
         12    1    1    2    0    0 -0.56858181461E+01  0.81138133618E+01 -0.43942587138E+02  0.45045681920E+02  0.00000000000E+00 0. -1.
         11    1    3    3    0    0  0.49504155680E+01 -0.15512304047E+01  0.12581262495E+02  0.13608860947E+02  0.51100000000E-03 0. -1.
        -11    1    3    3    0    0  0.11081242201E+01 -0.64793589373E+01  0.17934668049E+02  0.19101370365E+02  0.51100000000E-03 0.  1.
         12    1    3    3    0    0 -0.37272164202E+00 -0.83224019811E-01  0.13426656594E+02  0.13432086768E+02  0.00000000000E+00 0. -1.
</event>
<event>
 7    1  0.1381440E-008  0.4614232E+02  0.7816164E-02  0.1320468E+00
        -11   -1    0    0    0    0  0.00000000000E+00  0.00000000000E+00  0.45593999997E+02  0.45594000000E+02  0.51100000000E-03 0.  1.
         11   -1    0    0    0    0 -0.00000000000E+00 -0.00000000000E+00 -0.45593999997E+02  0.45594000000E+02  0.51100000000E-03 0. -1.
    9900012    2    1    2    0    0  0.19756756124E+02 -0.50510851434E+01  0.40165541026E+02  0.46142316970E+02  0.99999927880E+01 0.  0.
         12    1    1    2    0    0 -0.19756756124E+02  0.50510851434E+01 -0.40165541026E+02  0.45045683030E+02  0.00000000000E+00 0. -1.
         11    1    3    3    0    0  0.70151443001E+01 -0.46097941241E+01  0.24765901867E+02  0.26149805868E+02  0.51100000000E-03 0. -1.
        -11    1    3    3    0    0  0.51188342807E+01 -0.20118709319E+00  0.61290524352E+01  0.79880050485E+01  0.51100000000E-03 0.  1.
         12    1    3    3    0    0  0.76227775433E+01 -0.24010392614E+00  0.92705867243E+01  0.12004506053E+02  0.00000000000E+00 0. -1.
</event>
<event>
 7    1  0.1381440E-008  0.4614232E+02  0.7816164E-02  0.1320468E+00
        -11   -1    0    0    0    0  0.00000000000E+00  0.00000000000E+00  0.45593999997E+02  0.45594000000E+02  0.51100000000E-03 0. -1.
         11   -1    0    0    0    0 -0.00000000000E+00 -0.00000000000E+00 -0.45593999997E+02  0.45594000000E+02  0.51100000000E-03 0.  1.
    9900012    2    1    2    0    0 -0.30759040868E+02 -0.24401830528E+01 -0.32818294420E+02  0.46142317220E+02  0.99999950698E+01 0.  0.
         12    1    1    2    0    0  0.30759040868E+02  0.24401830528E+01  0.32818294420E+02  0.45045682780E+02  0.00000000000E+00 0. -1.
         11    1    3    3    0    0 -0.72384556045E+01  0.91861586478E+00 -0.31159838935E+01  0.79340059573E+01  0.51100000000E-03 0. -1.
        -11    1    3    3    0    0 -0.48681372597E+01  0.47123134672E+00 -0.75640195128E+01  0.90075085797E+01  0.51100000000E-03 0.  1.
        -12    1    3    3    0    0 -0.18652448004E+02 -0.38300302643E+01 -0.22138291013E+02  0.29200802683E+02  0.00000000000E+00 0.  1.
</event>
<event>
 7    1  0.1381440E-008  0.4614232E+02  0.7816164E-02  0.1320468E+00
        -11   -1    0    0    0    0  0.00000000000E+00  0.00000000000E+00  0.45593999997E+02  0.45594000000E+02  0.51100000000E-03 0.  1.
         11   -1    0    0    0    0 -0.00000000000E+00 -0.00000000000E+00 -0.45593999997E+02  0.45594000000E+02  0.51100000000E-03 0. -1.
    9900012    2    1    2    0    0  0.12925235733E+02 -0.11741311205E+02  0.41523406998E+02  0.46142318340E+02  0.10000005274E+02 0.  0.
         12    1    1    2    0    0 -0.12925235733E+02  0.11741311205E+02 -0.41523406998E+02  0.45045681660E+02  0.00000000000E+00 0. -1.
         11    1    3    3    0    0 -0.16007022728E+00 -0.80231381673E+00  0.79289427651E+00  0.11393030909E+01  0.51100000000E-03 0. -1.
        -11    1    3    3    0    0  0.68718408041E+01 -0.78548592565E+01  0.33026198188E+02  0.34635975185E+02  0.51100000000E-03 0.  1.
        -12    1    3    3    0    0  0.62134651560E+01 -0.30841381318E+01  0.77043145332E+01  0.10367040064E+02  0.00000000000E+00 0.  1.
</event>
<event>
 7    1  0.1381440E-008  0.4614232E+02  0.7816164E-02  0.1320468E+00
        -11   -1    0    0    0    0  0.00000000000E+00  0.00000000000E+00  0.45593999997E+02  0.45594000000E+02  0.51100000000E-03 0. -1.
         11   -1    0    0    0    0 -0.00000000000E+00 -0.00000000000E+00 -0.45593999997E+02  0.45594000000E+02  0.51100000000E-03 0.  1.
    9900012    2    1    2    0    0  0.17982480942E+02 -0.55793553390E+01 -0.40922056058E+02  0.46142317645E+02  0.99999989407E+01 0.  0.
         12    1    1    2    0    0 -0.17982480942E+02  0.55793553390E+01  0.40922056058E+02  0.45045682355E+02  0.00000000000E+00 0. -1.
         11    1    3    3    0    0  0.47771894038E+01 -0.22758949790E+01 -0.16260405105E+02  0.17099766402E+02  0.51100000000E-03 0. -1.
        -11    1    3    3    0    0  0.24396037537E+01 -0.30874725209E+01 -0.33613205688E+01  0.51751936457E+01  0.51100000000E-03 0.  1.
         12    1    3    3    0    0  0.10765687784E+02 -0.21598783911E+00 -0.21300330384E+02  0.23867357598E+02  0.00000000000E+00 0. -1.
</event>
<event>
 7    1  0.1381440E-008  0.4614232E+02  0.7816164E-02  0.1320468E+00
        -11   -1    0    0    0    0  0.00000000000E+00  0.00000000000E+00  0.45593999997E+02  0.45594000000E+02  0.51100000000E-03 0. -1.
         11   -1    0    0    0    0 -0.00000000000E+00 -0.00000000000E+00 -0.45593999997E+02  0.45594000000E+02  0.51100000000E-03 0.  1.
    9900012    2    1    2    0    0 -0.11705369640E+01  0.43106620094E+02 -0.13021622534E+02  0.46142317564E+02  0.99999981993E+01 0.  0.
         12    1    1    2    0    0  0.11705369640E+01 -0.43106620094E+02  0.13021622534E+02  0.45045682436E+02  0.00000000000E+00 0. -1.
         11    1    3    3    0    0 -0.98010929785E+00  0.28952175068E+02 -0.68237287882E+01  0.29761591527E+02  0.51100000000E-03 0. -1.
        -11    1    3    3    0    0  0.23703823674E+01  0.99482496264E+01 -0.44839978694E+01  0.11166584991E+02  0.51100000000E-03 0.  1.
        -12    1    3    3    0    0 -0.25608100336E+01  0.42061954002E+01 -0.17138958767E+01  0.52141410461E+01  0.00000000000E+00 0.  1.
</event>
<event>
 7    1  0.1381440E-008  0.4614232E+02  0.7816164E-02  0.1320468E+00
        -11   -1    0    0    0    0  0.00000000000E+00  0.00000000000E+00  0.45593999997E+02  0.45594000000E+02  0.51100000000E-03 0. -1.
         11   -1    0    0    0    0 -0.00000000000E+00 -0.00000000000E+00 -0.45593999997E+02  0.45594000000E+02  0.51100000000E-03 0.  1.
    9900012    2    1    2    0    0 -0.27229304125E+02 -0.26937147879E+02  0.23707984433E+02  0.46142318022E+02  0.10000002378E+02 0.  0.
         12    1    1    2    0    0  0.27229304125E+02  0.26937147879E+02 -0.23707984433E+02  0.45045681978E+02  0.00000000000E+00 0. -1.
         11    1    3    3    0    0 -0.12351849264E+01 -0.46128647850E+01  0.23501989525E+01  0.53223715301E+01  0.51100000000E-03 0. -1.
        -11    1    3    3    0    0 -0.23689963964E+02 -0.17554961575E+02  0.18339117974E+02  0.34723397254E+02  0.51100000000E-03 0.  1.
        -12    1    3    3    0    0 -0.23041552345E+01 -0.47693215185E+01  0.30186675064E+01  0.60965492375E+01  0.00000000000E+00 0.  1.
</event>
<event>
 7    1  0.1381440E-008  0.4614232E+02  0.7816164E-02  0.1320468E+00
        -11   -1    0    0    0    0  0.00000000000E+00  0.00000000000E+00  0.45593999997E+02  0.45594000000E+02  0.51100000000E-03 0.  1.
         11   -1    0    0    0    0 -0.00000000000E+00 -0.00000000000E+00 -0.45593999997E+02  0.45594000000E+02  0.51100000000E-03 0. -1.
    9900012    2    1    2    0    0  0.12461886971E+02  0.38798272614E+02  0.19196586123E+02  0.46142317593E+02  0.99999984711E+01 0.  0.
         12    1    1    2    0    0 -0.12461886971E+02 -0.38798272614E+02 -0.19196586123E+02  0.45045682407E+02  0.00000000000E+00 0. -1.
         11    1    3    3    0    0  0.70108367867E+01  0.13628331694E+02  0.97421284141E+01  0.18160185118E+02  0.51100000000E-03 0. -1.
        -11    1    3    3    0    0  0.82516921318E+00  0.24945524236E+01 -0.68595583133E+00  0.27155536614E+01  0.51100000000E-03 0.  1.
        -12    1    3    3    0    0  0.46258809715E+01  0.22675388496E+02  0.10140413540E+02  0.25266578814E+02  0.00000000000E+00 0.  1.
</event>
<event>
 7    1  0.1381440E-008  0.4614232E+02  0.7816164E-02  0.1320468E+00
        -11   -1    0    0    0    0  0.00000000000E+00  0.00000000000E+00  0.45593999997E+02  0.45594000000E+02  0.51100000000E-03 0.  1.
         11   -1    0    0    0    0 -0.00000000000E+00 -0.00000000000E+00 -0.45593999997E+02  0.45594000000E+02  0.51100000000E-03 0. -1.
    9900012    2    1    2    0    0 -0.44990072259E+02 -0.20569672781E+01 -0.88084135347E+00  0.46142316548E+02  0.99999889337E+01 0.  0.
         12    1    1    2    0    0  0.44990072259E+02  0.20569672781E+01  0.88084135347E+00  0.45045683452E+02  0.00000000000E+00 0. -1.
         11    1    3    3    0    0 -0.39856771716E+01  0.67715240696E-01 -0.29806346451E+01  0.49773879715E+01  0.51100000000E-03 0. -1.
        -11    1    3    3    0    0 -0.25211225778E+02 -0.13723492254E+01  0.22950655779E+01  0.25352644318E+02  0.51100000000E-03 0.  1.
        -12    1    3    3    0    0 -0.15793169309E+02 -0.75233329341E+00 -0.19527228622E+00  0.15812284258E+02  0.00000000000E+00 0.  1.
</event>
<event>
 7    1  0.1381440E-008  0.4614232E+02  0.7816164E-02  0.1320468E+00
        -11   -1    0    0    0    0  0.00000000000E+00  0.00000000000E+00  0.45593999997E+02  0.45594000000E+02  0.51100000000E-03 0.  1.
         11   -1    0    0    0    0 -0.00000000000E+00 -0.00000000000E+00 -0.45593999997E+02  0.45594000000E+02  0.51100000000E-03 0. -1.
    9900012    2    1    2    0    0  0.39308526748E+02 -0.21278013133E+02  0.55856380134E+01  0.46142317964E+02  0.10000001853E+02 0.  0.
         12    1    1    2    0    0 -0.39308526748E+02  0.21278013133E+02 -0.55856380134E+01  0.45045682036E+02  0.00000000000E+00 0. -1.
         11    1    3    3    0    0  0.35014384812E+01 -0.40839627873E+01 -0.14895549649E+01  0.55818991159E+01  0.51100000000E-03 0. -1.
        -11    1    3    3    0    0  0.35917820133E+02 -0.17206194379E+02  0.70685638105E+01  0.40448825975E+02  0.51100000000E-03 0.  1.
        -12    1    3    3    0    0 -0.11073186586E+00  0.12144032594E-01  0.66291678334E-02  0.11159287392E+00  0.00000000000E+00 0.  1.
</event>
<event>
 7    1  0.1381440E-008  0.4614232E+02  0.7816164E-02  0.1320468E+00
        -11   -1    0    0    0    0  0.00000000000E+00  0.00000000000E+00  0.45593999997E+02  0.45594000000E+02  0.51100000000E-03 0.  1.
         11   -1    0    0    0    0 -0.00000000000E+00 -0.00000000000E+00 -0.45593999997E+02  0.45594000000E+02  0.51100000000E-03 0. -1.
    9900012    2    1    2    0    0 -0.36058406666E+02  0.26481105295E+02 -0.52588902255E+01  0.46142317018E+02  0.99999932202E+01 0.  0.
         12    1    1    2    0    0  0.36058406666E+02 -0.26481105295E+02  0.52588902255E+01  0.45045682982E+02  0.00000000000E+00 0. -1.
         11    1    3    3    0    0 -0.42893050290E+01  0.15240122616E+01 -0.68487168941E+00  0.46032380448E+01  0.51100000000E-03 0. -1.
        -11    1    3    3    0    0 -0.15956444487E+02  0.13755990753E+02  0.17888809699E+01  0.21143213986E+02  0.51100000000E-03 0.  1.
        -12    1    3    3    0    0 -0.15812657151E+02  0.11201102280E+02 -0.63628995060E+01  0.20395864987E+02  0.00000000000E+00 0.  1.
</event>
<event>
 7    1  0.1381440E-008  0.4614232E+02  0.7816164E-02  0.1320468E+00
        -11   -1    0    0    0    0  0.00000000000E+00  0.00000000000E+00  0.45593999997E+02  0.45594000000E+02  0.51100000000E-03 0.  1.
         11   -1    0    0    0    0 -0.00000000000E+00 -0.00000000000E+00 -0.45593999997E+02  0.45594000000E+02  0.51100000000E-03 0. -1.
    9900012    2    1    2    0    0  0.35391627308E+02 -0.18718717949E+02  0.20643540207E+02  0.46142318327E+02  0.10000005157E+02 0.  0.
         12    1    1    2    0    0 -0.35391627308E+02  0.18718717949E+02 -0.20643540207E+02  0.45045681673E+02  0.00000000000E+00 0. -1.
         11    1    3    3    0    0  0.31584445978E+01 -0.15036096471E+01  0.38960273630E-01  0.34983042195E+01  0.51100000000E-03 0. -1.
        -11    1    3    3    0    0  0.10829723757E+02 -0.45105107564E+01  0.28564033253E+01  0.12074214846E+02  0.51100000000E-03 0.  1.
        -12    1    3    3    0    0  0.21403458953E+02 -0.12704597545E+02  0.17748176608E+02  0.30569799261E+02  0.00000000000E+00 0.  1.
</event>
<event>
 7    1  0.1381440E-008  0.4614232E+02  0.7816164E-02  0.1320468E+00
        -11   -1    0    0    0    0  0.00000000000E+00  0.00000000000E+00  0.45593999997E+02  0.45594000000E+02  0.51100000000E-03 0.  1.
         11   -1    0    0    0    0 -0.00000000000E+00 -0.00000000000E+00 -0.45593999997E+02  0.45594000000E+02  0.51100000000E-03 0. -1.
    9900012    2    1    2    0    0 -0.57762776712E+01 -0.39699577756E+02  0.20486381490E+02  0.46142315586E+02  0.99999801687E+01 0.  0.
         12    1    1    2    0    0  0.57762776712E+01  0.39699577756E+02 -0.20486381490E+02  0.45045684414E+02  0.00000000000E+00 0. -1.
         11    1    3    3    0    0 -0.35725138359E+01 -0.42363944401E+01  0.17362441885E+01  0.58072744986E+01  0.51100000000E-03 0. -1.
        -11    1    3    3    0    0 -0.14298137152E+01 -0.66534032673E+01  0.47145681704E+01  0.82788462718E+01  0.51100000000E-03 0.  1.
         12    1    3    3    0    0 -0.77395012007E+00 -0.28809780049E+02  0.14035569131E+02  0.32056194816E+02  0.00000000000E+00 0. -1.
</event>
<event>
 7    1  0.1381440E-008  0.4614232E+02  0.7816164E-02  0.1320468E+00
        -11   -1    0    0    0    0  0.00000000000E+00  0.00000000000E+00  0.45593999997E+02  0.45594000000E+02  0.51100000000E-03 0.  1.
         11   -1    0    0    0    0 -0.00000000000E+00 -0.00000000000E+00 -0.45593999997E+02  0.45594000000E+02  0.51100000000E-03 0. -1.
    9900012    2    1    2    0    0  0.41032935109E+02 -0.14622936010E+02  0.11470890001E+02  0.46142319423E+02  0.10000015156E+02 0.  0.
         12    1    1    2    0    0 -0.41032935109E+02  0.14622936010E+02 -0.11470890001E+02  0.45045680577E+02  0.00000000000E+00 0. -1.
         11    1    3    3    0    0  0.43823965565E+01 -0.10246531193E+01  0.33331602631E+01  0.56004706226E+01  0.51100000000E-03 0. -1.
        -11    1    3    3    0    0  0.10885081090E+02 -0.75308998365E+01  0.22796365006E+01  0.13431164712E+02  0.51100000000E-03 0.  1.
        -12    1    3    3    0    0  0.25765457462E+02 -0.60673830547E+01  0.58580932369E+01  0.27110684089E+02  0.00000000000E+00 0.  1.
</event>
<event>
 7    1  0.1381440E-008  0.4614232E+02  0.7816164E-02  0.1320468E+00
        -11   -1    0    0    0    0  0.00000000000E+00  0.00000000000E+00  0.45593999997E+02  0.45594000000E+02  0.51100000000E-03 0.  1.
         11   -1    0    0    0    0 -0.00000000000E+00 -0.00000000000E+00 -0.45593999997E+02  0.45594000000E+02  0.51100000000E-03 0. -1.
    9900012    2    1    2    0    0 -0.19020875544E+02  0.30164230940E+02  0.27521609147E+02  0.46142317580E+02  0.99999983475E+01 0.  0.
         12    1    1    2    0    0  0.19020875544E+02 -0.30164230940E+02 -0.27521609147E+02  0.45045682420E+02  0.00000000000E+00 0. -1.
         11    1    3    3    0    0 -0.14158014704E+01  0.15662542305E+01 -0.26295894203E+00  0.21276263264E+01  0.51100000000E-03 0. -1.
        -11    1    3    3    0    0 -0.71950601875E+01  0.17481504327E+02  0.15115063221E+02  0.24204070341E+02  0.51100000000E-03 0.  1.
        -12    1    3    3    0    0 -0.10410013886E+02  0.11116472382E+02  0.12669504868E+02  0.19810620912E+02  0.00000000000E+00 0.  1.
</event>
<event>
 7    1  0.1381440E-008  0.4614232E+02  0.7816164E-02  0.1320468E+00
        -11   -1    0    0    0    0  0.00000000000E+00  0.00000000000E+00  0.45593999997E+02  0.45594000000E+02  0.51100000000E-03 0.  1.
         11   -1    0    0    0    0 -0.00000000000E+00 -0.00000000000E+00 -0.45593999997E+02  0.45594000000E+02  0.51100000000E-03 0. -1.
    9900012    2    1    2    0    0  0.34954353230E+02 -0.27774667694E+00  0.28411784956E+02  0.46142317884E+02  0.10000001117E+02 0.  0.
         12    1    1    2    0    0 -0.34954353230E+02  0.27774667694E+00 -0.28411784956E+02  0.45045682116E+02  0.00000000000E+00 0. -1.
         11    1    3    3    0    0  0.15977628373E+02  0.42312404086E+01  0.12962717492E+02  0.21005238605E+02  0.51100000000E-03 0. -1.
        -11    1    3    3    0    0  0.74491195877E+01 -0.32047317453E+01  0.50197960622E+01  0.95371925093E+01  0.51100000000E-03 0.  1.
         12    1    3    3    0    0  0.11527605269E+02 -0.13042553402E+01  0.10429271402E+02  0.15599886769E+02  0.00000000000E+00 0. -1.
</event>
<event>
 7    1  0.1381440E-008  0.4614232E+02  0.7816164E-02  0.1320468E+00
        -11   -1    0    0    0    0  0.00000000000E+00  0.00000000000E+00  0.45593999997E+02  0.45594000000E+02  0.51100000000E-03 0.  1.
         11   -1    0    0    0    0 -0.00000000000E+00 -0.00000000000E+00 -0.45593999997E+02  0.45594000000E+02  0.51100000000E-03 0. -1.
    9900012    2    1    2    0    0 -0.13799898797E+02  0.13361532452E+02  0.40744885974E+02  0.46142317751E+02  0.99999999039E+01 0.  0.
         12    1    1    2    0    0  0.13799898797E+02 -0.13361532452E+02 -0.40744885974E+02  0.45045682249E+02  0.00000000000E+00 0. -1.
         11    1    3    3    0    0 -0.11967205630E+02  0.81267159084E+01  0.23937339612E+02  0.27968799582E+02  0.51100000000E-03 0. -1.
        -11    1    3    3    0    0 -0.10485597094E+01  0.43806794183E+01  0.16294422954E+02  0.16905562673E+02  0.51100000000E-03 0.  1.
         12    1    3    3    0    0 -0.78413345720E+00  0.85413712528E+00  0.51312340746E+00  0.12679554956E+01  0.00000000000E+00 0. -1.
</event>
<event>
 7    1  0.1381440E-008  0.4614232E+02  0.7816164E-02  0.1320468E+00
        -11   -1    0    0    0    0  0.00000000000E+00  0.00000000000E+00  0.45593999997E+02  0.45594000000E+02  0.51100000000E-03 0.  1.
         11   -1    0    0    0    0 -0.00000000000E+00 -0.00000000000E+00 -0.45593999997E+02  0.45594000000E+02  0.51100000000E-03 0. -1.
    9900012    2    1    2    0    0 -0.30191198820E+02  0.18617270302E+02  0.27766929025E+02  0.46142316664E+02  0.99999899980E+01 0.  0.
         12    1    1    2    0    0  0.30191198820E+02 -0.18617270302E+02 -0.27766929025E+02  0.45045683336E+02  0.00000000000E+00 0. -1.
         11    1    3    3    0    0 -0.25295536071E+01  0.18080647419E+01  0.23212451961E+00  0.31179515095E+01  0.51100000000E-03 0. -1.
        -11    1    3    3    0    0 -0.63056790385E+01  0.40851248703E+01  0.10407926517E+02  0.12836462441E+02  0.51100000000E-03 0.  1.
        -12    1    3    3    0    0 -0.21355966174E+02  0.12724080690E+02  0.17126877989E+02  0.30187902714E+02  0.00000000000E+00 0.  1.
</event>
<event>
 7    1  0.1381440E-008  0.4614232E+02  0.7816164E-02  0.1320468E+00
        -11   -1    0    0    0    0  0.00000000000E+00  0.00000000000E+00  0.45593999997E+02  0.45594000000E+02  0.51100000000E-03 0.  1.
         11   -1    0    0    0    0 -0.00000000000E+00 -0.00000000000E+00 -0.45593999997E+02  0.45594000000E+02  0.51100000000E-03 0. -1.
    9900012    2    1    2    0    0 -0.20550115147E+02 -0.13777016291E+02  0.37643062017E+02  0.46142317316E+02  0.99999959403E+01 0.  0.
         12    1    1    2    0    0  0.20550115147E+02  0.13777016291E+02 -0.37643062017E+02  0.45045682684E+02  0.00000000000E+00 0. -1.
         11    1    3    3    0    0  0.79995335579E+00 -0.14037518237E+00  0.45113337592E+00  0.92905981899E+00  0.51100000000E-03 0. -1.
        -11    1    3    3    0    0 -0.11052212536E+02 -0.90297993346E+01  0.23220325191E+02  0.27255681613E+02  0.51100000000E-03 0.  1.
         12    1    3    3    0    0 -0.10297855967E+02 -0.46068417741E+01  0.13971603450E+02  0.17957575884E+02  0.00000000000E+00 0. -1.
</event>
<event>
 7    1  0.1381440E-008  0.4614232E+02  0.7816164E-02  0.1320468E+00
        -11   -1    0    0    0    0  0.00000000000E+00  0.00000000000E+00  0.45593999997E+02  0.45594000000E+02  0.51100000000E-03 0.  1.
         11   -1    0    0    0    0 -0.00000000000E+00 -0.00000000000E+00 -0.45593999997E+02  0.45594000000E+02  0.51100000000E-03 0. -1.
    9900012    2    1    2    0    0 -0.35280726023E+02  0.20390256642E+02  0.19199513421E+02  0.46142317518E+02  0.99999977808E+01 0.  0.
         12    1    1    2    0    0  0.35280726023E+02 -0.20390256642E+02 -0.19199513421E+02  0.45045682482E+02  0.00000000000E+00 0. -1.
         11    1    3    3    0    0  0.26218848246E+00  0.56182462680E+00 -0.12977818989E+00  0.63342904204E+00  0.51100000000E-03 0. -1.
        -11    1    3    3    0    0 -0.26371788630E+02  0.13442127914E+02  0.11028673527E+02  0.31587872331E+02  0.51100000000E-03 0.  1.
        -12    1    3    3    0    0 -0.91711258758E+01  0.63863041018E+01  0.83006180841E+01  0.13921016144E+02  0.00000000000E+00 0.  1.
</event>
<event>
 7    1  0.1381440E-008  0.4614232E+02  0.7816164E-02  0.1320468E+00
        -11   -1    0    0    0    0  0.00000000000E+00  0.00000000000E+00  0.45593999997E+02  0.45594000000E+02  0.51100000000E-03 0. -1.
         11   -1    0    0    0    0 -0.00000000000E+00 -0.00000000000E+00 -0.45593999997E+02  0.45594000000E+02  0.51100000000E-03 0.  1.
    9900012    2    1    2    0    0  0.34794961440E+02 -0.11404052976E+02 -0.26236839275E+02  0.46142317620E+02  0.99999987158E+01 0.  0.
         12    1    1    2    0    0 -0.34794961440E+02  0.11404052976E+02  0.26236839275E+02  0.45045682380E+02  0.00000000000E+00 0. -1.
         11    1    3    3    0    0  0.35908776143E+00 -0.44277412160E+00 -0.22259837663E+01  0.22978243911E+01  0.51100000000E-03 0. -1.
        -11    1    3    3    0    0  0.14250771170E+02 -0.63850502080E+01 -0.13444357386E+02  0.20605923685E+02  0.51100000000E-03 0.  1.
         12    1    3    3    0    0  0.20185102509E+02 -0.45762286467E+01 -0.10566498122E+02  0.23238569545E+02  0.00000000000E+00 0. -1.
</event>
<event>
 7    1  0.1381440E-008  0.4614232E+02  0.7816164E-02  0.1320468E+00
        -11   -1    0    0    0    0  0.00000000000E+00  0.00000000000E+00  0.45593999997E+02  0.45594000000E+02  0.51100000000E-03 0.  1.
         11   -1    0    0    0    0 -0.00000000000E+00 -0.00000000000E+00 -0.45593999997E+02  0.45594000000E+02  0.51100000000E-03 0. -1.
    9900012    2    1    2    0    0 -0.40602555571E+02  0.11601012869E+02  0.15683187143E+02  0.46142318992E+02  0.10000011227E+02 0.  0.
         12    1    1    2    0    0  0.40602555571E+02 -0.11601012869E+02 -0.15683187143E+02  0.45045681008E+02  0.00000000000E+00 0. -1.
         11    1    3    3    0    0 -0.21612669042E+02  0.82021620721E+01  0.39883183581E+01  0.23458252479E+02  0.51100000000E-03 0. -1.
        -11    1    3    3    0    0 -0.10684810044E+02  0.28748211549E+01  0.74802975715E+01  0.13356070319E+02  0.51100000000E-03 0.  1.
         12    1    3    3    0    0 -0.83050764852E+01  0.52402964223E+00  0.42145712136E+01  0.93279961946E+01  0.00000000000E+00 0. -1.
</event>
<event>
 7    1  0.1381440E-008  0.4614232E+02  0.7816164E-02  0.1320468E+00
        -11   -1    0    0    0    0  0.00000000000E+00  0.00000000000E+00  0.45593999997E+02  0.45594000000E+02  0.51100000000E-03 0.  1.
         11   -1    0    0    0    0 -0.00000000000E+00 -0.00000000000E+00 -0.45593999997E+02  0.45594000000E+02  0.51100000000E-03 0. -1.
    9900012    2    1    2    0    0  0.24294246190E+02  0.21742024868E+02  0.31083555817E+02  0.46142317793E+02  0.10000000289E+02 0.  0.
         12    1    1    2    0    0 -0.24294246190E+02 -0.21742024868E+02 -0.31083555817E+02  0.45045682207E+02  0.00000000000E+00 0. -1.
         11    1    3    3    0    0  0.57294655347E+01  0.39712306937E+01  0.22048820892E+01  0.73115630220E+01  0.51100000000E-03 0. -1.
        -11    1    3    3    0    0  0.50445247074E+01  0.36536684685E+01  0.90574224154E+01  0.10992425750E+02  0.51100000000E-03 0.  1.
         12    1    3    3    0    0  0.13520255948E+02  0.14117125706E+02  0.19821251312E+02  0.27838329021E+02  0.00000000000E+00 0. -1.
</event>
<event>
 7    1  0.1381440E-008  0.4614232E+02  0.7816164E-02  0.1320468E+00
        -11   -1    0    0    0    0  0.00000000000E+00  0.00000000000E+00  0.45593999997E+02  0.45594000000E+02  0.51100000000E-03 0.  1.
         11   -1    0    0    0    0 -0.00000000000E+00 -0.00000000000E+00 -0.45593999997E+02  0.45594000000E+02  0.51100000000E-03 0. -1.
    9900012    2    1    2    0    0 -0.36529490239E+02 -0.14168762061E+02  0.22225122872E+02  0.46142316942E+02  0.99999925334E+01 0.  0.
         12    1    1    2    0    0  0.36529490239E+02  0.14168762061E+02 -0.22225122872E+02  0.45045683058E+02  0.00000000000E+00 0. -1.
         11    1    3    3    0    0 -0.56172837549E+01 -0.49622328758E+00  0.12454825124E+01  0.57750620156E+01  0.51100000000E-03 0. -1.
        -11    1    3    3    0    0 -0.16063123621E+01 -0.21575788054E+01  0.32289896430E+00  0.27091787885E+01  0.51100000000E-03 0.  1.
        -12    1    3    3    0    0 -0.29305894122E+02 -0.11514959968E+02  0.20656741395E+02  0.37658076138E+02  0.00000000000E+00 0.  1.
</event>
<event>
 7    1  0.1381440E-008  0.4614232E+02  0.7816164E-02  0.1320468E+00
        -11   -1    0    0    0    0  0.00000000000E+00  0.00000000000E+00  0.45593999997E+02  0.45594000000E+02  0.51100000000E-03 0.  1.
         11   -1    0    0    0    0 -0.00000000000E+00 -0.00000000000E+00 -0.45593999997E+02  0.45594000000E+02  0.51100000000E-03 0. -1.
    9900012    2    1    2    0    0 -0.74452860154E+01  0.44409340339E+02 -0.12213225555E+01  0.46142318498E+02  0.10000006721E+02 0.  0.
         12    1    1    2    0    0  0.74452860154E+01 -0.44409340339E+02  0.12213225555E+01  0.45045681502E+02  0.00000000000E+00 0. -1.
         11    1    3    3    0    0  0.61945640176E-01  0.89180841477E+01  0.29731213048E+01  0.94008251064E+01  0.51100000000E-03 0. -1.
        -11    1    3    3    0    0 -0.22213292995E+01  0.61763875734E+01 -0.20517906573E+01  0.68769115507E+01  0.51100000000E-03 0.  1.
         12    1    3    3    0    0 -0.52859023561E+01  0.29314868618E+02 -0.21426532029E+01  0.29864581841E+02  0.00000000000E+00 0. -1.
</event>
<event>
 7    1  0.1381440E-008  0.4614232E+02  0.7816164E-02  0.1320468E+00
        -11   -1    0    0    0    0  0.00000000000E+00  0.00000000000E+00  0.45593999997E+02  0.45594000000E+02  0.51100000000E-03 0.  1.
         11   -1    0    0    0    0 -0.00000000000E+00 -0.00000000000E+00 -0.45593999997E+02  0.45594000000E+02  0.51100000000E-03 0. -1.
    9900012    2    1    2    0    0 -0.38864096168E+01 -0.40320684146E+02  0.19704104925E+02  0.46142317625E+02  0.99999987616E+01 0.  0.
         12    1    1    2    0    0  0.38864096168E+01  0.40320684146E+02 -0.19704104925E+02  0.45045682375E+02  0.00000000000E+00 0. -1.
         11    1    3    3    0    0 -0.29379117440E+01 -0.18481118043E+02  0.12673263163E+02  0.22600766558E+02  0.51100000000E-03 0. -1.
        -11    1    3    3    0    0 -0.22335307538E+01 -0.18591403771E+02  0.71567958719E+01  0.20046163753E+02  0.51100000000E-03 0.  1.
         12    1    3    3    0    0  0.12850328809E+01 -0.32481623325E+01 -0.12595411004E+00  0.34953873149E+01  0.00000000000E+00 0. -1.
</event>
<event>
 7    1  0.1381440E-008  0.4614232E+02  0.7816164E-02  0.1320468E+00
        -11   -1    0    0    0    0  0.00000000000E+00  0.00000000000E+00  0.45593999997E+02  0.45594000000E+02  0.51100000000E-03 0.  1.
         11   -1    0    0    0    0 -0.00000000000E+00 -0.00000000000E+00 -0.45593999997E+02  0.45594000000E+02  0.51100000000E-03 0. -1.
    9900012    2    1    2    0    0  0.10120588403E+02  0.40839633530E+02  0.16087618841E+02  0.46142318115E+02  0.10000003228E+02 0.  0.
         12    1    1    2    0    0 -0.10120588403E+02 -0.40839633530E+02 -0.16087618841E+02  0.45045681885E+02  0.00000000000E+00 0. -1.
         11    1    3    3    0    0  0.11354060720E+02  0.31823120578E+02  0.12197706105E+02  0.35922273490E+02  0.51100000000E-03 0. -1.
        -11    1    3    3    0    0  0.15267645325E-01  0.62173096978E+01  0.34874175113E+01  0.71286221768E+01  0.51100000000E-03 0.  1.
         12    1    3    3    0    0 -0.12487399621E+01  0.27992032540E+01  0.40249522430E+00  0.30914224486E+01  0.00000000000E+00 0. -1.
</event>
<event>
 7    1  0.1381440E-008  0.4614231E+02  0.7816164E-02  0.1320468E+00
        -11   -1    0    0    0    0  0.00000000000E+00  0.00000000000E+00  0.45593999997E+02  0.45594000000E+02  0.51100000000E-03 0.  1.
         11   -1    0    0    0    0 -0.00000000000E+00 -0.00000000000E+00 -0.45593999997E+02  0.45594000000E+02  0.51100000000E-03 0. -1.
    9900012    2    1    2    0    0 -0.43102384404E+01 -0.27396672891E+02  0.35495888437E+02  0.46142312783E+02  0.99999546057E+01 0.  0.
         12    1    1    2    0    0  0.43102384404E+01  0.27396672891E+02 -0.35495888437E+02  0.45045687217E+02  0.00000000000E+00 0. -1.
         11    1    3    3    0    0  0.25369935703E+01 -0.83814682464E+01  0.14425422050E+02  0.16875371045E+02  0.51100000000E-03 0. -1.
        -11    1    3    3    0    0 -0.47819914972E+01 -0.14345663394E+02  0.14546714468E+02  0.20982669110E+02  0.51100000000E-03 0.  1.
         12    1    3    3    0    0 -0.20652405135E+01 -0.46695412501E+01  0.65237519200E+01  0.82842726283E+01  0.00000000000E+00 0. -1.
</event>
<event>
 7    1  0.1381440E-008  0.4614232E+02  0.7816164E-02  0.1320468E+00
        -11   -1    0    0    0    0  0.00000000000E+00  0.00000000000E+00  0.45593999997E+02  0.45594000000E+02  0.51100000000E-03 0.  1.
         11   -1    0    0    0    0 -0.00000000000E+00 -0.00000000000E+00 -0.45593999997E+02  0.45594000000E+02  0.51100000000E-03 0. -1.
    9900012    2    1    2    0    0  0.76157060506E+01 -0.36781647521E+01  0.44244611011E+02  0.46142317875E+02  0.10000001035E+02 0.  0.
         12    1    1    2    0    0 -0.76157060506E+01  0.36781647521E+01 -0.44244611011E+02  0.45045682125E+02  0.00000000000E+00 0. -1.
         11    1    3    3    0    0  0.10117989752E+01  0.61676845452E-01 -0.15605850040E+00  0.10256196742E+01  0.51100000000E-03 0. -1.
        -11    1    3    3    0    0  0.65354553049E+01 -0.28800404444E+01  0.39891821777E+02  0.40526093495E+02  0.51100000000E-03 0.  1.
         12    1    3    3    0    0  0.68451770488E-01 -0.85980115322E+00  0.45088477346E+01  0.45906047055E+01  0.00000000000E+00 0. -1.
</event>
<event>
 7    1  0.1381440E-008  0.4614232E+02  0.7816164E-02  0.1320468E+00
        -11   -1    0    0    0    0  0.00000000000E+00  0.00000000000E+00  0.45593999997E+02  0.45594000000E+02  0.51100000000E-03 0. -1.
         11   -1    0    0    0    0 -0.00000000000E+00 -0.00000000000E+00 -0.45593999997E+02  0.45594000000E+02  0.51100000000E-03 0.  1.
    9900012    2    1    2    0    0  0.17735892876E+02 -0.25191338227E+02 -0.32862563662E+02  0.46142317541E+02  0.99999979942E+01 0.  0.
         12    1    1    2    0    0 -0.17735892876E+02  0.25191338227E+02  0.32862563662E+02  0.45045682459E+02  0.00000000000E+00 0. -1.
         11    1    3    3    0    0  0.13474758161E+01 -0.22591566667E+01 -0.64032320096E-01  0.26312697161E+01  0.51100000000E-03 0. -1.
        -11    1    3    3    0    0  0.11890409474E+02 -0.16856803971E+02 -0.20549576656E+02  0.29117327806E+02  0.51100000000E-03 0.  1.
         12    1    3    3    0    0  0.44980075860E+01 -0.60753775895E+01 -0.12248954685E+02  0.14393720019E+02  0.00000000000E+00 0. -1.
</event>
<event>
 7    1  0.1381440E-008  0.4614232E+02  0.7816164E-02  0.1320468E+00
        -11   -1    0    0    0    0  0.00000000000E+00  0.00000000000E+00  0.45593999997E+02  0.45594000000E+02  0.51100000000E-03 0.  1.
         11   -1    0    0    0    0 -0.00000000000E+00 -0.00000000000E+00 -0.45593999997E+02  0.45594000000E+02  0.51100000000E-03 0. -1.
    9900012    2    1    2    0    0  0.28149238154E+01 -0.78866315012E+01  0.44260489097E+02  0.46142315993E+02  0.99999838770E+01 0.  0.
         12    1    1    2    0    0 -0.28149238154E+01  0.78866315012E+01 -0.44260489097E+02  0.45045684007E+02  0.00000000000E+00 0. -1.
         11    1    3    3    0    0  0.22621347653E+01 -0.75873481797E+01  0.17521881582E+02  0.19227621811E+02  0.51100000000E-03 0. -1.
        -11    1    3    3    0    0  0.11590163571E+01  0.84239259993E+00  0.76944739492E+01  0.78267409453E+01  0.51100000000E-03 0.  1.
        -12    1    3    3    0    0 -0.60622730698E+00 -0.11416759214E+01  0.19044133566E+02  0.19087953236E+02  0.00000000000E+00 0.  1.
</event>
<event>
 7    1  0.1381440E-008  0.4614232E+02  0.7816164E-02  0.1320468E+00
        -11   -1    0    0    0    0  0.00000000000E+00  0.00000000000E+00  0.45593999997E+02  0.45594000000E+02  0.51100000000E-03 0. -1.
         11   -1    0    0    0    0 -0.00000000000E+00 -0.00000000000E+00 -0.45593999997E+02  0.45594000000E+02  0.51100000000E-03 0.  1.
    9900012    2    1    2    0    0 -0.37874605480E+02  0.33001945845E+01 -0.24160638742E+02  0.46142317754E+02  0.99999999395E+01 0.  0.
         12    1    1    2    0    0  0.37874605480E+02 -0.33001945845E+01  0.24160638742E+02  0.45045682246E+02  0.00000000000E+00 0. -1.
         11    1    3    3    0    0 -0.37838181718E+01 -0.13197182609E+01 -0.43954050672E+01  0.59479847185E+01  0.51100000000E-03 0. -1.
        -11    1    3    3    0    0 -0.64634077752E+01  0.29808888573E+01 -0.23528597886E+01  0.74964850360E+01  0.51100000000E-03 0.  1.
        -12    1    3    3    0    0 -0.27627379533E+02  0.16390239880E+01 -0.17412373886E+02  0.32697848000E+02  0.00000000000E+00 0.  1.
</event>
<event>
 7    1  0.1381440E-008  0.4614232E+02  0.7816164E-02  0.1320468E+00
        -11   -1    0    0    0    0  0.00000000000E+00  0.00000000000E+00  0.45593999997E+02  0.45594000000E+02  0.51100000000E-03 0.  1.
         11   -1    0    0    0    0 -0.00000000000E+00 -0.00000000000E+00 -0.45593999997E+02  0.45594000000E+02  0.51100000000E-03 0. -1.
    9900012    2    1    2    0    0 -0.15194643443E+01  0.34618060521E+02  0.28781842534E+02  0.46142319344E+02  0.10000014435E+02 0.  0.
         12    1    1    2    0    0  0.15194643443E+01 -0.34618060521E+02 -0.28781842534E+02  0.45045680656E+02  0.00000000000E+00 0. -1.
         11    1    3    3    0    0  0.22169812483E+01  0.20752614819E+02  0.20787902180E+02  0.29457136741E+02  0.51100000000E-03 0.  1.
        -11    1    3    3    0    0 -0.40263068721E+01  0.10777423287E+02  0.57859412703E+01  0.12877931370E+02  0.51100000000E-03 0. -1.
         12    1    3    3    0    0  0.28986127961E+00  0.30880224147E+01  0.22079990843E+01  0.38072512330E+01  0.00000000000E+00 0. -1.
</event>
<event>
 7    1  0.1381440E-008  0.4614232E+02  0.7816164E-02  0.1320468E+00
        -11   -1    0    0    0    0  0.00000000000E+00  0.00000000000E+00  0.45593999997E+02  0.45594000000E+02  0.51100000000E-03 0. -1.
         11   -1    0    0    0    0 -0.00000000000E+00 -0.00000000000E+00 -0.45593999997E+02  0.45594000000E+02  0.51100000000E-03 0.  1.
    9900012    2    1    2    0    0 -0.84063490291E+01  0.44236453998E+02  0.12581609084E+01  0.46142317242E+02  0.99999952633E+01 0.  0.
         12    1    1    2    0    0  0.84063490291E+01 -0.44236453998E+02 -0.12581609084E+01  0.45045682758E+02  0.00000000000E+00 0. -1.
         11    1    3    3    0    0 -0.66570110080E+01  0.25486514167E+02 -0.25108750175E+01  0.26460965469E+02  0.51100000000E-03 0. -1.
        -11    1    3    3    0    0 -0.92777504056E+00  0.18333777235E+02  0.38507808835E+01  0.18756776586E+02  0.51100000000E-03 0.  1.
         12    1    3    3    0    0 -0.82156298059E+00  0.41616259576E+00 -0.81744957609E-01  0.92457518638E+00  0.00000000000E+00 0. -1.
</event>
<event>
 7    1  0.1381440E-008  0.4614232E+02  0.7816164E-02  0.1320468E+00
        -11   -1    0    0    0    0  0.00000000000E+00  0.00000000000E+00  0.45593999997E+02  0.45594000000E+02  0.51100000000E-03 0.  1.
         11   -1    0    0    0    0 -0.00000000000E+00 -0.00000000000E+00 -0.45593999997E+02  0.45594000000E+02  0.51100000000E-03 0. -1.
    9900012    2    1    2    0    0  0.97183959457E+01  0.54775652400E+01  0.43642439688E+02  0.46142317825E+02  0.10000000581E+02 0.  0.
         12    1    1    2    0    0 -0.97183959457E+01 -0.54775652400E+01 -0.43642439688E+02  0.45045682175E+02  0.00000000000E+00 0. -1.
         11    1    3    3    0    0  0.31189709390E+01  0.21077804935E+00  0.52421127237E+01  0.61034542001E+01  0.51100000000E-03 0. -1.
        -11    1    3    3    0    0  0.17930325621E+01 -0.11953888762E+01  0.17639658237E+02  0.17770803677E+02  0.51100000000E-03 0.  1.
        -12    1    3    3    0    0  0.48063924446E+01  0.64621760669E+01  0.20760668727E+02  0.22268059948E+02  0.00000000000E+00 0.  1.
</event>
<event>
 7    1  0.1381440E-008  0.4614232E+02  0.7816164E-02  0.1320468E+00
        -11   -1    0    0    0    0  0.00000000000E+00  0.00000000000E+00  0.45593999997E+02  0.45594000000E+02  0.51100000000E-03 0. -1.
         11   -1    0    0    0    0 -0.00000000000E+00 -0.00000000000E+00 -0.45593999997E+02  0.45594000000E+02  0.51100000000E-03 0.  1.
    9900012    2    1    2    0    0 -0.77024865832E+01  0.16788485616E+02 -0.41084449993E+02  0.46142316744E+02  0.99999907210E+01 0.  0.
         12    1    1    2    0    0  0.77024865832E+01 -0.16788485616E+02  0.41084449993E+02  0.45045683256E+02  0.00000000000E+00 0. -1.
         11    1    3    3    0    0 -0.13882801229E+01  0.38317935890E+01 -0.31301938885E+01  0.51388790459E+01  0.51100000000E-03 0. -1.
        -11    1    3    3    0    0 -0.49397806242E+01  0.10340631107E+02 -0.34985484179E+02  0.36814592050E+02  0.51100000000E-03 0.  1.
        -12    1    3    3    0    0 -0.13744258360E+01  0.26160609201E+01 -0.29687719253E+01  0.41888456478E+01  0.00000000000E+00 0.  1.
</event>
<event>
 7    1  0.1381440E-008  0.4614232E+02  0.7816164E-02  0.1320468E+00
        -11   -1    0    0    0    0  0.00000000000E+00  0.00000000000E+00  0.45593999997E+02  0.45594000000E+02  0.51100000000E-03 0. -1.
         11   -1    0    0    0    0 -0.00000000000E+00 -0.00000000000E+00 -0.45593999997E+02  0.45594000000E+02  0.51100000000E-03 0.  1.
    9900012    2    1    2    0    0  0.29405995903E+01 -0.44794046691E+02 -0.37362740578E+01  0.46142317757E+02  0.99999999650E+01 0.  0.
         12    1    1    2    0    0 -0.29405995903E+01  0.44794046691E+02  0.37362740578E+01  0.45045682243E+02  0.00000000000E+00 0. -1.
         11    1    3    3    0    0  0.26654212912E+01 -0.23651995863E+02 -0.19994650425E+01  0.23885544576E+02  0.51100000000E-03 0. -1.
        -11    1    3    3    0    0 -0.29985428553E+01 -0.68677218529E+01  0.11901983805E+00  0.74947333967E+01  0.51100000000E-03 0.  1.
         12    1    3    3    0    0  0.32737211544E+01 -0.14274328974E+02 -0.18558288534E+01  0.14762039785E+02  0.00000000000E+00 0. -1.
</event>
<event>
 7    1  0.1381440E-008  0.4614232E+02  0.7816164E-02  0.1320468E+00
        -11   -1    0    0    0    0  0.00000000000E+00  0.00000000000E+00  0.45593999997E+02  0.45594000000E+02  0.51100000000E-03 0.  1.
         11   -1    0    0    0    0 -0.00000000000E+00 -0.00000000000E+00 -0.45593999997E+02  0.45594000000E+02  0.51100000000E-03 0. -1.
    9900012    2    1    2    0    0 -0.38247000247E+02 -0.17251679723E+02  0.16390851511E+02  0.46142317694E+02  0.99999993874E+01 0.  0.
         12    1    1    2    0    0  0.38247000247E+02  0.17251679723E+02 -0.16390851511E+02  0.45045682306E+02  0.00000000000E+00 0. -1.
         11    1    3    3    0    0 -0.98978814875E+01 -0.12485131566E+01  0.61893246526E+01  0.11740297397E+02  0.51100000000E-03 0. -1.
        -11    1    3    3    0    0 -0.20273659685E+02 -0.10110921079E+02  0.52920868413E+01  0.23264956168E+02  0.51100000000E-03 0.  1.
        -12    1    3    3    0    0 -0.80754590746E+01 -0.58922454868E+01  0.49094400168E+01  0.11137064129E+02  0.00000000000E+00 0.  1.
</event>
<event>
 7    1  0.1381440E-008  0.4614231E+02  0.7816164E-02  0.1320468E+00
        -11   -1    0    0    0    0  0.00000000000E+00  0.00000000000E+00  0.45593999997E+02  0.45594000000E+02  0.51100000000E-03 0. -1.
         11   -1    0    0    0    0 -0.00000000000E+00 -0.00000000000E+00 -0.45593999997E+02  0.45594000000E+02  0.51100000000E-03 0.  1.
    9900012    2    1    2    0    0 -0.15800668536E+02  0.18401377931E+02 -0.37958425892E+02  0.46142312835E+02  0.99999550822E+01 0.  0.
         12    1    1    2    0    0  0.15800668536E+02 -0.18401377931E+02  0.37958425892E+02  0.45045687165E+02  0.00000000000E+00 0. -1.
         11    1    3    3    0    0 -0.35844663345E+01  0.15764997338E+01 -0.41756566209E+01  0.57244963788E+01  0.51100000000E-03 0. -1.
        -11    1    3    3    0    0 -0.65849243639E+01  0.13861559344E+02 -0.19763766448E+02  0.25022200559E+02  0.51100000000E-03 0.  1.
        -12    1    3    3    0    0 -0.56312778373E+01  0.29633188523E+01 -0.14019002824E+02  0.15395615898E+02  0.00000000000E+00 0.  1.
</event>
<event>
 7    1  0.1381440E-008  0.4614232E+02  0.7816164E-02  0.1320468E+00
        -11   -1    0    0    0    0  0.00000000000E+00  0.00000000000E+00  0.45593999997E+02  0.45594000000E+02  0.51100000000E-03 0.  1.
         11   -1    0    0    0    0 -0.00000000000E+00 -0.00000000000E+00 -0.45593999997E+02  0.45594000000E+02  0.51100000000E-03 0. -1.
    9900012    2    1    2    0    0  0.28856979590E+02 -0.10342571315E+02  0.33006354491E+02  0.46142317752E+02  0.99999999145E+01 0.  0.
         12    1    1    2    0    0 -0.28856979590E+02  0.10342571315E+02 -0.33006354491E+02  0.45045682248E+02  0.00000000000E+00 0. -1.
         11    1    3    3    0    0  0.12694684143E+01  0.26366918215E-01  0.47295619041E+01  0.48970400586E+01  0.51100000000E-03 0. -1.
        -11    1    3    3    0    0  0.27738583677E+02 -0.10180290313E+02  0.28391845182E+02  0.40977606181E+02  0.51100000000E-03 0.  1.
        -12    1    3    3    0    0 -0.15107250172E+00 -0.18864792036E+00 -0.11505259509E+00  0.26767151187E+00  0.00000000000E+00 0.  1.
</event>
<event>
 7    1  0.1381440E-008  0.4614232E+02  0.7816164E-02  0.1320468E+00
        -11   -1    0    0    0    0  0.00000000000E+00  0.00000000000E+00  0.45593999997E+02  0.45594000000E+02  0.51100000000E-03 0. -1.
         11   -1    0    0    0    0 -0.00000000000E+00 -0.00000000000E+00 -0.45593999997E+02  0.45594000000E+02  0.51100000000E-03 0.  1.
    9900012    2    1    2    0    0  0.26836558262E+02 -0.35740256633E+02  0.56166527087E+01  0.46142316620E+02  0.99999895903E+01 0.  0.
         12    1    1    2    0    0 -0.26836558262E+02  0.35740256633E+02 -0.56166527087E+01  0.45045683380E+02  0.00000000000E+00 0. -1.
         11    1    3    3    0    0  0.41474194334E+01 -0.16188982885E+01  0.37229775505E+00  0.44677203925E+01  0.51100000000E-03 0. -1.
        -11    1    3    3    0    0  0.34398582583E+01 -0.92087174341E+01  0.19278408071E+01  0.10017468346E+02  0.51100000000E-03 0.  1.
        -12    1    3    3    0    0  0.19249280571E+02 -0.24912640910E+02  0.33165141465E+01  0.31657127881E+02  0.00000000000E+00 0.  1.
</event>
<event>
 7    1  0.1381440E-008  0.4614232E+02  0.7816164E-02  0.1320468E+00
        -11   -1    0    0    0    0  0.00000000000E+00  0.00000000000E+00  0.45593999997E+02  0.45594000000E+02  0.51100000000E-03 0.  1.
         11   -1    0    0    0    0 -0.00000000000E+00 -0.00000000000E+00 -0.45593999997E+02  0.45594000000E+02  0.51100000000E-03 0. -1.
    9900012    2    1    2    0    0 -0.11670286262E+02  0.48993394799E+01  0.43230942677E+02  0.46142317482E+02  0.99999974579E+01 0.  0.
         12    1    1    2    0    0  0.11670286262E+02 -0.48993394799E+01 -0.43230942677E+02  0.45045682518E+02  0.00000000000E+00 0. -1.
         11    1    3    3    0    0 -0.69271992687E+01 -0.50283774415E+00  0.21613989454E+02  0.22702499331E+02  0.51100000000E-03 0.  1.
        -11    1    3    3    0    0  0.10295948452E+01  0.16453389259E+01  0.72798735985E+01  0.75341731861E+01  0.51100000000E-03 0. -1.
         12    1    3    3    0    0 -0.57726818385E+01  0.37568382982E+01  0.14337079624E+02  0.15905644965E+02  0.00000000000E+00 0. -1.
</event>
<event>
 7    1  0.1381440E-008  0.4614232E+02  0.7816164E-02  0.1320468E+00
        -11   -1    0    0    0    0  0.00000000000E+00  0.00000000000E+00  0.45593999997E+02  0.45594000000E+02  0.51100000000E-03 0.  1.
         11   -1    0    0    0    0 -0.00000000000E+00 -0.00000000000E+00 -0.45593999997E+02  0.45594000000E+02  0.51100000000E-03 0. -1.
    9900012    2    1    2    0    0 -0.51990497631E+01  0.26219525241E+02  0.36257687379E+02  0.46142317450E+02  0.99999971649E+01 0.  0.
         12    1    1    2    0    0  0.51990497631E+01 -0.26219525241E+02 -0.36257687379E+02  0.45045682550E+02  0.00000000000E+00 0. -1.
         11    1    3    3    0    0  0.19693982600E+01  0.31168635184E+01  0.22510416819E+01  0.43197866398E+01  0.51100000000E-03 0. -1.
        -11    1    3    3    0    0 -0.22358263132E+01  0.40348079004E+01  0.55868316857E+01  0.72450867932E+01  0.51100000000E-03 0.  1.
         12    1    3    3    0    0 -0.49326217099E+01  0.19067853822E+02  0.28419814011E+02  0.34577444017E+02  0.00000000000E+00 0. -1.
</event>
<event>
 7    1  0.1381440E-008  0.4614232E+02  0.7816164E-02  0.1320468E+00
        -11   -1    0    0    0    0  0.00000000000E+00  0.00000000000E+00  0.45593999997E+02  0.45594000000E+02  0.51100000000E-03 0. -1.
         11   -1    0    0    0    0 -0.00000000000E+00 -0.00000000000E+00 -0.45593999997E+02  0.45594000000E+02  0.51100000000E-03 0.  1.
    9900012    2    1    2    0    0 -0.40832629713E+02  0.65514269118E+01 -0.17857452987E+02  0.46142317954E+02  0.10000001757E+02 0.  0.
         12    1    1    2    0    0  0.40832629713E+02 -0.65514269118E+01  0.17857452987E+02  0.45045682046E+02  0.00000000000E+00 0. -1.
         11    1    3    3    0    0 -0.81523383941E+01  0.74419859820E-01 -0.24994558366E+01  0.85272175619E+01  0.51100000000E-03 0. -1.
        -11    1    3    3    0    0 -0.45593408119E+00 -0.11369722459E+01 -0.57875347687E+00  0.13548201439E+01  0.51100000000E-03 0.  1.
        -12    1    3    3    0    0 -0.32224357237E+02  0.76139792979E+01 -0.14779243673E+02  0.36260280248E+02  0.00000000000E+00 0.  1.
</event>
<event>
 7    1  0.1381440E-008  0.4614232E+02  0.7816164E-02  0.1320468E+00
        -11   -1    0    0    0    0  0.00000000000E+00  0.00000000000E+00  0.45593999997E+02  0.45594000000E+02  0.51100000000E-03 0.  1.
         11   -1    0    0    0    0 -0.00000000000E+00 -0.00000000000E+00 -0.45593999997E+02  0.45594000000E+02  0.51100000000E-03 0. -1.
    9900012    2    1    2    0    0 -0.97275083268E+01 -0.67155087490E+01  0.43467124731E+02  0.46142318649E+02  0.10000008097E+02 0.  0.
         12    1    1    2    0    0  0.97275083268E+01  0.67155087490E+01 -0.43467124731E+02  0.45045681351E+02  0.00000000000E+00 0. -1.
         11    1    3    3    0    0 -0.21790934196E+00  0.18278059021E-01  0.11392930540E+02  0.11395028965E+02  0.51100000000E-03 0. -1.
        -11    1    3    3    0    0 -0.12307727443E+01 -0.35793949146E+01  0.50707762767E+01  0.63276885047E+01  0.51100000000E-03 0.  1.
        -12    1    3    3    0    0 -0.82788262405E+01 -0.31543918934E+01  0.27003417914E+02  0.28419601179E+02  0.00000000000E+00 0.  1.
</event>
<event>
 7    1  0.1381440E-008  0.4614232E+02  0.7816164E-02  0.1320468E+00
        -11   -1    0    0    0    0  0.00000000000E+00  0.00000000000E+00  0.45593999997E+02  0.45594000000E+02  0.51100000000E-03 0.  1.
         11   -1    0    0    0    0 -0.00000000000E+00 -0.00000000000E+00 -0.45593999997E+02  0.45594000000E+02  0.51100000000E-03 0. -1.
    9900012    2    1    2    0    0 -0.12664831928E+02  0.30734918158E+02  0.30398688247E+02  0.46142318641E+02  0.10000008025E+02 0.  0.
         12    1    1    2    0    0  0.12664831928E+02 -0.30734918158E+02 -0.30398688247E+02  0.45045681359E+02  0.00000000000E+00 0. -1.
         11    1    3    3    0    0 -0.18070965616E+00  0.95020095216E+00  0.41852948444E+01  0.42956060137E+01  0.51100000000E-03 0. -1.
        -11    1    3    3    0    0 -0.72596558015E+01  0.21917970632E+02  0.17191259193E+02  0.28786097893E+02  0.51100000000E-03 0.  1.
        -12    1    3    3    0    0 -0.52244664704E+01  0.78667465733E+01  0.90221342094E+01  0.13060614734E+02  0.00000000000E+00 0.  1.
</event>
<event>
 7    1  0.1381440E-008  0.4614232E+02  0.7816164E-02  0.1320468E+00
        -11   -1    0    0    0    0  0.00000000000E+00  0.00000000000E+00  0.45593999997E+02  0.45594000000E+02  0.51100000000E-03 0.  1.
         11   -1    0    0    0    0 -0.00000000000E+00 -0.00000000000E+00 -0.45593999997E+02  0.45594000000E+02  0.51100000000E-03 0. -1.
    9900012    2    1    2    0    0 -0.14176311465E+02  0.41387199264E+02  0.10735239594E+02  0.46142318311E+02  0.10000005016E+02 0.  0.
         12    1    1    2    0    0  0.14176311465E+02 -0.41387199264E+02 -0.10735239594E+02  0.45045681689E+02  0.00000000000E+00 0. -1.
         11    1    3    3    0    0 -0.83540939690E+01  0.24944824469E+02  0.30658155104E+01  0.26484606450E+02  0.51100000000E-03 0. -1.
        -11    1    3    3    0    0 -0.24497740092E+01  0.34297893918E+01  0.69153036407E-01  0.42154039393E+01  0.51100000000E-03 0.  1.
         12    1    3    3    0    0 -0.33724434873E+01  0.13012585403E+02  0.76002710477E+01  0.15442307922E+02  0.00000000000E+00 0. -1.
</event>
<event>
 7    1  0.1381440E-008  0.4614232E+02  0.7816164E-02  0.1320468E+00
        -11   -1    0    0    0    0  0.00000000000E+00  0.00000000000E+00  0.45593999997E+02  0.45594000000E+02  0.51100000000E-03 0. -1.
         11   -1    0    0    0    0 -0.00000000000E+00 -0.00000000000E+00 -0.45593999997E+02  0.45594000000E+02  0.51100000000E-03 0.  1.
    9900012    2    1    2    0    0 -0.10302644153E+02  0.33252524148E+01 -0.43725412368E+02  0.46142317999E+02  0.10000002172E+02 0.  0.
         12    1    1    2    0    0  0.10302644153E+02 -0.33252524148E+01  0.43725412368E+02  0.45045682001E+02  0.00000000000E+00 0. -1.
         11    1    3    3    0    0 -0.70163137358E-01  0.37774664491E+01 -0.89891806916E+01  0.97508740842E+01  0.51100000000E-03 0. -1.
        -11    1    3    3    0    0 -0.48719663969E+01 -0.18239761808E+01 -0.14203435074E+02  0.15126153306E+02  0.51100000000E-03 0.  1.
        -12    1    3    3    0    0 -0.53605146189E+01  0.13717621466E+01 -0.20532796602E+02  0.21265290609E+02  0.00000000000E+00 0.  1.
</event>
<event>
 7    1  0.1381440E-008  0.4614232E+02  0.7816164E-02  0.1320468E+00
        -11   -1    0    0    0    0  0.00000000000E+00  0.00000000000E+00  0.45593999997E+02  0.45594000000E+02  0.51100000000E-03 0. -1.
         11   -1    0    0    0    0 -0.00000000000E+00 -0.00000000000E+00 -0.45593999997E+02  0.45594000000E+02  0.51100000000E-03 0.  1.
    9900012    2    1    2    0    0 -0.20396369972E+02  0.21158541227E+02 -0.34138212828E+02  0.46142319297E+02  0.10000014004E+02 0.  0.
         12    1    1    2    0    0  0.20396369972E+02 -0.21158541227E+02  0.34138212828E+02  0.45045680703E+02  0.00000000000E+00 0. -1.
         11    1    3    3    0    0  0.36454011059E+00  0.20447984255E+01 -0.32485171019E+01  0.38557688877E+01  0.51100000000E-03 0. -1.
        -11    1    3    3    0    0 -0.68148880884E+01  0.49956903051E+01 -0.13361914138E+02  0.15809502553E+02  0.51100000000E-03 0.  1.
        -12    1    3    3    0    0 -0.13946021994E+02  0.14118052497E+02 -0.17527781589E+02  0.26477047856E+02  0.00000000000E+00 0.  1.
</event>
<event>
 7    1  0.1381440E-008  0.4614232E+02  0.7816164E-02  0.1320468E+00
        -11   -1    0    0    0    0  0.00000000000E+00  0.00000000000E+00  0.45593999997E+02  0.45594000000E+02  0.51100000000E-03 0. -1.
         11   -1    0    0    0    0 -0.00000000000E+00 -0.00000000000E+00 -0.45593999997E+02  0.45594000000E+02  0.51100000000E-03 0.  1.
    9900012    2    1    2    0    0 -0.10083015443E+02  0.42788314698E+02 -0.98288576242E+01  0.46142317440E+02  0.99999970694E+01 0.  0.
         12    1    1    2    0    0  0.10083015443E+02 -0.42788314698E+02  0.98288576242E+01  0.45045682560E+02  0.00000000000E+00 0. -1.
         11    1    3    3    0    0 -0.26805264460E+01  0.11691652390E+02  0.11710313654E+01  0.12052023580E+02  0.51100000000E-03 0. -1.
        -11    1    3    3    0    0 -0.26206741085E+01  0.19714180188E+02 -0.60331343735E+01  0.20782577894E+02  0.51100000000E-03 0.  1.
        -12    1    3    3    0    0 -0.47818148881E+01  0.11382482120E+02 -0.49667546160E+01  0.13307715966E+02  0.00000000000E+00 0.  1.
</event>
<event>
 7    1  0.1381440E-008  0.4614232E+02  0.7816164E-02  0.1320468E+00
        -11   -1    0    0    0    0  0.00000000000E+00  0.00000000000E+00  0.45593999997E+02  0.45594000000E+02  0.51100000000E-03 0.  1.
         11   -1    0    0    0    0 -0.00000000000E+00 -0.00000000000E+00 -0.45593999997E+02  0.45594000000E+02  0.51100000000E-03 0. -1.
    9900012    2    1    2    0    0 -0.22284549163E+01  0.89441404053E+01  0.44092514551E+02  0.46142317651E+02  0.99999989939E+01 0.  0.
         12    1    1    2    0    0  0.22284549163E+01 -0.89441404053E+01 -0.44092514551E+02  0.45045682349E+02  0.00000000000E+00 0. -1.
         11    1    3    3    0    0 -0.20418678829E+01 -0.83594179419E+00  0.51294089020E+01  0.55838032808E+01  0.51100000000E-03 0. -1.
        -11    1    3    3    0    0  0.16070374574E+01  0.89742037777E+01  0.34443731619E+02  0.35629896869E+02  0.51100000000E-03 0.  1.
        -12    1    3    3    0    0 -0.17936244908E+01  0.80587842175E+00  0.45193740301E+01  0.49286175008E+01  0.00000000000E+00 0.  1.
</event>
<event>
 7    1  0.1381440E-008  0.4614232E+02  0.7816164E-02  0.1320468E+00
        -11   -1    0    0    0    0  0.00000000000E+00  0.00000000000E+00  0.45593999997E+02  0.45594000000E+02  0.51100000000E-03 0.  1.
         11   -1    0    0    0    0 -0.00000000000E+00 -0.00000000000E+00 -0.45593999997E+02  0.45594000000E+02  0.51100000000E-03 0. -1.
    9900012    2    1    2    0    0  0.32358477598E+02  0.24288392167E+02  0.19801927591E+02  0.46142318711E+02  0.10000008658E+02 0.  0.
         12    1    1    2    0    0 -0.32358477598E+02 -0.24288392167E+02 -0.19801927591E+02  0.45045681289E+02  0.00000000000E+00 0. -1.
         11    1    3    3    0    0  0.22595680342E+02  0.16910146148E+02  0.13655387864E+02  0.31352630366E+02  0.51100000000E-03 0.  1.
        -11    1    3    3    0    0  0.54923816912E-01  0.20575605446E+01  0.22602523595E+01  0.30570104694E+01  0.51100000000E-03 0. -1.
         12    1    3    3    0    0  0.97078734389E+01  0.53206854738E+01  0.38862873668E+01  0.11732677875E+02  0.00000000000E+00 0. -1.
</event>
<event>
 7    1  0.1381440E-008  0.4614232E+02  0.7816164E-02  0.1320468E+00
        -11   -1    0    0    0    0  0.00000000000E+00  0.00000000000E+00  0.45593999997E+02  0.45594000000E+02  0.51100000000E-03 0. -1.
         11   -1    0    0    0    0 -0.00000000000E+00 -0.00000000000E+00 -0.45593999997E+02  0.45594000000E+02  0.51100000000E-03 0.  1.
    9900012    2    1    2    0    0  0.32596263660E+02 -0.19574113695E+02 -0.24154732998E+02  0.46142318101E+02  0.10000003102E+02 0.  0.
         12    1    1    2    0    0 -0.32596263660E+02  0.19574113695E+02  0.24154732998E+02  0.45045681899E+02  0.00000000000E+00 0. -1.
         11    1    3    3    0    0  0.13373794752E+02 -0.46785195701E+01 -0.93198763716E+01  0.16958980727E+02  0.51100000000E-03 0. -1.
        -11    1    3    3    0    0  0.15575912689E+02 -0.97601865473E+01 -0.13334879893E+02  0.22708793882E+02  0.51100000000E-03 0.  1.
         12    1    3    3    0    0  0.36465562180E+01 -0.51354075777E+01 -0.14999767332E+01  0.64745434928E+01  0.00000000000E+00 0. -1.
</event>
<event>
 7    1  0.1381440E-008  0.4614232E+02  0.7816164E-02  0.1320468E+00
        -11   -1    0    0    0    0  0.00000000000E+00  0.00000000000E+00  0.45593999997E+02  0.45594000000E+02  0.51100000000E-03 0. -1.
         11   -1    0    0    0    0 -0.00000000000E+00 -0.00000000000E+00 -0.45593999997E+02  0.45594000000E+02  0.51100000000E-03 0.  1.
    9900012    2    1    2    0    0 -0.19866314994E+02 -0.36027595686E+02  0.18342719398E+02  0.46142317884E+02  0.10000001122E+02 0.  0.
         12    1    1    2    0    0  0.19866314994E+02  0.36027595686E+02 -0.18342719398E+02  0.45045682116E+02  0.00000000000E+00 0. -1.
         11    1    3    3    0    0 -0.62133072774E+01 -0.10445340593E+02  0.31932855322E+01  0.12566121127E+02  0.51100000000E-03 0. -1.
        -11    1    3    3    0    0 -0.31711697364E+01 -0.70305279662E+01  0.79707742639E+01  0.11091342732E+02  0.51100000000E-03 0.  1.
        -12    1    3    3    0    0 -0.10481837981E+02 -0.18551727127E+02  0.71786596022E+01  0.22484854025E+02  0.00000000000E+00 0.  1.
</event>
<event>
 7    1  0.1381440E-008  0.4614232E+02  0.7816164E-02  0.1320468E+00
        -11   -1    0    0    0    0  0.00000000000E+00  0.00000000000E+00  0.45593999997E+02  0.45594000000E+02  0.51100000000E-03 0.  1.
         11   -1    0    0    0    0 -0.00000000000E+00 -0.00000000000E+00 -0.45593999997E+02  0.45594000000E+02  0.51100000000E-03 0. -1.
    9900012    2    1    2    0    0  0.42520254688E+02  0.88370142538E+01  0.11960295588E+02  0.46142317074E+02  0.99999937382E+01 0.  0.
         12    1    1    2    0    0 -0.42520254688E+02 -0.88370142538E+01 -0.11960295588E+02  0.45045682926E+02  0.00000000000E+00 0. -1.
         11    1    3    3    0    0 -0.11974932563E+00  0.62584371441E+00  0.10912169531E+01  0.12636356104E+01  0.51100000000E-03 0. -1.
        -11    1    3    3    0    0  0.17731754238E+02  0.28845986372E+01  0.60437470013E+01  0.18954231605E+02  0.51100000000E-03 0.  1.
         12    1    3    3    0    0  0.24908249776E+02  0.53265719022E+01  0.48253316340E+01  0.25924449859E+02  0.00000000000E+00 0. -1.
</event>
<event>
 7    1  0.1906272E-008  0.4614232E+02  0.7816164E-02  0.1320468E+00
        -11   -1    0    0    0    0  0.00000000000E+00  0.00000000000E+00  0.45593999997E+02  0.45594000000E+02  0.51100000000E-03 0. -1.
         11   -1    0    0    0    0 -0.00000000000E+00 -0.00000000000E+00 -0.45593999997E+02  0.45594000000E+02  0.51100000000E-03 0.  1.
    9900012    2    1    2    0    0  0.13838262913E+02  0.10816824117E+01 -0.42853772156E+02  0.46142319349E+02  0.10000014480E+02 0.  0.
         12    1    1    2    0    0 -0.13838262913E+02 -0.10816824117E+01  0.42853772156E+02  0.45045680651E+02  0.00000000000E+00 0. -1.
         11    1    3    3    0    0  0.17608940485E+01  0.13896580780E+01 -0.28443814492E+01  0.36224858196E+01  0.51100000000E-03 0. -1.
        -11    1    3    3    0    0  0.46674340380E+01 -0.35270649164E+01 -0.22301191468E+02  0.23055764324E+02  0.51100000000E-03 0.  1.
        -12    1    3    3    0    0  0.74099348268E+01  0.32190892500E+01 -0.17708199239E+02  0.19464069205E+02  0.00000000000E+00 0.  1.
</event>
<event>
 7    1  0.1381440E-008  0.4614232E+02  0.7816164E-02  0.1320468E+00
        -11   -1    0    0    0    0  0.00000000000E+00  0.00000000000E+00  0.45593999997E+02  0.45594000000E+02  0.51100000000E-03 0.  1.
         11   -1    0    0    0    0 -0.00000000000E+00 -0.00000000000E+00 -0.45593999997E+02  0.45594000000E+02  0.51100000000E-03 0. -1.
    9900012    2    1    2    0    0 -0.13848068930E+02 -0.31200036375E+02  0.29392211857E+02  0.46142318734E+02  0.10000008875E+02 0.  0.
         12    1    1    2    0    0  0.13848068930E+02  0.31200036375E+02 -0.29392211857E+02  0.45045681266E+02  0.00000000000E+00 0. -1.
         11    1    3    3    0    0 -0.91813584690E+01 -0.11296001632E+02  0.88074049365E+01  0.17013740864E+02  0.51100000000E-03 0. -1.
        -11    1    3    3    0    0 -0.34957930321E+01 -0.16696561759E+02  0.15808973425E+02  0.23257673669E+02  0.51100000000E-03 0.  1.
         12    1    3    3    0    0 -0.11709174289E+01 -0.32074729834E+01  0.47758334953E+01  0.58709042012E+01  0.00000000000E+00 0. -1.
</event>
<event>
 7    1  0.1381440E-008  0.4614232E+02  0.7816164E-02  0.1320468E+00
        -11   -1    0    0    0    0  0.00000000000E+00  0.00000000000E+00  0.45593999997E+02  0.45594000000E+02  0.51100000000E-03 0.  1.
         11   -1    0    0    0    0 -0.00000000000E+00 -0.00000000000E+00 -0.45593999997E+02  0.45594000000E+02  0.51100000000E-03 0. -1.
    9900012    2    1    2    0    0  0.73677634167E+01 -0.13358432970E+02  0.42383745508E+02  0.46142317050E+02  0.99999935137E+01 0.  0.
         12    1    1    2    0    0 -0.73677634167E+01  0.13358432970E+02 -0.42383745508E+02  0.45045682950E+02  0.00000000000E+00 0. -1.
         11    1    3    3    0    0  0.17952777710E+01 -0.19080543298E+00  0.14513835729E+02  0.14625691670E+02  0.51100000000E-03 0. -1.
        -11    1    3    3    0    0  0.60396546996E+01 -0.12322533696E+02  0.26472531453E+02  0.29818068137E+02  0.51100000000E-03 0.  1.
         12    1    3    3    0    0 -0.46716905395E+00 -0.84509384135E+00  0.13973783254E+01  0.16985572436E+01  0.00000000000E+00 0. -1.
</event>
<event>
 7    1  0.1381440E-008  0.4614232E+02  0.7816164E-02  0.1320468E+00
        -11   -1    0    0    0    0  0.00000000000E+00  0.00000000000E+00  0.45593999997E+02  0.45594000000E+02  0.51100000000E-03 0.  1.
         11   -1    0    0    0    0 -0.00000000000E+00 -0.00000000000E+00 -0.45593999997E+02  0.45594000000E+02  0.51100000000E-03 0. -1.
    9900012    2    1    2    0    0  0.14772338854E+02 -0.75854926004E+01  0.41873043000E+02  0.46142318483E+02  0.10000006587E+02 0.  0.
         12    1    1    2    0    0 -0.14772338854E+02  0.75854926004E+01 -0.41873043000E+02  0.45045681517E+02  0.00000000000E+00 0. -1.
         11    1    3    3    0    0  0.12502713328E+01 -0.22000587073E+01  0.12150436516E+02  0.12411145979E+02  0.51100000000E-03 0. -1.
        -11    1    3    3    0    0  0.81689651252E+01 -0.11006664789E+01  0.10674933971E+02  0.13486944556E+02  0.51100000000E-03 0.  1.
        -12    1    3    3    0    0  0.53531023959E+01 -0.42847674143E+01  0.19047672514E+02  0.20244227949E+02  0.00000000000E+00 0.  1.
</event>
<event>
 7    1  0.1381440E-008  0.4614232E+02  0.7816164E-02  0.1320468E+00
        -11   -1    0    0    0    0  0.00000000000E+00  0.00000000000E+00  0.45593999997E+02  0.45594000000E+02  0.51100000000E-03 0.  1.
         11   -1    0    0    0    0 -0.00000000000E+00 -0.00000000000E+00 -0.45593999997E+02  0.45594000000E+02  0.51100000000E-03 0. -1.
    9900012    2    1    2    0    0 -0.20418152489E+02  0.34908081856E+02  0.19840320756E+02  0.46142318103E+02  0.10000003116E+02 0.  0.
         12    1    1    2    0    0  0.20418152489E+02 -0.34908081856E+02 -0.19840320756E+02  0.45045681897E+02  0.00000000000E+00 0. -1.
         11    1    3    3    0    0 -0.32759559106E+00  0.13139149464E+01  0.15936070173E+00  0.13634835723E+01  0.51100000000E-03 0. -1.
        -11    1    3    3    0    0 -0.18991704050E+02  0.30326859343E+02  0.14617271317E+02  0.38653173755E+02  0.51100000000E-03 0.  1.
        -12    1    3    3    0    0 -0.10988528480E+01  0.32673075660E+01  0.50636887364E+01  0.61256607751E+01  0.00000000000E+00 0.  1.
</event>
<event>
 7    1  0.1381440E-008  0.4614232E+02  0.7816164E-02  0.1320468E+00
        -11   -1    0    0    0    0  0.00000000000E+00  0.00000000000E+00  0.45593999997E+02  0.45594000000E+02  0.51100000000E-03 0. -1.
         11   -1    0    0    0    0 -0.00000000000E+00 -0.00000000000E+00 -0.45593999997E+02  0.45594000000E+02  0.51100000000E-03 0.  1.
    9900012    2    1    2    0    0 -0.86056486188E+01  0.42374616061E+02  0.12627280641E+02  0.46142317733E+02  0.99999997460E+01 0.  0.
         12    1    1    2    0    0  0.86056486188E+01 -0.42374616061E+02 -0.12627280641E+02  0.45045682267E+02  0.00000000000E+00 0. -1.
         11    1    3    3    0    0  0.44791862809E+00  0.26150911978E+01  0.26417929280E+01  0.37441158109E+01  0.51100000000E-03 0. -1.
        -11    1    3    3    0    0 -0.93008617640E+01  0.31821463570E+02  0.92680525581E+01  0.34423950554E+02  0.51100000000E-03 0.  1.
         12    1    3    3    0    0  0.24729451718E+00  0.79380612935E+01  0.71743515487E+00  0.79742513679E+01  0.00000000000E+00 0. -1.
</event>
<event>
 7    1  0.1381440E-008  0.4614232E+02  0.7816164E-02  0.1320468E+00
        -11   -1    0    0    0    0  0.00000000000E+00  0.00000000000E+00  0.45593999997E+02  0.45594000000E+02  0.51100000000E-03 0.  1.
         11   -1    0    0    0    0 -0.00000000000E+00 -0.00000000000E+00 -0.45593999997E+02  0.45594000000E+02  0.51100000000E-03 0. -1.
    9900012    2    1    2    0    0  0.23752221122E+02  0.21850698910E+02  0.31424392590E+02  0.46142317624E+02  0.99999987476E+01 0.  0.
         12    1    1    2    0    0 -0.23752221122E+02 -0.21850698910E+02 -0.31424392590E+02  0.45045682376E+02  0.00000000000E+00 0. -1.
         11    1    3    3    0    0  0.13053245698E+02  0.10972883199E+02  0.12169051690E+02  0.20949396370E+02  0.51100000000E-03 0. -1.
        -11    1    3    3    0    0  0.91774717774E+01  0.11036160081E+02  0.15434108416E+02  0.21076871694E+02  0.51100000000E-03 0.  1.
         12    1    3    3    0    0  0.15215036461E+01 -0.15834436930E+00  0.38212324838E+01  0.41160495599E+01  0.00000000000E+00 0. -1.
</event>
<event>
 7    1  0.1381440E-008  0.4614231E+02  0.7816164E-02  0.1320468E+00
        -11   -1    0    0    0    0  0.00000000000E+00  0.00000000000E+00  0.45593999997E+02  0.45594000000E+02  0.51100000000E-03 0. -1.
         11   -1    0    0    0    0 -0.00000000000E+00 -0.00000000000E+00 -0.45593999997E+02  0.45594000000E+02  0.51100000000E-03 0.  1.
    9900012    2    1    2    0    0  0.28632770623E+02 -0.20191033721E+02 -0.28312548422E+02  0.46142314364E+02  0.99999690212E+01 0.  0.
         12    1    1    2    0    0 -0.28632770623E+02  0.20191033721E+02  0.28312548422E+02  0.45045685636E+02  0.00000000000E+00 0. -1.
         11    1    3    3    0    0  0.92622726314E+01 -0.70980449520E+01 -0.54935889691E+01  0.12897730671E+02  0.51100000000E-03 0. -1.
        -11    1    3    3    0    0  0.15761499378E+02 -0.12538490322E+02 -0.21226927861E+02  0.29261255422E+02  0.51100000000E-03 0.  1.
         12    1    3    3    0    0  0.36089986143E+01 -0.55449844676E+00 -0.15920315920E+01  0.39833282711E+01  0.00000000000E+00 0. -1.
</event>
<event>
 7    1  0.1381440E-008  0.4614232E+02  0.7816164E-02  0.1320468E+00
        -11   -1    0    0    0    0  0.00000000000E+00  0.00000000000E+00  0.45593999997E+02  0.45594000000E+02  0.51100000000E-03 0.  1.
         11   -1    0    0    0    0 -0.00000000000E+00 -0.00000000000E+00 -0.45593999997E+02  0.45594000000E+02  0.51100000000E-03 0. -1.
    9900012    2    1    2    0    0 -0.15930223470E+02 -0.26448078723E+02  0.32800008938E+02  0.46142317918E+02  0.10000001429E+02 0.  0.
         12    1    1    2    0    0  0.15930223470E+02  0.26448078723E+02 -0.32800008938E+02  0.45045682082E+02  0.00000000000E+00 0. -1.
         11    1    3    3    0    0 -0.70087036245E+00 -0.60601939817E+01  0.26523070373E+01  0.66522104027E+01  0.51100000000E-03 0. -1.
        -11    1    3    3    0    0 -0.76287991558E+01 -0.11180968016E+02  0.15027629607E+02  0.20224793552E+02  0.51100000000E-03 0.  1.
         12    1    3    3    0    0 -0.76005539519E+01 -0.92069167252E+01  0.15120072293E+02  0.19265313964E+02  0.00000000000E+00 0. -1.
</event>
<event>
 7    1  0.1381440E-008  0.4614232E+02  0.7816164E-02  0.1320468E+00
        -11   -1    0    0    0    0  0.00000000000E+00  0.00000000000E+00  0.45593999997E+02  0.45594000000E+02  0.51100000000E-03 0.  1.
         11   -1    0    0    0    0 -0.00000000000E+00 -0.00000000000E+00 -0.45593999997E+02  0.45594000000E+02  0.51100000000E-03 0. -1.
    9900012    2    1    2    0    0 -0.24257524666E+02  0.15145841878E+02  0.34803584972E+02  0.46142317010E+02  0.99999931541E+01 0.  0.
         12    1    1    2    0    0  0.24257524666E+02 -0.15145841878E+02 -0.34803584972E+02  0.45045682990E+02  0.00000000000E+00 0. -1.
         11    1    3    3    0    0 -0.12966055961E+02  0.35896089109E+01  0.15211739620E+02  0.20307656729E+02  0.51100000000E-03 0. -1.
        -11    1    3    3    0    0 -0.81256117707E+01  0.10434682926E+02  0.17266980892E+02  0.21749869053E+02  0.51100000000E-03 0.  1.
        -12    1    3    3    0    0 -0.31658569342E+01  0.11215500414E+01  0.23248644598E+01  0.40847912284E+01  0.00000000000E+00 0.  1.
</event>
<event>
 7    1  0.1381440E-008  0.4614232E+02  0.7816164E-02  0.1320468E+00
        -11   -1    0    0    0    0  0.00000000000E+00  0.00000000000E+00  0.45593999997E+02  0.45594000000E+02  0.51100000000E-03 0.  1.
         11   -1    0    0    0    0 -0.00000000000E+00 -0.00000000000E+00 -0.45593999997E+02  0.45594000000E+02  0.51100000000E-03 0. -1.
    9900012    2    1    2    0    0 -0.52721540958E+01  0.95242960567E+01  0.43710475249E+02  0.46142317957E+02  0.10000001789E+02 0.  0.
         12    1    1    2    0    0  0.52721540958E+01 -0.95242960567E+01 -0.43710475249E+02  0.45045682043E+02  0.00000000000E+00 0. -1.
         11    1    3    3    0    0  0.18462120650E+01  0.33930321321E+00  0.16413737759E+01  0.24935384081E+01  0.51100000000E-03 0. -1.
        -11    1    3    3    0    0 -0.23587937118E+01  0.32127075722E+01  0.15455685911E+02  0.15961316517E+02  0.51100000000E-03 0.  1.
         12    1    3    3    0    0 -0.47595724490E+01  0.59722852712E+01  0.26613415563E+02  0.27687463032E+02  0.00000000000E+00 0. -1.
</event>
<event>
 7    1  0.1381440E-008  0.4614232E+02  0.7816164E-02  0.1320468E+00
        -11   -1    0    0    0    0  0.00000000000E+00  0.00000000000E+00  0.45593999997E+02  0.45594000000E+02  0.51100000000E-03 0. -1.
         11   -1    0    0    0    0 -0.00000000000E+00 -0.00000000000E+00 -0.45593999997E+02  0.45594000000E+02  0.51100000000E-03 0.  1.
    9900012    2    1    2    0    0  0.54562724783E+01  0.37114500909E+02 -0.24937049293E+02  0.46142317471E+02  0.99999973528E+01 0.  0.
         12    1    1    2    0    0 -0.54562724783E+01 -0.37114500909E+02  0.24937049293E+02  0.45045682529E+02  0.00000000000E+00 0. -1.
         11    1    3    3    0    0 -0.17767586897E+01  0.87004580137E+01 -0.41365273549E+01  0.97962084455E+01  0.51100000000E-03 0. -1.
        -11    1    3    3    0    0  0.30789444449E+01  0.19790589036E+02 -0.12030645172E+02  0.23364154956E+02  0.51100000000E-03 0.  1.
         12    1    3    3    0    0  0.41540867231E+01  0.86234538587E+01 -0.87698767660E+01  0.12981954069E+02  0.00000000000E+00 0. -1.
</event>
<event>
 7    1  0.1381440E-008  0.4614232E+02  0.7816164E-02  0.1320468E+00
        -11   -1    0    0    0    0  0.00000000000E+00  0.00000000000E+00  0.45593999997E+02  0.45594000000E+02  0.51100000000E-03 0. -1.
         11   -1    0    0    0    0 -0.00000000000E+00 -0.00000000000E+00 -0.45593999997E+02  0.45594000000E+02  0.51100000000E-03 0.  1.
    9900012    2    1    2    0    0 -0.38598208486E+02 -0.22165740951E+02 -0.69261638248E+01  0.46142317459E+02  0.99999972453E+01 0.  0.
         12    1    1    2    0    0  0.38598208486E+02  0.22165740951E+02  0.69261638248E+01  0.45045682541E+02  0.00000000000E+00 0. -1.
         11    1    3    3    0    0 -0.90932995203E+01 -0.26626235660E+01  0.18304463613E+01  0.96502950505E+01  0.51100000000E-03 0. -1.
        -11    1    3    3    0    0 -0.20218210041E+02 -0.13324962048E+02 -0.69560687734E+01  0.25193600852E+02  0.51100000000E-03 0.  1.
         12    1    3    3    0    0 -0.92866989243E+01 -0.61781553372E+01 -0.18005414126E+01  0.11298421556E+02  0.00000000000E+00 0. -1.
</event>
<event>
 7    1  0.1381440E-008  0.4614231E+02  0.7816164E-02  0.1320468E+00
        -11   -1    0    0    0    0  0.00000000000E+00  0.00000000000E+00  0.45593999997E+02  0.45594000000E+02  0.51100000000E-03 0.  1.
         11   -1    0    0    0    0 -0.00000000000E+00 -0.00000000000E+00 -0.45593999997E+02  0.45594000000E+02  0.51100000000E-03 0. -1.
    9900012    2    1    2    0    0  0.16390765739E+02 -0.41705719040E+02  0.45923565479E+01  0.46142312739E+02  0.99999542018E+01 0.  0.
         12    1    1    2    0    0 -0.16390765739E+02  0.41705719040E+02 -0.45923565479E+01  0.45045687261E+02  0.00000000000E+00 0. -1.
         11    1    3    3    0    0  0.10354972097E+02 -0.15119713232E+02  0.10605450561E+01  0.18356359427E+02  0.51100000000E-03 0. -1.
        -11    1    3    3    0    0  0.50354931359E+01 -0.14463538593E+02  0.90411572108E+00  0.15341693690E+02  0.51100000000E-03 0.  1.
         12    1    3    3    0    0  0.10003005066E+01 -0.12122467215E+02  0.26276957707E+01  0.12444259622E+02  0.00000000000E+00 0. -1.
</event>
<event>
 7    1  0.1381440E-008  0.4614231E+02  0.7816164E-02  0.1320468E+00
        -11   -1    0    0    0    0  0.00000000000E+00  0.00000000000E+00  0.45593999997E+02  0.45594000000E+02  0.51100000000E-03 0.  1.
         11   -1    0    0    0    0 -0.00000000000E+00 -0.00000000000E+00 -0.45593999997E+02  0.45594000000E+02  0.51100000000E-03 0. -1.
    9900012    2    1    2    0    0 -0.35925482541E+00 -0.27817458262E+02  0.35428433421E+02  0.46142312716E+02  0.99999539948E+01 0.  0.
         12    1    1    2    0    0  0.35925482541E+00  0.27817458262E+02 -0.35428433421E+02  0.45045687284E+02  0.00000000000E+00 0. -1.
         11    1    3    3    0    0 -0.16208858855E+01 -0.10540255301E+01  0.52041488107E+01  0.55517029799E+01  0.51100000000E-03 0. -1.
        -11    1    3    3    0    0  0.31296019407E+00 -0.25093831552E+02  0.28798661209E+02  0.38198968752E+02  0.51100000000E-03 0.  1.
        -12    1    3    3    0    0  0.94867086597E+00 -0.16696011805E+01  0.14256234017E+01  0.23916409842E+01  0.00000000000E+00 0.  1.
</event>
<event>
 7    1  0.1381440E-008  0.4614232E+02  0.7816164E-02  0.1320468E+00
        -11   -1    0    0    0    0  0.00000000000E+00  0.00000000000E+00  0.45593999997E+02  0.45594000000E+02  0.51100000000E-03 0.  1.
         11   -1    0    0    0    0 -0.00000000000E+00 -0.00000000000E+00 -0.45593999997E+02  0.45594000000E+02  0.51100000000E-03 0. -1.
    9900012    2    1    2    0    0 -0.21663918176E+02  0.10419495709E+02  0.38094910862E+02  0.46142317907E+02  0.10000001334E+02 0.  0.
         12    1    1    2    0    0  0.21663918176E+02 -0.10419495709E+02 -0.38094910862E+02  0.45045682093E+02  0.00000000000E+00 0. -1.
         11    1    3    3    0    0 -0.45875250962E+01 -0.13944433498E+01  0.75552507839E+01  0.89482776797E+01  0.51100000000E-03 0. -1.
        -11    1    3    3    0    0 -0.68755605834E+01  0.69084258957E+01  0.16451748649E+02  0.19122230925E+02  0.51100000000E-03 0.  1.
         12    1    3    3    0    0 -0.10200832497E+02  0.49055131629E+01  0.14087911430E+02  0.18071809303E+02  0.00000000000E+00 0. -1.
</event>
<event>
 7    1  0.1381440E-008  0.4614232E+02  0.7816164E-02  0.1320468E+00
        -11   -1    0    0    0    0  0.00000000000E+00  0.00000000000E+00  0.45593999997E+02  0.45594000000E+02  0.51100000000E-03 0.  1.
         11   -1    0    0    0    0 -0.00000000000E+00 -0.00000000000E+00 -0.45593999997E+02  0.45594000000E+02  0.51100000000E-03 0. -1.
    9900012    2    1    2    0    0  0.47135671911E+01  0.12852260729E+02  0.42915209043E+02  0.46142317757E+02  0.99999999648E+01 0.  0.
         12    1    1    2    0    0 -0.47135671911E+01 -0.12852260729E+02 -0.42915209043E+02  0.45045682243E+02  0.00000000000E+00 0. -1.
         11    1    3    3    0    0  0.37039138057E+01  0.65356333583E+01  0.14358500006E+02  0.16204937629E+02  0.51100000000E-03 0. -1.
        -11    1    3    3    0    0  0.30509484838E+01  0.54105691661E+01  0.24808162226E+02  0.25573960558E+02  0.51100000000E-03 0.  1.
         12    1    3    3    0    0 -0.20412950984E+01  0.90605820417E+00  0.37485468117E+01  0.43634195705E+01  0.00000000000E+00 0. -1.
</event>
<event>
 7    1  0.1381440E-008  0.4614232E+02  0.7816164E-02  0.1320468E+00
        -11   -1    0    0    0    0  0.00000000000E+00  0.00000000000E+00  0.45593999997E+02  0.45594000000E+02  0.51100000000E-03 0.  1.
         11   -1    0    0    0    0 -0.00000000000E+00 -0.00000000000E+00 -0.45593999997E+02  0.45594000000E+02  0.51100000000E-03 0. -1.
    9900012    2    1    2    0    0 -0.35923623237E+02 -0.18602045472E+02  0.19813396940E+02  0.46142317626E+02  0.99999987692E+01 0.  0.
         12    1    1    2    0    0  0.35923623237E+02  0.18602045472E+02 -0.19813396940E+02  0.45045682374E+02  0.00000000000E+00 0. -1.
         11    1    3    3    0    0 -0.21989657038E-01 -0.15446033189E-01 -0.11458406130E+00  0.11769406605E+00  0.51100000000E-03 0. -1.
        -11    1    3    3    0    0 -0.11169521823E+02 -0.10053534921E+02  0.99528574565E+01  0.18024737279E+02  0.51100000000E-03 0.  1.
        -12    1    3    3    0    0 -0.24732111757E+02 -0.85330645183E+01  0.99751235445E+01  0.27999886281E+02  0.00000000000E+00 0.  1.
</event>
<event>
 7    1  0.1381440E-008  0.4614232E+02  0.7816164E-02  0.1320468E+00
        -11   -1    0    0    0    0  0.00000000000E+00  0.00000000000E+00  0.45593999997E+02  0.45594000000E+02  0.51100000000E-03 0.  1.
         11   -1    0    0    0    0 -0.00000000000E+00 -0.00000000000E+00 -0.45593999997E+02  0.45594000000E+02  0.51100000000E-03 0. -1.
    9900012    2    1    2    0    0  0.33830268147E+02 -0.13416307475E+02  0.26544852601E+02  0.46142317091E+02  0.99999938871E+01 0.  0.
         12    1    1    2    0    0 -0.33830268147E+02  0.13416307475E+02 -0.26544852601E+02  0.45045682909E+02  0.00000000000E+00 0. -1.
         11    1    3    3    0    0  0.21890778365E+01 -0.33923598716E+01  0.41663748059E+01  0.58016244757E+01  0.51100000000E-03 0. -1.
        -11    1    3    3    0    0  0.15764860891E+02 -0.52962605735E+01  0.14191349656E+02  0.21862653551E+02  0.51100000000E-03 0.  1.
         12    1    3    3    0    0  0.15876329419E+02 -0.47276870297E+01  0.81871281396E+01  0.18478039064E+02  0.00000000000E+00 0. -1.
</event>
<event>
 7    1  0.1381440E-008  0.4614232E+02  0.7816164E-02  0.1320468E+00
        -11   -1    0    0    0    0  0.00000000000E+00  0.00000000000E+00  0.45593999997E+02  0.45594000000E+02  0.51100000000E-03 0.  1.
         11   -1    0    0    0    0 -0.00000000000E+00 -0.00000000000E+00 -0.45593999997E+02  0.45594000000E+02  0.51100000000E-03 0. -1.
    9900012    2    1    2    0    0  0.40644386412E+02  0.87878793905E+01  0.17318211057E+02  0.46142318684E+02  0.10000008418E+02 0.  0.
         12    1    1    2    0    0 -0.40644386412E+02 -0.87878793905E+01 -0.17318211057E+02  0.45045681316E+02  0.00000000000E+00 0. -1.
         11    1    3    3    0    0  0.19443567546E+02  0.45006645931E+01  0.81559418613E+01  0.21559862908E+02  0.51100000000E-03 0. -1.
        -11    1    3    3    0    0  0.10247215678E+02 -0.39925408972E-01  0.10918490311E+01  0.10305297558E+02  0.51100000000E-03 0.  1.
         12    1    3    3    0    0  0.10953603188E+02  0.43271402064E+01  0.80704201649E+01  0.14277158219E+02  0.00000000000E+00 0. -1.
</event>
<event>
 7    1  0.1381440E-008  0.4614232E+02  0.7816164E-02  0.1320468E+00
        -11   -1    0    0    0    0  0.00000000000E+00  0.00000000000E+00  0.45593999997E+02  0.45594000000E+02  0.51100000000E-03 0.  1.
         11   -1    0    0    0    0 -0.00000000000E+00 -0.00000000000E+00 -0.45593999997E+02  0.45594000000E+02  0.51100000000E-03 0. -1.
    9900012    2    1    2    0    0  0.28494158900E+02 -0.40807713769E+01  0.34648862380E+02  0.46142318180E+02  0.10000003820E+02 0.  0.
         12    1    1    2    0    0 -0.28494158900E+02  0.40807713769E+01 -0.34648862380E+02  0.45045681820E+02  0.00000000000E+00 0. -1.
         11    1    3    3    0    0  0.81986758079E+01 -0.11156343516E+01  0.45925125814E+01  0.94633026518E+01  0.51100000000E-03 0. -1.
        -11    1    3    3    0    0  0.59045963691E+01  0.79353164594E+00  0.10950334355E+02  0.12466104985E+02  0.51100000000E-03 0.  1.
        -12    1    3    3    0    0  0.14390886723E+02 -0.37586686713E+01  0.19106015444E+02  0.24212910543E+02  0.00000000000E+00 0.  1.
</event>
<event>
 7    1  0.1381440E-008  0.4614232E+02  0.7816164E-02  0.1320468E+00
        -11   -1    0    0    0    0  0.00000000000E+00  0.00000000000E+00  0.45593999997E+02  0.45594000000E+02  0.51100000000E-03 0. -1.
         11   -1    0    0    0    0 -0.00000000000E+00 -0.00000000000E+00 -0.45593999997E+02  0.45594000000E+02  0.51100000000E-03 0.  1.
    9900012    2    1    2    0    0 -0.38238725440E+02 -0.22866792541E+02  0.66349970636E+01  0.46142317516E+02  0.99999977629E+01 0.  0.
         12    1    1    2    0    0  0.38238725440E+02  0.22866792541E+02 -0.66349970636E+01  0.45045682484E+02  0.00000000000E+00 0. -1.
         11    1    3    3    0    0 -0.17393701822E+02 -0.10633997625E+02  0.66496675399E+01  0.21443900001E+02  0.51100000000E-03 0. -1.
        -11    1    3    3    0    0 -0.17062917130E+02 -0.10283965656E+02  0.19391379771E+01  0.20016576805E+02  0.51100000000E-03 0.  1.
         12    1    3    3    0    0 -0.37821064875E+01 -0.19488292601E+01 -0.19538084534E+01  0.46818407107E+01  0.00000000000E+00 0. -1.
</event>
<event>
 7    1  0.1381440E-008  0.4614232E+02  0.7816164E-02  0.1320468E+00
        -11   -1    0    0    0    0  0.00000000000E+00  0.00000000000E+00  0.45593999997E+02  0.45594000000E+02  0.51100000000E-03 0.  1.
         11   -1    0    0    0    0 -0.00000000000E+00 -0.00000000000E+00 -0.45593999997E+02  0.45594000000E+02  0.51100000000E-03 0. -1.
    9900012    2    1    2    0    0 -0.14063904042E+02 -0.24186814663E+02  0.35303230174E+02  0.46142318062E+02  0.10000002748E+02 0.  0.
         12    1    1    2    0    0  0.14063904042E+02  0.24186814663E+02 -0.35303230174E+02  0.45045681938E+02  0.00000000000E+00 0. -1.
         11    1    3    3    0    0 -0.52050342133E+01 -0.12334185071E+02  0.15622365005E+02  0.20573837541E+02  0.51100000000E-03 0. -1.
        -11    1    3    3    0    0 -0.99945667582E+01 -0.11096534337E+02  0.17626605261E+02  0.23102416589E+02  0.51100000000E-03 0.  1.
         12    1    3    3    0    0  0.11356969290E+01 -0.75609525521E+00  0.20542599084E+01  0.24660639328E+01  0.00000000000E+00 0. -1.
</event>
<event>
 7    1  0.1381440E-008  0.4614232E+02  0.7816164E-02  0.1320468E+00
        -11   -1    0    0    0    0  0.00000000000E+00  0.00000000000E+00  0.45593999997E+02  0.45594000000E+02  0.51100000000E-03 0.  1.
         11   -1    0    0    0    0 -0.00000000000E+00 -0.00000000000E+00 -0.45593999997E+02  0.45594000000E+02  0.51100000000E-03 0. -1.
    9900012    2    1    2    0    0  0.41405325019E+02 -0.47660088748E+01  0.17087938514E+02  0.46142318485E+02  0.10000006597E+02 0.  0.
         12    1    1    2    0    0 -0.41405325019E+02  0.47660088748E+01 -0.17087938514E+02  0.45045681515E+02  0.00000000000E+00 0. -1.
         11    1    3    3    0    0  0.11397176980E+02 -0.33805635378E+01  0.58571364719E+01  0.13252543184E+02  0.51100000000E-03 0. -1.
        -11    1    3    3    0    0  0.30028498395E+02 -0.16209073606E+01  0.11775887270E+02  0.32295658807E+02  0.51100000000E-03 0.  1.
         12    1    3    3    0    0 -0.20350355848E-01  0.23546202360E+00 -0.54508522777E+00  0.59411649285E+00  0.00000000000E+00 0. -1.
</event>
<event>
 7    1  0.1381440E-008  0.4614232E+02  0.7816164E-02  0.1320468E+00
        -11   -1    0    0    0    0  0.00000000000E+00  0.00000000000E+00  0.45593999997E+02  0.45594000000E+02  0.51100000000E-03 0. -1.
         11   -1    0    0    0    0 -0.00000000000E+00 -0.00000000000E+00 -0.45593999997E+02  0.45594000000E+02  0.51100000000E-03 0.  1.
    9900012    2    1    2    0    0 -0.19790416980E+02 -0.40432166824E+02  0.16409607396E+01  0.46142317959E+02  0.10000001806E+02 0.  0.
         12    1    1    2    0    0  0.19790416980E+02  0.40432166824E+02 -0.16409607396E+01  0.45045682041E+02  0.00000000000E+00 0. -1.
         11    1    3    3    0    0 -0.74418592737E+01 -0.11930974949E+02 -0.18498827511E+01  0.14182788835E+02  0.51100000000E-03 0. -1.
        -11    1    3    3    0    0 -0.12260481966E+02 -0.26620951621E+02  0.47554076001E+01  0.29691890895E+02  0.51100000000E-03 0.  1.
        -12    1    3    3    0    0 -0.88075741245E-01 -0.18802402543E+01 -0.12645641094E+01  0.22676382288E+01  0.00000000000E+00 0.  1.
</event>
<event>
 7    1  0.1381440E-008  0.4614232E+02  0.7816164E-02  0.1320468E+00
        -11   -1    0    0    0    0  0.00000000000E+00  0.00000000000E+00  0.45593999997E+02  0.45594000000E+02  0.51100000000E-03 0.  1.
         11   -1    0    0    0    0 -0.00000000000E+00 -0.00000000000E+00 -0.45593999997E+02  0.45594000000E+02  0.51100000000E-03 0. -1.
    9900012    2    1    2    0    0 -0.15771058634E+01 -0.25794180201E+02  0.36895615659E+02  0.46142318187E+02  0.10000003887E+02 0.  0.
         12    1    1    2    0    0  0.15771058634E+01  0.25794180201E+02 -0.36895615659E+02  0.45045681813E+02  0.00000000000E+00 0. -1.
         11    1    3    3    0    0  0.60457216044E+00  0.55837652971E-01  0.28832280265E+00  0.67212769643E+00  0.51100000000E-03 0. -1.
        -11    1    3    3    0    0  0.11900555654E+01 -0.11929086557E+02  0.21735549232E+02  0.24822438216E+02  0.51100000000E-03 0.  1.
        -12    1    3    3    0    0 -0.33717335893E+01 -0.13920931297E+02  0.14871743624E+02  0.20647752274E+02  0.00000000000E+00 0.  1.
</event>
<event>
 7    1  0.1381440E-008  0.4614232E+02  0.7816164E-02  0.1320468E+00
        -11   -1    0    0    0    0  0.00000000000E+00  0.00000000000E+00  0.45593999997E+02  0.45594000000E+02  0.51100000000E-03 0. -1.
         11   -1    0    0    0    0 -0.00000000000E+00 -0.00000000000E+00 -0.45593999997E+02  0.45594000000E+02  0.51100000000E-03 0.  1.
    9900012    2    1    2    0    0  0.42123381338E+01 -0.14831345107E+02 -0.42324946201E+02  0.46142315843E+02  0.99999825111E+01 0.  0.
         12    1    1    2    0    0 -0.42123381338E+01  0.14831345107E+02  0.42324946201E+02  0.45045684157E+02  0.00000000000E+00 0. -1.
         11    1    3    3    0    0 -0.21813316058E+01 -0.15501767901E+01 -0.93145943508E+01  0.96913840000E+01  0.51100000000E-03 0. -1.
        -11    1    3    3    0    0  0.19223121827E+01 -0.88268463015E+01 -0.21565432206E+02  0.23381111314E+02  0.51100000000E-03 0.  1.
        -12    1    3    3    0    0  0.44713575569E+01 -0.44543220151E+01 -0.11444919644E+02  0.13069820530E+02  0.00000000000E+00 0.  1.
</event>
<event>
 7    1  0.1381440E-008  0.4614232E+02  0.7816164E-02  0.1320468E+00
        -11   -1    0    0    0    0  0.00000000000E+00  0.00000000000E+00  0.45593999997E+02  0.45594000000E+02  0.51100000000E-03 0.  1.
         11   -1    0    0    0    0 -0.00000000000E+00 -0.00000000000E+00 -0.45593999997E+02  0.45594000000E+02  0.51100000000E-03 0. -1.
    9900012    2    1    2    0    0 -0.55282210783E+01 -0.66779961520E+01  0.44203581532E+02  0.46142317842E+02  0.10000000733E+02 0.  0.
         12    1    1    2    0    0  0.55282210783E+01  0.66779961520E+01 -0.44203581532E+02  0.45045682158E+02  0.00000000000E+00 0. -1.
         11    1    3    3    0    0  0.13872871816E+00 -0.47376273530E+00 -0.19837924977E+00  0.53202572726E+00  0.51100000000E-03 0. -1.
        -11    1    3    3    0    0 -0.53113488488E+01 -0.49205104060E+01  0.21836191291E+02  0.23005240698E+02  0.51100000000E-03 0.  1.
         12    1    3    3    0    0 -0.35560094765E+00 -0.12837230107E+01  0.22565769491E+02  0.22605051416E+02  0.00000000000E+00 0. -1.
</event>
<event>
 7    1  0.1381440E-008  0.4614232E+02  0.7816164E-02  0.1320468E+00
        -11   -1    0    0    0    0  0.00000000000E+00  0.00000000000E+00  0.45593999997E+02  0.45594000000E+02  0.51100000000E-03 0.  1.
         11   -1    0    0    0    0 -0.00000000000E+00 -0.00000000000E+00 -0.45593999997E+02  0.45594000000E+02  0.51100000000E-03 0. -1.
    9900012    2    1    2    0    0  0.13326847352E+02  0.31767860677E+02 -0.29022605990E+02  0.46142317734E+02  0.99999997520E+01 0.  0.
         12    1    1    2    0    0 -0.13326847352E+02 -0.31767860677E+02  0.29022605990E+02  0.45045682266E+02  0.00000000000E+00 0. -1.
         11    1    3    3    0    0  0.56558247060E+01  0.20810351342E+02 -0.16581387243E+02  0.27202968207E+02  0.51100000000E-03 0. -1.
        -11    1    3    3    0    0  0.78973687612E+01  0.11336625864E+02 -0.12222513858E+02  0.18446608485E+02  0.51100000000E-03 0.  1.
         12    1    3    3    0    0 -0.22634611516E+00 -0.37911652872E+00 -0.21870488935E+00  0.49274104236E+00  0.00000000000E+00 0. -1.
</event>
<event>
 7    1  0.1381440E-008  0.4614232E+02  0.7816164E-02  0.1320468E+00
        -11   -1    0    0    0    0  0.00000000000E+00  0.00000000000E+00  0.45593999997E+02  0.45594000000E+02  0.51100000000E-03 0. -1.
         11   -1    0    0    0    0 -0.00000000000E+00 -0.00000000000E+00 -0.45593999997E+02  0.45594000000E+02  0.51100000000E-03 0.  1.
    9900012    2    1    2    0    0 -0.11695559459E+02 -0.18518511688E+02 -0.39362318304E+02  0.46142317760E+02  0.99999999886E+01 0.  0.
         12    1    1    2    0    0  0.11695559459E+02  0.18518511688E+02  0.39362318304E+02  0.45045682240E+02  0.00000000000E+00 0. -1.
         11    1    3    3    0    0 -0.84069898734E+00 -0.34577502319E+01 -0.78380959268E+01  0.86080520138E+01  0.51100000000E-03 0. -1.
        -11    1    3    3    0    0 -0.38006614748E-01 -0.12980002475E+00  0.53477014554E+00  0.55160848332E+00  0.51100000000E-03 0.  1.
        -12    1    3    3    0    0 -0.10816853857E+02 -0.14930961431E+02 -0.32058992523E+02  0.36982657263E+02  0.00000000000E+00 0.  1.
</event>
<event>
 7    1  0.1381440E-008  0.4614232E+02  0.7816164E-02  0.1320468E+00
        -11   -1    0    0    0    0  0.00000000000E+00  0.00000000000E+00  0.45593999997E+02  0.45594000000E+02  0.51100000000E-03 0.  1.
         11   -1    0    0    0    0 -0.00000000000E+00 -0.00000000000E+00 -0.45593999997E+02  0.45594000000E+02  0.51100000000E-03 0. -1.
    9900012    2    1    2    0    0  0.15396944139E+02 -0.56711908785E+01  0.41950985850E+02  0.46142317537E+02  0.99999979540E+01 0.  0.
         12    1    1    2    0    0 -0.15396944139E+02  0.56711908785E+01 -0.41950985850E+02  0.45045682463E+02  0.00000000000E+00 0. -1.
         11    1    3    3    0    0  0.62111409919E+01  0.44731327591E+00  0.11191967324E+02  0.12807751341E+02  0.51100000000E-03 0. -1.
        -11    1    3    3    0    0 -0.24075419583E+00  0.51947148908E+00  0.10232887819E+00  0.58162244730E+00  0.51100000000E-03 0.  1.
         12    1    3    3    0    0  0.94265573430E+01 -0.66379756435E+01  0.30656689648E+02  0.32752943748E+02  0.00000000000E+00 0. -1.
</event>
<event>
 7    1  0.1381440E-008  0.4614232E+02  0.7816164E-02  0.1320468E+00
        -11   -1    0    0    0    0  0.00000000000E+00  0.00000000000E+00  0.45593999997E+02  0.45594000000E+02  0.51100000000E-03 0. -1.
         11   -1    0    0    0    0 -0.00000000000E+00 -0.00000000000E+00 -0.45593999997E+02  0.45594000000E+02  0.51100000000E-03 0.  1.
    9900012    2    1    2    0    0 -0.24248393550E+02 -0.27157294667E+02 -0.26525652195E+02  0.46142317990E+02  0.10000002084E+02 0.  0.
         12    1    1    2    0    0  0.24248393550E+02  0.27157294667E+02  0.26525652195E+02  0.45045682010E+02  0.00000000000E+00 0. -1.
         11    1    3    3    0    0  0.25540054594E+00 -0.38722490651E+01 -0.23759932566E+01  0.45502622427E+01  0.51100000000E-03 0. -1.
        -11    1    3    3    0    0 -0.12086574751E+02 -0.10104333398E+02 -0.11120617952E+02  0.19283438141E+02  0.51100000000E-03 0.  1.
        -12    1    3    3    0    0 -0.12417219345E+02 -0.13180712204E+02 -0.13029040986E+02  0.22308617606E+02  0.00000000000E+00 0.  1.
</event>
<event>
 7    1  0.1381440E-008  0.4614232E+02  0.7816164E-02  0.1320468E+00
        -11   -1    0    0    0    0  0.00000000000E+00  0.00000000000E+00  0.45593999997E+02  0.45594000000E+02  0.51100000000E-03 0.  1.
         11   -1    0    0    0    0 -0.00000000000E+00 -0.00000000000E+00 -0.45593999997E+02  0.45594000000E+02  0.51100000000E-03 0. -1.
    9900012    2    1    2    0    0  0.22079335919E+02 -0.35100932802E+01  0.39106209055E+02  0.46142318563E+02  0.10000007311E+02 0.  0.
         12    1    1    2    0    0 -0.22079335919E+02  0.35100932802E+01 -0.39106209055E+02  0.45045681437E+02  0.00000000000E+00 0. -1.
         11    1    3    3    0    0  0.53258070620E+01 -0.46973837116E+01  0.16346084902E+02  0.17822012414E+02  0.51100000000E-03 0. -1.
        -11    1    3    3    0    0  0.13016263688E+02  0.48042827599E+00  0.16964045892E+02  0.21387678346E+02  0.51100000000E-03 0.  1.
         12    1    3    3    0    0  0.37372651688E+01  0.70686215550E+00  0.57960782606E+01  0.69326278028E+01  0.00000000000E+00 0. -1.
</event>
<event>
 7    1  0.1381440E-008  0.4614232E+02  0.7816164E-02  0.1320468E+00
        -11   -1    0    0    0    0  0.00000000000E+00  0.00000000000E+00  0.45593999997E+02  0.45594000000E+02  0.51100000000E-03 0.  1.
         11   -1    0    0    0    0 -0.00000000000E+00 -0.00000000000E+00 -0.45593999997E+02  0.45594000000E+02  0.51100000000E-03 0. -1.
    9900012    2    1    2    0    0 -0.40874073466E+02 -0.18903609860E+02  0.10378629748E+01  0.46142317554E+02  0.99999981145E+01 0.  0.
         12    1    1    2    0    0  0.40874073466E+02  0.18903609860E+02 -0.10378629748E+01  0.45045682446E+02  0.00000000000E+00 0. -1.
         11    1    3    3    0    0 -0.92053724261E+01 -0.39291420896E+01 -0.38401392290E+01  0.10720247601E+02  0.51100000000E-03 0. -1.
        -11    1    3    3    0    0 -0.10630295860E+02 -0.42198720421E+01  0.10386337347E+01  0.11484305396E+02  0.51100000000E-03 0.  1.
         12    1    3    3    0    0 -0.21038405180E+02 -0.10754595728E+02  0.38393684691E+01  0.23937764558E+02  0.00000000000E+00 0. -1.
</event>
<event>
 7    1  0.1381440E-008  0.4614232E+02  0.7816164E-02  0.1320468E+00
        -11   -1    0    0    0    0  0.00000000000E+00  0.00000000000E+00  0.45593999997E+02  0.45594000000E+02  0.51100000000E-03 0.  1.
         11   -1    0    0    0    0 -0.00000000000E+00 -0.00000000000E+00 -0.45593999997E+02  0.45594000000E+02  0.51100000000E-03 0. -1.
    9900012    2    1    2    0    0 -0.33347114235E+02  0.20128151622E+02  0.22626117088E+02  0.46142315523E+02  0.99999795932E+01 0.  0.
         12    1    1    2    0    0  0.33347114235E+02 -0.20128151622E+02 -0.22626117088E+02  0.45045684477E+02  0.00000000000E+00 0. -1.
         11    1    3    3    0    0 -0.25570332180E+02  0.11210857808E+02  0.17404104962E+02  0.32900274928E+02  0.51100000000E-03 0.  1.
        -11    1    3    3    0    0 -0.43995098547E+00  0.68771717552E+00 -0.35064476601E+00  0.88851775231E+00  0.51100000000E-03 0. -1.
        -12    1    3    3    0    0 -0.73368310697E+01  0.82295766378E+01  0.55726568925E+01  0.12353522843E+02  0.00000000000E+00 0.  1.
</event>
<event>
 7    1  0.1381440E-008  0.4614232E+02  0.7816164E-02  0.1320468E+00
        -11   -1    0    0    0    0  0.00000000000E+00  0.00000000000E+00  0.45593999997E+02  0.45594000000E+02  0.51100000000E-03 0.  1.
         11   -1    0    0    0    0 -0.00000000000E+00 -0.00000000000E+00 -0.45593999997E+02  0.45594000000E+02  0.51100000000E-03 0. -1.
    9900012    2    1    2    0    0  0.32820792132E+02  0.18050024655E+02  0.25022104456E+02  0.46142317659E+02  0.99999990669E+01 0.  0.
         12    1    1    2    0    0 -0.32820792132E+02 -0.18050024655E+02 -0.25022104456E+02  0.45045682341E+02  0.00000000000E+00 0. -1.
         11    1    3    3    0    0  0.36770750615E+01  0.19504604224E+01  0.52463350091E+01  0.66969551407E+01  0.51100000000E-03 0. -1.
        -11    1    3    3    0    0  0.12604439956E+02  0.77577524546E+01  0.13069128183E+02  0.19744790236E+02  0.51100000000E-03 0.  1.
        -12    1    3    3    0    0  0.16539277114E+02  0.83418117778E+01  0.67066412642E+01  0.19700572282E+02  0.00000000000E+00 0.  1.
</event>
<event>
 7    1  0.1381440E-008  0.4614232E+02  0.7816164E-02  0.1320468E+00
        -11   -1    0    0    0    0  0.00000000000E+00  0.00000000000E+00  0.45593999997E+02  0.45594000000E+02  0.51100000000E-03 0. -1.
         11   -1    0    0    0    0 -0.00000000000E+00 -0.00000000000E+00 -0.45593999997E+02  0.45594000000E+02  0.51100000000E-03 0.  1.
    9900012    2    1    2    0    0 -0.15916838712E+02  0.41401267052E+02 -0.78551140850E+01  0.46142317794E+02  0.10000000303E+02 0.  0.
         12    1    1    2    0    0  0.15916838712E+02 -0.41401267052E+02  0.78551140850E+01  0.45045682206E+02  0.00000000000E+00 0. -1.
         11    1    3    3    0    0 -0.38808501539E+01  0.16226115506E+02  0.13897318647E+01  0.16741540468E+02  0.51100000000E-03 0. -1.
        -11    1    3    3    0    0 -0.76592223708E+01  0.15660134132E+02 -0.55571852430E+01  0.18297152687E+02  0.51100000000E-03 0.  1.
         12    1    3    3    0    0 -0.43767661877E+01  0.95150174138E+01 -0.36876607067E+01  0.11103624639E+02  0.00000000000E+00 0. -1.
</event>
<event>
 7    1  0.1381440E-008  0.4614232E+02  0.7816164E-02  0.1320468E+00
        -11   -1    0    0    0    0  0.00000000000E+00  0.00000000000E+00  0.45593999997E+02  0.45594000000E+02  0.51100000000E-03 0.  1.
         11   -1    0    0    0    0 -0.00000000000E+00 -0.00000000000E+00 -0.45593999997E+02  0.45594000000E+02  0.51100000000E-03 0. -1.
    9900012    2    1    2    0    0 -0.36385543179E+02  0.24998191362E+02  0.89608024492E+01  0.46142319804E+02  0.10000018631E+02 0.  0.
         12    1    1    2    0    0  0.36385543179E+02 -0.24998191362E+02 -0.89608024492E+01  0.45045680196E+02  0.00000000000E+00 0. -1.
         11    1    3    3    0    0 -0.13060686213E+02  0.11111100362E+02  0.34222213195E+01  0.17485699146E+02  0.51100000000E-03 0. -1.
        -11    1    3    3    0    0 -0.13623169726E+01 -0.19721623857E+00  0.18509316198E+01  0.23066750748E+01  0.51100000000E-03 0.  1.
        -12    1    3    3    0    0 -0.21962539993E+02  0.14084307238E+02  0.36876495099E+01  0.26349945584E+02  0.00000000000E+00 0.  1.
</event>
<event>
 7    1  0.1381440E-008  0.4614232E+02  0.7816164E-02  0.1320468E+00
        -11   -1    0    0    0    0  0.00000000000E+00  0.00000000000E+00  0.45593999997E+02  0.45594000000E+02  0.51100000000E-03 0.  1.
         11   -1    0    0    0    0 -0.00000000000E+00 -0.00000000000E+00 -0.45593999997E+02  0.45594000000E+02  0.51100000000E-03 0. -1.
    9900012    2    1    2    0    0 -0.17396128164E+02 -0.11710051227E+02  0.39866815821E+02  0.46142316760E+02  0.99999908680E+01 0.  0.
         12    1    1    2    0    0  0.17396128164E+02  0.11710051227E+02 -0.39866815821E+02  0.45045683240E+02  0.00000000000E+00 0. -1.
         11    1    3    3    0    0 -0.75477545318E+00 -0.25748626337E+01  0.13645331187E+01  0.30102415950E+01  0.51100000000E-03 0. -1.
        -11    1    3    3    0    0 -0.14632511252E+02 -0.62405779527E+01  0.30979234568E+02  0.34824821226E+02  0.51100000000E-03 0.  1.
         12    1    3    3    0    0 -0.20088414592E+01 -0.28946106405E+01  0.75230481344E+01  0.83072539386E+01  0.00000000000E+00 0. -1.
</event>
<event>
 7    1  0.1381440E-008  0.4614232E+02  0.7816164E-02  0.1320468E+00
        -11   -1    0    0    0    0  0.00000000000E+00  0.00000000000E+00  0.45593999997E+02  0.45594000000E+02  0.51100000000E-03 0.  1.
         11   -1    0    0    0    0 -0.00000000000E+00 -0.00000000000E+00 -0.45593999997E+02  0.45594000000E+02  0.51100000000E-03 0. -1.
    9900012    2    1    2    0    0  0.26533364134E+02  0.34000203411E+02  0.13003088339E+02  0.46142317070E+02  0.99999936995E+01 0.  0.
         12    1    1    2    0    0 -0.26533364134E+02 -0.34000203411E+02 -0.13003088339E+02  0.45045682930E+02  0.00000000000E+00 0. -1.
         11    1    3    3    0    0  0.90554100415E+01  0.69214397974E+01  0.58370740183E+01  0.12805397817E+02  0.51100000000E-03 0.  1.
        -11    1    3    3    0    0  0.14741966541E+02  0.25279699558E+02  0.67845539873E+01  0.30040288952E+02  0.51100000000E-03 0. -1.
         12    1    3    3    0    0  0.27359875519E+01  0.17990640551E+01  0.38146033365E+00  0.32966303015E+01  0.00000000000E+00 0. -1.
</event>
<event>
 7    1  0.1381440E-008  0.4614232E+02  0.7816164E-02  0.1320468E+00
        -11   -1    0    0    0    0  0.00000000000E+00  0.00000000000E+00  0.45593999997E+02  0.45594000000E+02  0.51100000000E-03 0.  1.
         11   -1    0    0    0    0 -0.00000000000E+00 -0.00000000000E+00 -0.45593999997E+02  0.45594000000E+02  0.51100000000E-03 0. -1.
    9900012    2    1    2    0    0 -0.80429606322E+01  0.38237000346E+02  0.22413304976E+02  0.46142315954E+02  0.99999835216E+01 0.  0.
         12    1    1    2    0    0  0.80429606322E+01 -0.38237000346E+02 -0.22413304976E+02  0.45045684046E+02  0.00000000000E+00 0. -1.
         11    1    3    3    0    0 -0.33807349525E+01  0.50588638325E+01  0.84929336445E+00  0.61435145947E+01  0.51100000000E-03 0. -1.
        -11    1    3    3    0    0 -0.30584960159E+01  0.28433901671E+02  0.19311288816E+02  0.34507492492E+02  0.51100000000E-03 0.  1.
        -12    1    3    3    0    0 -0.16037296639E+01  0.47442348427E+01  0.22527227956E+01  0.54913088669E+01  0.00000000000E+00 0.  1.
</event>
<event>
 7    1  0.1381440E-008  0.4614232E+02  0.7816164E-02  0.1320468E+00
        -11   -1    0    0    0    0  0.00000000000E+00  0.00000000000E+00  0.45593999997E+02  0.45594000000E+02  0.51100000000E-03 0.  1.
         11   -1    0    0    0    0 -0.00000000000E+00 -0.00000000000E+00 -0.45593999997E+02  0.45594000000E+02  0.51100000000E-03 0. -1.
    9900012    2    1    2    0    0  0.16148920525E+02  0.36244605754E+02  0.21322628219E+02  0.46142317027E+02  0.99999933028E+01 0.  0.
         12    1    1    2    0    0 -0.16148920525E+02 -0.36244605754E+02 -0.21322628219E+02  0.45045682973E+02  0.00000000000E+00 0. -1.
         11    1    3    3    0    0  0.51432597108E+01  0.57624959749E+01  0.30614448046E+01  0.83085452918E+01  0.51100000000E-03 0. -1.
        -11    1    3    3    0    0  0.11585275765E+02  0.26768971142E+02  0.14729018618E+02  0.32676297530E+02  0.51100000000E-03 0.  1.
        -12    1    3    3    0    0 -0.57961495077E+00  0.37131386369E+01  0.35321647957E+01  0.51574742047E+01  0.00000000000E+00 0.  1.
</event>
<event>
 7    1  0.1381440E-008  0.4614232E+02  0.7816164E-02  0.1320468E+00
        -11   -1    0    0    0    0  0.00000000000E+00  0.00000000000E+00  0.45593999997E+02  0.45594000000E+02  0.51100000000E-03 0. -1.
         11   -1    0    0    0    0 -0.00000000000E+00 -0.00000000000E+00 -0.45593999997E+02  0.45594000000E+02  0.51100000000E-03 0.  1.
    9900012    2    1    2    0    0  0.33815939554E+02  0.29710885103E+02 -0.16908805018E+01  0.46142317206E+02  0.99999949365E+01 0.  0.
         12    1    1    2    0    0 -0.33815939554E+02 -0.29710885103E+02  0.16908805018E+01  0.45045682794E+02  0.00000000000E+00 0. -1.
         11    1    3    3    0    0  0.15568224955E+02  0.15882740351E+02  0.71307094391E+00  0.22251731163E+02  0.51100000000E-03 0. -1.
        -11    1    3    3    0    0  0.50842982948E+01  0.10946422659E+01 -0.19988679132E+01  0.55716966928E+01  0.51100000000E-03 0.  1.
        -12    1    3    3    0    0  0.13163416304E+02  0.12733502486E+02 -0.40508353254E+00  0.18318889350E+02  0.00000000000E+00 0.  1.
</event>
<event>
 7    1  0.1381440E-008  0.4614232E+02  0.7816164E-02  0.1320468E+00
        -11   -1    0    0    0    0  0.00000000000E+00  0.00000000000E+00  0.45593999997E+02  0.45594000000E+02  0.51100000000E-03 0.  1.
         11   -1    0    0    0    0 -0.00000000000E+00 -0.00000000000E+00 -0.45593999997E+02  0.45594000000E+02  0.51100000000E-03 0. -1.
    9900012    2    1    2    0    0 -0.42807474223E+02 -0.14022454021E+02  0.64355785893E-01  0.46142320876E+02  0.10000028402E+02 0.  0.
         12    1    1    2    0    0  0.42807474223E+02  0.14022454021E+02 -0.64355785893E-01  0.45045679124E+02  0.00000000000E+00 0. -1.
         11    1    3    3    0    0 -0.13186668015E+02 -0.40053557188E+01 -0.27135195607E+01  0.14046148100E+02  0.51100000000E-03 0.  1.
        -11    1    3    3    0    0 -0.11856145834E+02 -0.20094189360E+01  0.37196916448E+01  0.12587377196E+02  0.51100000000E-03 0. -1.
        -12    1    3    3    0    0 -0.17764660374E+02 -0.80076793660E+01 -0.94181629829E+00  0.19508795580E+02  0.00000000000E+00 0.  1.
</event>
<event>
 7    1  0.1381440E-008  0.4614233E+02  0.7816164E-02  0.1320468E+00
        -11   -1    0    0    0    0  0.00000000000E+00  0.00000000000E+00  0.45593999997E+02  0.45594000000E+02  0.51100000000E-03 0. -1.
         11   -1    0    0    0    0 -0.00000000000E+00 -0.00000000000E+00 -0.45593999997E+02  0.45594000000E+02  0.51100000000E-03 0.  1.
    9900012    2    1    2    0    0 -0.72942756413E+00  0.25431093241E+02 -0.37173107407E+02  0.46142328928E+02  0.10000101831E+02 0.  0.
         12    1    1    2    0    0  0.72942756413E+00 -0.25431093241E+02  0.37173107407E+02  0.45045671072E+02  0.00000000000E+00 0. -1.
         11    1    3    3    0    0 -0.43898749194E+01  0.93594278918E+01 -0.15347386686E+02  0.18504382471E+02  0.51100000000E-03 0. -1.
        -11    1    3    3    0    0  0.32299973936E+01  0.13621490157E+02 -0.15747802706E+02  0.21070623332E+02  0.51100000000E-03 0.  1.
        -12    1    3    3    0    0  0.43044996166E+00  0.24501751919E+01 -0.60779180154E+01  0.65673231261E+01  0.00000000000E+00 0.  1.
</event>
<event>
 7    1  0.1381440E-008  0.4614232E+02  0.7816164E-02  0.1320468E+00
        -11   -1    0    0    0    0  0.00000000000E+00  0.00000000000E+00  0.45593999997E+02  0.45594000000E+02  0.51100000000E-03 0.  1.
         11   -1    0    0    0    0 -0.00000000000E+00 -0.00000000000E+00 -0.45593999997E+02  0.45594000000E+02  0.51100000000E-03 0. -1.
    9900012    2    1    2    0    0  0.26923831572E+02 -0.13522874504E+02  0.33486604464E+02  0.46142317411E+02  0.99999968042E+01 0.  0.
         12    1    1    2    0    0 -0.26923831572E+02  0.13522874504E+02 -0.33486604464E+02  0.45045682589E+02  0.00000000000E+00 0. -1.
         11    1    3    3    0    0 -0.17284347587E+00 -0.77096833224E+00 -0.12354674934E-01  0.79020246493E+00  0.51100000000E-03 0. -1.
        -11    1    3    3    0    0  0.25186561741E+02 -0.99114768667E+01  0.30722122108E+02  0.40944463033E+02  0.51100000000E-03 0.  1.
        -12    1    3    3    0    0  0.19101133076E+01 -0.28404293047E+01  0.27768370313E+01  0.44076519124E+01  0.00000000000E+00 0.  1.
</event>
<event>
 7    1  0.1381440E-008  0.4614232E+02  0.7816164E-02  0.1320468E+00
        -11   -1    0    0    0    0  0.00000000000E+00  0.00000000000E+00  0.45593999997E+02  0.45594000000E+02  0.51100000000E-03 0.  1.
         11   -1    0    0    0    0 -0.00000000000E+00 -0.00000000000E+00 -0.45593999997E+02  0.45594000000E+02  0.51100000000E-03 0. -1.
    9900012    2    1    2    0    0  0.10987162814E+02  0.16641989855E+02  0.40391086910E+02  0.46142317912E+02  0.10000001372E+02 0.  0.
         12    1    1    2    0    0 -0.10987162814E+02 -0.16641989855E+02 -0.40391086910E+02  0.45045682088E+02  0.00000000000E+00 0. -1.
         11    1    3    3    0    0  0.56328498820E+01  0.26716576947E+01  0.11934663265E+02  0.13464878022E+02  0.51100000000E-03 0. -1.
        -11    1    3    3    0    0  0.16990928500E+01  0.10450518236E+02  0.22399792522E+02  0.24776015685E+02  0.51100000000E-03 0.  1.
        -12    1    3    3    0    0  0.36552200820E+01  0.35198139243E+01  0.60566311227E+01  0.79014242049E+01  0.00000000000E+00 0.  1.
</event>
<event>
 7    1  0.1381440E-008  0.4614232E+02  0.7816164E-02  0.1320468E+00
        -11   -1    0    0    0    0  0.00000000000E+00  0.00000000000E+00  0.45593999997E+02  0.45594000000E+02  0.51100000000E-03 0. -1.
         11   -1    0    0    0    0 -0.00000000000E+00 -0.00000000000E+00 -0.45593999997E+02  0.45594000000E+02  0.51100000000E-03 0.  1.
    9900012    2    1    2    0    0  0.37325893460E+02 -0.24593230566E+02  0.55735060528E+01  0.46142320052E+02  0.10000020894E+02 0.  0.
         12    1    1    2    0    0 -0.37325893460E+02  0.24593230566E+02 -0.55735060528E+01  0.45045679948E+02  0.00000000000E+00 0. -1.
         11    1    3    3    0    0  0.40569382183E+01 -0.67232068628E+01  0.11166486366E+01  0.79314035748E+01  0.51100000000E-03 0. -1.
        -11    1    3    3    0    0  0.28282681510E+02 -0.14434159415E+02  0.49453399226E+01  0.32135827648E+02  0.51100000000E-03 0.  1.
         12    1    3    3    0    0  0.49862737310E+01 -0.34358642881E+01 -0.48848250643E+00  0.60750888294E+01  0.00000000000E+00 0. -1.
</event>
<event>
 7    1  0.1381440E-008  0.4614232E+02  0.7816164E-02  0.1320468E+00
        -11   -1    0    0    0    0  0.00000000000E+00  0.00000000000E+00  0.45593999997E+02  0.45594000000E+02  0.51100000000E-03 0.  1.
         11   -1    0    0    0    0 -0.00000000000E+00 -0.00000000000E+00 -0.45593999997E+02  0.45594000000E+02  0.51100000000E-03 0. -1.
    9900012    2    1    2    0    0 -0.10046964201E+02  0.18376079226E+02  0.39880969335E+02  0.46142317715E+02  0.99999995828E+01 0.  0.
         12    1    1    2    0    0  0.10046964201E+02 -0.18376079226E+02 -0.39880969335E+02  0.45045682285E+02  0.00000000000E+00 0. -1.
         11    1    3    3    0    0 -0.51337411063E+01  0.10767173711E+02  0.13274161603E+02  0.17846307573E+02  0.51100000000E-03 0. -1.
        -11    1    3    3    0    0 -0.36137309094E+01  0.31382644903E+01  0.10695749203E+02  0.11717798700E+02  0.51100000000E-03 0.  1.
         12    1    3    3    0    0 -0.12994921854E+01  0.44706410248E+01  0.15911058529E+02  0.16578211442E+02  0.00000000000E+00 0. -1.
</event>
<event>
 7    1  0.1381440E-008  0.4614232E+02  0.7816164E-02  0.1320468E+00
        -11   -1    0    0    0    0  0.00000000000E+00  0.00000000000E+00  0.45593999997E+02  0.45594000000E+02  0.51100000000E-03 0.  1.
         11   -1    0    0    0    0 -0.00000000000E+00 -0.00000000000E+00 -0.45593999997E+02  0.45594000000E+02  0.51100000000E-03 0. -1.
    9900012    2    1    2    0    0  0.23980305394E+02  0.38102516260E+02 -0.15023118945E+01  0.46142315044E+02  0.99999752232E+01 0.  0.
         12    1    1    2    0    0 -0.23980305394E+02 -0.38102516260E+02  0.15023118945E+01  0.45045684956E+02  0.00000000000E+00 0. -1.
         11    1    3    3    0    0  0.40511166038E+01  0.25447531424E+01 -0.22676201912E+01  0.52942814325E+01  0.51100000000E-03 0. -1.
        -11    1    3    3    0    0  0.10543541111E+02  0.21179706948E+02 -0.37470303488E-01  0.23658986661E+02  0.51100000000E-03 0.  1.
         12    1    3    3    0    0  0.93856476792E+01  0.14378056170E+02  0.80277860018E+00  0.17189046950E+02  0.00000000000E+00 0. -1.
</event>
<event>
 7    1  0.1381440E-008  0.4614232E+02  0.7816164E-02  0.1320468E+00
        -11   -1    0    0    0    0  0.00000000000E+00  0.00000000000E+00  0.45593999997E+02  0.45594000000E+02  0.51100000000E-03 0.  1.
         11   -1    0    0    0    0 -0.00000000000E+00 -0.00000000000E+00 -0.45593999997E+02  0.45594000000E+02  0.51100000000E-03 0. -1.
    9900012    2    1    2    0    0  0.16582258487E+02  0.40993498373E+02  0.85834278163E+01  0.46142318315E+02  0.10000005050E+02 0.  0.
         12    1    1    2    0    0 -0.16582258487E+02 -0.40993498373E+02 -0.85834278163E+01  0.45045681685E+02  0.00000000000E+00 0. -1.
         11    1    3    3    0    0 -0.19569126943E+00  0.35342412820E+00 -0.20578046132E-01  0.40450884345E+00  0.51100000000E-03 0. -1.
        -11    1    3    3    0    0  0.17750536876E+02  0.36057477969E+02  0.83376152342E+01  0.41045573512E+02  0.51100000000E-03 0.  1.
        -12    1    3    3    0    0 -0.97258711963E+00  0.45825962756E+01  0.26639062831E+00  0.46922359592E+01  0.00000000000E+00 0.  1.
</event>
<event>
 7    1  0.1381440E-008  0.4614232E+02  0.7816164E-02  0.1320468E+00
        -11   -1    0    0    0    0  0.00000000000E+00  0.00000000000E+00  0.45593999997E+02  0.45594000000E+02  0.51100000000E-03 0.  1.
         11   -1    0    0    0    0 -0.00000000000E+00 -0.00000000000E+00 -0.45593999997E+02  0.45594000000E+02  0.51100000000E-03 0. -1.
    9900012    2    1    2    0    0 -0.31579094911E+02 -0.32085855162E+02  0.15402198126E+01  0.46142316367E+02  0.99999872893E+01 0.  0.
         12    1    1    2    0    0  0.31579094911E+02  0.32085855162E+02 -0.15402198126E+01  0.45045683633E+02  0.00000000000E+00 0. -1.
         11    1    3    3    0    0 -0.10597157536E+02 -0.15364196995E+02  0.16659360929E+01  0.18738560256E+02  0.51100000000E-03 0. -1.
        -11    1    3    3    0    0 -0.19900807827E+02 -0.13827050689E+02 -0.77982332186E+00  0.24245362600E+02  0.51100000000E-03 0.  1.
         12    1    3    3    0    0 -0.10811295482E+01 -0.28946074777E+01  0.65410704161E+00  0.31583935112E+01  0.00000000000E+00 0. -1.
</event>
<event>
 7    1  0.1381440E-008  0.4614232E+02  0.7816164E-02  0.1320468E+00
        -11   -1    0    0    0    0  0.00000000000E+00  0.00000000000E+00  0.45593999997E+02  0.45594000000E+02  0.51100000000E-03 0. -1.
         11   -1    0    0    0    0 -0.00000000000E+00 -0.00000000000E+00 -0.45593999997E+02  0.45594000000E+02  0.51100000000E-03 0.  1.
    9900012    2    1    2    0    0 -0.33899368450E+02  0.83104303276E+01 -0.28476009745E+02  0.46142316916E+02  0.99999922910E+01 0.  0.
         12    1    1    2    0    0  0.33899368450E+02 -0.83104303276E+01  0.28476009745E+02  0.45045683084E+02  0.00000000000E+00 0. -1.
         11    1    3    3    0    0 -0.18349067684E+02  0.41813710898E+01 -0.12473946636E+02  0.22578119806E+02  0.51100000000E-03 0. -1.
        -11    1    3    3    0    0 -0.10903996326E+02  0.95404548643E+00 -0.71474226971E+01  0.13072604566E+02  0.51100000000E-03 0.  1.
         12    1    3    3    0    0 -0.46463044405E+01  0.31750137514E+01 -0.88546404120E+01  0.10491592544E+02  0.00000000000E+00 0. -1.
</event>
<event>
 7    1  0.1381440E-008  0.4614232E+02  0.7816164E-02  0.1320468E+00
        -11   -1    0    0    0    0  0.00000000000E+00  0.00000000000E+00  0.45593999997E+02  0.45594000000E+02  0.51100000000E-03 0.  1.
         11   -1    0    0    0    0 -0.00000000000E+00 -0.00000000000E+00 -0.45593999997E+02  0.45594000000E+02  0.51100000000E-03 0. -1.
    9900012    2    1    2    0    0 -0.11231122671E+02 -0.29021541195E+02  0.32568783790E+02  0.46142315996E+02  0.99999839062E+01 0.  0.
         12    1    1    2    0    0  0.11231122671E+02  0.29021541195E+02 -0.32568783790E+02  0.45045684004E+02  0.00000000000E+00 0. -1.
         11    1    3    3    0    0 -0.11190180724E+02 -0.16489414994E+02  0.17754639330E+02  0.26689851432E+02  0.51100000000E-03 0. -1.
        -11    1    3    3    0    0  0.28254434194E+00 -0.95827329171E+01  0.12039254690E+02  0.15390005043E+02  0.51100000000E-03 0.  1.
         12    1    3    3    0    0 -0.32348628913E+00 -0.29493932841E+01  0.27748897703E+01  0.40624595211E+01  0.00000000000E+00 0. -1.
</event>
<event>
 7    1  0.1381440E-008  0.4614232E+02  0.7816164E-02  0.1320468E+00
        -11   -1    0    0    0    0  0.00000000000E+00  0.00000000000E+00  0.45593999997E+02  0.45594000000E+02  0.51100000000E-03 0.  1.
         11   -1    0    0    0    0 -0.00000000000E+00 -0.00000000000E+00 -0.45593999997E+02  0.45594000000E+02  0.51100000000E-03 0. -1.
    9900012    2    1    2    0    0 -0.59649597505E+00  0.16229064623E+02  0.42016368122E+02  0.46142317231E+02  0.99999951661E+01 0.  0.
         12    1    1    2    0    0  0.59649597505E+00 -0.16229064623E+02 -0.42016368122E+02  0.45045682769E+02  0.00000000000E+00 0. -1.
         11    1    3    3    0    0 -0.19155138927E+01  0.79669032785E+01  0.13676000106E+02  0.15942826615E+02  0.51100000000E-03 0. -1.
        -11    1    3    3    0    0  0.25206450806E+00  0.84783891756E+01  0.27622451602E+02  0.28895439992E+02  0.51100000000E-03 0.  1.
        -12    1    3    3    0    0  0.10669534096E+01 -0.21622783136E+00  0.71791641324E+00  0.13040506239E+01  0.00000000000E+00 0.  1.
</event>
<event>
 7    1  0.1381440E-008  0.4614232E+02  0.7816164E-02  0.1320468E+00
        -11   -1    0    0    0    0  0.00000000000E+00  0.00000000000E+00  0.45593999997E+02  0.45594000000E+02  0.51100000000E-03 0.  1.
         11   -1    0    0    0    0 -0.00000000000E+00 -0.00000000000E+00 -0.45593999997E+02  0.45594000000E+02  0.51100000000E-03 0. -1.
    9900012    2    1    2    0    0 -0.18702885176E+01 -0.32291151756E+02  0.31351187570E+02  0.46142318488E+02  0.10000006625E+02 0.  0.
         12    1    1    2    0    0  0.18702885176E+01  0.32291151756E+02 -0.31351187570E+02  0.45045681512E+02  0.00000000000E+00 0. -1.
         11    1    3    3    0    0  0.10093896220E-01 -0.11578922946E+02  0.15901022989E+02  0.19670131948E+02  0.51100000000E-03 0. -1.
        -11    1    3    3    0    0  0.75466876550E+00 -0.12626541299E+02  0.68817190512E+01  0.14399900259E+02  0.51100000000E-03 0.  1.
         12    1    3    3    0    0 -0.26350511793E+01 -0.80856875106E+01  0.85684455294E+01  0.12072286280E+02  0.00000000000E+00 0. -1.
</event>
<event>
 7    1  0.1381440E-008  0.4614232E+02  0.7816164E-02  0.1320468E+00
        -11   -1    0    0    0    0  0.00000000000E+00  0.00000000000E+00  0.45593999997E+02  0.45594000000E+02  0.51100000000E-03 0.  1.
         11   -1    0    0    0    0 -0.00000000000E+00 -0.00000000000E+00 -0.45593999997E+02  0.45594000000E+02  0.51100000000E-03 0. -1.
    9900012    2    1    2    0    0  0.23942556942E+01  0.42999170413E+02  0.13208041506E+02  0.46142317888E+02  0.10000001153E+02 0.  0.
         12    1    1    2    0    0 -0.23942556942E+01 -0.42999170413E+02 -0.13208041506E+02  0.45045682112E+02  0.00000000000E+00 0. -1.
         11    1    3    3    0    0  0.48007538190E+01  0.13582981386E+02  0.47067814825E+01  0.15155804590E+02  0.51100000000E-03 0. -1.
        -11    1    3    3    0    0 -0.16141934108E+01  0.25356953188E+02  0.86712535320E+01  0.26847184832E+02  0.51100000000E-03 0.  1.
        -12    1    3    3    0    0 -0.79230471404E+00  0.40592358389E+01 -0.16999350796E+00  0.41393284659E+01  0.00000000000E+00 0.  1.
</event>
<event>
 7    1  0.1381440E-008  0.4614232E+02  0.7816164E-02  0.1320468E+00
        -11   -1    0    0    0    0  0.00000000000E+00  0.00000000000E+00  0.45593999997E+02  0.45594000000E+02  0.51100000000E-03 0. -1.
         11   -1    0    0    0    0 -0.00000000000E+00 -0.00000000000E+00 -0.45593999997E+02  0.45594000000E+02  0.51100000000E-03 0.  1.
    9900012    2    1    2    0    0  0.63368789720E+01  0.50948208475E+01 -0.44305758687E+02  0.46142317772E+02  0.10000000096E+02 0.  0.
         12    1    1    2    0    0 -0.63368789720E+01 -0.50948208475E+01  0.44305758687E+02  0.45045682228E+02  0.00000000000E+00 0. -1.
         11    1    3    3    0    0  0.89127934775E+00  0.27861249467E-01 -0.79734706592E+00  0.11962097348E+01  0.51100000000E-03 0. -1.
        -11    1    3    3    0    0  0.39399656636E+01  0.42360801360E+01 -0.42619370543E+02  0.43010213323E+02  0.51100000000E-03 0.  1.
        -12    1    3    3    0    0  0.15056339606E+01  0.83087946208E+00 -0.88904107815E+00  0.19358947137E+01  0.00000000000E+00 0.  1.
</event>
<event>
 7    1  0.1381440E-008  0.4614233E+02  0.7816164E-02  0.1320468E+00
        -11   -1    0    0    0    0  0.00000000000E+00  0.00000000000E+00  0.45593999997E+02  0.45594000000E+02  0.51100000000E-03 0. -1.
         11   -1    0    0    0    0 -0.00000000000E+00 -0.00000000000E+00 -0.45593999997E+02  0.45594000000E+02  0.51100000000E-03 0.  1.
    9900012    2    1    2    0    0  0.34677685085E+02 -0.21168188416E+02 -0.19454511143E+02  0.46142333755E+02  0.10000145843E+02 0.  0.
         12    1    1    2    0    0 -0.34677685085E+02  0.21168188416E+02  0.19454511143E+02  0.45045666245E+02  0.00000000000E+00 0. -1.
         11    1    3    3    0    0  0.10877158371E+02 -0.60947973721E+01 -0.10937812324E+02  0.16585984081E+02  0.51100000000E-03 0. -1.
        -11    1    3    3    0    0  0.21984770845E+02 -0.14367828340E+02 -0.85120403916E+01  0.27608322517E+02  0.51100000000E-03 0.  1.
         12    1    3    3    0    0  0.18157558691E+01 -0.70556270349E+00 -0.46584281074E-02  0.19480271573E+01  0.00000000000E+00 0. -1.
</event>
<event>
 7    1  0.1381440E-008  0.4614232E+02  0.7816164E-02  0.1320468E+00
        -11   -1    0    0    0    0  0.00000000000E+00  0.00000000000E+00  0.45593999997E+02  0.45594000000E+02  0.51100000000E-03 0.  1.
         11   -1    0    0    0    0 -0.00000000000E+00 -0.00000000000E+00 -0.45593999997E+02  0.45594000000E+02  0.51100000000E-03 0. -1.
    9900012    2    1    2    0    0 -0.36607438104E+02 -0.37172519066E+01  0.25984439317E+02  0.46142316823E+02  0.99999914433E+01 0.  0.
         12    1    1    2    0    0  0.36607438104E+02  0.37172519066E+01 -0.25984439317E+02  0.45045683177E+02  0.00000000000E+00 0. -1.
         11    1    3    3    0    0 -0.13218805926E+02  0.82694507422E+00  0.14270092163E+02  0.19469365652E+02  0.51100000000E-03 0. -1.
        -11    1    3    3    0    0 -0.17380591929E+02 -0.22241443259E+01  0.86061920924E+01  0.19521740096E+02  0.51100000000E-03 0.  1.
         12    1    3    3    0    0 -0.60080402488E+01 -0.23200526549E+01  0.31081550612E+01  0.71512110749E+01  0.00000000000E+00 0. -1.
</event>
<event>
 7    1  0.1381440E-008  0.4614232E+02  0.7816164E-02  0.1320468E+00
        -11   -1    0    0    0    0  0.00000000000E+00  0.00000000000E+00  0.45593999997E+02  0.45594000000E+02  0.51100000000E-03 0.  1.
         11   -1    0    0    0    0 -0.00000000000E+00 -0.00000000000E+00 -0.45593999997E+02  0.45594000000E+02  0.51100000000E-03 0. -1.
    9900012    2    1    2    0    0 -0.12830216806E+02 -0.42254810535E+02  0.88898784662E+01  0.46142318567E+02  0.10000007346E+02 0.  0.
         12    1    1    2    0    0  0.12830216806E+02  0.42254810535E+02 -0.88898784662E+01  0.45045681433E+02  0.00000000000E+00 0. -1.
         11    1    3    3    0    0 -0.40514185208E+01 -0.81473938023E+01  0.21127287145E+01  0.93411798335E+01  0.51100000000E-03 0.  1.
        -11    1    3    3    0    0 -0.58125362355E+01 -0.84825452077E+01  0.74916090022E+00  0.10310208194E+02  0.51100000000E-03 0. -1.
        -12    1    3    3    0    0 -0.29662620495E+01 -0.25624871525E+02  0.60279888514E+01  0.26490930539E+02  0.00000000000E+00 0.  1.
</event>
<event>
 7    1  0.1381440E-008  0.4614231E+02  0.7816164E-02  0.1320468E+00
        -11   -1    0    0    0    0  0.00000000000E+00  0.00000000000E+00  0.45593999997E+02  0.45594000000E+02  0.51100000000E-03 0. -1.
         11   -1    0    0    0    0 -0.00000000000E+00 -0.00000000000E+00 -0.45593999997E+02  0.45594000000E+02  0.51100000000E-03 0.  1.
    9900012    2    1    2    0    0  0.48147437517E+01 -0.90852696296E+01 -0.43856470360E+02  0.46142313480E+02  0.99999609617E+01 0.  0.
         12    1    1    2    0    0 -0.48147437517E+01  0.90852696296E+01  0.43856470360E+02  0.45045686520E+02  0.00000000000E+00 0. -1.
         11    1    3    3    0    0  0.16569109507E+01 -0.54803660547E+01 -0.13075975695E+02  0.14274484461E+02  0.51100000000E-03 0. -1.
        -11    1    3    3    0    0  0.11442757790E+01 -0.44182501259E+01 -0.27844013893E+02  0.28215588088E+02  0.51100000000E-03 0.  1.
        -12    1    3    3    0    0  0.20135570221E+01  0.81334655097E+00 -0.29364807718E+01  0.36522409308E+01  0.00000000000E+00 0.  1.
</event>
<event>
 7    1  0.1381440E-008  0.4614232E+02  0.7816164E-02  0.1320468E+00
        -11   -1    0    0    0    0  0.00000000000E+00  0.00000000000E+00  0.45593999997E+02  0.45594000000E+02  0.51100000000E-03 0.  1.
         11   -1    0    0    0    0 -0.00000000000E+00 -0.00000000000E+00 -0.45593999997E+02  0.45594000000E+02  0.51100000000E-03 0. -1.
    9900012    2    1    2    0    0  0.10547828312E+02 -0.33032051097E+02  0.28753093402E+02  0.46142318054E+02  0.10000002673E+02 0.  0.
         12    1    1    2    0    0 -0.10547828312E+02  0.33032051097E+02 -0.28753093402E+02  0.45045681946E+02  0.00000000000E+00 0. -1.
         11    1    3    3    0    0 -0.11740033317E+01 -0.33569754451E+01  0.48074644965E+01  0.59799066136E+01  0.51100000000E-03 0. -1.
        -11    1    3    3    0    0  0.73137027117E+01 -0.17964039139E+02  0.17319516501E+02  0.26003126767E+02  0.51100000000E-03 0.  1.
         12    1    3    3    0    0  0.44081289318E+01 -0.11711036513E+02  0.66261124044E+01  0.14159284674E+02  0.00000000000E+00 0. -1.
</event>
<event>
 7    1  0.1381440E-008  0.4614232E+02  0.7816164E-02  0.1320468E+00
        -11   -1    0    0    0    0  0.00000000000E+00  0.00000000000E+00  0.45593999997E+02  0.45594000000E+02  0.51100000000E-03 0.  1.
         11   -1    0    0    0    0 -0.00000000000E+00 -0.00000000000E+00 -0.45593999997E+02  0.45594000000E+02  0.51100000000E-03 0. -1.
    9900012    2    1    2    0    0  0.15814201849E+02 -0.99571799314E+00  0.42166729806E+02  0.46142317221E+02  0.99999950790E+01 0.  0.
         12    1    1    2    0    0 -0.15814201849E+02  0.99571799314E+00 -0.42166729806E+02  0.45045682779E+02  0.00000000000E+00 0. -1.
         11    1    3    3    0    0  0.72307917270E+01  0.27748252889E+01  0.17199380578E+02  0.18862733018E+02  0.51100000000E-03 0. -1.
        -11    1    3    3    0    0  0.70107028768E+01 -0.39364139653E+01  0.24240473308E+02  0.25539104452E+02  0.51100000000E-03 0.  1.
        -12    1    3    3    0    0  0.15727072452E+01  0.16587068327E+00  0.72687591981E+00  0.17404797515E+01  0.00000000000E+00 0.  1.
</event>
<event>
 7    1  0.1381440E-008  0.4614232E+02  0.7816164E-02  0.1320468E+00
        -11   -1    0    0    0    0  0.00000000000E+00  0.00000000000E+00  0.45593999997E+02  0.45594000000E+02  0.51100000000E-03 0.  1.
         11   -1    0    0    0    0 -0.00000000000E+00 -0.00000000000E+00 -0.45593999997E+02  0.45594000000E+02  0.51100000000E-03 0. -1.
    9900012    2    1    2    0    0  0.26082561555E+02 -0.21904822128E+02  0.29478677553E+02  0.46142315634E+02  0.99999806018E+01 0.  0.
         12    1    1    2    0    0 -0.26082561555E+02  0.21904822128E+02 -0.29478677553E+02  0.45045684366E+02  0.00000000000E+00 0. -1.
         11    1    3    3    0    0  0.14698698478E+02 -0.62524180886E+01  0.11729185026E+02  0.19817120137E+02  0.51100000000E-03 0. -1.
        -11    1    3    3    0    0  0.79956606318E+01 -0.96014405477E+01  0.10972338208E+02  0.16628603536E+02  0.51100000000E-03 0.  1.
         12    1    3    3    0    0  0.33882024448E+01 -0.60509634921E+01  0.67771543190E+01  0.96965919607E+01  0.00000000000E+00 0. -1.
</event>
<event>
 7    1  0.1381440E-008  0.4614232E+02  0.7816164E-02  0.1320468E+00
        -11   -1    0    0    0    0  0.00000000000E+00  0.00000000000E+00  0.45593999997E+02  0.45594000000E+02  0.51100000000E-03 0.  1.
         11   -1    0    0    0    0 -0.00000000000E+00 -0.00000000000E+00 -0.45593999997E+02  0.45594000000E+02  0.51100000000E-03 0. -1.
    9900012    2    1    2    0    0  0.17437557713E+01 -0.10503350895E+02  0.43769309421E+02  0.46142317506E+02  0.99999976706E+01 0.  0.
         12    1    1    2    0    0 -0.17437557713E+01  0.10503350895E+02 -0.43769309421E+02  0.45045682494E+02  0.00000000000E+00 0. -1.
         11    1    3    3    0    0  0.32355444418E+01 -0.57822348368E+00  0.66861692308E+01  0.74503657277E+01  0.51100000000E-03 0. -1.
        -11    1    3    3    0    0  0.13236068899E+01 -0.56090354319E+01  0.16656612923E+02  0.17625435258E+02  0.51100000000E-03 0.  1.
        -12    1    3    3    0    0 -0.28153955605E+01 -0.43160919789E+01  0.20426527267E+02  0.21066516520E+02  0.00000000000E+00 0.  1.
</event>
<event>
 7    1  0.1381440E-008  0.4614232E+02  0.7816164E-02  0.1320468E+00
        -11   -1    0    0    0    0  0.00000000000E+00  0.00000000000E+00  0.45593999997E+02  0.45594000000E+02  0.51100000000E-03 0.  1.
         11   -1    0    0    0    0 -0.00000000000E+00 -0.00000000000E+00 -0.45593999997E+02  0.45594000000E+02  0.51100000000E-03 0. -1.
    9900012    2    1    2    0    0 -0.24629708623E+02 -0.12726300410E+02  0.35503974384E+02  0.46142318009E+02  0.10000002259E+02 0.  0.
         12    1    1    2    0    0  0.24629708623E+02  0.12726300410E+02 -0.35503974384E+02  0.45045681991E+02  0.00000000000E+00 0. -1.
         11    1    3    3    0    0 -0.13766845144E+01  0.52457755894E+00  0.44921793760E+01  0.47275911070E+01  0.51100000000E-03 0. -1.
        -11    1    3    3    0    0 -0.21591216521E+02 -0.10054514144E+02  0.26270040058E+02  0.35459679785E+02  0.51100000000E-03 0.  1.
        -12    1    3    3    0    0 -0.16618075876E+01 -0.31963638253E+01  0.47417549497E+01  0.59550471169E+01  0.00000000000E+00 0.  1.
</event>
<event>
 7    1  0.1381440E-008  0.4614233E+02  0.7816164E-02  0.1320468E+00
        -11   -1    0    0    0    0  0.00000000000E+00  0.00000000000E+00  0.45593999997E+02  0.45594000000E+02  0.51100000000E-03 0.  1.
         11   -1    0    0    0    0 -0.00000000000E+00 -0.00000000000E+00 -0.45593999997E+02  0.45594000000E+02  0.51100000000E-03 0. -1.
    9900012    2    1    2    0    0 -0.21446122308E+02  0.96062969428E+01  0.38430399185E+02  0.46142326684E+02  0.10000081363E+02 0.  0.
         12    1    1    2    0    0  0.21446122308E+02 -0.96062969428E+01 -0.38430399185E+02  0.45045673316E+02  0.00000000000E+00 0. -1.
         11    1    3    3    0    0 -0.26207746483E+01  0.16023047343E+01  0.93319011083E+01  0.98244704068E+01  0.51100000000E-03 0. -1.
        -11    1    3    3    0    0 -0.16317140801E+01 -0.11383153432E+01  0.12973398147E+01  0.23751512616E+01  0.51100000000E-03 0.  1.
        -12    1    3    3    0    0 -0.17193633580E+02  0.91423075517E+01  0.27801158262E+02  0.33942705015E+02  0.00000000000E+00 0.  1.
</event>
<event>
 7    1  0.1381440E-008  0.4614232E+02  0.7816164E-02  0.1320468E+00
        -11   -1    0    0    0    0  0.00000000000E+00  0.00000000000E+00  0.45593999997E+02  0.45594000000E+02  0.51100000000E-03 0.  1.
         11   -1    0    0    0    0 -0.00000000000E+00 -0.00000000000E+00 -0.45593999997E+02  0.45594000000E+02  0.51100000000E-03 0. -1.
    9900012    2    1    2    0    0  0.23212270285E+02  0.17663360194E+02  0.34326515575E+02  0.46142318113E+02  0.10000003208E+02 0.  0.
         12    1    1    2    0    0 -0.23212270285E+02 -0.17663360194E+02 -0.34326515575E+02  0.45045681887E+02  0.00000000000E+00 0. -1.
         11    1    3    3    0    0  0.12755774060E+02  0.63819009456E+01  0.13703746687E+02  0.19779562813E+02  0.51100000000E-03 0. -1.
        -11    1    3    3    0    0  0.38935599879E+01  0.70650881833E+00  0.44402175811E+01  0.59476463007E+01  0.51100000000E-03 0.  1.
         12    1    3    3    0    0  0.65629362380E+01  0.10574950430E+02  0.16182551306E+02  0.20415108999E+02  0.00000000000E+00 0. -1.
</event>
<event>
 7    1  0.1381440E-008  0.4614232E+02  0.7816164E-02  0.1320468E+00
        -11   -1    0    0    0    0  0.00000000000E+00  0.00000000000E+00  0.45593999997E+02  0.45594000000E+02  0.51100000000E-03 0.  1.
         11   -1    0    0    0    0 -0.00000000000E+00 -0.00000000000E+00 -0.45593999997E+02  0.45594000000E+02  0.51100000000E-03 0. -1.
    9900012    2    1    2    0    0  0.21840837806E+02 -0.34060846269E+02  0.19797728007E+02  0.46142317866E+02  0.10000000958E+02 0.  0.
         12    1    1    2    0    0 -0.21840837806E+02  0.34060846269E+02 -0.19797728007E+02  0.45045682134E+02  0.00000000000E+00 0. -1.
         11    1    3    3    0    0  0.56964675108E+01 -0.54075471551E+01  0.58809680824E+00  0.78763675926E+01  0.51100000000E-03 0. -1.
        -11    1    3    3    0    0  0.58395365705E+01 -0.13119993465E+02  0.69417831546E+01  0.15950635395E+02  0.51100000000E-03 0.  1.
         12    1    3    3    0    0  0.10304833725E+02 -0.15533305649E+02  0.12267848044E+02  0.22315314879E+02  0.00000000000E+00 0. -1.
</event>
<event>
 7    1  0.1381440E-008  0.4614232E+02  0.7816164E-02  0.1320468E+00
        -11   -1    0    0    0    0  0.00000000000E+00  0.00000000000E+00  0.45593999997E+02  0.45594000000E+02  0.51100000000E-03 0.  1.
         11   -1    0    0    0    0 -0.00000000000E+00 -0.00000000000E+00 -0.45593999997E+02  0.45594000000E+02  0.51100000000E-03 0. -1.
    9900012    2    1    2    0    0  0.28583380821E+02  0.30115863214E+02  0.17468217196E+02  0.46142317762E+02  0.10000000007E+02 0.  0.
         12    1    1    2    0    0 -0.28583380821E+02 -0.30115863214E+02 -0.17468217196E+02  0.45045682238E+02  0.00000000000E+00 0. -1.
         11    1    3    3    0    0  0.40115227437E+01  0.70350830059E+01  0.67339830842E+01  0.10532389855E+02  0.51100000000E-03 0. -1.
        -11    1    3    3    0    0  0.16424702386E+02  0.17923774409E+02  0.77467678760E+01  0.25515582500E+02  0.51100000000E-03 0.  1.
        -12    1    3    3    0    0  0.81471556920E+01  0.51570057985E+01  0.29874662357E+01  0.10094345407E+02  0.00000000000E+00 0.  1.
</event>
<event>
 7    1  0.1381440E-008  0.4614232E+02  0.7816164E-02  0.1320468E+00
        -11   -1    0    0    0    0  0.00000000000E+00  0.00000000000E+00  0.45593999997E+02  0.45594000000E+02  0.51100000000E-03 0.  1.
         11   -1    0    0    0    0 -0.00000000000E+00 -0.00000000000E+00 -0.45593999997E+02  0.45594000000E+02  0.51100000000E-03 0. -1.
    9900012    2    1    2    0    0  0.40800032309E+01  0.24946758027E+02  0.37284398198E+02  0.46142317505E+02  0.99999976684E+01 0.  0.
         12    1    1    2    0    0 -0.40800032309E+01 -0.24946758027E+02 -0.37284398198E+02  0.45045682495E+02  0.00000000000E+00 0. -1.
         11    1    3    3    0    0 -0.19576199996E+01  0.89695608019E+01  0.15754382315E+02  0.18234194784E+02  0.51100000000E-03 0. -1.
        -11    1    3    3    0    0  0.51836490547E+01  0.13914725171E+02  0.20806157055E+02  0.25561415566E+02  0.51100000000E-03 0.  1.
         12    1    3    3    0    0  0.85397417581E+00  0.20624720545E+01  0.72385882820E+00  0.23467071550E+01  0.00000000000E+00 0. -1.
</event>
<event>
 7    1  0.1381440E-008  0.4614232E+02  0.7816164E-02  0.1320468E+00
        -11   -1    0    0    0    0  0.00000000000E+00  0.00000000000E+00  0.45593999997E+02  0.45594000000E+02  0.51100000000E-03 0.  1.
         11   -1    0    0    0    0 -0.00000000000E+00 -0.00000000000E+00 -0.45593999997E+02  0.45594000000E+02  0.51100000000E-03 0. -1.
    9900012    2    1    2    0    0  0.16692302674E+01  0.12510309413E+02  0.43241407144E+02  0.46142318042E+02  0.10000002557E+02 0.  0.
         12    1    1    2    0    0 -0.16692302674E+01 -0.12510309413E+02 -0.43241407144E+02  0.45045681958E+02  0.00000000000E+00 0. -1.
         11    1    3    3    0    0  0.64120677678E+00 -0.20799852070E+00  0.11243497393E+02  0.11263686936E+02  0.51100000000E-03 0. -1.
        -11    1    3    3    0    0 -0.15353797766E+01  0.10097132174E+02  0.23670144535E+02  0.25779550263E+02  0.51100000000E-03 0.  1.
         12    1    3    3    0    0  0.25634032672E+01  0.26211757599E+01  0.83277652162E+01  0.90990808421E+01  0.00000000000E+00 0. -1.
</event>
<event>
 7    1  0.1381440E-008  0.4614232E+02  0.7816164E-02  0.1320468E+00
        -11   -1    0    0    0    0  0.00000000000E+00  0.00000000000E+00  0.45593999997E+02  0.45594000000E+02  0.51100000000E-03 0. -1.
         11   -1    0    0    0    0 -0.00000000000E+00 -0.00000000000E+00 -0.45593999997E+02  0.45594000000E+02  0.51100000000E-03 0.  1.
    9900012    2    1    2    0    0 -0.36509189220E+02  0.23792954160E+02 -0.11405611419E+02  0.46142317222E+02  0.99999950828E+01 0.  0.
         12    1    1    2    0    0  0.36509189220E+02 -0.23792954160E+02  0.11405611419E+02  0.45045682778E+02  0.00000000000E+00 0. -1.
         11    1    3    3    0    0 -0.31956961081E+01  0.44961751755E+00 -0.16554304978E+01  0.36269932342E+01  0.51100000000E-03 0. -1.
        -11    1    3    3    0    0 -0.33618716025E+01  0.93159126616E+00 -0.27853669254E+01  0.44641138123E+01  0.51100000000E-03 0.  1.
        -12    1    3    3    0    0 -0.29951621509E+02  0.22411745376E+02 -0.69648139955E+01  0.38051210175E+02  0.00000000000E+00 0.  1.
</event>
<event>
 7    1  0.1381440E-008  0.4614231E+02  0.7816164E-02  0.1320468E+00
        -11   -1    0    0    0    0  0.00000000000E+00  0.00000000000E+00  0.45593999997E+02  0.45594000000E+02  0.51100000000E-03 0. -1.
         11   -1    0    0    0    0 -0.00000000000E+00 -0.00000000000E+00 -0.45593999997E+02  0.45594000000E+02  0.51100000000E-03 0.  1.
    9900012    2    1    2    0    0 -0.38177793377E+02 -0.10654930297E+01 -0.23883778824E+02  0.46142311267E+02  0.99999407790E+01 0.  0.
         12    1    1    2    0    0  0.38177793377E+02  0.10654930297E+01  0.23883778824E+02  0.45045688733E+02  0.00000000000E+00 0. -1.
         11    1    3    3    0    0 -0.24119115145E+02 -0.37846483755E+01 -0.14200892198E+02  0.28243948346E+02  0.51100000000E-03 0. -1.
        -11    1    3    3    0    0 -0.11748118049E+02  0.74784831118E+00 -0.89119064590E+01  0.14764810591E+02  0.51100000000E-03 0.  1.
         12    1    3    3    0    0 -0.23105601836E+01  0.19713070347E+01 -0.77098016689E+00  0.31335523300E+01  0.00000000000E+00 0. -1.
</event>
<event>
 7    1  0.1381440E-008  0.4614232E+02  0.7816164E-02  0.1320468E+00
        -11   -1    0    0    0    0  0.00000000000E+00  0.00000000000E+00  0.45593999997E+02  0.45594000000E+02  0.51100000000E-03 0.  1.
         11   -1    0    0    0    0 -0.00000000000E+00 -0.00000000000E+00 -0.45593999997E+02  0.45594000000E+02  0.51100000000E-03 0. -1.
    9900012    2    1    2    0    0  0.97153571106E+01 -0.21627245619E+02  0.38301273437E+02  0.46142318034E+02  0.10000002492E+02 0.  0.
         12    1    1    2    0    0 -0.97153571106E+01  0.21627245619E+02 -0.38301273437E+02  0.45045681966E+02  0.00000000000E+00 0. -1.
         11    1    3    3    0    0  0.15155155768E+01 -0.92164958233E+01  0.90795680876E+01  0.13026094566E+02  0.51100000000E-03 0. -1.
        -11    1    3    3    0    0  0.85973276781E+01 -0.12271846448E+02  0.28995651681E+02  0.32638322186E+02  0.51100000000E-03 0.  1.
         12    1    3    3    0    0 -0.39748614421E+00 -0.13890334736E+00  0.22605366870E+00  0.47790128256E+00  0.00000000000E+00 0. -1.
</event>
<event>
 7    1  0.1381440E-008  0.4614232E+02  0.7816164E-02  0.1320468E+00
        -11   -1    0    0    0    0  0.00000000000E+00  0.00000000000E+00  0.45593999997E+02  0.45594000000E+02  0.51100000000E-03 0. -1.
         11   -1    0    0    0    0 -0.00000000000E+00 -0.00000000000E+00 -0.45593999997E+02  0.45594000000E+02  0.51100000000E-03 0.  1.
    9900012    2    1    2    0    0 -0.39825580962E+02 -0.19163774057E+02 -0.87055336269E+01  0.46142318178E+02  0.10000003797E+02 0.  0.
         12    1    1    2    0    0  0.39825580962E+02  0.19163774057E+02  0.87055336269E+01  0.45045681822E+02  0.00000000000E+00 0. -1.
         11    1    3    3    0    0 -0.13694372461E+02 -0.27557121234E+01 -0.10872617591E+01  0.14011135743E+02  0.51100000000E-03 0.  1.
        -11    1    3    3    0    0 -0.14161216597E+02 -0.82011748772E+01 -0.63834272141E+01  0.17565519296E+02  0.51100000000E-03 0. -1.
        -12    1    3    3    0    0 -0.11969991904E+02 -0.82068870569E+01 -0.12348446537E+01  0.14565663138E+02  0.00000000000E+00 0.  1.
</event>
<event>
 7    1  0.1381440E-008  0.4614232E+02  0.7816164E-02  0.1320468E+00
        -11   -1    0    0    0    0  0.00000000000E+00  0.00000000000E+00  0.45593999997E+02  0.45594000000E+02  0.51100000000E-03 0. -1.
         11   -1    0    0    0    0 -0.00000000000E+00 -0.00000000000E+00 -0.45593999997E+02  0.45594000000E+02  0.51100000000E-03 0.  1.
    9900012    2    1    2    0    0 -0.26272525193E+02  0.36271305118E+02 -0.48228971507E+01  0.46142317722E+02  0.99999996444E+01 0.  0.
         12    1    1    2    0    0  0.26272525193E+02 -0.36271305118E+02  0.48228971507E+01  0.45045682278E+02  0.00000000000E+00 0. -1.
         11    1    3    3    0    0 -0.33537151342E+00 -0.17074448482E+00 -0.29359909455E+00  0.47731375483E+00  0.51100000000E-03 0. -1.
        -11    1    3    3    0    0 -0.65065756415E+01  0.12395591405E+02  0.17795982334E+01  0.14112164363E+02  0.51100000000E-03 0.  1.
        -12    1    3    3    0    0 -0.19430578038E+02  0.24046458197E+02 -0.63088962895E+01  0.31552839605E+02  0.00000000000E+00 0.  1.
</event>
<event>
 7    1  0.1381440E-008  0.4614232E+02  0.7816164E-02  0.1320468E+00
        -11   -1    0    0    0    0  0.00000000000E+00  0.00000000000E+00  0.45593999997E+02  0.45594000000E+02  0.51100000000E-03 0. -1.
         11   -1    0    0    0    0 -0.00000000000E+00 -0.00000000000E+00 -0.45593999997E+02  0.45594000000E+02  0.51100000000E-03 0.  1.
    9900012    2    1    2    0    0  0.32464523552E+02  0.25513057428E+02  0.18007004082E+02  0.46142316691E+02  0.99999902382E+01 0.  0.
         12    1    1    2    0    0 -0.32464523552E+02 -0.25513057428E+02 -0.18007004082E+02  0.45045683309E+02  0.00000000000E+00 0. -1.
         11    1    3    3    0    0  0.13898950511E+02  0.73946163117E+01  0.39356664643E+01  0.16228082034E+02  0.51100000000E-03 0. -1.
        -11    1    3    3    0    0  0.14286722522E+02  0.14900976519E+02  0.89313378833E+01  0.22492628532E+02  0.51100000000E-03 0.  1.
         12    1    3    3    0    0  0.42788505195E+01  0.32174645967E+01  0.51399997345E+01  0.74216061247E+01  0.00000000000E+00 0. -1.
</event>
<event>
 7    1  0.1381440E-008  0.4614232E+02  0.7816164E-02  0.1320468E+00
        -11   -1    0    0    0    0  0.00000000000E+00  0.00000000000E+00  0.45593999997E+02  0.45594000000E+02  0.51100000000E-03 0.  1.
         11   -1    0    0    0    0 -0.00000000000E+00 -0.00000000000E+00 -0.45593999997E+02  0.45594000000E+02  0.51100000000E-03 0. -1.
    9900012    2    1    2    0    0 -0.43724231191E+02 -0.74468731315E+01 -0.78644340889E+01  0.46142316120E+02  0.99999850368E+01 0.  0.
         12    1    1    2    0    0  0.43724231191E+02  0.74468731315E+01  0.78644340889E+01  0.45045683880E+02  0.00000000000E+00 0. -1.
         11    1    3    3    0    0 -0.96612868847E+00  0.34793391372E+00 -0.17304383649E+01  0.20121828562E+01  0.51100000000E-03 0. -1.
        -11    1    3    3    0    0 -0.28449350427E+02 -0.54673372319E+01 -0.62334819162E+01  0.29632981848E+02  0.51100000000E-03 0.  1.
         12    1    3    3    0    0 -0.14308752075E+02 -0.23274698133E+01  0.99486192230E-01  0.14497151416E+02  0.00000000000E+00 0. -1.
</event>
<event>
 7    1  0.1381440E-008  0.4614232E+02  0.7816164E-02  0.1320468E+00
        -11   -1    0    0    0    0  0.00000000000E+00  0.00000000000E+00  0.45593999997E+02  0.45594000000E+02  0.51100000000E-03 0.  1.
         11   -1    0    0    0    0 -0.00000000000E+00 -0.00000000000E+00 -0.45593999997E+02  0.45594000000E+02  0.51100000000E-03 0. -1.
    9900012    2    1    2    0    0  0.39540120788E+01  0.44848359143E+02 -0.14505113247E+01  0.46142317494E+02  0.99999975676E+01 0.  0.
         12    1    1    2    0    0 -0.39540120788E+01 -0.44848359143E+02  0.14505113247E+01  0.45045682506E+02  0.00000000000E+00 0. -1.
         11    1    3    3    0    0  0.10127204354E+01  0.30068700992E+01 -0.21717146577E+01  0.38448947046E+01  0.51100000000E-03 0. -1.
        -11    1    3    3    0    0  0.14548455166E+01  0.34789984732E+01  0.10145009002E+01  0.39050247363E+01  0.51100000000E-03 0.  1.
         12    1    3    3    0    0  0.14864461268E+01  0.38362490570E+02 -0.29329756713E+00  0.38392398053E+02  0.00000000000E+00 0. -1.
</event>
<event>
 7    1  0.1381440E-008  0.4614232E+02  0.7816164E-02  0.1320468E+00
        -11   -1    0    0    0    0  0.00000000000E+00  0.00000000000E+00  0.45593999997E+02  0.45594000000E+02  0.51100000000E-03 0.  1.
         11   -1    0    0    0    0 -0.00000000000E+00 -0.00000000000E+00 -0.45593999997E+02  0.45594000000E+02  0.51100000000E-03 0. -1.
    9900012    2    1    2    0    0  0.21507399510E+02 -0.30577072513E+01  0.39461321898E+02  0.46142315043E+02  0.99999752143E+01 0.  0.
         12    1    1    2    0    0 -0.21507399510E+02  0.30577072513E+01 -0.39461321898E+02  0.45045684957E+02  0.00000000000E+00 0. -1.
         11    1    3    3    0    0  0.42500350474E+01  0.27702119900E+01  0.57683929396E+01  0.76818767069E+01  0.51100000000E-03 0. -1.
        -11    1    3    3    0    0  0.57015218934E+01 -0.22269006969E+01  0.14884124560E+02  0.16093588872E+02  0.51100000000E-03 0.  1.
        -12    1    3    3    0    0  0.11555842569E+02 -0.36010185444E+01  0.18808804398E+02  0.22366849464E+02  0.00000000000E+00 0.  1.
</event>
<event>
 7    1  0.1381440E-008  0.4614232E+02  0.7816164E-02  0.1320468E+00
        -11   -1    0    0    0    0  0.00000000000E+00  0.00000000000E+00  0.45593999997E+02  0.45594000000E+02  0.51100000000E-03 0.  1.
         11   -1    0    0    0    0 -0.00000000000E+00 -0.00000000000E+00 -0.45593999997E+02  0.45594000000E+02  0.51100000000E-03 0. -1.
    9900012    2    1    2    0    0  0.18196808702E+02  0.24584549045E+02  0.33069466004E+02  0.46142317849E+02  0.10000000799E+02 0.  0.
         12    1    1    2    0    0 -0.18196808702E+02 -0.24584549045E+02 -0.33069466004E+02  0.45045682151E+02  0.00000000000E+00 0. -1.
         11    1    3    3    0    0  0.12899054170E+02  0.99596736027E+01  0.14685267198E+02  0.21937132212E+02  0.51100000000E-03 0. -1.
        -11    1    3    3    0    0  0.55545660552E+01  0.13645588998E+02  0.17190058739E+02  0.22639642728E+02  0.51100000000E-03 0.  1.
         12    1    3    3    0    0 -0.25681152261E+00  0.97928644483E+00  0.11941400671E+01  0.15655429087E+01  0.00000000000E+00 0. -1.
</event>
<event>
 7    1  0.1381440E-008  0.4614232E+02  0.7816164E-02  0.1320468E+00
        -11   -1    0    0    0    0  0.00000000000E+00  0.00000000000E+00  0.45593999997E+02  0.45594000000E+02  0.51100000000E-03 0. -1.
         11   -1    0    0    0    0 -0.00000000000E+00 -0.00000000000E+00 -0.45593999997E+02  0.45594000000E+02  0.51100000000E-03 0.  1.
    9900012    2    1    2    0    0  0.13642359513E+02 -0.39323617694E+02 -0.17223604440E+02  0.46142318392E+02  0.10000005751E+02 0.  0.
         12    1    1    2    0    0 -0.13642359513E+02  0.39323617694E+02  0.17223604440E+02  0.45045681608E+02  0.00000000000E+00 0. -1.
         11    1    3    3    0    0  0.61148296003E+01 -0.70797153188E+01 -0.40359871034E+01  0.10188361114E+02  0.51100000000E-03 0. -1.
        -11    1    3    3    0    0  0.14666258377E+01 -0.13011993029E+02 -0.70748941960E+01  0.14883449938E+02  0.51100000000E-03 0.  1.
        -12    1    3    3    0    0  0.60609040752E+01 -0.19231909347E+02 -0.61127231408E+01  0.21070507339E+02  0.00000000000E+00 0.  1.
</event>
<event>
 7    1  0.1381440E-008  0.4614232E+02  0.7816164E-02  0.1320468E+00
        -11   -1    0    0    0    0  0.00000000000E+00  0.00000000000E+00  0.45593999997E+02  0.45594000000E+02  0.51100000000E-03 0.  1.
         11   -1    0    0    0    0 -0.00000000000E+00 -0.00000000000E+00 -0.45593999997E+02  0.45594000000E+02  0.51100000000E-03 0. -1.
    9900012    2    1    2    0    0  0.33095175438E+02 -0.29179817397E+02  0.90752915552E+01  0.46142319881E+02  0.10000019330E+02 0.  0.
         12    1    1    2    0    0 -0.33095175438E+02  0.29179817397E+02 -0.90752915552E+01  0.45045680119E+02  0.00000000000E+00 0. -1.
         11    1    3    3    0    0  0.40176052558E+01 -0.73211855610E+01  0.19058719568E+01  0.85658191778E+01  0.51100000000E-03 0. -1.
        -11    1    3    3    0    0  0.24055627269E+02 -0.16352943191E+02  0.35866203991E+01  0.29307947735E+02  0.51100000000E-03 0.  1.
        -12    1    3    3    0    0  0.50219429131E+01 -0.55056886453E+01  0.35827991993E+01  0.82685529679E+01  0.00000000000E+00 0.  1.
</event>
<event>
 7    1  0.1381440E-008  0.4614232E+02  0.7816164E-02  0.1320468E+00
        -11   -1    0    0    0    0  0.00000000000E+00  0.00000000000E+00  0.45593999997E+02  0.45594000000E+02  0.51100000000E-03 0. -1.
         11   -1    0    0    0    0 -0.00000000000E+00 -0.00000000000E+00 -0.45593999997E+02  0.45594000000E+02  0.51100000000E-03 0.  1.
    9900012    2    1    2    0    0 -0.40388659053E+02  0.13396378748E+01  0.19901635325E+02  0.46142317651E+02  0.99999989921E+01 0.  0.
         12    1    1    2    0    0  0.40388659053E+02 -0.13396378748E+01 -0.19901635325E+02  0.45045682349E+02  0.00000000000E+00 0. -1.
         11    1    3    3    0    0 -0.12720951444E+02  0.31781722936E+01  0.78347539597E+01  0.15274382300E+02  0.51100000000E-03 0. -1.
        -11    1    3    3    0    0 -0.19841521353E+02 -0.29377153218E+01  0.11048859201E+02  0.22899638225E+02  0.51100000000E-03 0.  1.
        -12    1    3    3    0    0 -0.78261862551E+01  0.10991809030E+01  0.10180221645E+01  0.79682971257E+01  0.00000000000E+00 0.  1.
</event>
<event>
 7    1  0.1381440E-008  0.4614232E+02  0.7816164E-02  0.1320468E+00
        -11   -1    0    0    0    0  0.00000000000E+00  0.00000000000E+00  0.45593999997E+02  0.45594000000E+02  0.51100000000E-03 0.  1.
         11   -1    0    0    0    0 -0.00000000000E+00 -0.00000000000E+00 -0.45593999997E+02  0.45594000000E+02  0.51100000000E-03 0. -1.
    9900012    2    1    2    0    0  0.38326471024E+02 -0.62234534323E+01  0.22835581006E+02  0.46142317480E+02  0.99999974378E+01 0.  0.
         12    1    1    2    0    0 -0.38326471024E+02  0.62234534323E+01 -0.22835581006E+02  0.45045682520E+02  0.00000000000E+00 0. -1.
         11    1    3    3    0    0 -0.58122414576E+00 -0.25819909209E+00  0.19188942972E+00  0.66431174394E+00  0.51100000000E-03 0. -1.
        -11    1    3    3    0    0  0.30148553171E+02 -0.36970981090E+01  0.16870690652E+02  0.34745129098E+02  0.51100000000E-03 0.  1.
        -12    1    3    3    0    0  0.87591419992E+01 -0.22681562313E+01  0.57730009247E+01  0.10732876638E+02  0.00000000000E+00 0.  1.
</event>
<event>
 7    1  0.1381440E-008  0.4614231E+02  0.7816164E-02  0.1320468E+00
        -11   -1    0    0    0    0  0.00000000000E+00  0.00000000000E+00  0.45593999997E+02  0.45594000000E+02  0.51100000000E-03 0.  1.
         11   -1    0    0    0    0 -0.00000000000E+00 -0.00000000000E+00 -0.45593999997E+02  0.45594000000E+02  0.51100000000E-03 0. -1.
    9900012    2    1    2    0    0  0.37647154515E+02  0.15578533625E+01  0.24685595262E+02  0.46142314706E+02  0.99999721416E+01 0.  0.
         12    1    1    2    0    0 -0.37647154515E+02 -0.15578533625E+01 -0.24685595262E+02  0.45045685294E+02  0.00000000000E+00 0. -1.
         11    1    3    3    0    0  0.20176554653E+01 -0.88221495550E+00  0.46810711163E+00  0.22513021417E+01  0.51100000000E-03 0. -1.
        -11    1    3    3    0    0  0.53172675961E-01  0.80023942628E+00 -0.35948889505E-01  0.80280947716E+00  0.51100000000E-03 0.  1.
        -12    1    3    3    0    0  0.35576326373E+02  0.16398288917E+01  0.24253437040E+02  0.43088203087E+02  0.00000000000E+00 0.  1.
</event>
<event>
 7    1  0.1381440E-008  0.4614232E+02  0.7816164E-02  0.1320468E+00
        -11   -1    0    0    0    0  0.00000000000E+00  0.00000000000E+00  0.45593999997E+02  0.45594000000E+02  0.51100000000E-03 0.  1.
         11   -1    0    0    0    0 -0.00000000000E+00 -0.00000000000E+00 -0.45593999997E+02  0.45594000000E+02  0.51100000000E-03 0. -1.
    9900012    2    1    2    0    0 -0.34101849605E+02 -0.14372525071E+02  0.25682832557E+02  0.46142317504E+02  0.99999976538E+01 0.  0.
         12    1    1    2    0    0  0.34101849605E+02  0.14372525071E+02 -0.25682832557E+02  0.45045682496E+02  0.00000000000E+00 0. -1.
         11    1    3    3    0    0 -0.12420358053E+02 -0.16846780352E+01  0.10486047557E+02  0.16341989716E+02  0.51100000000E-03 0. -1.
        -11    1    3    3    0    0 -0.20998172513E+02 -0.12318927672E+02  0.13278466259E+02  0.27730793251E+02  0.51100000000E-03 0.  1.
        -12    1    3    3    0    0 -0.68331903830E+00 -0.36891936331E+00  0.19183187408E+01  0.20695345360E+01  0.00000000000E+00 0.  1.
</event>
<event>
 7    1  0.1381440E-008  0.4614232E+02  0.7816164E-02  0.1320468E+00
        -11   -1    0    0    0    0  0.00000000000E+00  0.00000000000E+00  0.45593999997E+02  0.45594000000E+02  0.51100000000E-03 0. -1.
         11   -1    0    0    0    0 -0.00000000000E+00 -0.00000000000E+00 -0.45593999997E+02  0.45594000000E+02  0.51100000000E-03 0.  1.
    9900012    2    1    2    0    0  0.19609073994E+02 -0.35164246688E+02 -0.20200827575E+02  0.46142318045E+02  0.10000002591E+02 0.  0.
         12    1    1    2    0    0 -0.19609073994E+02  0.35164246688E+02  0.20200827575E+02  0.45045681955E+02  0.00000000000E+00 0. -1.
         11    1    3    3    0    0  0.26010359332E+01 -0.28172629209E+01 -0.58506689894E+00  0.38787448780E+01  0.51100000000E-03 0. -1.
        -11    1    3    3    0    0  0.17212148840E+02 -0.32659971099E+02 -0.19747218810E+02  0.41867462676E+02  0.51100000000E-03 0.  1.
        -12    1    3    3    0    0 -0.20411077955E+00  0.31298733207E+00  0.13145813404E+00  0.39611049137E+00  0.00000000000E+00 0.  1.
</event>
<event>
 7    1  0.1381440E-008  0.4614232E+02  0.7816164E-02  0.1320468E+00
        -11   -1    0    0    0    0  0.00000000000E+00  0.00000000000E+00  0.45593999997E+02  0.45594000000E+02  0.51100000000E-03 0.  1.
         11   -1    0    0    0    0 -0.00000000000E+00 -0.00000000000E+00 -0.45593999997E+02  0.45594000000E+02  0.51100000000E-03 0. -1.
    9900012    2    1    2    0    0 -0.44017376999E+02 -0.52528277280E+01  0.79994870927E+01  0.46142317957E+02  0.10000001785E+02 0.  0.
         12    1    1    2    0    0  0.44017376999E+02  0.52528277280E+01 -0.79994870927E+01  0.45045682043E+02  0.00000000000E+00 0. -1.
         11    1    3    3    0    0 -0.91912228637E+01 -0.38722135762E+01  0.20148365141E+01  0.10175076518E+02  0.51100000000E-03 0. -1.
        -11    1    3    3    0    0 -0.54996530399E+01 -0.74171234687E+00 -0.13901798185E+01  0.57209195898E+01  0.51100000000E-03 0.  1.
        -12    1    3    3    0    0 -0.29326501095E+02 -0.63890180490E+00  0.73748303971E+01  0.30246321849E+02  0.00000000000E+00 0.  1.
</event>
<event>
 7    1  0.1381440E-008  0.4614232E+02  0.7816164E-02  0.1320468E+00
        -11   -1    0    0    0    0  0.00000000000E+00  0.00000000000E+00  0.45593999997E+02  0.45594000000E+02  0.51100000000E-03 0. -1.
         11   -1    0    0    0    0 -0.00000000000E+00 -0.00000000000E+00 -0.45593999997E+02  0.45594000000E+02  0.51100000000E-03 0.  1.
    9900012    2    1    2    0    0  0.29587543631E+02 -0.31384729939E+02 -0.12988051569E+02  0.46142317687E+02  0.99999993273E+01 0.  0.
         12    1    1    2    0    0 -0.29587543631E+02  0.31384729939E+02  0.12988051569E+02  0.45045682313E+02  0.00000000000E+00 0. -1.
         11    1    3    3    0    0  0.18714759214E+02 -0.18663369996E+02 -0.94813297365E+01  0.28079515770E+02  0.51100000000E-03 0. -1.
        -11    1    3    3    0    0  0.10093048893E+02 -0.95459311337E+01 -0.97305261847E+00  0.13926279791E+02  0.51100000000E-03 0.  1.
         12    1    3    3    0    0  0.77973552360E+00 -0.31754288098E+01 -0.25336692145E+01  0.41365221263E+01  0.00000000000E+00 0. -1.
</event>
<event>
 7    1  0.1381440E-008  0.4614232E+02  0.7816164E-02  0.1320468E+00
        -11   -1    0    0    0    0  0.00000000000E+00  0.00000000000E+00  0.45593999997E+02  0.45594000000E+02  0.51100000000E-03 0.  1.
         11   -1    0    0    0    0 -0.00000000000E+00 -0.00000000000E+00 -0.45593999997E+02  0.45594000000E+02  0.51100000000E-03 0. -1.
    9900012    2    1    2    0    0  0.62177176782E+01  0.23776221481E+02  0.37751089665E+02  0.46142317722E+02  0.99999996397E+01 0.  0.
         12    1    1    2    0    0 -0.62177176782E+01 -0.23776221481E+02 -0.37751089665E+02  0.45045682278E+02  0.00000000000E+00 0. -1.
         11    1    3    3    0    0  0.73768687809E+00  0.12872412699E+02  0.16515583042E+02  0.20952509971E+02  0.51100000000E-03 0. -1.
        -11    1    3    3    0    0 -0.18326288082E-03  0.51772684977E+01  0.11671233549E+02  0.12767999136E+02  0.51100000000E-03 0.  1.
         12    1    3    3    0    0  0.54802140630E+01  0.57265402837E+01  0.95642730743E+01  0.12421808614E+02  0.00000000000E+00 0. -1.
</event>
<event>
 7    1  0.1381440E-008  0.4614232E+02  0.7816164E-02  0.1320468E+00
        -11   -1    0    0    0    0  0.00000000000E+00  0.00000000000E+00  0.45593999997E+02  0.45594000000E+02  0.51100000000E-03 0.  1.
         11   -1    0    0    0    0 -0.00000000000E+00 -0.00000000000E+00 -0.45593999997E+02  0.45594000000E+02  0.51100000000E-03 0. -1.
    9900012    2    1    2    0    0  0.36218945843E+02 -0.22685765198E+02  0.14235776028E+02  0.46142319855E+02  0.10000019096E+02 0.  0.
         12    1    1    2    0    0 -0.36218945843E+02  0.22685765198E+02 -0.14235776028E+02  0.45045680145E+02  0.00000000000E+00 0. -1.
         11    1    3    3    0    0  0.28772279783E+02 -0.20675184395E+02  0.11210949976E+02  0.37161710581E+02  0.51100000000E-03 0. -1.
        -11    1    3    3    0    0  0.58756685743E+01 -0.21602917824E+01  0.36913753633E+01  0.72675026050E+01  0.51100000000E-03 0.  1.
         12    1    3    3    0    0  0.15709974851E+01  0.14971097905E+00 -0.66654931124E+00  0.17131066691E+01  0.00000000000E+00 0. -1.
</event>
<event>
 7    1  0.1381440E-008  0.4614232E+02  0.7816164E-02  0.1320468E+00
        -11   -1    0    0    0    0  0.00000000000E+00  0.00000000000E+00  0.45593999997E+02  0.45594000000E+02  0.51100000000E-03 0.  1.
         11   -1    0    0    0    0 -0.00000000000E+00 -0.00000000000E+00 -0.45593999997E+02  0.45594000000E+02  0.51100000000E-03 0. -1.
    9900012    2    1    2    0    0 -0.11059411146E+02 -0.24711109615E+02  0.36002277826E+02  0.46142317388E+02  0.99999965945E+01 0.  0.
         12    1    1    2    0    0  0.11059411146E+02  0.24711109615E+02 -0.36002277826E+02  0.45045682612E+02  0.00000000000E+00 0. -1.
         11    1    3    3    0    0  0.17440645207E+01 -0.45214908879E+01  0.74619458266E+01  0.88975432948E+01  0.51100000000E-03 0. -1.
        -11    1    3    3    0    0 -0.92021381059E+01 -0.14419553021E+02  0.21132688871E+02  0.27188111266E+02  0.51100000000E-03 0.  1.
         12    1    3    3    0    0 -0.36013375612E+01 -0.57700657063E+01  0.74076431289E+01  0.10056662827E+02  0.00000000000E+00 0. -1.
</event>
<event>
 7    1  0.1381440E-008  0.4614231E+02  0.7816164E-02  0.1320468E+00
        -11   -1    0    0    0    0  0.00000000000E+00  0.00000000000E+00  0.45593999997E+02  0.45594000000E+02  0.51100000000E-03 0. -1.
         11   -1    0    0    0    0 -0.00000000000E+00 -0.00000000000E+00 -0.45593999997E+02  0.45594000000E+02  0.51100000000E-03 0.  1.
    9900012    2    1    2    0    0 -0.19399554905E+02 -0.37173107259E+02 -0.16459985353E+02  0.46142314839E+02  0.99999733511E+01 0.  0.
         12    1    1    2    0    0  0.19399554905E+02  0.37173107259E+02  0.16459985353E+02  0.45045685161E+02  0.00000000000E+00 0. -1.
         11    1    3    3    0    0 -0.73673308487E+01 -0.97021655116E+01 -0.91424070410E+01  0.15231322537E+02  0.51100000000E-03 0.  1.
        -11    1    3    3    0    0 -0.62980300435E+01 -0.16136653540E+02 -0.38698015001E+01  0.17749144594E+02  0.51100000000E-03 0. -1.
        -12    1    3    3    0    0 -0.57341940124E+01 -0.11334288208E+02 -0.34477768121E+01  0.13161847708E+02  0.00000000000E+00 0.  1.
</event>
<event>
 7    1  0.1381440E-008  0.4614232E+02  0.7816164E-02  0.1320468E+00
        -11   -1    0    0    0    0  0.00000000000E+00  0.00000000000E+00  0.45593999997E+02  0.45594000000E+02  0.51100000000E-03 0. -1.
         11   -1    0    0    0    0 -0.00000000000E+00 -0.00000000000E+00 -0.45593999997E+02  0.45594000000E+02  0.51100000000E-03 0.  1.
    9900012    2    1    2    0    0 -0.22455417813E+02 -0.31061379586E+02 -0.23665550783E+02  0.46142318911E+02  0.10000010483E+02 0.  0.
         12    1    1    2    0    0  0.22455417813E+02  0.31061379586E+02  0.23665550783E+02  0.45045681089E+02  0.00000000000E+00 0. -1.
         11    1    3    3    0    0 -0.66190777557E+00 -0.57762347286E+01 -0.55143103258E+01  0.80131534476E+01  0.51100000000E-03 0. -1.
        -11    1    3    3    0    0 -0.19777944330E+02 -0.22179452311E+02 -0.17076481637E+02  0.34273917373E+02  0.51100000000E-03 0.  1.
        -12    1    3    3    0    0 -0.20155657077E+01 -0.31056925462E+01 -0.10747588195E+01  0.38552480898E+01  0.00000000000E+00 0.  1.
</event>
<event>
 7    1  0.1381440E-008  0.4614231E+02  0.7816164E-02  0.1320468E+00
        -11   -1    0    0    0    0  0.00000000000E+00  0.00000000000E+00  0.45593999997E+02  0.45594000000E+02  0.51100000000E-03 0.  1.
         11   -1    0    0    0    0 -0.00000000000E+00 -0.00000000000E+00 -0.45593999997E+02  0.45594000000E+02  0.51100000000E-03 0. -1.
    9900012    2    1    2    0    0 -0.35954657553E+01  0.37267212270E+02 -0.25046781426E+02  0.46142314922E+02  0.99999741085E+01 0.  0.
         12    1    1    2    0    0  0.35954657553E+01 -0.37267212270E+02  0.25046781426E+02  0.45045685078E+02  0.00000000000E+00 0. -1.
         11    1    3    3    0    0 -0.18439622752E+01  0.24721896316E+01 -0.14690730671E+01  0.34161519849E+01  0.51100000000E-03 0. -1.
        -11    1    3    3    0    0 -0.35811307281E+01  0.28566579359E+02 -0.16764557068E+02  0.33315526823E+02  0.51100000000E-03 0.  1.
        -12    1    3    3    0    0  0.18296272480E+01  0.62284432795E+01 -0.68131512906E+01  0.94106361135E+01  0.00000000000E+00 0.  1.
</event>
<event>
 7    1  0.1381440E-008  0.4614231E+02  0.7816164E-02  0.1320468E+00
        -11   -1    0    0    0    0  0.00000000000E+00  0.00000000000E+00  0.45593999997E+02  0.45594000000E+02  0.51100000000E-03 0.  1.
         11   -1    0    0    0    0 -0.00000000000E+00 -0.00000000000E+00 -0.45593999997E+02  0.45594000000E+02  0.51100000000E-03 0. -1.
    9900012    2    1    2    0    0  0.33324362937E+02 -0.10409395555E+02  0.28464817592E+02  0.46142306293E+02  0.99998954239E+01 0.  0.
         12    1    1    2    0    0 -0.33324362937E+02  0.10409395555E+02 -0.28464817592E+02  0.45045693707E+02  0.00000000000E+00 0. -1.
         11    1    3    3    0    0  0.14383993774E+02 -0.18583687737E+01  0.15877197609E+02  0.21504376661E+02  0.51100000000E-03 0. -1.
        -11    1    3    3    0    0  0.14214255360E+02 -0.43757155461E+01  0.89415896098E+01  0.17353500137E+02  0.51100000000E-03 0.  1.
         12    1    3    3    0    0  0.47261138037E+01 -0.41753112355E+01  0.36460303729E+01  0.72844294958E+01  0.00000000000E+00 0. -1.
</event>
<event>
 7    1  0.1381440E-008  0.4614232E+02  0.7816164E-02  0.1320468E+00
        -11   -1    0    0    0    0  0.00000000000E+00  0.00000000000E+00  0.45593999997E+02  0.45594000000E+02  0.51100000000E-03 0.  1.
         11   -1    0    0    0    0 -0.00000000000E+00 -0.00000000000E+00 -0.45593999997E+02  0.45594000000E+02  0.51100000000E-03 0. -1.
    9900012    2    1    2    0    0 -0.22589308469E+02 -0.10818267074E+02  0.37440635449E+02  0.46142323821E+02  0.10000055260E+02 0.  0.
         12    1    1    2    0    0  0.22589308469E+02  0.10818267074E+02 -0.37440635449E+02  0.45045676179E+02  0.00000000000E+00 0. -1.
         11    1    3    3    0    0  0.73243368589E-01 -0.51544309617E+00  0.19295220684E+01  0.19985249185E+01  0.51100000000E-03 0. -1.
        -11    1    3    3    0    0 -0.11976934029E+02 -0.64590837485E+01  0.12474173659E+02  0.18460003260E+02  0.51100000000E-03 0.  1.
        -12    1    3    3    0    0 -0.10685617809E+02 -0.38437402290E+01  0.23036939721E+02  0.25683795643E+02  0.00000000000E+00 0.  1.
</event>
<event>
 7    1  0.1381440E-008  0.4614232E+02  0.7816164E-02  0.1320468E+00
        -11   -1    0    0    0    0  0.00000000000E+00  0.00000000000E+00  0.45593999997E+02  0.45594000000E+02  0.51100000000E-03 0.  1.
         11   -1    0    0    0    0 -0.00000000000E+00 -0.00000000000E+00 -0.45593999997E+02  0.45594000000E+02  0.51100000000E-03 0. -1.
    9900012    2    1    2    0    0  0.33714053860E+01 -0.21677539711E+02  0.39342488182E+02  0.46142317870E+02  0.10000000989E+02 0.  0.
         12    1    1    2    0    0 -0.33714053860E+01  0.21677539711E+02 -0.39342488182E+02  0.45045682130E+02  0.00000000000E+00 0. -1.
         11    1    3    3    0    0 -0.12673889774E+00 -0.34932763465E+00  0.83432760687E-01  0.38085933257E+00  0.51100000000E-03 0. -1.
        -11    1    3    3    0    0 -0.18204115559E+01 -0.87360834021E+01  0.22028367085E+02  0.23767246541E+02  0.51100000000E-03 0.  1.
        -12    1    3    3    0    0  0.53185558396E+01 -0.12592128675E+02  0.17230688337E+02  0.21994211996E+02  0.00000000000E+00 0.  1.
</event>
<event>
 7    1  0.1381440E-008  0.4614232E+02  0.7816164E-02  0.1320468E+00
        -11   -1    0    0    0    0  0.00000000000E+00  0.00000000000E+00  0.45593999997E+02  0.45594000000E+02  0.51100000000E-03 0. -1.
         11   -1    0    0    0    0 -0.00000000000E+00 -0.00000000000E+00 -0.45593999997E+02  0.45594000000E+02  0.51100000000E-03 0.  1.
    9900012    2    1    2    0    0  0.10267529433E+02 -0.32390235178E+02 -0.29573028665E+02  0.46142317410E+02  0.99999968011E+01 0.  0.
         12    1    1    2    0    0 -0.10267529433E+02  0.32390235178E+02  0.29573028665E+02  0.45045682590E+02  0.00000000000E+00 0. -1.
         11    1    3    3    0    0 -0.80631883658E+00 -0.31208237388E+01 -0.11582252188E+01  0.34250805528E+01  0.51100000000E-03 0. -1.
        -11    1    3    3    0    0  0.79703475444E+01 -0.14883735393E+02 -0.12267362932E+02  0.20869600207E+02  0.51100000000E-03 0.  1.
        -12    1    3    3    0    0  0.31035007252E+01 -0.14385676047E+02 -0.16147440514E+02  0.21847636651E+02  0.00000000000E+00 0.  1.
</event>
<event>
 7    1  0.1381440E-008  0.4614232E+02  0.7816164E-02  0.1320468E+00
        -11   -1    0    0    0    0  0.00000000000E+00  0.00000000000E+00  0.45593999997E+02  0.45594000000E+02  0.51100000000E-03 0.  1.
         11   -1    0    0    0    0 -0.00000000000E+00 -0.00000000000E+00 -0.45593999997E+02  0.45594000000E+02  0.51100000000E-03 0. -1.
    9900012    2    1    2    0    0  0.35540350942E+01  0.12656169772E+02  0.43084845003E+02  0.46142315771E+02  0.99999818513E+01 0.  0.
         12    1    1    2    0    0 -0.35540350942E+01 -0.12656169772E+02 -0.43084845003E+02  0.45045684229E+02  0.00000000000E+00 0. -1.
         11    1    3    3    0    0  0.24585346360E+01  0.80595720563E+01  0.14867150672E+02  0.17088980767E+02  0.51100000000E-03 0. -1.
        -11    1    3    3    0    0  0.20941068228E+01  0.43363513368E-01  0.11897963415E+02  0.12080922873E+02  0.51100000000E-03 0.  1.
        -12    1    3    3    0    0 -0.99860636461E+00  0.45532342025E+01  0.16319730916E+02  0.16972412131E+02  0.00000000000E+00 0.  1.
</event>
<event>
 7    1  0.1381440E-008  0.4614232E+02  0.7816164E-02  0.1320468E+00
        -11   -1    0    0    0    0  0.00000000000E+00  0.00000000000E+00  0.45593999997E+02  0.45594000000E+02  0.51100000000E-03 0.  1.
         11   -1    0    0    0    0 -0.00000000000E+00 -0.00000000000E+00 -0.45593999997E+02  0.45594000000E+02  0.51100000000E-03 0. -1.
    9900012    2    1    2    0    0 -0.24689483303E+02  0.88588261743E+01  0.36620541707E+02  0.46142318055E+02  0.10000002679E+02 0.  0.
         12    1    1    2    0    0  0.24689483303E+02 -0.88588261743E+01 -0.36620541707E+02  0.45045681945E+02  0.00000000000E+00 0. -1.
         11    1    3    3    0    0 -0.11671614478E+02  0.38839006635E+01  0.23577582700E+02  0.26593489337E+02  0.51100000000E-03 0. -1.
        -11    1    3    3    0    0 -0.11395633685E+02  0.54366075864E+01  0.10149551459E+02  0.16199708770E+02  0.51100000000E-03 0.  1.
        -12    1    3    3    0    0 -0.16222351410E+01 -0.46168207562E+00  0.28934075480E+01  0.33491199486E+01  0.00000000000E+00 0.  1.
</event>
<event>
 7    1  0.1381440E-008  0.4614232E+02  0.7816164E-02  0.1320468E+00
        -11   -1    0    0    0    0  0.00000000000E+00  0.00000000000E+00  0.45593999997E+02  0.45594000000E+02  0.51100000000E-03 0.  1.
         11   -1    0    0    0    0 -0.00000000000E+00 -0.00000000000E+00 -0.45593999997E+02  0.45594000000E+02  0.51100000000E-03 0. -1.
    9900012    2    1    2    0    0 -0.17159488339E+02 -0.80709751993E+01  0.40859818938E+02  0.46142317806E+02  0.10000000407E+02 0.  0.
         12    1    1    2    0    0  0.17159488339E+02  0.80709751993E+01 -0.40859818938E+02  0.45045682194E+02  0.00000000000E+00 0. -1.
         11    1    3    3    0    0  0.10461697611E+01 -0.32356871327E+00  0.25831364521E+01  0.28056660658E+01  0.51100000000E-03 0. -1.
        -11    1    3    3    0    0 -0.14056201864E+02 -0.52763939385E+01  0.32547414256E+02  0.35843427834E+02  0.51100000000E-03 0.  1.
        -12    1    3    3    0    0 -0.41494562365E+01 -0.24710125476E+01  0.57292682292E+01  0.74932239064E+01  0.00000000000E+00 0.  1.
</event>
<event>
 7    1  0.1381440E-008  0.4614232E+02  0.7816164E-02  0.1320468E+00
        -11   -1    0    0    0    0  0.00000000000E+00  0.00000000000E+00  0.45593999997E+02  0.45594000000E+02  0.51100000000E-03 0.  1.
         11   -1    0    0    0    0 -0.00000000000E+00 -0.00000000000E+00 -0.45593999997E+02  0.45594000000E+02  0.51100000000E-03 0. -1.
    9900012    2    1    2    0    0 -0.17803462812E+02 -0.80990115224E+00  0.41370210088E+02  0.46142317513E+02  0.99999977396E+01 0.  0.
         12    1    1    2    0    0  0.17803462812E+02  0.80990115224E+00 -0.41370210088E+02  0.45045682487E+02  0.00000000000E+00 0. -1.
         11    1    3    3    0    0  0.18093027287E+00 -0.10283289275E+01  0.21951499998E+01  0.24308187776E+01  0.51100000000E-03 0. -1.
        -11    1    3    3    0    0 -0.58678508568E+01  0.31307061788E+01  0.17323767111E+02  0.18556559542E+02  0.51100000000E-03 0.  1.
        -12    1    3    3    0    0 -0.12116542228E+02 -0.29122784035E+01  0.21851292977E+02  0.25154939193E+02  0.00000000000E+00 0.  1.
</event>
<event>
 7    1  0.1381440E-008  0.4614232E+02  0.7816164E-02  0.1320468E+00
        -11   -1    0    0    0    0  0.00000000000E+00  0.00000000000E+00  0.45593999997E+02  0.45594000000E+02  0.51100000000E-03 0.  1.
         11   -1    0    0    0    0 -0.00000000000E+00 -0.00000000000E+00 -0.45593999997E+02  0.45594000000E+02  0.51100000000E-03 0. -1.
    9900012    2    1    2    0    0  0.28460525365E+02  0.23830309979E+01  0.34834367064E+02  0.46142317970E+02  0.10000001906E+02 0.  0.
         12    1    1    2    0    0 -0.28460525365E+02 -0.23830309979E+01 -0.34834367064E+02  0.45045682030E+02  0.00000000000E+00 0. -1.
         11    1    3    3    0    0  0.21047379542E+02 -0.14787261167E+00  0.21152190466E+02  0.29840060550E+02  0.51100000000E-03 0. -1.
        -11    1    3    3    0    0  0.34030281294E+01  0.13309248297E+01  0.10273898769E+02  0.10904354979E+02  0.51100000000E-03 0.  1.
         12    1    3    3    0    0  0.40101176944E+01  0.11999787799E+01  0.34082778296E+01  0.53979024406E+01  0.00000000000E+00 0. -1.
</event>
<event>
 7    1  0.1381440E-008  0.4614232E+02  0.7816164E-02  0.1320468E+00
        -11   -1    0    0    0    0  0.00000000000E+00  0.00000000000E+00  0.45593999997E+02  0.45594000000E+02  0.51100000000E-03 0. -1.
         11   -1    0    0    0    0 -0.00000000000E+00 -0.00000000000E+00 -0.45593999997E+02  0.45594000000E+02  0.51100000000E-03 0.  1.
    9900012    2    1    2    0    0  0.19771388384E+02 -0.18913467965E+02 -0.35783885623E+02  0.46142317194E+02  0.99999948326E+01 0.  0.
         12    1    1    2    0    0 -0.19771388384E+02  0.18913467965E+02  0.35783885623E+02  0.45045682806E+02  0.00000000000E+00 0. -1.
         11    1    3    3    0    0  0.56317268408E+01 -0.49879351736E+01 -0.55680651241E+01  0.93594441071E+01  0.51100000000E-03 0. -1.
        -11    1    3    3    0    0  0.96177389380E+01 -0.96303773566E+01 -0.14561507574E+02  0.19931948560E+02  0.51100000000E-03 0.  1.
        -12    1    3    3    0    0  0.45219226051E+01 -0.42951554353E+01 -0.15654312926E+02  0.16850924528E+02  0.00000000000E+00 0.  1.
</event>
<event>
 7    1  0.1381440E-008  0.4614232E+02  0.7816164E-02  0.1320468E+00
        -11   -1    0    0    0    0  0.00000000000E+00  0.00000000000E+00  0.45593999997E+02  0.45594000000E+02  0.51100000000E-03 0.  1.
         11   -1    0    0    0    0 -0.00000000000E+00 -0.00000000000E+00 -0.45593999997E+02  0.45594000000E+02  0.51100000000E-03 0. -1.
    9900012    2    1    2    0    0  0.41736895523E+02  0.67045482263E+01  0.15562582458E+02  0.46142318880E+02  0.10000010202E+02 0.  0.
         12    1    1    2    0    0 -0.41736895523E+02 -0.67045482263E+01 -0.15562582458E+02  0.45045681120E+02  0.00000000000E+00 0. -1.
         11    1    3    3    0    0  0.42982296594E+01 -0.11710866432E+01  0.17591649399E+01  0.47896642553E+01  0.51100000000E-03 0. -1.
        -11    1    3    3    0    0  0.35969791164E+02  0.69680363056E+01  0.11357082695E+02  0.38358346340E+02  0.51100000000E-03 0.  1.
        -12    1    3    3    0    0  0.14688746998E+01  0.90759856388E+00  0.24463348237E+01  0.29943082851E+01  0.00000000000E+00 0.  1.
</event>
<event>
 7    1  0.1381440E-008  0.4614232E+02  0.7816164E-02  0.1320468E+00
        -11   -1    0    0    0    0  0.00000000000E+00  0.00000000000E+00  0.45593999997E+02  0.45594000000E+02  0.51100000000E-03 0. -1.
         11   -1    0    0    0    0 -0.00000000000E+00 -0.00000000000E+00 -0.45593999997E+02  0.45594000000E+02  0.51100000000E-03 0.  1.
    9900012    2    1    2    0    0 -0.40720844990E+02  0.19002398961E+02 -0.31361026408E+01  0.46142317379E+02  0.99999965166E+01 0.  0.
         12    1    1    2    0    0  0.40720844990E+02 -0.19002398961E+02  0.31361026408E+01  0.45045682621E+02  0.00000000000E+00 0. -1.
         11    1    3    3    0    0 -0.23031046341E+01 -0.12448776305E+00 -0.41321784115E+00  0.23431895792E+01  0.51100000000E-03 0. -1.
        -11    1    3    3    0    0 -0.91316552958E+01  0.13218163415E+01  0.11875799779E+01  0.93029389629E+01  0.51100000000E-03 0.  1.
        -12    1    3    3    0    0 -0.29286085060E+02  0.17805070383E+02 -0.39104647776E+01  0.34496188837E+02  0.00000000000E+00 0.  1.
</event>
<event>
 7    1  0.1381440E-008  0.4614232E+02  0.7816164E-02  0.1320468E+00
        -11   -1    0    0    0    0  0.00000000000E+00  0.00000000000E+00  0.45593999997E+02  0.45594000000E+02  0.51100000000E-03 0.  1.
         11   -1    0    0    0    0 -0.00000000000E+00 -0.00000000000E+00 -0.45593999997E+02  0.45594000000E+02  0.51100000000E-03 0. -1.
    9900012    2    1    2    0    0 -0.14759823632E+02 -0.36541218724E+02  0.21817432850E+02  0.46142318347E+02  0.10000005339E+02 0.  0.
         12    1    1    2    0    0  0.14759823632E+02  0.36541218724E+02 -0.21817432850E+02  0.45045681653E+02  0.00000000000E+00 0. -1.
         11    1    3    3    0    0  0.13065681103E+00 -0.85368766596E+00 -0.74160090375E+00  0.11383435311E+01  0.51100000000E-03 0. -1.
        -11    1    3    3    0    0 -0.12540779449E+02 -0.26207169530E+02  0.15307150290E+02  0.32838936253E+02  0.51100000000E-03 0.  1.
        -12    1    3    3    0    0 -0.23497009940E+01 -0.94803615278E+01  0.72518834636E+01  0.12165038563E+02  0.00000000000E+00 0.  1.
</event>
<event>
 7    1  0.1381440E-008  0.4614232E+02  0.7816164E-02  0.1320468E+00
        -11   -1    0    0    0    0  0.00000000000E+00  0.00000000000E+00  0.45593999997E+02  0.45594000000E+02  0.51100000000E-03 0.  1.
         11   -1    0    0    0    0 -0.00000000000E+00 -0.00000000000E+00 -0.45593999997E+02  0.45594000000E+02  0.51100000000E-03 0. -1.
    9900012    2    1    2    0    0 -0.24370447038E+02  0.36569418650E+01  0.37707050481E+02  0.46142316870E+02  0.99999918749E+01 0.  0.
         12    1    1    2    0    0  0.24370447038E+02 -0.36569418650E+01 -0.37707050481E+02  0.45045683130E+02  0.00000000000E+00 0. -1.
         11    1    3    3    0    0 -0.18475475685E+01  0.29829601256E+01  0.50385882505E+01  0.61399393277E+01  0.51100000000E-03 0. -1.
        -11    1    3    3    0    0 -0.18780275599E+02 -0.40302465541E+00  0.23826945268E+02  0.30341135468E+02  0.51100000000E-03 0.  1.
        -12    1    3    3    0    0 -0.37426238711E+01  0.10770063949E+01  0.88415169624E+01  0.96612420739E+01  0.00000000000E+00 0.  1.
</event>
<event>
 7    1  0.1381440E-008  0.4614232E+02  0.7816164E-02  0.1320468E+00
        -11   -1    0    0    0    0  0.00000000000E+00  0.00000000000E+00  0.45593999997E+02  0.45594000000E+02  0.51100000000E-03 0. -1.
         11   -1    0    0    0    0 -0.00000000000E+00 -0.00000000000E+00 -0.45593999997E+02  0.45594000000E+02  0.51100000000E-03 0.  1.
    9900012    2    1    2    0    0  0.36874486360E+02 -0.14523266609E+02 -0.21411690384E+02  0.46142317606E+02  0.99999985839E+01 0.  0.
         12    1    1    2    0    0 -0.36874486360E+02  0.14523266609E+02  0.21411690384E+02  0.45045682394E+02  0.00000000000E+00 0. -1.
         11    1    3    3    0    0  0.19224709045E+02 -0.92390996722E+01 -0.12494208573E+02  0.24719539817E+02  0.51100000000E-03 0. -1.
        -11    1    3    3    0    0  0.12549766940E+02 -0.47912527851E+01 -0.33263275855E+01  0.13838974275E+02  0.51100000000E-03 0.  1.
         12    1    3    3    0    0  0.51000103740E+01 -0.49291415174E+00 -0.55911542251E+01  0.75838035144E+01  0.00000000000E+00 0. -1.
</event>
<event>
 7    1  0.1381440E-008  0.4614232E+02  0.7816164E-02  0.1320468E+00
        -11   -1    0    0    0    0  0.00000000000E+00  0.00000000000E+00  0.45593999997E+02  0.45594000000E+02  0.51100000000E-03 0.  1.
         11   -1    0    0    0    0 -0.00000000000E+00 -0.00000000000E+00 -0.45593999997E+02  0.45594000000E+02  0.51100000000E-03 0. -1.
    9900012    2    1    2    0    0 -0.27421526679E+02  0.70310428805E+01  0.35039089918E+02  0.46142317502E+02  0.99999976417E+01 0.  0.
         12    1    1    2    0    0  0.27421526679E+02 -0.70310428805E+01 -0.35039089918E+02  0.45045682498E+02  0.00000000000E+00 0. -1.
         11    1    3    3    0    0 -0.13381881973E+01  0.17048345975E+01  0.10860486767E+00  0.21700239479E+01  0.51100000000E-03 0. -1.
        -11    1    3    3    0    0 -0.20286672284E+02  0.45095730894E+01  0.25840897907E+02  0.33160779948E+02  0.51100000000E-03 0.  1.
        -12    1    3    3    0    0 -0.57966661971E+01  0.81663519362E+00  0.90895871431E+01  0.10811513607E+02  0.00000000000E+00 0.  1.
</event>
<event>
 7    1  0.1381440E-008  0.4614232E+02  0.7816164E-02  0.1320468E+00
        -11   -1    0    0    0    0  0.00000000000E+00  0.00000000000E+00  0.45593999997E+02  0.45594000000E+02  0.51100000000E-03 0. -1.
         11   -1    0    0    0    0 -0.00000000000E+00 -0.00000000000E+00 -0.45593999997E+02  0.45594000000E+02  0.51100000000E-03 0.  1.
    9900012    2    1    2    0    0 -0.33497645504E+02 -0.92531819589E+01 -0.28660072867E+02  0.46142318659E+02  0.10000008190E+02 0.  0.
         12    1    1    2    0    0  0.33497645504E+02  0.92531819589E+01  0.28660072867E+02  0.45045681341E+02  0.00000000000E+00 0. -1.
         11    1    3    3    0    0 -0.88854162541E+01 -0.12981038385E+01 -0.26291812816E+01  0.93567243230E+01  0.51100000000E-03 0. -1.
        -11    1    3    3    0    0 -0.22252971410E+02 -0.63628261415E+01 -0.23265327086E+02  0.32817003791E+02  0.51100000000E-03 0.  1.
         12    1    3    3    0    0 -0.23592578398E+01 -0.15922519789E+01 -0.27655644993E+01  0.39685905456E+01  0.00000000000E+00 0. -1.
</event>
<event>
 7    1  0.1381440E-008  0.4614232E+02  0.7816164E-02  0.1320468E+00
        -11   -1    0    0    0    0  0.00000000000E+00  0.00000000000E+00  0.45593999997E+02  0.45594000000E+02  0.51100000000E-03 0.  1.
         11   -1    0    0    0    0 -0.00000000000E+00 -0.00000000000E+00 -0.45593999997E+02  0.45594000000E+02  0.51100000000E-03 0. -1.
    9900012    2    1    2    0    0 -0.25153529837E+02  0.28581981819E+02  0.24072469163E+02  0.46142317415E+02  0.99999968412E+01 0.  0.
         12    1    1    2    0    0  0.25153529837E+02 -0.28581981819E+02 -0.24072469163E+02  0.45045682585E+02  0.00000000000E+00 0. -1.
         11    1    3    3    0    0 -0.11006116444E+02  0.16420060893E+02  0.77747469077E+01  0.21241461547E+02  0.51100000000E-03 0. -1.
        -11    1    3    3    0    0 -0.82554494131E+01  0.54342890233E+01  0.85781280415E+01  0.13086948581E+02  0.51100000000E-03 0.  1.
         12    1    3    3    0    0 -0.58919639797E+01  0.67276319034E+01  0.77195942133E+01  0.11813907287E+02  0.00000000000E+00 0. -1.
</event>
<event>
 7    1  0.1381440E-008  0.4614232E+02  0.7816164E-02  0.1320468E+00
        -11   -1    0    0    0    0  0.00000000000E+00  0.00000000000E+00  0.45593999997E+02  0.45594000000E+02  0.51100000000E-03 0.  1.
         11   -1    0    0    0    0 -0.00000000000E+00 -0.00000000000E+00 -0.45593999997E+02  0.45594000000E+02  0.51100000000E-03 0. -1.
    9900012    2    1    2    0    0 -0.60806379601E+00  0.53084201809E+01  0.44727670238E+02  0.46142317063E+02  0.99999936309E+01 0.  0.
         12    1    1    2    0    0  0.60806379601E+00 -0.53084201809E+01 -0.44727670238E+02  0.45045682937E+02  0.00000000000E+00 0. -1.
         11    1    3    3    0    0 -0.29516584914E+01  0.12058167428E+01  0.76004159962E+01  0.82421238430E+01  0.51100000000E-03 0. -1.
        -11    1    3    3    0    0 -0.10770635400E+01  0.36867445114E+01  0.24983577748E+02  0.25277090582E+02  0.51100000000E-03 0.  1.
        -12    1    3    3    0    0  0.34206582354E+01  0.41585892672E+00  0.12143676494E+02  0.12623102637E+02  0.00000000000E+00 0.  1.
</event>
<event>
 7    1  0.1381440E-008  0.4614232E+02  0.7816164E-02  0.1320468E+00
        -11   -1    0    0    0    0  0.00000000000E+00  0.00000000000E+00  0.45593999997E+02  0.45594000000E+02  0.51100000000E-03 0.  1.
         11   -1    0    0    0    0 -0.00000000000E+00 -0.00000000000E+00 -0.45593999997E+02  0.45594000000E+02  0.51100000000E-03 0. -1.
    9900012    2    1    2    0    0 -0.52206349835E+01 -0.43936913541E+02 -0.84502036892E+01  0.46142319369E+02  0.10000014661E+02 0.  0.
         12    1    1    2    0    0  0.52206349835E+01  0.43936913541E+02  0.84502036892E+01  0.45045680631E+02  0.00000000000E+00 0. -1.
         11    1    3    3    0    0  0.13697341497E+01 -0.24438057559E+02 -0.26344345227E+01  0.24617779640E+02  0.51100000000E-03 0. -1.
        -11    1    3    3    0    0 -0.56100505033E+01 -0.18391884107E+02 -0.51725215409E+01  0.19912032719E+02  0.51100000000E-03 0.  1.
         12    1    3    3    0    0 -0.98031862997E+00 -0.11069718750E+01 -0.64324762562E+00  0.16125070097E+01  0.00000000000E+00 0. -1.
</event>
<event>
 7    1  0.1381440E-008  0.4614232E+02  0.7816164E-02  0.1320468E+00
        -11   -1    0    0    0    0  0.00000000000E+00  0.00000000000E+00  0.45593999997E+02  0.45594000000E+02  0.51100000000E-03 0. -1.
         11   -1    0    0    0    0 -0.00000000000E+00 -0.00000000000E+00 -0.45593999997E+02  0.45594000000E+02  0.51100000000E-03 0.  1.
    9900012    2    1    2    0    0  0.17246677308E+02  0.19886083614E+02 -0.36554196968E+02  0.46142317458E+02  0.99999972337E+01 0.  0.
         12    1    1    2    0    0 -0.17246677308E+02 -0.19886083614E+02  0.36554196968E+02  0.45045682542E+02  0.00000000000E+00 0. -1.
         11    1    3    3    0    0  0.11581683263E+02  0.15815115010E+02 -0.25667073856E+02  0.32296314504E+02  0.51100000000E-03 0. -1.
        -11    1    3    3    0    0  0.53624890359E+01  0.26106868408E+01 -0.50302922218E+01  0.78022954660E+01  0.51100000000E-03 0.  1.
         12    1    3    3    0    0  0.30250500968E+00  0.14602817632E+01 -0.58568308911E+01  0.60437074876E+01  0.00000000000E+00 0. -1.
</event>
<event>
 7    1  0.1381440E-008  0.4614232E+02  0.7816164E-02  0.1320468E+00
        -11   -1    0    0    0    0  0.00000000000E+00  0.00000000000E+00  0.45593999997E+02  0.45594000000E+02  0.51100000000E-03 0.  1.
         11   -1    0    0    0    0 -0.00000000000E+00 -0.00000000000E+00 -0.45593999997E+02  0.45594000000E+02  0.51100000000E-03 0. -1.
    9900012    2    1    2    0    0 -0.36742105067E+01  0.10016340250E+02  0.43763987969E+02  0.46142317212E+02  0.99999949954E+01 0.  0.
         12    1    1    2    0    0  0.36742105067E+01 -0.10016340250E+02 -0.43763987969E+02  0.45045682788E+02  0.00000000000E+00 0. -1.
         11    1    3    3    0    0 -0.56941962824E+01  0.25186858902E+01  0.18438957763E+02  0.19461829656E+02  0.51100000000E-03 0.  1.
        -11    1    3    3    0    0  0.25267989473E+01  0.32654868979E+01  0.12901136563E+02  0.13545753670E+02  0.51100000000E-03 0. -1.
         12    1    3    3    0    0 -0.50681317163E+00  0.42321674615E+01  0.12423893643E+02  0.13134733886E+02  0.00000000000E+00 0. -1.
</event>
<event>
 7    1  0.1381440E-008  0.4614232E+02  0.7816164E-02  0.1320468E+00
        -11   -1    0    0    0    0  0.00000000000E+00  0.00000000000E+00  0.45593999997E+02  0.45594000000E+02  0.51100000000E-03 0.  1.
         11   -1    0    0    0    0 -0.00000000000E+00 -0.00000000000E+00 -0.45593999997E+02  0.45594000000E+02  0.51100000000E-03 0. -1.
    9900012    2    1    2    0    0 -0.62949121190E+01 -0.43464891643E+02 -0.10014527905E+02  0.46142317707E+02  0.99999995044E+01 0.  0.
         12    1    1    2    0    0  0.62949121190E+01  0.43464891643E+02  0.10014527905E+02  0.45045682293E+02  0.00000000000E+00 0. -1.
         11    1    3    3    0    0  0.20273614448E+01 -0.20040378104E+02 -0.35692255574E+01  0.20456449357E+02  0.51100000000E-03 0. -1.
        -11    1    3    3    0    0 -0.40369143847E+01 -0.11916489563E+02 -0.30856242713E+01  0.12954554360E+02  0.51100000000E-03 0.  1.
         12    1    3    3    0    0 -0.42853591791E+01 -0.11508023976E+02 -0.33596780766E+01  0.12731313990E+02  0.00000000000E+00 0. -1.
</event>
<event>
 7    1  0.1381440E-008  0.4614232E+02  0.7816164E-02  0.1320468E+00
        -11   -1    0    0    0    0  0.00000000000E+00  0.00000000000E+00  0.45593999997E+02  0.45594000000E+02  0.51100000000E-03 0. -1.
         11   -1    0    0    0    0 -0.00000000000E+00 -0.00000000000E+00 -0.45593999997E+02  0.45594000000E+02  0.51100000000E-03 0.  1.
    9900012    2    1    2    0    0 -0.15909673276E+01 -0.40460262914E+02 -0.19737010000E+02  0.46142316346E+02  0.99999870987E+01 0.  0.
         12    1    1    2    0    0  0.15909673276E+01  0.40460262914E+02  0.19737010000E+02  0.45045683654E+02  0.00000000000E+00 0. -1.
         11    1    3    3    0    0  0.19916091166E+01 -0.13943582441E+02 -0.31699619654E+01  0.14437404797E+02  0.51100000000E-03 0. -1.
        -11    1    3    3    0    0  0.26197625513E-01 -0.11771606696E+02 -0.84525613887E+01  0.14491970357E+02  0.51100000000E-03 0.  1.
         12    1    3    3    0    0 -0.36087740697E+01 -0.14745073776E+02 -0.81144866457E+01  0.17212941192E+02  0.00000000000E+00 0. -1.
</event>
<event>
 7    1  0.1381440E-008  0.4614232E+02  0.7816164E-02  0.1320468E+00
        -11   -1    0    0    0    0  0.00000000000E+00  0.00000000000E+00  0.45593999997E+02  0.45594000000E+02  0.51100000000E-03 0.  1.
         11   -1    0    0    0    0 -0.00000000000E+00 -0.00000000000E+00 -0.45593999997E+02  0.45594000000E+02  0.51100000000E-03 0. -1.
    9900012    2    1    2    0    0  0.37888779283E+02  0.30720182184E+01  0.24168503821E+02  0.46142317982E+02  0.10000002012E+02 0.  0.
         12    1    1    2    0    0 -0.37888779283E+02 -0.30720182184E+01 -0.24168503821E+02  0.45045682018E+02  0.00000000000E+00 0. -1.
         11    1    3    3    0    0  0.14194612247E+02  0.27578649695E+01  0.45883487943E+01  0.15170556382E+02  0.51100000000E-03 0. -1.
        -11    1    3    3    0    0  0.16188486527E+02 -0.55933200264E+00  0.15329702404E+02  0.22302011666E+02  0.51100000000E-03 0.  1.
         12    1    3    3    0    0  0.75056805101E+01  0.87348525150E+00  0.42504526231E+01  0.86697499332E+01  0.00000000000E+00 0. -1.
</event>
<event>
 7    1  0.1381440E-008  0.4614232E+02  0.7816164E-02  0.1320468E+00
        -11   -1    0    0    0    0  0.00000000000E+00  0.00000000000E+00  0.45593999997E+02  0.45594000000E+02  0.51100000000E-03 0.  1.
         11   -1    0    0    0    0 -0.00000000000E+00 -0.00000000000E+00 -0.45593999997E+02  0.45594000000E+02  0.51100000000E-03 0. -1.
    9900012    2    1    2    0    0 -0.37960945519E+02 -0.18180574189E+02  0.16048262399E+02  0.46142318869E+02  0.10000010102E+02 0.  0.
         12    1    1    2    0    0  0.37960945519E+02  0.18180574189E+02 -0.16048262399E+02  0.45045681131E+02  0.00000000000E+00 0. -1.
         11    1    3    3    0    0 -0.30573229293E+02 -0.12805844283E+02  0.10026853671E+02  0.34630186139E+02  0.51100000000E-03 0.  1.
        -11    1    3    3    0    0  0.25844883987E+00 -0.93505728245E+00  0.60811797787E+00  0.11449609864E+01  0.51100000000E-03 0. -1.
         12    1    3    3    0    0 -0.76461650653E+01 -0.44396726231E+01  0.54132907507E+01  0.10367171743E+02  0.00000000000E+00 0. -1.
</event>
<event>
 7    1  0.1381440E-008  0.4614232E+02  0.7816164E-02  0.1320468E+00
        -11   -1    0    0    0    0  0.00000000000E+00  0.00000000000E+00  0.45593999997E+02  0.45594000000E+02  0.51100000000E-03 0.  1.
         11   -1    0    0    0    0 -0.00000000000E+00 -0.00000000000E+00 -0.45593999997E+02  0.45594000000E+02  0.51100000000E-03 0. -1.
    9900012    2    1    2    0    0  0.53097342424E+01  0.35650830547E+02  0.27017373971E+02  0.46142317713E+02  0.99999995647E+01 0.  0.
         12    1    1    2    0    0 -0.53097342424E+01 -0.35650830547E+02 -0.27017373971E+02  0.45045682287E+02  0.00000000000E+00 0. -1.
         11    1    3    3    0    0  0.16830899926E+01  0.42090505687E+01  0.65778462269E+01  0.79885517999E+01  0.51100000000E-03 0. -1.
        -11    1    3    3    0    0  0.19296212663E+01  0.14581029961E+02  0.59803342470E+01  0.15877476844E+02  0.51100000000E-03 0.  1.
        -12    1    3    3    0    0  0.16970229835E+01  0.16860750017E+02  0.14459193497E+02  0.22276289070E+02  0.00000000000E+00 0.  1.
</event>
<event>
 7    1  0.1381440E-008  0.4614232E+02  0.7816164E-02  0.1320468E+00
        -11   -1    0    0    0    0  0.00000000000E+00  0.00000000000E+00  0.45593999997E+02  0.45594000000E+02  0.51100000000E-03 0.  1.
         11   -1    0    0    0    0 -0.00000000000E+00 -0.00000000000E+00 -0.45593999997E+02  0.45594000000E+02  0.51100000000E-03 0. -1.
    9900012    2    1    2    0    0 -0.27377522378E+02  0.35650988183E+02  0.29311728508E+01  0.46142318028E+02  0.10000002437E+02 0.  0.
         12    1    1    2    0    0  0.27377522378E+02 -0.35650988183E+02 -0.29311728508E+01  0.45045681972E+02  0.00000000000E+00 0. -1.
         11    1    3    3    0    0 -0.78252912678E+01  0.51319970288E+01  0.24647838664E+01  0.96771760705E+01  0.51100000000E-03 0. -1.
        -11    1    3    3    0    0 -0.11779234680E+02  0.20592493110E+02  0.17746661094E+01  0.23789715891E+02  0.51100000000E-03 0.  1.
         12    1    3    3    0    0 -0.77729964310E+01  0.99264980443E+01 -0.13082771250E+01  0.12675426067E+02  0.00000000000E+00 0. -1.
</event>
<event>
 7    1  0.1381440E-008  0.4614232E+02  0.7816164E-02  0.1320468E+00
        -11   -1    0    0    0    0  0.00000000000E+00  0.00000000000E+00  0.45593999997E+02  0.45594000000E+02  0.51100000000E-03 0.  1.
         11   -1    0    0    0    0 -0.00000000000E+00 -0.00000000000E+00 -0.45593999997E+02  0.45594000000E+02  0.51100000000E-03 0. -1.
    9900012    2    1    2    0    0 -0.11546797005E+02  0.43258629770E+02 -0.49472972910E+01  0.46142319618E+02  0.10000016930E+02 0.  0.
         12    1    1    2    0    0  0.11546797005E+02 -0.43258629770E+02  0.49472972910E+01  0.45045680382E+02  0.00000000000E+00 0. -1.
         11    1    3    3    0    0  0.66189653504E+00  0.41798818377E+01 -0.23477549600E+01  0.48395736190E+01  0.51100000000E-03 0. -1.
        -11    1    3    3    0    0 -0.49013972678E+01  0.22478664098E+02 -0.27042158215E+01  0.23165207064E+02  0.51100000000E-03 0.  1.
         12    1    3    3    0    0 -0.73072962719E+01  0.16600083833E+02  0.10467349055E+00  0.18137538935E+02  0.00000000000E+00 0. -1.
</event>
<event>
 7    1  0.1381440E-008  0.4614232E+02  0.7816164E-02  0.1320468E+00
        -11   -1    0    0    0    0  0.00000000000E+00  0.00000000000E+00  0.45593999997E+02  0.45594000000E+02  0.51100000000E-03 0.  1.
         11   -1    0    0    0    0 -0.00000000000E+00 -0.00000000000E+00 -0.45593999997E+02  0.45594000000E+02  0.51100000000E-03 0. -1.
    9900012    2    1    2    0    0  0.18952633481E+02 -0.33090924442E+02  0.23977109359E+02  0.46142319080E+02  0.10000012028E+02 0.  0.
         12    1    1    2    0    0 -0.18952633481E+02  0.33090924442E+02 -0.23977109359E+02  0.45045680920E+02  0.00000000000E+00 0. -1.
         11    1    3    3    0    0  0.10050340363E+02 -0.11252571416E+02  0.10620691129E+02  0.18450712323E+02  0.51100000000E-03 0. -1.
        -11    1    3    3    0    0  0.31249272636E+01 -0.11833339449E+02  0.41655056047E+01  0.12928438812E+02  0.51100000000E-03 0.  1.
        -12    1    3    3    0    0  0.57773658544E+01 -0.10005013577E+02  0.91909126254E+01  0.14763167945E+02  0.00000000000E+00 0.  1.
</event>
<event>
 7    1  0.1381440E-008  0.4614232E+02  0.7816164E-02  0.1320468E+00
        -11   -1    0    0    0    0  0.00000000000E+00  0.00000000000E+00  0.45593999997E+02  0.45594000000E+02  0.51100000000E-03 0. -1.
         11   -1    0    0    0    0 -0.00000000000E+00 -0.00000000000E+00 -0.45593999997E+02  0.45594000000E+02  0.51100000000E-03 0.  1.
    9900012    2    1    2    0    0  0.14636005308E+02  0.22451030812E+02 -0.36205690460E+02  0.46142318103E+02  0.10000003114E+02 0.  0.
         12    1    1    2    0    0 -0.14636005308E+02 -0.22451030812E+02  0.36205690460E+02  0.45045681897E+02  0.00000000000E+00 0. -1.
         11    1    3    3    0    0  0.90010469103E+01  0.16545287990E+02 -0.21570652672E+02  0.28636662814E+02  0.51100000000E-03 0. -1.
        -11    1    3    3    0    0  0.58421631491E+01  0.62319482262E+01 -0.14797792371E+02  0.17086331036E+02  0.51100000000E-03 0.  1.
         12    1    3    3    0    0 -0.20720475183E+00 -0.32620540435E+00  0.16275458238E+00  0.41932425293E+00  0.00000000000E+00 0. -1.
</event>
<event>
 7    1  0.1381440E-008  0.4614232E+02  0.7816164E-02  0.1320468E+00
        -11   -1    0    0    0    0  0.00000000000E+00  0.00000000000E+00  0.45593999997E+02  0.45594000000E+02  0.51100000000E-03 0.  1.
         11   -1    0    0    0    0 -0.00000000000E+00 -0.00000000000E+00 -0.45593999997E+02  0.45594000000E+02  0.51100000000E-03 0. -1.
    9900012    2    1    2    0    0  0.24876823098E+02  0.92734824537E+01  0.36390378941E+02  0.46142317813E+02  0.10000000471E+02 0.  0.
         12    1    1    2    0    0 -0.24876823098E+02 -0.92734824537E+01 -0.36390378941E+02  0.45045682187E+02  0.00000000000E+00 0. -1.
         11    1    3    3    0    0  0.18127082724E+01 -0.10989090801E+01  0.10288828039E+01  0.23562921153E+01  0.51100000000E-03 0. -1.
        -11    1    3    3    0    0  0.11027538243E+02  0.40326792484E+01  0.20603521953E+02  0.23714430601E+02  0.51100000000E-03 0.  1.
         12    1    3    3    0    0  0.12036576583E+02  0.63397122854E+01  0.14757974184E+02  0.20071595096E+02  0.00000000000E+00 0. -1.
</event>
<event>
 7    1  0.1381440E-008  0.4614232E+02  0.7816164E-02  0.1320468E+00
        -11   -1    0    0    0    0  0.00000000000E+00  0.00000000000E+00  0.45593999997E+02  0.45594000000E+02  0.51100000000E-03 0. -1.
         11   -1    0    0    0    0 -0.00000000000E+00 -0.00000000000E+00 -0.45593999997E+02  0.45594000000E+02  0.51100000000E-03 0.  1.
    9900012    2    1    2    0    0 -0.13849843764E+02 -0.27632361826E+02 -0.32768093314E+02  0.46142317279E+02  0.99999956060E+01 0.  0.
         12    1    1    2    0    0  0.13849843764E+02  0.27632361826E+02  0.32768093314E+02  0.45045682721E+02  0.00000000000E+00 0. -1.
         11    1    3    3    0    0 -0.19641140534E+01 -0.11532108839E+01 -0.16346511711E+01  0.28035199429E+01  0.51100000000E-03 0. -1.
        -11    1    3    3    0    0 -0.78937896739E+01 -0.23491192652E+02 -0.23069850547E+02  0.33858027883E+02  0.51100000000E-03 0.  1.
        -12    1    3    3    0    0 -0.39919400362E+01 -0.29879582897E+01 -0.80635915959E+01  0.94807694529E+01  0.00000000000E+00 0.  1.
</event>
<event>
 7    1  0.1381440E-008  0.4614232E+02  0.7816164E-02  0.1320468E+00
        -11   -1    0    0    0    0  0.00000000000E+00  0.00000000000E+00  0.45593999997E+02  0.45594000000E+02  0.51100000000E-03 0.  1.
         11   -1    0    0    0    0 -0.00000000000E+00 -0.00000000000E+00 -0.45593999997E+02  0.45594000000E+02  0.51100000000E-03 0. -1.
    9900012    2    1    2    0    0  0.35188276723E+02 -0.17184348300E+02  0.22262004602E+02  0.46142317697E+02  0.99999994179E+01 0.  0.
         12    1    1    2    0    0 -0.35188276723E+02  0.17184348300E+02 -0.22262004602E+02  0.45045682303E+02  0.00000000000E+00 0. -1.
         11    1    3    3    0    0  0.12337673047E+02 -0.75200287567E+01  0.94889302653E+01  0.17286087081E+02  0.51100000000E-03 0. -1.
        -11    1    3    3    0    0  0.38512019169E+01 -0.40710357073E+01  0.66656771118E+00  0.56435273286E+01  0.51100000000E-03 0.  1.
        -12    1    3    3    0    0  0.18999401759E+02 -0.55932838363E+01  0.12106506625E+02  0.23212703288E+02  0.00000000000E+00 0.  1.
</event>
<event>
 7    1  0.1381440E-008  0.4614232E+02  0.7816164E-02  0.1320468E+00
        -11   -1    0    0    0    0  0.00000000000E+00  0.00000000000E+00  0.45593999997E+02  0.45594000000E+02  0.51100000000E-03 0.  1.
         11   -1    0    0    0    0 -0.00000000000E+00 -0.00000000000E+00 -0.45593999997E+02  0.45594000000E+02  0.51100000000E-03 0. -1.
    9900012    2    1    2    0    0  0.20197453003E+02 -0.89177124549E+01  0.39263860413E+02  0.46142318323E+02  0.10000005120E+02 0.  0.
         12    1    1    2    0    0 -0.20197453003E+02  0.89177124549E+01 -0.39263860413E+02  0.45045681677E+02  0.00000000000E+00 0. -1.
         11    1    3    3    0    0  0.11866143438E+02 -0.71907966225E+01  0.15586765654E+02  0.20867682669E+02  0.51100000000E-03 0. -1.
        -11    1    3    3    0    0  0.73746948574E+01 -0.22295002722E+01  0.19687796692E+02  0.21141573606E+02  0.51100000000E-03 0.  1.
         12    1    3    3    0    0  0.95661470791E+00  0.50258443981E+00  0.39892980674E+01  0.41330620476E+01  0.00000000000E+00 0. -1.
</event>
<event>
 7    1  0.1381440E-008  0.4614232E+02  0.7816164E-02  0.1320468E+00
        -11   -1    0    0    0    0  0.00000000000E+00  0.00000000000E+00  0.45593999997E+02  0.45594000000E+02  0.51100000000E-03 0.  1.
         11   -1    0    0    0    0 -0.00000000000E+00 -0.00000000000E+00 -0.45593999997E+02  0.45594000000E+02  0.51100000000E-03 0. -1.
    9900012    2    1    2    0    0  0.18773010930E+02 -0.17455475318E+02  0.37040436249E+02  0.46142317904E+02  0.10000001302E+02 0.  0.
         12    1    1    2    0    0 -0.18773010930E+02  0.17455475318E+02 -0.37040436249E+02  0.45045682096E+02  0.00000000000E+00 0. -1.
         11    1    3    3    0    0  0.34722746878E+01 -0.26105625245E+01  0.87779944345E+01  0.97941265437E+01  0.51100000000E-03 0. -1.
        -11    1    3    3    0    0  0.12199833258E+02 -0.11534001425E+02  0.26720237483E+02  0.31556936033E+02  0.51100000000E-03 0.  1.
        -12    1    3    3    0    0  0.31009029844E+01 -0.33109113682E+01  0.15422043320E+01  0.47912553270E+01  0.00000000000E+00 0.  1.
</event>
<event>
 7    1  0.1381440E-008  0.4614232E+02  0.7816164E-02  0.1320468E+00
        -11   -1    0    0    0    0  0.00000000000E+00  0.00000000000E+00  0.45593999997E+02  0.45594000000E+02  0.51100000000E-03 0.  1.
         11   -1    0    0    0    0 -0.00000000000E+00 -0.00000000000E+00 -0.45593999997E+02  0.45594000000E+02  0.51100000000E-03 0. -1.
    9900012    2    1    2    0    0  0.40308395649E+02 -0.15529020096E+02  0.12774829016E+02  0.46142317839E+02  0.10000000714E+02 0.  0.
         12    1    1    2    0    0 -0.40308395649E+02  0.15529020096E+02 -0.12774829016E+02  0.45045682161E+02  0.00000000000E+00 0. -1.
         11    1    3    3    0    0  0.48981655903E+01 -0.42359002028E+00 -0.19465151478E+00  0.49202991910E+01  0.51100000000E-03 0. -1.
        -11    1    3    3    0    0  0.22345632217E+02 -0.59114882819E+01  0.67634076314E+01  0.24083534955E+02  0.51100000000E-03 0.  1.
        -12    1    3    3    0    0  0.13064597841E+02 -0.91939417940E+01  0.62060728993E+01  0.17138483693E+02  0.00000000000E+00 0.  1.
</event>
<event>
 7    1  0.1381440E-008  0.4614232E+02  0.7816164E-02  0.1320468E+00
        -11   -1    0    0    0    0  0.00000000000E+00  0.00000000000E+00  0.45593999997E+02  0.45594000000E+02  0.51100000000E-03 0.  1.
         11   -1    0    0    0    0 -0.00000000000E+00 -0.00000000000E+00 -0.45593999997E+02  0.45594000000E+02  0.51100000000E-03 0. -1.
    9900012    2    1    2    0    0 -0.20218502545E+02  0.29622975551E+02  0.27254446629E+02  0.46142318889E+02  0.10000010289E+02 0.  0.
         12    1    1    2    0    0  0.20218502545E+02 -0.29622975551E+02 -0.27254446629E+02  0.45045681111E+02  0.00000000000E+00 0. -1.
         11    1    3    3    0    0 -0.64754496286E-01  0.41810540744E+00 -0.76280379908E+00  0.87228159073E+00  0.51100000000E-03 0. -1.
        -11    1    3    3    0    0 -0.15503813211E+02  0.22180486814E+02  0.22568313705E+02  0.35237352386E+02  0.51100000000E-03 0.  1.
         12    1    3    3    0    0 -0.46499348375E+01  0.70243833296E+01  0.54489367223E+01  0.10032684913E+02  0.00000000000E+00 0. -1.
</event>
<event>
 7    1  0.1381440E-008  0.4614232E+02  0.7816164E-02  0.1320468E+00
        -11   -1    0    0    0    0  0.00000000000E+00  0.00000000000E+00  0.45593999997E+02  0.45594000000E+02  0.51100000000E-03 0.  1.
         11   -1    0    0    0    0 -0.00000000000E+00 -0.00000000000E+00 -0.45593999997E+02  0.45594000000E+02  0.51100000000E-03 0. -1.
    9900012    2    1    2    0    0 -0.16774522383E+02 -0.39204438735E+02  0.14516915102E+02  0.46142318278E+02  0.10000004712E+02 0.  0.
         12    1    1    2    0    0  0.16774522383E+02  0.39204438735E+02 -0.14516915102E+02  0.45045681722E+02  0.00000000000E+00 0. -1.
         11    1    3    3    0    0 -0.89589214377E+01 -0.12646527781E+02  0.63981405580E+01  0.16767025410E+02  0.51100000000E-03 0. -1.
        -11    1    3    3    0    0 -0.55562266148E+01 -0.24655322013E+02  0.71229654347E+01  0.26258202425E+02  0.51100000000E-03 0.  1.
        -12    1    3    3    0    0 -0.22593743303E+01 -0.19025889415E+01  0.99580910946E+00  0.31170904426E+01  0.00000000000E+00 0.  1.
</event>
<event>
 7    1  0.1381440E-008  0.4614232E+02  0.7816164E-02  0.1320468E+00
        -11   -1    0    0    0    0  0.00000000000E+00  0.00000000000E+00  0.45593999997E+02  0.45594000000E+02  0.51100000000E-03 0.  1.
         11   -1    0    0    0    0 -0.00000000000E+00 -0.00000000000E+00 -0.45593999997E+02  0.45594000000E+02  0.51100000000E-03 0. -1.
    9900012    2    1    2    0    0 -0.28255450254E+02 -0.31405084580E+01  0.34941097167E+02  0.46142317259E+02  0.99999954172E+01 0.  0.
         12    1    1    2    0    0  0.28255450254E+02  0.31405084580E+01 -0.34941097167E+02  0.45045682741E+02  0.00000000000E+00 0. -1.
         11    1    3    3    0    0 -0.87299604240E+00 -0.86288220735E+00  0.53601317161E+00  0.13394021708E+01  0.51100000000E-03 0. -1.
        -11    1    3    3    0    0 -0.84107547870E+01 -0.27656637758E+01  0.16429017753E+02  0.18662859288E+02  0.51100000000E-03 0.  1.
         12    1    3    3    0    0 -0.18971699425E+02  0.48803752519E+00  0.17976066242E+02  0.26140055800E+02  0.00000000000E+00 0. -1.
</event>
<event>
 7    1  0.1381440E-008  0.4614232E+02  0.7816164E-02  0.1320468E+00
        -11   -1    0    0    0    0  0.00000000000E+00  0.00000000000E+00  0.45593999997E+02  0.45594000000E+02  0.51100000000E-03 0. -1.
         11   -1    0    0    0    0 -0.00000000000E+00 -0.00000000000E+00 -0.45593999997E+02  0.45594000000E+02  0.51100000000E-03 0.  1.
    9900012    2    1    2    0    0 -0.19384485657E+01  0.34249048931E+02 -0.29195179101E+02  0.46142318540E+02  0.10000007098E+02 0.  0.
         12    1    1    2    0    0  0.19384485657E+01 -0.34249048931E+02  0.29195179101E+02  0.45045681460E+02  0.00000000000E+00 0. -1.
         11    1    3    3    0    0  0.24695058553E+01  0.15256115777E+02 -0.99363279398E+01  0.18373299675E+02  0.51100000000E-03 0. -1.
        -11    1    3    3    0    0 -0.26997023257E+01  0.10280833414E+02 -0.13518307819E+02  0.17196760593E+02  0.51100000000E-03 0.  1.
        -12    1    3    3    0    0 -0.17082520952E+01  0.87120997399E+01 -0.57405433419E+01  0.10572258271E+02  0.00000000000E+00 0.  1.
</event>
<event>
 7    1  0.1381440E-008  0.4614233E+02  0.7816164E-02  0.1320468E+00
        -11   -1    0    0    0    0  0.00000000000E+00  0.00000000000E+00  0.45593999997E+02  0.45594000000E+02  0.51100000000E-03 0. -1.
         11   -1    0    0    0    0 -0.00000000000E+00 -0.00000000000E+00 -0.45593999997E+02  0.45594000000E+02  0.51100000000E-03 0.  1.
    9900012    2    1    2    0    0 -0.26462075787E+02 -0.36317043879E+02  0.31533626668E+01  0.46142325100E+02  0.10000066923E+02 0.  0.
         12    1    1    2    0    0  0.26462075787E+02  0.36317043879E+02 -0.31533626668E+01  0.45045674900E+02  0.00000000000E+00 0. -1.
         11    1    3    3    0    0 -0.28660774392E+00 -0.19979397806E+01 -0.82277223853E+00  0.21796471695E+01  0.51100000000E-03 0. -1.
        -11    1    3    3    0    0 -0.19111809621E+02 -0.27300148971E+02  0.58368761009E+01  0.33832359122E+02  0.51100000000E-03 0.  1.
        -12    1    3    3    0    0 -0.70636584215E+01 -0.70189551275E+01 -0.18607411955E+01  0.10130318809E+02  0.00000000000E+00 0.  1.
</event>
<event>
 7    1  0.1381440E-008  0.4614232E+02  0.7816164E-02  0.1320468E+00
        -11   -1    0    0    0    0  0.00000000000E+00  0.00000000000E+00  0.45593999997E+02  0.45594000000E+02  0.51100000000E-03 0.  1.
         11   -1    0    0    0    0 -0.00000000000E+00 -0.00000000000E+00 -0.45593999997E+02  0.45594000000E+02  0.51100000000E-03 0. -1.
    9900012    2    1    2    0    0 -0.95228133297E+01 -0.35183396329E+02  0.26468059513E+02  0.46142317351E+02  0.99999962636E+01 0.  0.
         12    1    1    2    0    0  0.95228133297E+01  0.35183396329E+02 -0.26468059513E+02  0.45045682649E+02  0.00000000000E+00 0. -1.
         11    1    3    3    0    0 -0.92482574078E+00 -0.11538311706E+02  0.10045293637E+02  0.15326312805E+02  0.51100000000E-03 0. -1.
        -11    1    3    3    0    0  0.34224919427E+00  0.33676735040E+00  0.26639669281E+00  0.54910310356E+00  0.51100000000E-03 0.  1.
        -12    1    3    3    0    0 -0.89402367832E+01 -0.23981851973E+02  0.16156369183E+02  0.30266901443E+02  0.00000000000E+00 0.  1.
</event>
<event>
 7    1  0.1381440E-008  0.4614232E+02  0.7816164E-02  0.1320468E+00
        -11   -1    0    0    0    0  0.00000000000E+00  0.00000000000E+00  0.45593999997E+02  0.45594000000E+02  0.51100000000E-03 0.  1.
         11   -1    0    0    0    0 -0.00000000000E+00 -0.00000000000E+00 -0.45593999997E+02  0.45594000000E+02  0.51100000000E-03 0. -1.
    9900012    2    1    2    0    0  0.21661416961E+02  0.21253653645E+02  0.33289318020E+02  0.46142317940E+02  0.10000001633E+02 0.  0.
         12    1    1    2    0    0 -0.21661416961E+02 -0.21253653645E+02 -0.33289318020E+02  0.45045682060E+02  0.00000000000E+00 0. -1.
         11    1    3    3    0    0 -0.33017244118E+00  0.27444473204E+01  0.30063496739E+01  0.40840107197E+01  0.51100000000E-03 0. -1.
        -11    1    3    3    0    0  0.97772543028E+01  0.50328913281E+01  0.11639579167E+02  0.16012635644E+02  0.51100000000E-03 0.  1.
        -12    1    3    3    0    0  0.12214335099E+02  0.13476314997E+02  0.18643389179E+02  0.26045671577E+02  0.00000000000E+00 0.  1.
</event>
<event>
 7    1  0.1381440E-008  0.4614232E+02  0.7816164E-02  0.1320468E+00
        -11   -1    0    0    0    0  0.00000000000E+00  0.00000000000E+00  0.45593999997E+02  0.45594000000E+02  0.51100000000E-03 0.  1.
         11   -1    0    0    0    0 -0.00000000000E+00 -0.00000000000E+00 -0.45593999997E+02  0.45594000000E+02  0.51100000000E-03 0. -1.
    9900012    2    1    2    0    0  0.20536100180E+02  0.37695655476E+02  0.13653556094E+02  0.46142318227E+02  0.10000004249E+02 0.  0.
         12    1    1    2    0    0 -0.20536100180E+02 -0.37695655476E+02 -0.13653556094E+02  0.45045681773E+02  0.00000000000E+00 0. -1.
         11    1    3    3    0    0  0.15543680680E+02  0.20435461416E+02  0.65281573182E+01  0.26492091850E+02  0.51100000000E-03 0. -1.
        -11    1    3    3    0    0  0.52488790234E+01  0.17067138591E+02  0.66044024102E+01  0.19038279391E+02  0.51100000000E-03 0.  1.
         12    1    3    3    0    0 -0.25645952283E+00  0.19305546843E+00  0.52099636586E+00  0.61194698625E+00  0.00000000000E+00 0. -1.
</event>
<event>
 7    1  0.1381440E-008  0.4614232E+02  0.7816164E-02  0.1320468E+00
        -11   -1    0    0    0    0  0.00000000000E+00  0.00000000000E+00  0.45593999997E+02  0.45594000000E+02  0.51100000000E-03 0.  1.
         11   -1    0    0    0    0 -0.00000000000E+00 -0.00000000000E+00 -0.45593999997E+02  0.45594000000E+02  0.51100000000E-03 0. -1.
    9900012    2    1    2    0    0 -0.74935074656E+01  0.16884357679E+02  0.41083808638E+02  0.46142317404E+02  0.99999967424E+01 0.  0.
         12    1    1    2    0    0  0.74935074656E+01 -0.16884357679E+02 -0.41083808638E+02  0.45045682596E+02  0.00000000000E+00 0. -1.
         11    1    3    3    0    0  0.59686878774E+00  0.13093386984E+01  0.19945526539E+00  0.14527225616E+01  0.51100000000E-03 0. -1.
        -11    1    3    3    0    0 -0.43299533676E+01  0.11378167601E+02  0.24396523803E+02  0.27265391397E+02  0.51100000000E-03 0.  1.
        -12    1    3    3    0    0 -0.37604228857E+01  0.41968513798E+01  0.16487829569E+02  0.17424203445E+02  0.00000000000E+00 0.  1.
</event>
<event>
 7    1  0.1381440E-008  0.4614232E+02  0.7816164E-02  0.1320468E+00
        -11   -1    0    0    0    0  0.00000000000E+00  0.00000000000E+00  0.45593999997E+02  0.45594000000E+02  0.51100000000E-03 0.  1.
         11   -1    0    0    0    0 -0.00000000000E+00 -0.00000000000E+00 -0.45593999997E+02  0.45594000000E+02  0.51100000000E-03 0. -1.
    9900012    2    1    2    0    0  0.20525116966E+02 -0.38435038761E+02 -0.11427176486E+02  0.46142323254E+02  0.10000050091E+02 0.  0.
         12    1    1    2    0    0 -0.20525116966E+02  0.38435038761E+02  0.11427176486E+02  0.45045676746E+02  0.00000000000E+00 0. -1.
         11    1    3    3    0    0  0.12397880670E+02 -0.21006043569E+02 -0.61845424065E+01  0.25163661828E+02  0.51100000000E-03 0. -1.
        -11    1    3    3    0    0  0.16201722169E+01 -0.80717536068E+01  0.43738229022E+00  0.82443597586E+01  0.51100000000E-03 0.  1.
         12    1    3    3    0    0  0.65070640785E+01 -0.93572415856E+01 -0.56800163696E+01  0.12734301668E+02  0.00000000000E+00 0. -1.
</event>
<event>
 7    1  0.1381440E-008  0.4614232E+02  0.7816164E-02  0.1320468E+00
        -11   -1    0    0    0    0  0.00000000000E+00  0.00000000000E+00  0.45593999997E+02  0.45594000000E+02  0.51100000000E-03 0.  1.
         11   -1    0    0    0    0 -0.00000000000E+00 -0.00000000000E+00 -0.45593999997E+02  0.45594000000E+02  0.51100000000E-03 0. -1.
    9900012    2    1    2    0    0  0.35201459325E+02 -0.21790203036E+02  0.17752680647E+02  0.46142319218E+02  0.10000013287E+02 0.  0.
         12    1    1    2    0    0 -0.35201459325E+02  0.21790203036E+02 -0.17752680647E+02  0.45045680782E+02  0.00000000000E+00 0. -1.
         11    1    3    3    0    0  0.13781331473E+02 -0.12769003473E+02  0.89058669076E+01  0.20791512992E+02  0.51100000000E-03 0. -1.
        -11    1    3    3    0    0  0.15841095222E+02 -0.68452680712E+01  0.41723979821E+01  0.17754067083E+02  0.51100000000E-03 0.  1.
         12    1    3    3    0    0  0.55790326304E+01 -0.21759314909E+01  0.46744157569E+01  0.75967391434E+01  0.00000000000E+00 0. -1.
</event>
<event>
 7    1  0.1381440E-008  0.4614232E+02  0.7816164E-02  0.1320468E+00
        -11   -1    0    0    0    0  0.00000000000E+00  0.00000000000E+00  0.45593999997E+02  0.45594000000E+02  0.51100000000E-03 0.  1.
         11   -1    0    0    0    0 -0.00000000000E+00 -0.00000000000E+00 -0.45593999997E+02  0.45594000000E+02  0.51100000000E-03 0. -1.
    9900012    2    1    2    0    0 -0.25773933521E+02  0.13851773914E+02  0.34248301876E+02  0.46142317953E+02  0.10000001747E+02 0.  0.
         12    1    1    2    0    0  0.25773933521E+02 -0.13851773914E+02 -0.34248301876E+02  0.45045682047E+02  0.00000000000E+00 0. -1.
         11    1    3    3    0    0 -0.11825026221E+02  0.36187243991E+01  0.14701137447E+02  0.19210670313E+02  0.51100000000E-03 0. -1.
        -11    1    3    3    0    0 -0.88405619178E+01  0.94010880362E+01  0.11084781804E+02  0.17012006912E+02  0.51100000000E-03 0.  1.
        -12    1    3    3    0    0 -0.51083453822E+01  0.83196147864E+00  0.84623826259E+01  0.99196407270E+01  0.00000000000E+00 0.  1.
</event>
<event>
 7    1  0.1381440E-008  0.4614232E+02  0.7816164E-02  0.1320468E+00
        -11   -1    0    0    0    0  0.00000000000E+00  0.00000000000E+00  0.45593999997E+02  0.45594000000E+02  0.51100000000E-03 0.  1.
         11   -1    0    0    0    0 -0.00000000000E+00 -0.00000000000E+00 -0.45593999997E+02  0.45594000000E+02  0.51100000000E-03 0. -1.
    9900012    2    1    2    0    0 -0.12807580077E+02 -0.41343192160E+01  0.42988217273E+02  0.46142317331E+02  0.99999960761E+01 0.  0.
         12    1    1    2    0    0  0.12807580077E+02  0.41343192160E+01 -0.42988217273E+02  0.45045682669E+02  0.00000000000E+00 0. -1.
         11    1    3    3    0    0 -0.86930803259E+01 -0.26188021402E+01  0.26479184519E+02  0.27992409386E+02  0.51100000000E-03 0.  1.
        -11    1    3    3    0    0  0.12472729056E+01 -0.69319056307E+00  0.10639160611E+01  0.17799214882E+01  0.51100000000E-03 0. -1.
         12    1    3    3    0    0 -0.53617726564E+01 -0.82232651278E+00  0.15445116694E+02  0.16369986457E+02  0.00000000000E+00 0. -1.
</event>
<event>
 7    1  0.1381440E-008  0.4614233E+02  0.7816164E-02  0.1320468E+00
        -11   -1    0    0    0    0  0.00000000000E+00  0.00000000000E+00  0.45593999997E+02  0.45594000000E+02  0.51100000000E-03 0.  1.
         11   -1    0    0    0    0 -0.00000000000E+00 -0.00000000000E+00 -0.45593999997E+02  0.45594000000E+02  0.51100000000E-03 0. -1.
    9900012    2    1    2    0    0 -0.53692040903E+01  0.35245894246E+02  0.27532000513E+02  0.46142329109E+02  0.10000103483E+02 0.  0.
         12    1    1    2    0    0  0.53692040903E+01 -0.35245894246E+02 -0.27532000513E+02  0.45045670891E+02  0.00000000000E+00 0. -1.
         11    1    3    3    0    0 -0.41632690761E+01  0.55983839887E+01  0.30664896724E+01  0.76208970507E+01  0.51100000000E-03 0. -1.
        -11    1    3    3    0    0 -0.12049363873E+01  0.25156833147E+02  0.19715164767E+02  0.31984462598E+02  0.51100000000E-03 0.  1.
         12    1    3    3    0    0 -0.99862698554E-03  0.44906771102E+01  0.47503460738E+01  0.65369694604E+01  0.00000000000E+00 0. -1.
</event>
<event>
 7    1  0.1381440E-008  0.4614232E+02  0.7816164E-02  0.1320468E+00
        -11   -1    0    0    0    0  0.00000000000E+00  0.00000000000E+00  0.45593999997E+02  0.45594000000E+02  0.51100000000E-03 0.  1.
         11   -1    0    0    0    0 -0.00000000000E+00 -0.00000000000E+00 -0.45593999997E+02  0.45594000000E+02  0.51100000000E-03 0. -1.
    9900012    2    1    2    0    0  0.29997068484E+02 -0.24693334770E+02  0.22793162274E+02  0.46142321560E+02  0.10000034641E+02 0.  0.
         12    1    1    2    0    0 -0.29997068484E+02  0.24693334770E+02 -0.22793162274E+02  0.45045678440E+02  0.00000000000E+00 0. -1.
         11    1    3    3    0    0  0.24412865223E+01  0.52424210132E+00  0.99131841168E+00  0.26865260317E+01  0.51100000000E-03 0. -1.
        -11    1    3    3    0    0  0.24486648477E+02 -0.23811377452E+02  0.20516151339E+02  0.39843319589E+02  0.51100000000E-03 0.  1.
         12    1    3    3    0    0  0.30691334843E+01 -0.14061994193E+01  0.12856925233E+01  0.36124759398E+01  0.00000000000E+00 0. -1.
</event>
<event>
 7    1  0.1381440E-008  0.4614232E+02  0.7816164E-02  0.1320468E+00
        -11   -1    0    0    0    0  0.00000000000E+00  0.00000000000E+00  0.45593999997E+02  0.45594000000E+02  0.51100000000E-03 0.  1.
         11   -1    0    0    0    0 -0.00000000000E+00 -0.00000000000E+00 -0.45593999997E+02  0.45594000000E+02  0.51100000000E-03 0. -1.
    9900012    2    1    2    0    0  0.21573770838E+01 -0.44971440844E+02  0.14243420880E+01  0.46142317434E+02  0.99999970131E+01 0.  0.
         12    1    1    2    0    0 -0.21573770838E+01  0.44971440844E+02 -0.14243420880E+01  0.45045682566E+02  0.00000000000E+00 0. -1.
         11    1    3    3    0    0  0.37092129605E+01 -0.15002093321E+02  0.33379402046E+01  0.15810215365E+02  0.51100000000E-03 0. -1.
        -11    1    3    3    0    0 -0.21176493885E+01 -0.74506785315E+01 -0.52792483624E+00  0.77637461580E+01  0.51100000000E-03 0.  1.
        -12    1    3    3    0    0  0.56581351175E+00 -0.22518668992E+02 -0.13856732804E+01  0.22568355911E+02  0.00000000000E+00 0.  1.
</event>
<event>
 7    1  0.1381440E-008  0.4614232E+02  0.7816164E-02  0.1320468E+00
        -11   -1    0    0    0    0  0.00000000000E+00  0.00000000000E+00  0.45593999997E+02  0.45594000000E+02  0.51100000000E-03 0.  1.
         11   -1    0    0    0    0 -0.00000000000E+00 -0.00000000000E+00 -0.45593999997E+02  0.45594000000E+02  0.51100000000E-03 0. -1.
    9900012    2    1    2    0    0 -0.15769877239E+02 -0.42167421161E+02  0.15274406835E+01  0.46142317515E+02  0.99999977559E+01 0.  0.
         12    1    1    2    0    0  0.15769877239E+02  0.42167421161E+02 -0.15274406835E+01  0.45045682485E+02  0.00000000000E+00 0. -1.
         11    1    3    3    0    0 -0.10413823806E+02 -0.23666867015E+02 -0.16673428942E+01  0.25910390833E+02  0.51100000000E-03 0. -1.
        -11    1    3    3    0    0 -0.46907860877E+01 -0.69019515402E+01  0.17269751129E+01  0.85219042758E+01  0.51100000000E-03 0.  1.
         12    1    3    3    0    0 -0.66526734516E+00 -0.11598602606E+02  0.14678084648E+01  0.11710022406E+02  0.00000000000E+00 0. -1.
</event>
<event>
 7    1  0.1381440E-008  0.4614232E+02  0.7816164E-02  0.1320468E+00
        -11   -1    0    0    0    0  0.00000000000E+00  0.00000000000E+00  0.45593999997E+02  0.45594000000E+02  0.51100000000E-03 0.  1.
         11   -1    0    0    0    0 -0.00000000000E+00 -0.00000000000E+00 -0.45593999997E+02  0.45594000000E+02  0.51100000000E-03 0. -1.
    9900012    2    1    2    0    0 -0.20429115297E+02 -0.27076421135E+02  0.29641732292E+02  0.46142316227E+02  0.99999860131E+01 0.  0.
         12    1    1    2    0    0  0.20429115297E+02  0.27076421135E+02 -0.29641732292E+02  0.45045683773E+02  0.00000000000E+00 0. -1.
         11    1    3    3    0    0 -0.19773045096E+01 -0.18643147339E+01  0.65740239379E+01  0.71135921691E+01  0.51100000000E-03 0. -1.
        -11    1    3    3    0    0 -0.86083103246E+01 -0.12107223523E+02  0.13360609373E+02  0.19979833612E+02  0.51100000000E-03 0.  1.
        -12    1    3    3    0    0 -0.98435004632E+01 -0.13104882877E+02  0.97070989808E+01  0.19048890446E+02  0.00000000000E+00 0.  1.
</event>
<event>
 7    1  0.1381440E-008  0.4614232E+02  0.7816164E-02  0.1320468E+00
        -11   -1    0    0    0    0  0.00000000000E+00  0.00000000000E+00  0.45593999997E+02  0.45594000000E+02  0.51100000000E-03 0.  1.
         11   -1    0    0    0    0 -0.00000000000E+00 -0.00000000000E+00 -0.45593999997E+02  0.45594000000E+02  0.51100000000E-03 0. -1.
    9900012    2    1    2    0    0 -0.16410370732E+00 -0.16156506211E+01  0.45016401678E+02  0.46142315667E+02  0.99999809068E+01 0.  0.
         12    1    1    2    0    0  0.16410370732E+00  0.16156506211E+01 -0.45016401678E+02  0.45045684333E+02  0.00000000000E+00 0. -1.
         11    1    3    3    0    0 -0.26009818847E+01 -0.40704897277E+01  0.16363951034E+02  0.17062030568E+02  0.51100000000E-03 0. -1.
        -11    1    3    3    0    0 -0.57892070337E+00  0.17419830971E+01  0.90364652751E+01  0.92210281000E+01  0.51100000000E-03 0.  1.
         12    1    3    3    0    0  0.30157988808E+01  0.71285600953E+00  0.19615985369E+02  0.19859257000E+02  0.00000000000E+00 0. -1.
</event>
<event>
 7    1  0.1381440E-008  0.4614232E+02  0.7816164E-02  0.1320468E+00
        -11   -1    0    0    0    0  0.00000000000E+00  0.00000000000E+00  0.45593999997E+02  0.45594000000E+02  0.51100000000E-03 0.  1.
         11   -1    0    0    0    0 -0.00000000000E+00 -0.00000000000E+00 -0.45593999997E+02  0.45594000000E+02  0.51100000000E-03 0. -1.
    9900012    2    1    2    0    0 -0.24368976936E+02 -0.10032290839E+02  0.36532444574E+02  0.46142318709E+02  0.10000008644E+02 0.  0.
         12    1    1    2    0    0  0.24368976936E+02  0.10032290839E+02 -0.36532444574E+02  0.45045681291E+02  0.00000000000E+00 0. -1.
         11    1    3    3    0    0 -0.11011104573E+02 -0.26165019419E+01  0.13770646241E+02  0.17824735748E+02  0.51100000000E-03 0. -1.
        -11    1    3    3    0    0 -0.77135436071E+01 -0.24142317699E+00  0.10477183509E+02  0.13012625203E+02  0.51100000000E-03 0.  1.
        -12    1    3    3    0    0 -0.56443287551E+01 -0.71743657204E+01  0.12284614824E+02  0.15304957758E+02  0.00000000000E+00 0.  1.
</event>
<event>
 7    1  0.1381440E-008  0.4614232E+02  0.7816164E-02  0.1320468E+00
        -11   -1    0    0    0    0  0.00000000000E+00  0.00000000000E+00  0.45593999997E+02  0.45594000000E+02  0.51100000000E-03 0.  1.
         11   -1    0    0    0    0 -0.00000000000E+00 -0.00000000000E+00 -0.45593999997E+02  0.45594000000E+02  0.51100000000E-03 0. -1.
    9900012    2    1    2    0    0 -0.17831061646E+02 -0.37780652986E+02  0.16846036436E+02  0.46142318264E+02  0.10000004585E+02 0.  0.
         12    1    1    2    0    0  0.17831061646E+02  0.37780652986E+02 -0.16846036436E+02  0.45045681736E+02  0.00000000000E+00 0. -1.
         11    1    3    3    0    0 -0.43891126636E+01 -0.45541339585E+01  0.14113633031E+01  0.64804623847E+01  0.51100000000E-03 0. -1.
        -11    1    3    3    0    0 -0.39171155854E+01 -0.18820580269E+02  0.71863946110E+01  0.20523213782E+02  0.51100000000E-03 0.  1.
        -12    1    3    3    0    0 -0.95248333973E+01 -0.14405938759E+02  0.82482785216E+01  0.19138642097E+02  0.00000000000E+00 0.  1.
</event>
<event>
 7    1  0.1381440E-008  0.4614232E+02  0.7816164E-02  0.1320468E+00
        -11   -1    0    0    0    0  0.00000000000E+00  0.00000000000E+00  0.45593999997E+02  0.45594000000E+02  0.51100000000E-03 0.  1.
         11   -1    0    0    0    0 -0.00000000000E+00 -0.00000000000E+00 -0.45593999997E+02  0.45594000000E+02  0.51100000000E-03 0. -1.
    9900012    2    1    2    0    0 -0.39993456327E+02 -0.17456370755E+02 -0.11176408307E+02  0.46142317282E+02  0.99999956271E+01 0.  0.
         12    1    1    2    0    0  0.39993456327E+02  0.17456370755E+02  0.11176408307E+02  0.45045682718E+02  0.00000000000E+00 0. -1.
         11    1    3    3    0    0 -0.11600616472E+02 -0.43412480495E+01 -0.27773706364E+00  0.12389425947E+02  0.51100000000E-03 0. -1.
        -11    1    3    3    0    0 -0.24601082612E+02 -0.89490850353E+01 -0.77593781407E+01  0.27303980260E+02  0.51100000000E-03 0.  1.
        -12    1    3    3    0    0 -0.37917572426E+01 -0.41660376704E+01 -0.31392931024E+01  0.64489110740E+01  0.00000000000E+00 0.  1.
</event>
<event>
 7    1  0.1381440E-008  0.4614232E+02  0.7816164E-02  0.1320468E+00
        -11   -1    0    0    0    0  0.00000000000E+00  0.00000000000E+00  0.45593999997E+02  0.45594000000E+02  0.51100000000E-03 0.  1.
         11   -1    0    0    0    0 -0.00000000000E+00 -0.00000000000E+00 -0.45593999997E+02  0.45594000000E+02  0.51100000000E-03 0. -1.
    9900012    2    1    2    0    0  0.11720504099E+02  0.43433042489E+02 -0.23052207819E+01  0.46142318309E+02  0.10000004996E+02 0.  0.
         12    1    1    2    0    0 -0.11720504099E+02 -0.43433042489E+02  0.23052207819E+01  0.45045681691E+02  0.00000000000E+00 0. -1.
         11    1    3    3    0    0  0.10879172849E+02  0.29262185145E+02 -0.44215354562E+01  0.31530649492E+02  0.51100000000E-03 0. -1.
        -11    1    3    3    0    0  0.10689285608E+01  0.24658091352E+01  0.93248689947E+00  0.28447064942E+01  0.51100000000E-03 0.  1.
         12    1    3    3    0    0 -0.22759731138E+00  0.11705048209E+02  0.11838277749E+01  0.11766962323E+02  0.00000000000E+00 0. -1.
</event>
<event>
 7    1  0.1381440E-008  0.4614232E+02  0.7816164E-02  0.1320468E+00
        -11   -1    0    0    0    0  0.00000000000E+00  0.00000000000E+00  0.45593999997E+02  0.45594000000E+02  0.51100000000E-03 0. -1.
         11   -1    0    0    0    0 -0.00000000000E+00 -0.00000000000E+00 -0.45593999997E+02  0.45594000000E+02  0.51100000000E-03 0.  1.
    9900012    2    1    2    0    0  0.32042206082E+02 -0.31187036855E+02 -0.54570378424E+01  0.46142317627E+02  0.99999987811E+01 0.  0.
         12    1    1    2    0    0 -0.32042206082E+02  0.31187036855E+02  0.54570378424E+01  0.45045682373E+02  0.00000000000E+00 0. -1.
         11    1    3    3    0    0  0.41968169338E+00 -0.40628371329E+01 -0.84118782039E+00  0.41701769150E+01  0.51100000000E-03 0. -1.
        -11    1    3    3    0    0  0.29317385217E+02 -0.25501587719E+02 -0.47735205783E+01  0.39148774580E+02  0.51100000000E-03 0.  1.
        -12    1    3    3    0    0  0.23051391716E+01 -0.16226120035E+01  0.15767055631E+00  0.28233661326E+01  0.00000000000E+00 0.  1.
</event>
<event>
 7    1  0.1381440E-008  0.4614232E+02  0.7816164E-02  0.1320468E+00
        -11   -1    0    0    0    0  0.00000000000E+00  0.00000000000E+00  0.45593999997E+02  0.45594000000E+02  0.51100000000E-03 0. -1.
         11   -1    0    0    0    0 -0.00000000000E+00 -0.00000000000E+00 -0.45593999997E+02  0.45594000000E+02  0.51100000000E-03 0.  1.
    9900012    2    1    2    0    0  0.13408071070E+02  0.42773014401E+02 -0.44504356915E+01  0.46142317536E+02  0.99999979508E+01 0.  0.
         12    1    1    2    0    0 -0.13408071070E+02 -0.42773014401E+02  0.44504356915E+01  0.45045682464E+02  0.00000000000E+00 0. -1.
         11    1    3    3    0    0  0.39638502344E+01  0.42104783243E+01 -0.20973605667E+01  0.61513541605E+01  0.51100000000E-03 0. -1.
        -11    1    3    3    0    0  0.57935951936E+01  0.26468050342E+02  0.23226127338E+00  0.27095707773E+02  0.51100000000E-03 0.  1.
        -12    1    3    3    0    0  0.36506256422E+01  0.12094485735E+02 -0.25853363982E+01  0.12895255603E+02  0.00000000000E+00 0.  1.
</event>
<event>
 7    1  0.1381440E-008  0.4614232E+02  0.7816164E-02  0.1320468E+00
        -11   -1    0    0    0    0  0.00000000000E+00  0.00000000000E+00  0.45593999997E+02  0.45594000000E+02  0.51100000000E-03 0.  1.
         11   -1    0    0    0    0 -0.00000000000E+00 -0.00000000000E+00 -0.45593999997E+02  0.45594000000E+02  0.51100000000E-03 0. -1.
    9900012    2    1    2    0    0 -0.15547417932E+02 -0.92127747682E+01  0.41261556454E+02  0.46142318028E+02  0.10000002435E+02 0.  0.
         12    1    1    2    0    0  0.15547417932E+02  0.92127747682E+01 -0.41261556454E+02  0.45045681972E+02  0.00000000000E+00 0. -1.
         11    1    3    3    0    0 -0.13482170185E+02 -0.61977272103E+01  0.34359996460E+02  0.37427130433E+02  0.51100000000E-03 0. -1.
        -11    1    3    3    0    0 -0.22204882101E+01 -0.35115042730E+01  0.39995991085E+01  0.57669769759E+01  0.51100000000E-03 0.  1.
         12    1    3    3    0    0  0.15524046315E+00  0.49645671504E+00  0.29019608863E+01  0.29482106195E+01  0.00000000000E+00 0. -1.
</event>
<event>
 7    1  0.1381440E-008  0.4614232E+02  0.7816164E-02  0.1320468E+00
        -11   -1    0    0    0    0  0.00000000000E+00  0.00000000000E+00  0.45593999997E+02  0.45594000000E+02  0.51100000000E-03 0.  1.
         11   -1    0    0    0    0 -0.00000000000E+00 -0.00000000000E+00 -0.45593999997E+02  0.45594000000E+02  0.51100000000E-03 0. -1.
    9900012    2    1    2    0    0  0.27605278835E+02  0.87019608310E+01  0.34515763404E+02  0.46142318018E+02  0.10000002343E+02 0.  0.
         12    1    1    2    0    0 -0.27605278835E+02 -0.87019608310E+01 -0.34515763404E+02  0.45045681982E+02  0.00000000000E+00 0. -1.
         11    1    3    3    0    0  0.74674180526E+01  0.83804359822E+00  0.49288704363E+01  0.89865685043E+01  0.51100000000E-03 0. -1.
        -11    1    3    3    0    0  0.19626278539E+02  0.59774255161E+01  0.27227002492E+02  0.34091495861E+02  0.51100000000E-03 0.  1.
         12    1    3    3    0    0  0.51158224293E+00  0.18864917166E+01  0.23598904764E+01  0.30642536528E+01  0.00000000000E+00 0. -1.
</event>
<event>
 7    1  0.1381440E-008  0.4614232E+02  0.7816164E-02  0.1320468E+00
        -11   -1    0    0    0    0  0.00000000000E+00  0.00000000000E+00  0.45593999997E+02  0.45594000000E+02  0.51100000000E-03 0. -1.
         11   -1    0    0    0    0 -0.00000000000E+00 -0.00000000000E+00 -0.45593999997E+02  0.45594000000E+02  0.51100000000E-03 0.  1.
    9900012    2    1    2    0    0  0.13185884342E+02  0.36651914444E+02  0.22624834768E+02  0.46142317337E+02  0.99999961363E+01 0.  0.
         12    1    1    2    0    0 -0.13185884342E+02 -0.36651914444E+02 -0.22624834768E+02  0.45045682663E+02  0.00000000000E+00 0. -1.
         11    1    3    3    0    0  0.12778047115E+02  0.36269516145E+02  0.22170366265E+02  0.44387852280E+02  0.51100000000E-03 0.  1.
        -11    1    3    3    0    0  0.30991123350E+00  0.96468088981E+00  0.64255541835E-02  0.10132599571E+01  0.51100000000E-03 0. -1.
         12    1    3    3    0    0  0.97925992840E-01 -0.58228259118E+00  0.44804294945E+00  0.74120510023E+00  0.00000000000E+00 0. -1.
</event>
<event>
 7    1  0.1381440E-008  0.4614232E+02  0.7816164E-02  0.1320468E+00
        -11   -1    0    0    0    0  0.00000000000E+00  0.00000000000E+00  0.45593999997E+02  0.45594000000E+02  0.51100000000E-03 0.  1.
         11   -1    0    0    0    0 -0.00000000000E+00 -0.00000000000E+00 -0.45593999997E+02  0.45594000000E+02  0.51100000000E-03 0. -1.
    9900012    2    1    2    0    0  0.27099338708E+01 -0.17629851454E+02  0.41363728589E+02  0.46142318224E+02  0.10000004219E+02 0.  0.
         12    1    1    2    0    0 -0.27099338708E+01  0.17629851454E+02 -0.41363728589E+02  0.45045681776E+02  0.00000000000E+00 0. -1.
         11    1    3    3    0    0 -0.46074255086E+00 -0.12168153536E+02  0.18844978278E+02  0.22436787888E+02  0.51100000000E-03 0. -1.
        -11    1    3    3    0    0 -0.53808200968E+00 -0.26966152228E+01  0.73748134453E+01  0.78707775679E+01  0.51100000000E-03 0.  1.
         12    1    3    3    0    0  0.37087584313E+01 -0.27650826949E+01  0.15143936866E+02  0.15834752767E+02  0.00000000000E+00 0. -1.
</event>
<event>
 7    1  0.1381440E-008  0.4614232E+02  0.7816164E-02  0.1320468E+00
        -11   -1    0    0    0    0  0.00000000000E+00  0.00000000000E+00  0.45593999997E+02  0.45594000000E+02  0.51100000000E-03 0.  1.
         11   -1    0    0    0    0 -0.00000000000E+00 -0.00000000000E+00 -0.45593999997E+02  0.45594000000E+02  0.51100000000E-03 0. -1.
    9900012    2    1    2    0    0  0.18336605176E+02 -0.18992604260E+01  0.41100795559E+02  0.46142315688E+02  0.99999810972E+01 0.  0.
         12    1    1    2    0    0 -0.18336605176E+02  0.18992604260E+01 -0.41100795559E+02  0.45045684312E+02  0.00000000000E+00 0. -1.
         11    1    3    3    0    0  0.86681689594E+01  0.39690697630E+01  0.21116153409E+02  0.23168569290E+02  0.51100000000E-03 0. -1.
        -11    1    3    3    0    0  0.71490636180E+01 -0.39971477496E+01  0.14675836582E+02  0.16806739136E+02  0.51100000000E-03 0.  1.
         12    1    3    3    0    0  0.25193725991E+01 -0.18711824395E+01  0.53088055681E+01  0.61670072624E+01  0.00000000000E+00 0. -1.
</event>
<event>
 7    1  0.1381440E-008  0.4614232E+02  0.7816164E-02  0.1320468E+00
        -11   -1    0    0    0    0  0.00000000000E+00  0.00000000000E+00  0.45593999997E+02  0.45594000000E+02  0.51100000000E-03 0.  1.
         11   -1    0    0    0    0 -0.00000000000E+00 -0.00000000000E+00 -0.45593999997E+02  0.45594000000E+02  0.51100000000E-03 0. -1.
    9900012    2    1    2    0    0 -0.27058210354E+02 -0.19197760561E+02  0.30469865955E+02  0.46142317750E+02  0.99999998953E+01 0.  0.
         12    1    1    2    0    0  0.27058210354E+02  0.19197760561E+02 -0.30469865955E+02  0.45045682250E+02  0.00000000000E+00 0. -1.
         11    1    3    3    0    0 -0.74685459101E+01 -0.54106985199E+01  0.38853857352E+01  0.10007550103E+02  0.51100000000E-03 0. -1.
        -11    1    3    3    0    0 -0.10969021666E+02 -0.47706976535E+01  0.12004542539E+02  0.16946623093E+02  0.51100000000E-03 0.  1.
        -12    1    3    3    0    0 -0.86206427770E+01 -0.90163643879E+01  0.14579937680E+02  0.19188144554E+02  0.00000000000E+00 0.  1.
</event>
<event>
 7    1  0.1381440E-008  0.4614232E+02  0.7816164E-02  0.1320468E+00
        -11   -1    0    0    0    0  0.00000000000E+00  0.00000000000E+00  0.45593999997E+02  0.45594000000E+02  0.51100000000E-03 0.  1.
         11   -1    0    0    0    0 -0.00000000000E+00 -0.00000000000E+00 -0.45593999997E+02  0.45594000000E+02  0.51100000000E-03 0. -1.
    9900012    2    1    2    0    0  0.30247222288E+02 -0.23368109847E+02  0.23835895784E+02  0.46142323828E+02  0.10000055327E+02 0.  0.
         12    1    1    2    0    0 -0.30247222288E+02  0.23368109847E+02 -0.23835895784E+02  0.45045676172E+02  0.00000000000E+00 0. -1.
         11    1    3    3    0    0  0.90411277592E+01 -0.33065614631E+01  0.87883662312E+01  0.13034980673E+02  0.51100000000E-03 0. -1.
        -11    1    3    3    0    0  0.17378977272E+02 -0.14867444292E+02  0.10224825389E+02  0.25052281439E+02  0.51100000000E-03 0.  1.
        -12    1    3    3    0    0  0.38271172562E+01 -0.51941040911E+01  0.48227041639E+01  0.80550617164E+01  0.00000000000E+00 0.  1.
</event>
<event>
 7    1  0.1381440E-008  0.4614232E+02  0.7816164E-02  0.1320468E+00
        -11   -1    0    0    0    0  0.00000000000E+00  0.00000000000E+00  0.45593999997E+02  0.45594000000E+02  0.51100000000E-03 0.  1.
         11   -1    0    0    0    0 -0.00000000000E+00 -0.00000000000E+00 -0.45593999997E+02  0.45594000000E+02  0.51100000000E-03 0. -1.
    9900012    2    1    2    0    0  0.76842287716E+01 -0.23732633373E+02  0.37507707931E+02  0.46142318599E+02  0.10000007638E+02 0.  0.
         12    1    1    2    0    0 -0.76842287716E+01  0.23732633373E+02 -0.37507707931E+02  0.45045681401E+02  0.00000000000E+00 0. -1.
         11    1    3    3    0    0  0.12500197378E+01  0.65986382018E+00  0.29259826595E+01  0.32495144854E+01  0.51100000000E-03 0. -1.
        -11    1    3    3    0    0  0.47813745673E+01 -0.18856217831E+02  0.24631715331E+02  0.31386938272E+02  0.51100000000E-03 0.  1.
         12    1    3    3    0    0  0.16528344665E+01 -0.55362793625E+01  0.99500099405E+01  0.11505865842E+02  0.00000000000E+00 0. -1.
</event>
<event>
 7    1  0.1381440E-008  0.4614232E+02  0.7816164E-02  0.1320468E+00
        -11   -1    0    0    0    0  0.00000000000E+00  0.00000000000E+00  0.45593999997E+02  0.45594000000E+02  0.51100000000E-03 0.  1.
         11   -1    0    0    0    0 -0.00000000000E+00 -0.00000000000E+00 -0.45593999997E+02  0.45594000000E+02  0.51100000000E-03 0. -1.
    9900012    2    1    2    0    0 -0.30827808921E+02 -0.55090642900E+01  0.32379157232E+02  0.46142318572E+02  0.10000007394E+02 0.  0.
         12    1    1    2    0    0  0.30827808921E+02  0.55090642900E+01 -0.32379157232E+02  0.45045681428E+02  0.00000000000E+00 0. -1.
         11    1    3    3    0    0 -0.10491466785E+01 -0.89429438526E+00 -0.51040994972E+00  0.14700305366E+01  0.51100000000E-03 0. -1.
        -11    1    3    3    0    0 -0.19716924878E+02 -0.29150484497E+01  0.20043518937E+02  0.28266540038E+02  0.51100000000E-03 0.  1.
         12    1    3    3    0    0 -0.10061737365E+02 -0.16997214550E+01  0.12846048245E+02  0.16405747997E+02  0.00000000000E+00 0. -1.
</event>
<event>
 7    1  0.1381440E-008  0.4614232E+02  0.7816164E-02  0.1320468E+00
        -11   -1    0    0    0    0  0.00000000000E+00  0.00000000000E+00  0.45593999997E+02  0.45594000000E+02  0.51100000000E-03 0.  1.
         11   -1    0    0    0    0 -0.00000000000E+00 -0.00000000000E+00 -0.45593999997E+02  0.45594000000E+02  0.51100000000E-03 0. -1.
    9900012    2    1    2    0    0 -0.20594923739E+01  0.43976180780E+02 -0.95376869544E+01  0.46142318106E+02  0.10000003147E+02 0.  0.
         12    1    1    2    0    0  0.20594923739E+01 -0.43976180780E+02  0.95376869544E+01  0.45045681894E+02  0.00000000000E+00 0. -1.
         11    1    3    3    0    0 -0.30576690836E+01  0.52594553066E+01 -0.24874758070E+01  0.65725753323E+01  0.51100000000E-03 0. -1.
        -11    1    3    3    0    0  0.61931341329E-01  0.34128151014E+02 -0.72199504510E+01  0.34883552169E+02  0.51100000000E-03 0.  1.
         12    1    3    3    0    0  0.93624536833E+00  0.45885744590E+01  0.16973930357E+00  0.46861906050E+01  0.00000000000E+00 0. -1.
</event>
<event>
 7    1  0.1381440E-008  0.4614232E+02  0.7816164E-02  0.1320468E+00
        -11   -1    0    0    0    0  0.00000000000E+00  0.00000000000E+00  0.45593999997E+02  0.45594000000E+02  0.51100000000E-03 0. -1.
         11   -1    0    0    0    0 -0.00000000000E+00 -0.00000000000E+00 -0.45593999997E+02  0.45594000000E+02  0.51100000000E-03 0.  1.
    9900012    2    1    2    0    0  0.28928858515E+02  0.26610996565E+02 -0.22002034475E+02  0.46142317474E+02  0.99999973824E+01 0.  0.
         12    1    1    2    0    0 -0.28928858515E+02 -0.26610996565E+02  0.22002034475E+02  0.45045682526E+02  0.00000000000E+00 0. -1.
         11    1    3    3    0    0  0.71550972283E+00  0.64398617276E+00 -0.27581546181E+01  0.29213164006E+01  0.51100000000E-03 0. -1.
        -11    1    3    3    0    0  0.24456389371E+02  0.22604188445E+02 -0.14586440846E+02  0.36356960450E+02  0.51100000000E-03 0.  1.
         12    1    3    3    0    0  0.37569594208E+01  0.33628219480E+01 -0.46574390108E+01  0.68640406237E+01  0.00000000000E+00 0. -1.
</event>
<event>
 7    1  0.1381440E-008  0.4614232E+02  0.7816164E-02  0.1320468E+00
        -11   -1    0    0    0    0  0.00000000000E+00  0.00000000000E+00  0.45593999997E+02  0.45594000000E+02  0.51100000000E-03 0.  1.
         11   -1    0    0    0    0 -0.00000000000E+00 -0.00000000000E+00 -0.45593999997E+02  0.45594000000E+02  0.51100000000E-03 0. -1.
    9900012    2    1    2    0    0 -0.16701932043E+02  0.10564633689E+01  0.41821560927E+02  0.46142316442E+02  0.99999879736E+01 0.  0.
         12    1    1    2    0    0  0.16701932043E+02 -0.10564633689E+01 -0.41821560927E+02  0.45045683558E+02  0.00000000000E+00 0. -1.
         11    1    3    3    0    0 -0.31327845914E+01  0.99988130155E+00  0.16534645099E+01  0.36807671836E+01  0.51100000000E-03 0. -1.
        -11    1    3    3    0    0 -0.13248521115E+02  0.29318180120E+00  0.39662905014E+02  0.41818121690E+02  0.51100000000E-03 0.  1.
        -12    1    3    3    0    0 -0.32062633724E+00 -0.23659973385E+00  0.50519140336E+00  0.64342756875E+00  0.00000000000E+00 0.  1.
</event>
<event>
 7    1  0.1381440E-008  0.4614232E+02  0.7816164E-02  0.1320468E+00
        -11   -1    0    0    0    0  0.00000000000E+00  0.00000000000E+00  0.45593999997E+02  0.45594000000E+02  0.51100000000E-03 0.  1.
         11   -1    0    0    0    0 -0.00000000000E+00 -0.00000000000E+00 -0.45593999997E+02  0.45594000000E+02  0.51100000000E-03 0. -1.
    9900012    2    1    2    0    0 -0.15110929063E+02 -0.41733128958E+02 -0.76889038921E+01  0.46142317934E+02  0.10000001575E+02 0.  0.
         12    1    1    2    0    0  0.15110929063E+02  0.41733128958E+02  0.76889038921E+01  0.45045682066E+02  0.00000000000E+00 0. -1.
         11    1    3    3    0    0  0.95969460832E+00 -0.52757943997E+01 -0.80482490074E+00  0.54224315275E+01  0.51100000000E-03 0. -1.
        -11    1    3    3    0    0 -0.46538003540E+01 -0.90759478376E+01 -0.38378051802E+01  0.10897680292E+02  0.51100000000E-03 0.  1.
         12    1    3    3    0    0 -0.11416823318E+02 -0.27381386720E+02 -0.30462738112E+01  0.29822206114E+02  0.00000000000E+00 0. -1.
</event>
<event>
 7    1  0.1381440E-008  0.4614232E+02  0.7816164E-02  0.1320468E+00
        -11   -1    0    0    0    0  0.00000000000E+00  0.00000000000E+00  0.45593999997E+02  0.45594000000E+02  0.51100000000E-03 0. -1.
         11   -1    0    0    0    0 -0.00000000000E+00 -0.00000000000E+00 -0.45593999997E+02  0.45594000000E+02  0.51100000000E-03 0.  1.
    9900012    2    1    2    0    0  0.15682751786E+02  0.20378567957E+02 -0.36984842716E+02  0.46142319560E+02  0.10000016407E+02 0.  0.
         12    1    1    2    0    0 -0.15682751786E+02 -0.20378567957E+02  0.36984842716E+02  0.45045680440E+02  0.00000000000E+00 0. -1.
         11    1    3    3    0    0  0.56619343293E+01  0.12617833811E+02 -0.22209753839E+02  0.26163722906E+02  0.51100000000E-03 0. -1.
        -11    1    3    3    0    0  0.45450298645E+01  0.59379000654E+01 -0.66136928968E+01  0.99828296414E+01  0.51100000000E-03 0.  1.
         12    1    3    3    0    0  0.54757875925E+01  0.18228340808E+01 -0.81613959797E+01  0.99957670132E+01  0.00000000000E+00 0. -1.
</event>
<event>
 7    1  0.1381440E-008  0.4614232E+02  0.7816164E-02  0.1320468E+00
        -11   -1    0    0    0    0  0.00000000000E+00  0.00000000000E+00  0.45593999997E+02  0.45594000000E+02  0.51100000000E-03 0. -1.
         11   -1    0    0    0    0 -0.00000000000E+00 -0.00000000000E+00 -0.45593999997E+02  0.45594000000E+02  0.51100000000E-03 0.  1.
    9900012    2    1    2    0    0 -0.87113518060E+01 -0.26817130406E+02 -0.35129295335E+02  0.46142317363E+02  0.99999963697E+01 0.  0.
         12    1    1    2    0    0  0.87113518060E+01  0.26817130406E+02  0.35129295335E+02  0.45045682637E+02  0.00000000000E+00 0. -1.
         11    1    3    3    0    0  0.49940408821E+00 -0.50690785289E-01 -0.11896431620E+01  0.12912107160E+01  0.51100000000E-03 0. -1.
        -11    1    3    3    0    0 -0.42154516406E+01 -0.16129224041E+02 -0.14299375889E+02  0.21963470849E+02  0.51100000000E-03 0.  1.
        -12    1    3    3    0    0 -0.49953042535E+01 -0.10637215581E+02 -0.19640276284E+02  0.22887635798E+02  0.00000000000E+00 0.  1.
</event>
<event>
 7    1  0.1381440E-008  0.4614232E+02  0.7816164E-02  0.1320468E+00
        -11   -1    0    0    0    0  0.00000000000E+00  0.00000000000E+00  0.45593999997E+02  0.45594000000E+02  0.51100000000E-03 0.  1.
         11   -1    0    0    0    0 -0.00000000000E+00 -0.00000000000E+00 -0.45593999997E+02  0.45594000000E+02  0.51100000000E-03 0. -1.
    9900012    2    1    2    0    0  0.18039676431E+02  0.40537601510E+02 -0.77708610949E+01  0.46142319363E+02  0.10000014605E+02 0.  0.
         12    1    1    2    0    0 -0.18039676431E+02 -0.40537601510E+02  0.77708610949E+01  0.45045680637E+02  0.00000000000E+00 0. -1.
         11    1    3    3    0    0  0.37720154202E-01  0.17231356905E+01 -0.22351331961E+01  0.28224882786E+01  0.51100000000E-03 0. -1.
        -11    1    3    3    0    0  0.13463240333E+02  0.32200329679E+02 -0.37557201784E+01  0.35103069752E+02  0.51100000000E-03 0.  1.
        -12    1    3    3    0    0  0.45387159440E+01  0.66141361407E+01 -0.17800077204E+01  0.82167613323E+01  0.00000000000E+00 0.  1.
</event>
<event>
 7    1  0.1381440E-008  0.4614232E+02  0.7816164E-02  0.1320468E+00
        -11   -1    0    0    0    0  0.00000000000E+00  0.00000000000E+00  0.45593999997E+02  0.45594000000E+02  0.51100000000E-03 0. -1.
         11   -1    0    0    0    0 -0.00000000000E+00 -0.00000000000E+00 -0.45593999997E+02  0.45594000000E+02  0.51100000000E-03 0.  1.
    9900012    2    1    2    0    0  0.41505080300E+02 -0.12844544200E+02  0.11893679018E+02  0.46142316444E+02  0.99999879938E+01 0.  0.
         12    1    1    2    0    0 -0.41505080300E+02  0.12844544200E+02 -0.11893679018E+02  0.45045683556E+02  0.00000000000E+00 0. -1.
         11    1    3    3    0    0  0.17936130214E+02 -0.42877621698E+01  0.77278417496E+01  0.19995229678E+02  0.51100000000E-03 0. -1.
        -11    1    3    3    0    0  0.20971571069E+02 -0.91825389480E+01  0.48217664606E+01  0.23396051947E+02  0.51100000000E-03 0.  1.
         12    1    3    3    0    0  0.25973790164E+01  0.62575691791E+00 -0.65592919241E+00  0.27510348199E+01  0.00000000000E+00 0. -1.
</event>
<event>
 7    1  0.1381440E-008  0.4614232E+02  0.7816164E-02  0.1320468E+00
        -11   -1    0    0    0    0  0.00000000000E+00  0.00000000000E+00  0.45593999997E+02  0.45594000000E+02  0.51100000000E-03 0. -1.
         11   -1    0    0    0    0 -0.00000000000E+00 -0.00000000000E+00 -0.45593999997E+02  0.45594000000E+02  0.51100000000E-03 0.  1.
    9900012    2    1    2    0    0 -0.40070386069E+02  0.15919129291E+02 -0.13040661971E+02  0.46142318944E+02  0.10000010791E+02 0.  0.
         12    1    1    2    0    0  0.40070386069E+02 -0.15919129291E+02  0.13040661971E+02  0.45045681056E+02  0.00000000000E+00 0. -1.
         11    1    3    3    0    0 -0.22763847348E+02  0.55505120663E+01 -0.49664170889E+01  0.23951330427E+02  0.51100000000E-03 0. -1.
        -11    1    3    3    0    0 -0.31698409464E+01  0.19503489898E+01  0.29104551129E+00  0.37331569159E+01  0.51100000000E-03 0.  1.
         12    1    3    3    0    0 -0.14136697775E+02  0.84182682352E+01 -0.83652903937E+01  0.18457831601E+02  0.00000000000E+00 0. -1.
</event>
<event>
 7    1  0.1381440E-008  0.4614232E+02  0.7816164E-02  0.1320468E+00
        -11   -1    0    0    0    0  0.00000000000E+00  0.00000000000E+00  0.45593999997E+02  0.45594000000E+02  0.51100000000E-03 0. -1.
         11   -1    0    0    0    0 -0.00000000000E+00 -0.00000000000E+00 -0.45593999997E+02  0.45594000000E+02  0.51100000000E-03 0.  1.
    9900012    2    1    2    0    0 -0.27422136745E+02  0.11716348660E+02 -0.33761917361E+02  0.46142317927E+02  0.10000001511E+02 0.  0.
         12    1    1    2    0    0  0.27422136745E+02 -0.11716348660E+02  0.33761917361E+02  0.45045682073E+02  0.00000000000E+00 0. -1.
         11    1    3    3    0    0 -0.47493724670E-01 -0.23486749915E+00  0.21386831543E+00  0.32118267934E+00  0.51100000000E-03 0. -1.
        -11    1    3    3    0    0 -0.18673205470E+02  0.11576798359E+02 -0.22963953920E+02  0.31781347402E+02  0.51100000000E-03 0.  1.
        -12    1    3    3    0    0 -0.87014375498E+01  0.37441779972E+00 -0.11011831756E+02  0.14039787846E+02  0.00000000000E+00 0.  1.
</event>
<event>
 7    1  0.1381440E-008  0.4614232E+02  0.7816164E-02  0.1320468E+00
        -11   -1    0    0    0    0  0.00000000000E+00  0.00000000000E+00  0.45593999997E+02  0.45594000000E+02  0.51100000000E-03 0.  1.
         11   -1    0    0    0    0 -0.00000000000E+00 -0.00000000000E+00 -0.45593999997E+02  0.45594000000E+02  0.51100000000E-03 0. -1.
    9900012    2    1    2    0    0  0.18343659384E+02  0.16200003188E+02  0.37817768376E+02  0.46142317101E+02  0.99999939850E+01 0.  0.
         12    1    1    2    0    0 -0.18343659384E+02 -0.16200003188E+02 -0.37817768376E+02  0.45045682899E+02  0.00000000000E+00 0. -1.
         11    1    3    3    0    0  0.30484383140E+01  0.78732082205E+01  0.15534709141E+02  0.17680711869E+02  0.51100000000E-03 0. -1.
        -11    1    3    3    0    0  0.14489425500E+02  0.85967115560E+01  0.21398925327E+02  0.27235287887E+02  0.51100000000E-03 0.  1.
        -12    1    3    3    0    0  0.80579556957E+00 -0.26991658810E+00  0.88413390822E+00  0.12263173456E+01  0.00000000000E+00 0.  1.
</event>
<event>
 7    1  0.1381440E-008  0.4614232E+02  0.7816164E-02  0.1320468E+00
        -11   -1    0    0    0    0  0.00000000000E+00  0.00000000000E+00  0.45593999997E+02  0.45594000000E+02  0.51100000000E-03 0.  1.
         11   -1    0    0    0    0 -0.00000000000E+00 -0.00000000000E+00 -0.45593999997E+02  0.45594000000E+02  0.51100000000E-03 0. -1.
    9900012    2    1    2    0    0  0.44090756213E+02  0.84303476042E+01  0.37480651788E+01  0.46142317224E+02  0.99999951062E+01 0.  0.
         12    1    1    2    0    0 -0.44090756213E+02 -0.84303476042E+01 -0.37480651788E+01  0.45045682776E+02  0.00000000000E+00 0. -1.
         11    1    3    3    0    0  0.25854306948E+02  0.10284945407E+01  0.40156727651E+01  0.26184511009E+02  0.51100000000E-03 0.  1.
        -11    1    3    3    0    0  0.43374383152E+01  0.30307555533E+01  0.78676497445E+00  0.53495653794E+01  0.51100000000E-03 0. -1.
        -12    1    3    3    0    0  0.13899010949E+02  0.43710975103E+01 -0.10543725608E+01  0.14608240836E+02  0.00000000000E+00 0.  1.
</event>
<event>
 7    1  0.1381440E-008  0.4614232E+02  0.7816164E-02  0.1320468E+00
        -11   -1    0    0    0    0  0.00000000000E+00  0.00000000000E+00  0.45593999997E+02  0.45594000000E+02  0.51100000000E-03 0.  1.
         11   -1    0    0    0    0 -0.00000000000E+00 -0.00000000000E+00 -0.45593999997E+02  0.45594000000E+02  0.51100000000E-03 0. -1.
    9900012    2    1    2    0    0 -0.20890649134E+02  0.16230376074E+02  0.36459142097E+02  0.46142319061E+02  0.10000011858E+02 0.  0.
         12    1    1    2    0    0  0.20890649134E+02 -0.16230376074E+02 -0.36459142097E+02  0.45045680939E+02  0.00000000000E+00 0. -1.
         11    1    3    3    0    0 -0.77997894069E+00 -0.14190619521E+00  0.53051614346E+00  0.95391412389E+00  0.51100000000E-03 0. -1.
        -11    1    3    3    0    0 -0.28509899394E+01  0.22878980278E+01  0.11778624770E+02  0.12332827038E+02  0.51100000000E-03 0.  1.
        -12    1    3    3    0    0 -0.17259680254E+02  0.14084384242E+02  0.24150001184E+02  0.32855577900E+02  0.00000000000E+00 0.  1.
</event>
<event>
 7    1  0.1381440E-008  0.4614232E+02  0.7816164E-02  0.1320468E+00
        -11   -1    0    0    0    0  0.00000000000E+00  0.00000000000E+00  0.45593999997E+02  0.45594000000E+02  0.51100000000E-03 0.  1.
         11   -1    0    0    0    0 -0.00000000000E+00 -0.00000000000E+00 -0.45593999997E+02  0.45594000000E+02  0.51100000000E-03 0. -1.
    9900012    2    1    2    0    0 -0.40257954284E+01  0.26143851542E+02  0.36461012767E+02  0.46142318139E+02  0.10000003450E+02 0.  0.
         12    1    1    2    0    0  0.40257954284E+01 -0.26143851542E+02 -0.36461012767E+02  0.45045681861E+02  0.00000000000E+00 0. -1.
         11    1    3    3    0    0 -0.26490044308E+01  0.11540717702E+02  0.11167059055E+02  0.16276012956E+02  0.51100000000E-03 0. -1.
        -11    1    3    3    0    0 -0.26903302647E+01  0.49012724787E+01  0.12992391326E+02  0.14144348040E+02  0.51100000000E-03 0.  1.
        -12    1    3    3    0    0  0.13135392671E+01  0.97018613609E+01  0.12301562387E+02  0.15721957143E+02  0.00000000000E+00 0.  1.
</event>
<event>
 7    1  0.1381440E-008  0.4614232E+02  0.7816164E-02  0.1320468E+00
        -11   -1    0    0    0    0  0.00000000000E+00  0.00000000000E+00  0.45593999997E+02  0.45594000000E+02  0.51100000000E-03 0.  1.
         11   -1    0    0    0    0 -0.00000000000E+00 -0.00000000000E+00 -0.45593999997E+02  0.45594000000E+02  0.51100000000E-03 0. -1.
    9900012    2    1    2    0    0  0.20634704049E+02 -0.21572596725E+02  0.33733448206E+02  0.46142317981E+02  0.10000002005E+02 0.  0.
         12    1    1    2    0    0 -0.20634704049E+02  0.21572596725E+02 -0.33733448206E+02  0.45045682019E+02  0.00000000000E+00 0. -1.
         11    1    3    3    0    0  0.16367404224E+02 -0.11080571756E+02  0.23320314405E+02  0.30569724495E+02  0.51100000000E-03 0. -1.
        -11    1    3    3    0    0  0.27526231668E+01 -0.64340807770E+01  0.79439314119E+01  0.10586801986E+02  0.51100000000E-03 0.  1.
         12    1    3    3    0    0  0.15146766586E+01 -0.40579441928E+01  0.24692023890E+01  0.49857915008E+01  0.00000000000E+00 0. -1.
</event>
<event>
 7    1  0.1381440E-008  0.4614232E+02  0.7816164E-02  0.1320468E+00
        -11   -1    0    0    0    0  0.00000000000E+00  0.00000000000E+00  0.45593999997E+02  0.45594000000E+02  0.51100000000E-03 0.  1.
         11   -1    0    0    0    0 -0.00000000000E+00 -0.00000000000E+00 -0.45593999997E+02  0.45594000000E+02  0.51100000000E-03 0. -1.
    9900012    2    1    2    0    0 -0.17093850118E+02 -0.17211981279E+02  0.37956045392E+02  0.46142318817E+02  0.10000009633E+02 0.  0.
         12    1    1    2    0    0  0.17093850118E+02  0.17211981279E+02 -0.37956045392E+02  0.45045681183E+02  0.00000000000E+00 0. -1.
         11    1    3    3    0    0 -0.69881960207E+01 -0.10157017694E+02  0.24174207161E+02  0.27136547021E+02  0.51100000000E-03 0.  1.
        -11    1    3    3    0    0 -0.59246399150E+01 -0.19013678352E+01  0.84451899141E+01  0.10489889929E+02  0.51100000000E-03 0. -1.
        -12    1    3    3    0    0 -0.41810141821E+01 -0.51535957492E+01  0.53366483166E+01  0.85158818682E+01  0.00000000000E+00 0.  1.
</event>
<event>
 7    1  0.1381440E-008  0.4614232E+02  0.7816164E-02  0.1320468E+00
        -11   -1    0    0    0    0  0.00000000000E+00  0.00000000000E+00  0.45593999997E+02  0.45594000000E+02  0.51100000000E-03 0. -1.
         11   -1    0    0    0    0 -0.00000000000E+00 -0.00000000000E+00 -0.45593999997E+02  0.45594000000E+02  0.51100000000E-03 0.  1.
    9900012    2    1    2    0    0 -0.25006005046E+02  0.32893510682E+02  0.17939625123E+02  0.46142317822E+02  0.10000000557E+02 0.  0.
         12    1    1    2    0    0  0.25006005046E+02 -0.32893510682E+02 -0.17939625123E+02  0.45045682178E+02  0.00000000000E+00 0. -1.
         11    1    3    3    0    0 -0.67401800280E+01  0.79374372645E+01  0.60454965799E+01  0.12040804221E+02  0.51100000000E-03 0. -1.
        -11    1    3    3    0    0 -0.53307435946E+01  0.12075268265E+02  0.20378391569E+01  0.13355961951E+02  0.51100000000E-03 0.  1.
        -12    1    3    3    0    0 -0.12935081423E+02  0.12880805152E+02  0.98562893861E+01  0.20745551650E+02  0.00000000000E+00 0.  1.
</event>
<event>
 7    1  0.1381440E-008  0.4614232E+02  0.7816164E-02  0.1320468E+00
        -11   -1    0    0    0    0  0.00000000000E+00  0.00000000000E+00  0.45593999997E+02  0.45594000000E+02  0.51100000000E-03 0.  1.
         11   -1    0    0    0    0 -0.00000000000E+00 -0.00000000000E+00 -0.45593999997E+02  0.45594000000E+02  0.51100000000E-03 0. -1.
    9900012    2    1    2    0    0 -0.11155490918E+02 -0.12133028216E+02  0.41922046659E+02  0.46142319326E+02  0.10000014271E+02 0.  0.
         12    1    1    2    0    0  0.11155490918E+02  0.12133028216E+02 -0.41922046659E+02  0.45045680674E+02  0.00000000000E+00 0. -1.
         11    1    3    3    0    0  0.62335987186E+00 -0.79976851056E+00  0.19073486200E+01  0.21601356947E+01  0.51100000000E-03 0. -1.
        -11    1    3    3    0    0 -0.12146359968E+02 -0.11419648709E+02  0.33140663286E+02  0.37097789697E+02  0.51100000000E-03 0.  1.
        -12    1    3    3    0    0  0.36750917872E+00  0.86389003948E-01  0.68740347534E+01  0.68843939346E+01  0.00000000000E+00 0.  1.
</event>
<event>
 7    1  0.1381440E-008  0.4614232E+02  0.7816164E-02  0.1320468E+00
        -11   -1    0    0    0    0  0.00000000000E+00  0.00000000000E+00  0.45593999997E+02  0.45594000000E+02  0.51100000000E-03 0.  1.
         11   -1    0    0    0    0 -0.00000000000E+00 -0.00000000000E+00 -0.45593999997E+02  0.45594000000E+02  0.51100000000E-03 0. -1.
    9900012    2    1    2    0    0 -0.17167204427E+02  0.27517479799E+02  0.31260020516E+02  0.46142317799E+02  0.10000000344E+02 0.  0.
         12    1    1    2    0    0  0.17167204427E+02 -0.27517479799E+02 -0.31260020516E+02  0.45045682201E+02  0.00000000000E+00 0. -1.
         11    1    3    3    0    0 -0.88547482853E+01  0.15272508634E+02  0.15392833098E+02  0.23422113445E+02  0.51100000000E-03 0. -1.
        -11    1    3    3    0    0 -0.92578530773E+01  0.11072431044E+02  0.15481071437E+02  0.21165305241E+02  0.51100000000E-03 0.  1.
         12    1    3    3    0    0  0.94539693603E+00  0.11725401205E+01  0.38611598010E+00  0.15548991128E+01  0.00000000000E+00 0. -1.
</event>
<event>
 7    1  0.1381440E-008  0.4614232E+02  0.7816164E-02  0.1320468E+00
        -11   -1    0    0    0    0  0.00000000000E+00  0.00000000000E+00  0.45593999997E+02  0.45594000000E+02  0.51100000000E-03 0.  1.
         11   -1    0    0    0    0 -0.00000000000E+00 -0.00000000000E+00 -0.45593999997E+02  0.45594000000E+02  0.51100000000E-03 0. -1.
    9900012    2    1    2    0    0  0.27575706870E+01  0.15545658138E+02  0.42188171583E+02  0.46142317581E+02  0.99999983610E+01 0.  0.
         12    1    1    2    0    0 -0.27575706870E+01 -0.15545658138E+02 -0.42188171583E+02  0.45045682419E+02  0.00000000000E+00 0. -1.
         11    1    3    3    0    0  0.33201964830E+01  0.29518911850E+01  0.50445771491E+01  0.67219881827E+01  0.51100000000E-03 0. -1.
        -11    1    3    3    0    0 -0.13551111676E+01  0.30718776123E+01  0.13677369031E+02  0.14083436449E+02  0.51100000000E-03 0.  1.
         12    1    3    3    0    0  0.79248537157E+00  0.95218893408E+01  0.23466225403E+02  0.25336892950E+02  0.00000000000E+00 0. -1.
</event>
<event>
 7    1  0.1381440E-008  0.4614232E+02  0.7816164E-02  0.1320468E+00
        -11   -1    0    0    0    0  0.00000000000E+00  0.00000000000E+00  0.45593999997E+02  0.45594000000E+02  0.51100000000E-03 0. -1.
         11   -1    0    0    0    0 -0.00000000000E+00 -0.00000000000E+00 -0.45593999997E+02  0.45594000000E+02  0.51100000000E-03 0.  1.
    9900012    2    1    2    0    0 -0.99951438263E+01  0.37674280305E+02 -0.22580051672E+02  0.46142322848E+02  0.10000046388E+02 0.  0.
         12    1    1    2    0    0  0.99951438263E+01 -0.37674280305E+02  0.22580051672E+02  0.45045677152E+02  0.00000000000E+00 0. -1.
         11    1    3    3    0    0 -0.96791188652E+00  0.60140762294E+01 -0.65616913121E+01  0.89533099717E+01  0.51100000000E-03 0. -1.
        -11    1    3    3    0    0 -0.44953619311E+01  0.22397112630E+02 -0.13639533370E+02  0.26605935501E+02  0.51100000000E-03 0.  1.
         12    1    3    3    0    0 -0.45318700086E+01  0.92630914452E+01 -0.23788269895E+01  0.10583077376E+02  0.00000000000E+00 0. -1.
</event>
<event>
 7    1  0.1381440E-008  0.4614232E+02  0.7816164E-02  0.1320468E+00
        -11   -1    0    0    0    0  0.00000000000E+00  0.00000000000E+00  0.45593999997E+02  0.45594000000E+02  0.51100000000E-03 0.  1.
         11   -1    0    0    0    0 -0.00000000000E+00 -0.00000000000E+00 -0.45593999997E+02  0.45594000000E+02  0.51100000000E-03 0. -1.
    9900012    2    1    2    0    0  0.44276965588E+02 -0.29347876123E+01 -0.77492463413E+01  0.46142317867E+02  0.10000000961E+02 0.  0.
         12    1    1    2    0    0 -0.44276965588E+02  0.29347876123E+01  0.77492463413E+01  0.45045682133E+02  0.00000000000E+00 0. -1.
         11    1    3    3    0    0  0.21187153806E+02 -0.49829968588E+00 -0.64387339603E+01  0.22149516569E+02  0.51100000000E-03 0. -1.
        -11    1    3    3    0    0  0.17694073186E+02 -0.40840514639E+01  0.17007461264E+00  0.18160083367E+02  0.51100000000E-03 0.  1.
        -12    1    3    3    0    0  0.53957385964E+01  0.16475635374E+01 -0.14805869936E+01  0.58327179304E+01  0.00000000000E+00 0.  1.
</event>
<event>
 7    1  0.1381440E-008  0.4614232E+02  0.7816164E-02  0.1320468E+00
        -11   -1    0    0    0    0  0.00000000000E+00  0.00000000000E+00  0.45593999997E+02  0.45594000000E+02  0.51100000000E-03 0.  1.
         11   -1    0    0    0    0 -0.00000000000E+00 -0.00000000000E+00 -0.45593999997E+02  0.45594000000E+02  0.51100000000E-03 0. -1.
    9900012    2    1    2    0    0 -0.12989512781E+02  0.31599258040E+02  0.29357672114E+02  0.46142318044E+02  0.10000002576E+02 0.  0.
         12    1    1    2    0    0  0.12989512781E+02 -0.31599258040E+02 -0.29357672114E+02  0.45045681956E+02  0.00000000000E+00 0. -1.
         11    1    3    3    0    0  0.95249113209E+00  0.75900599429E+01  0.74018813831E+01  0.10644439749E+02  0.51100000000E-03 0. -1.
        -11    1    3    3    0    0 -0.10991666835E+02  0.20476998158E+02  0.19094773473E+02  0.30078805954E+02  0.51100000000E-03 0.  1.
         12    1    3    3    0    0 -0.29503370785E+01  0.35321999389E+01  0.28610172576E+01  0.54190723407E+01  0.00000000000E+00 0. -1.
</event>
<event>
 7    1  0.1381440E-008  0.4614232E+02  0.7816164E-02  0.1320468E+00
        -11   -1    0    0    0    0  0.00000000000E+00  0.00000000000E+00  0.45593999997E+02  0.45594000000E+02  0.51100000000E-03 0. -1.
         11   -1    0    0    0    0 -0.00000000000E+00 -0.00000000000E+00 -0.45593999997E+02  0.45594000000E+02  0.51100000000E-03 0.  1.
    9900012    2    1    2    0    0  0.42925172983E+02  0.23857002869E+01 -0.13448102225E+02  0.46142317688E+02  0.99999993349E+01 0.  0.
         12    1    1    2    0    0 -0.42925172983E+02 -0.23857002869E+01  0.13448102225E+02  0.45045682312E+02  0.00000000000E+00 0. -1.
         11    1    3    3    0    0  0.16227130345E+01  0.43120720579E+00 -0.23602062351E+01  0.28964997807E+01  0.51100000000E-03 0. -1.
        -11    1    3    3    0    0  0.25769047079E+02 -0.14548497914E+01 -0.82096924861E+01  0.27084302211E+02  0.51100000000E-03 0.  1.
         12    1    3    3    0    0  0.15533412870E+02  0.34093428725E+01 -0.28782035041E+01  0.16161515697E+02  0.00000000000E+00 0. -1.
</event>
<event>
 7    1  0.1381440E-008  0.4614232E+02  0.7816164E-02  0.1320468E+00
        -11   -1    0    0    0    0  0.00000000000E+00  0.00000000000E+00  0.45593999997E+02  0.45594000000E+02  0.51100000000E-03 0. -1.
         11   -1    0    0    0    0 -0.00000000000E+00 -0.00000000000E+00 -0.45593999997E+02  0.45594000000E+02  0.51100000000E-03 0.  1.
    9900012    2    1    2    0    0 -0.27134273323E+02  0.20650095140E+02 -0.29434983306E+02  0.46142318073E+02  0.10000002840E+02 0.  0.
         12    1    1    2    0    0  0.27134273323E+02 -0.20650095140E+02  0.29434983306E+02  0.45045681927E+02  0.00000000000E+00 0. -1.
         11    1    3    3    0    0 -0.24890984280E+02  0.16366445256E+02 -0.22695903496E+02  0.37450309271E+02  0.51100000000E-03 0. -1.
        -11    1    3    3    0    0 -0.17552942922E+01  0.31721544384E+01 -0.28311786556E+01  0.45999124637E+01  0.51100000000E-03 0.  1.
         12    1    3    3    0    0 -0.48799475117E+00  0.11114954454E+01 -0.39079011547E+01  0.40920963378E+01  0.00000000000E+00 0. -1.
</event>
<event>
 7    1  0.1381440E-008  0.4614232E+02  0.7816164E-02  0.1320468E+00
        -11   -1    0    0    0    0  0.00000000000E+00  0.00000000000E+00  0.45593999997E+02  0.45594000000E+02  0.51100000000E-03 0.  1.
         11   -1    0    0    0    0 -0.00000000000E+00 -0.00000000000E+00 -0.45593999997E+02  0.45594000000E+02  0.51100000000E-03 0. -1.
    9900012    2    1    2    0    0  0.44227207350E+01  0.44750656563E+02  0.26327988580E+01  0.46142319282E+02  0.10000013865E+02 0.  0.
         12    1    1    2    0    0 -0.44227207350E+01 -0.44750656563E+02 -0.26327988580E+01  0.45045680718E+02  0.00000000000E+00 0. -1.
         11    1    3    3    0    0  0.57797203124E+00  0.41278636825E+01 -0.20712252001E+01  0.46543833470E+01  0.51100000000E-03 0. -1.
        -11    1    3    3    0    0  0.51283792040E+01  0.23681534391E+02  0.28130182882E+01  0.24393204310E+02  0.51100000000E-03 0.  1.
        -12    1    3    3    0    0 -0.12836305002E+01  0.16941258490E+02  0.18910057699E+01  0.17094731625E+02  0.00000000000E+00 0.  1.
</event>
<event>
 7    1  0.1381440E-008  0.4614232E+02  0.7816164E-02  0.1320468E+00
        -11   -1    0    0    0    0  0.00000000000E+00  0.00000000000E+00  0.45593999997E+02  0.45594000000E+02  0.51100000000E-03 0. -1.
         11   -1    0    0    0    0 -0.00000000000E+00 -0.00000000000E+00 -0.45593999997E+02  0.45594000000E+02  0.51100000000E-03 0.  1.
    9900012    2    1    2    0    0  0.43262448795E+02  0.12544941421E+02 -0.31406197101E+00  0.46142315790E+02  0.99999820295E+01 0.  0.
         12    1    1    2    0    0 -0.43262448795E+02 -0.12544941421E+02  0.31406197101E+00  0.45045684210E+02  0.00000000000E+00 0. -1.
         11    1    3    3    0    0  0.37124560019E+01  0.31092556572E+01 -0.75294666622E+00  0.49006866102E+01  0.51100000000E-03 0. -1.
        -11    1    3    3    0    0  0.35258047271E+02  0.71637888657E+01  0.22740951908E+01  0.36050260436E+02  0.51100000000E-03 0.  1.
        -12    1    3    3    0    0  0.42919455218E+01  0.22718968979E+01 -0.18352104956E+01  0.51913687443E+01  0.00000000000E+00 0.  1.
</event>
<event>
 7    1  0.1381440E-008  0.4614232E+02  0.7816164E-02  0.1320468E+00
        -11   -1    0    0    0    0  0.00000000000E+00  0.00000000000E+00  0.45593999997E+02  0.45594000000E+02  0.51100000000E-03 0.  1.
         11   -1    0    0    0    0 -0.00000000000E+00 -0.00000000000E+00 -0.45593999997E+02  0.45594000000E+02  0.51100000000E-03 0. -1.
    9900012    2    1    2    0    0 -0.33871049313E+02  0.18662138528E+02  0.23099569088E+02  0.46142317764E+02  0.10000000030E+02 0.  0.
         12    1    1    2    0    0  0.33871049313E+02 -0.18662138528E+02 -0.23099569088E+02  0.45045682236E+02  0.00000000000E+00 0. -1.
         11    1    3    3    0    0 -0.39931545732E+01  0.17619970873E+01  0.94046159020E+00  0.44647939980E+01  0.51100000000E-03 0.  1.
        -11    1    3    3    0    0 -0.10259043141E+02  0.15782734914E+01  0.72549828055E+01  0.12663873387E+02  0.51100000000E-03 0. -1.
        -12    1    3    3    0    0 -0.19618851599E+02  0.15321867949E+02  0.14904124693E+02  0.29013650380E+02  0.00000000000E+00 0.  1.
</event>
<event>
 7    1  0.1381440E-008  0.4614232E+02  0.7816164E-02  0.1320468E+00
        -11   -1    0    0    0    0  0.00000000000E+00  0.00000000000E+00  0.45593999997E+02  0.45594000000E+02  0.51100000000E-03 0.  1.
         11   -1    0    0    0    0 -0.00000000000E+00 -0.00000000000E+00 -0.45593999997E+02  0.45594000000E+02  0.51100000000E-03 0. -1.
    9900012    2    1    2    0    0 -0.12137351176E+02 -0.36559363621E+02  0.23349755408E+02  0.46142318303E+02  0.10000004940E+02 0.  0.
         12    1    1    2    0    0  0.12137351176E+02  0.36559363621E+02 -0.23349755408E+02  0.45045681697E+02  0.00000000000E+00 0. -1.
         11    1    3    3    0    0 -0.59265973018E+01 -0.97515680022E+01  0.11076142610E+02  0.15902784959E+02  0.51100000000E-03 0. -1.
        -11    1    3    3    0    0 -0.30463101790E+01 -0.14719813387E+02  0.53578793307E+01  0.15958063261E+02  0.51100000000E-03 0.  1.
         12    1    3    3    0    0 -0.31644436954E+01 -0.12087982232E+02  0.69157334674E+01  0.14281470083E+02  0.00000000000E+00 0. -1.
</event>
<event>
 7    1  0.1381440E-008  0.4614231E+02  0.7816164E-02  0.1320468E+00
        -11   -1    0    0    0    0  0.00000000000E+00  0.00000000000E+00  0.45593999997E+02  0.45594000000E+02  0.51100000000E-03 0.  1.
         11   -1    0    0    0    0 -0.00000000000E+00 -0.00000000000E+00 -0.45593999997E+02  0.45594000000E+02  0.51100000000E-03 0. -1.
    9900012    2    1    2    0    0 -0.25426891176E+02 -0.29173554877E+02  0.23054094019E+02  0.46142308196E+02  0.99999127809E+01 0.  0.
         12    1    1    2    0    0  0.25426891176E+02  0.29173554877E+02 -0.23054094019E+02  0.45045691804E+02  0.00000000000E+00 0. -1.
         11    1    3    3    0    0 -0.65081704834E+01 -0.13953361843E+02  0.10694325071E+02  0.18746231054E+02  0.51100000000E-03 0. -1.
        -11    1    3    3    0    0 -0.15330754938E+02 -0.10949737411E+02  0.10119317385E+02  0.21385260834E+02  0.51100000000E-03 0.  1.
         12    1    3    3    0    0 -0.35879657547E+01 -0.42704556230E+01  0.22404515637E+01  0.60108163085E+01  0.00000000000E+00 0. -1.
</event>
<event>
 7    1  0.1381440E-008  0.4614232E+02  0.7816164E-02  0.1320468E+00
        -11   -1    0    0    0    0  0.00000000000E+00  0.00000000000E+00  0.45593999997E+02  0.45594000000E+02  0.51100000000E-03 0.  1.
         11   -1    0    0    0    0 -0.00000000000E+00 -0.00000000000E+00 -0.45593999997E+02  0.45594000000E+02  0.51100000000E-03 0. -1.
    9900012    2    1    2    0    0 -0.10063201851E+02 -0.20246305292E+02  0.38960654371E+02  0.46142317648E+02  0.99999989711E+01 0.  0.
         12    1    1    2    0    0  0.10063201851E+02  0.20246305292E+02 -0.38960654371E+02  0.45045682352E+02  0.00000000000E+00 0. -1.
         11    1    3    3    0    0 -0.85646113015E+01 -0.93453166884E+01  0.18735053882E+02  0.22620560448E+02  0.51100000000E-03 0. -1.
        -11    1    3    3    0    0  0.49331163002E+00 -0.80404490941E+01  0.10808249142E+02  0.13480001030E+02  0.51100000000E-03 0.  1.
         12    1    3    3    0    0 -0.19919021798E+01 -0.28605395099E+01  0.94173513479E+01  0.10041756171E+02  0.00000000000E+00 0. -1.
</event>
<event>
 7    1  0.1381440E-008  0.4614232E+02  0.7816164E-02  0.1320468E+00
        -11   -1    0    0    0    0  0.00000000000E+00  0.00000000000E+00  0.45593999997E+02  0.45594000000E+02  0.51100000000E-03 0.  1.
         11   -1    0    0    0    0 -0.00000000000E+00 -0.00000000000E+00 -0.45593999997E+02  0.45594000000E+02  0.51100000000E-03 0. -1.
    9900012    2    1    2    0    0  0.34912449740E+02 -0.22209251302E+02 -0.17804035985E+02  0.46142315550E+02  0.99999798369E+01 0.  0.
         12    1    1    2    0    0 -0.34912449740E+02  0.22209251302E+02  0.17804035985E+02  0.45045684450E+02  0.00000000000E+00 0. -1.
         11    1    3    3    0    0  0.28584502650E+01 -0.54111727794E+01 -0.12666452875E+01  0.62494735228E+01  0.51100000000E-03 0. -1.
        -11    1    3    3    0    0  0.18100469916E+02 -0.78637408867E+01 -0.89997210144E+01  0.21690099366E+02  0.51100000000E-03 0.  1.
         12    1    3    3    0    0  0.13953529559E+02 -0.89343376360E+01 -0.75376696831E+01  0.18202742661E+02  0.00000000000E+00 0. -1.
</event>
<event>
 7    1  0.1381440E-008  0.4614232E+02  0.7816164E-02  0.1320468E+00
        -11   -1    0    0    0    0  0.00000000000E+00  0.00000000000E+00  0.45593999997E+02  0.45594000000E+02  0.51100000000E-03 0.  1.
         11   -1    0    0    0    0 -0.00000000000E+00 -0.00000000000E+00 -0.45593999997E+02  0.45594000000E+02  0.51100000000E-03 0. -1.
    9900012    2    1    2    0    0 -0.36442747038E+01  0.23170425156E+02  0.38457303209E+02  0.46142317520E+02  0.99999977983E+01 0.  0.
         12    1    1    2    0    0  0.36442747038E+01 -0.23170425156E+02 -0.38457303209E+02  0.45045682480E+02  0.00000000000E+00 0. -1.
         11    1    3    3    0    0 -0.35540268041E+01  0.81142142583E+01  0.18255209459E+02  0.20290989434E+02  0.51100000000E-03 0.  1.
        -11    1    3    3    0    0 -0.27191499008E+01  0.10710548560E+02  0.13756930907E+02  0.17645474630E+02  0.51100000000E-03 0. -1.
        -12    1    3    3    0    0  0.26289020011E+01  0.43456623367E+01  0.64451628426E+01  0.82058534562E+01  0.00000000000E+00 0.  1.
</event>
<event>
 7    1  0.1381440E-008  0.4614232E+02  0.7816164E-02  0.1320468E+00
        -11   -1    0    0    0    0  0.00000000000E+00  0.00000000000E+00  0.45593999997E+02  0.45594000000E+02  0.51100000000E-03 0.  1.
         11   -1    0    0    0    0 -0.00000000000E+00 -0.00000000000E+00 -0.45593999997E+02  0.45594000000E+02  0.51100000000E-03 0. -1.
    9900012    2    1    2    0    0  0.38918817549E+02 -0.12676121946E+02  0.18808378351E+02  0.46142317374E+02  0.99999964707E+01 0.  0.
         12    1    1    2    0    0 -0.38918817549E+02  0.12676121946E+02 -0.18808378351E+02  0.45045682626E+02  0.00000000000E+00 0. -1.
         11    1    3    3    0    0  0.12617184555E+02 -0.68562469934E+01  0.41661720977E+01  0.14951871426E+02  0.51100000000E-03 0. -1.
        -11    1    3    3    0    0  0.11506402774E+02 -0.53298906764E+01  0.57693286863E+01  0.13931625647E+02  0.51100000000E-03 0.  1.
         12    1    3    3    0    0  0.14795230221E+02 -0.48998427671E+00  0.88728775667E+01  0.17258820301E+02  0.00000000000E+00 0. -1.
</event>
<event>
 7    1  0.1381440E-008  0.4614232E+02  0.7816164E-02  0.1320468E+00
        -11   -1    0    0    0    0  0.00000000000E+00  0.00000000000E+00  0.45593999997E+02  0.45594000000E+02  0.51100000000E-03 0.  1.
         11   -1    0    0    0    0 -0.00000000000E+00 -0.00000000000E+00 -0.45593999997E+02  0.45594000000E+02  0.51100000000E-03 0. -1.
    9900012    2    1    2    0    0 -0.19272443786E+02 -0.40321499393E+02  0.56447402830E+01  0.46142317681E+02  0.99999992655E+01 0.  0.
         12    1    1    2    0    0  0.19272443786E+02  0.40321499393E+02 -0.56447402830E+01  0.45045682319E+02  0.00000000000E+00 0. -1.
         11    1    3    3    0    0 -0.33957062146E+01 -0.14072247806E+02  0.64719267387E+00  0.14490612052E+02  0.51100000000E-03 0. -1.
        -11    1    3    3    0    0 -0.12760707123E+02 -0.24635758092E+02  0.45241944607E+01  0.28110933084E+02  0.51100000000E-03 0.  1.
         12    1    3    3    0    0 -0.31160304489E+01 -0.16134934942E+01  0.47335314844E+00  0.35407725453E+01  0.00000000000E+00 0. -1.
</event>
<event>
 7    1  0.1381440E-008  0.4614232E+02  0.7816164E-02  0.1320468E+00
        -11   -1    0    0    0    0  0.00000000000E+00  0.00000000000E+00  0.45593999997E+02  0.45594000000E+02  0.51100000000E-03 0.  1.
         11   -1    0    0    0    0 -0.00000000000E+00 -0.00000000000E+00 -0.45593999997E+02  0.45594000000E+02  0.51100000000E-03 0. -1.
    9900012    2    1    2    0    0 -0.27362742732E+02  0.14029675870E+02  0.32917502171E+02  0.46142318253E+02  0.10000004490E+02 0.  0.
         12    1    1    2    0    0  0.27362742732E+02 -0.14029675870E+02 -0.32917502171E+02  0.45045681747E+02  0.00000000000E+00 0. -1.
         11    1    3    3    0    0 -0.16486790123E+02  0.43011004007E+01  0.19655748742E+02  0.26012730962E+02  0.51100000000E-03 0. -1.
        -11    1    3    3    0    0 -0.90309773989E+01  0.94735438679E+01  0.10409921848E+02  0.16723428456E+02  0.51100000000E-03 0.  1.
        -12    1    3    3    0    0 -0.18449752094E+01  0.25503160095E+00  0.28518315815E+01  0.34061588351E+01  0.00000000000E+00 0.  1.
</event>
<event>
 7    1  0.1381440E-008  0.4614232E+02  0.7816164E-02  0.1320468E+00
        -11   -1    0    0    0    0  0.00000000000E+00  0.00000000000E+00  0.45593999997E+02  0.45594000000E+02  0.51100000000E-03 0.  1.
         11   -1    0    0    0    0 -0.00000000000E+00 -0.00000000000E+00 -0.45593999997E+02  0.45594000000E+02  0.51100000000E-03 0. -1.
    9900012    2    1    2    0    0 -0.12338363212E+02 -0.26706192630E+02  0.34112424450E+02  0.46142318371E+02  0.10000005564E+02 0.  0.
         12    1    1    2    0    0  0.12338363212E+02  0.26706192630E+02 -0.34112424450E+02  0.45045681629E+02  0.00000000000E+00 0. -1.
         11    1    3    3    0    0 -0.55425932051E+01 -0.99824514028E+01  0.81045458392E+01  0.14001904834E+02  0.51100000000E-03 0. -1.
        -11    1    3    3    0    0 -0.99935916892E+00 -0.85953181165E+01  0.14684510202E+02  0.17044443446E+02  0.51100000000E-03 0.  1.
        -12    1    3    3    0    0 -0.57964108384E+01 -0.81284231106E+01  0.11323368409E+02  0.15095970091E+02  0.00000000000E+00 0.  1.
</event>
<event>
 7    1  0.1381440E-008  0.4614232E+02  0.7816164E-02  0.1320468E+00
        -11   -1    0    0    0    0  0.00000000000E+00  0.00000000000E+00  0.45593999997E+02  0.45594000000E+02  0.51100000000E-03 0.  1.
         11   -1    0    0    0    0 -0.00000000000E+00 -0.00000000000E+00 -0.45593999997E+02  0.45594000000E+02  0.51100000000E-03 0. -1.
    9900012    2    1    2    0    0 -0.41800366914E+01 -0.38684753784E+02  0.22696489826E+02  0.46142317271E+02  0.99999955333E+01 0.  0.
         12    1    1    2    0    0  0.41800366914E+01  0.38684753784E+02 -0.22696489826E+02  0.45045682729E+02  0.00000000000E+00 0. -1.
         11    1    3    3    0    0  0.47495198476E+00 -0.19931325224E+00  0.21682811826E+01  0.22286203599E+01  0.51100000000E-03 0. -1.
        -11    1    3    3    0    0 -0.48605549670E+01 -0.37472697890E+02  0.19961346643E+02  0.42735037636E+02  0.51100000000E-03 0.  1.
        -12    1    3    3    0    0  0.20556629081E+00 -0.10127426418E+01  0.56686200087E+00  0.11786592749E+01  0.00000000000E+00 0.  1.
</event>
<event>
 7    1  0.1381440E-008  0.4614232E+02  0.7816164E-02  0.1320468E+00
        -11   -1    0    0    0    0  0.00000000000E+00  0.00000000000E+00  0.45593999997E+02  0.45594000000E+02  0.51100000000E-03 0. -1.
         11   -1    0    0    0    0 -0.00000000000E+00 -0.00000000000E+00 -0.45593999997E+02  0.45594000000E+02  0.51100000000E-03 0.  1.
    9900012    2    1    2    0    0 -0.28600473295E+02  0.28585148289E+02 -0.19849828092E+02  0.46142318180E+02  0.10000003817E+02 0.  0.
         12    1    1    2    0    0  0.28600473295E+02 -0.28585148289E+02  0.19849828092E+02  0.45045681820E+02  0.00000000000E+00 0. -1.
         11    1    3    3    0    0 -0.20551050709E+01  0.37519375921E+01 -0.15613218918E+01  0.45539234577E+01  0.51100000000E-03 0. -1.
        -11    1    3    3    0    0 -0.17670820722E+02  0.13653224109E+02 -0.15116170118E+02  0.26966034800E+02  0.51100000000E-03 0.  1.
        -12    1    3    3    0    0 -0.88745475017E+01  0.11179986588E+02 -0.31723360824E+01  0.14622359922E+02  0.00000000000E+00 0.  1.
</event>
<event>
 7    1  0.1381440E-008  0.4614232E+02  0.7816164E-02  0.1320468E+00
        -11   -1    0    0    0    0  0.00000000000E+00  0.00000000000E+00  0.45593999997E+02  0.45594000000E+02  0.51100000000E-03 0. -1.
         11   -1    0    0    0    0 -0.00000000000E+00 -0.00000000000E+00 -0.45593999997E+02  0.45594000000E+02  0.51100000000E-03 0.  1.
    9900012    2    1    2    0    0 -0.18465712318E+02  0.10501944918E+02 -0.39722036052E+02  0.46142317337E+02  0.99999961310E+01 0.  0.
         12    1    1    2    0    0  0.18465712318E+02 -0.10501944918E+02  0.39722036052E+02  0.45045682663E+02  0.00000000000E+00 0. -1.
         11    1    3    3    0    0 -0.15523378807E+02  0.63737550308E+01 -0.24073367427E+02  0.29344966559E+02  0.51100000000E-03 0. -1.
        -11    1    3    3    0    0  0.30669482865E+00  0.20803470583E+01 -0.74960197616E+01  0.77853849056E+01  0.51100000000E-03 0.  1.
        -12    1    3    3    0    0 -0.32490283403E+01  0.20478428285E+01 -0.81526488631E+01  0.90119658727E+01  0.00000000000E+00 0.  1.
</event>
<event>
 7    1  0.1381440E-008  0.4614232E+02  0.7816164E-02  0.1320468E+00
        -11   -1    0    0    0    0  0.00000000000E+00  0.00000000000E+00  0.45593999997E+02  0.45594000000E+02  0.51100000000E-03 0. -1.
         11   -1    0    0    0    0 -0.00000000000E+00 -0.00000000000E+00 -0.45593999997E+02  0.45594000000E+02  0.51100000000E-03 0.  1.
    9900012    2    1    2    0    0 -0.41014831790E+01 -0.43790290991E+02 -0.97314793119E+01  0.46142318310E+02  0.10000005006E+02 0.  0.
         12    1    1    2    0    0  0.41014831790E+01  0.43790290991E+02  0.97314793119E+01  0.45045681690E+02  0.00000000000E+00 0. -1.
         11    1    3    3    0    0 -0.66738719411E+01 -0.25160350953E+02 -0.51840910673E+01  0.26541639497E+02  0.51100000000E-03 0. -1.
        -11    1    3    3    0    0  0.19007163063E+01 -0.15722773857E+02 -0.49432541463E+01  0.16590783647E+02  0.51100000000E-03 0.  1.
         12    1    3    3    0    0  0.67167245586E+00 -0.29071661814E+01  0.39586590161E+00  0.30098951654E+01  0.00000000000E+00 0. -1.
</event>
<event>
 7    1  0.1381440E-008  0.4614232E+02  0.7816164E-02  0.1320468E+00
        -11   -1    0    0    0    0  0.00000000000E+00  0.00000000000E+00  0.45593999997E+02  0.45594000000E+02  0.51100000000E-03 0.  1.
         11   -1    0    0    0    0 -0.00000000000E+00 -0.00000000000E+00 -0.45593999997E+02  0.45594000000E+02  0.51100000000E-03 0. -1.
    9900012    2    1    2    0    0 -0.33312419670E+02 -0.29339676288E+02  0.76537315976E+01  0.46142317451E+02  0.99999971681E+01 0.  0.
         12    1    1    2    0    0  0.33312419670E+02  0.29339676288E+02 -0.76537315976E+01  0.45045682549E+02  0.00000000000E+00 0. -1.
         11    1    3    3    0    0 -0.53406252040E+01 -0.84514695181E+01 -0.76613580351E+00  0.10026793052E+02  0.51100000000E-03 0. -1.
        -11    1    3    3    0    0 -0.26736092955E+02 -0.18782311452E+02  0.79821231283E+01  0.33634925002E+02  0.51100000000E-03 0.  1.
        -12    1    3    3    0    0 -0.12357015106E+01 -0.21058953186E+01  0.43774427282E+00  0.24805993962E+01  0.00000000000E+00 0.  1.
</event>
<event>
 7    1  0.1381440E-008  0.4614232E+02  0.7816164E-02  0.1320468E+00
        -11   -1    0    0    0    0  0.00000000000E+00  0.00000000000E+00  0.45593999997E+02  0.45594000000E+02  0.51100000000E-03 0. -1.
         11   -1    0    0    0    0 -0.00000000000E+00 -0.00000000000E+00 -0.45593999997E+02  0.45594000000E+02  0.51100000000E-03 0.  1.
    9900012    2    1    2    0    0  0.34596463175E+00  0.15015834849E+02 -0.42467852282E+02  0.46142318018E+02  0.10000002346E+02 0.  0.
         12    1    1    2    0    0 -0.34596463175E+00 -0.15015834849E+02  0.42467852282E+02  0.45045681982E+02  0.00000000000E+00 0. -1.
         11    1    3    3    0    0 -0.19339183207E+01  0.66929068024E+01 -0.80359922593E+01  0.10635422577E+02  0.51100000000E-03 0. -1.
        -11    1    3    3    0    0  0.78906581173E+00  0.22719179055E+01 -0.11057479320E+02  0.11316010118E+02  0.51100000000E-03 0.  1.
         12    1    3    3    0    0  0.14908171407E+01  0.60510101410E+01 -0.23374380703E+02  0.24190885323E+02  0.00000000000E+00 0. -1.
</event>
<event>
 7    1  0.1381440E-008  0.4614232E+02  0.7816164E-02  0.1320468E+00
        -11   -1    0    0    0    0  0.00000000000E+00  0.00000000000E+00  0.45593999997E+02  0.45594000000E+02  0.51100000000E-03 0.  1.
         11   -1    0    0    0    0 -0.00000000000E+00 -0.00000000000E+00 -0.45593999997E+02  0.45594000000E+02  0.51100000000E-03 0. -1.
    9900012    2    1    2    0    0  0.10564913616E+02  0.36501661603E+02  0.24189352820E+02  0.46142317750E+02  0.99999998978E+01 0.  0.
         12    1    1    2    0    0 -0.10564913616E+02 -0.36501661603E+02 -0.24189352820E+02  0.45045682250E+02  0.00000000000E+00 0. -1.
         11    1    3    3    0    0 -0.11392292910E+01  0.55450659927E+01  0.16721477220E+01  0.59026840086E+01  0.51100000000E-03 0. -1.
        -11    1    3    3    0    0  0.92392178344E+01  0.27554322590E+02  0.20593842993E+02  0.35618958563E+02  0.51100000000E-03 0.  1.
        -12    1    3    3    0    0  0.24649250727E+01  0.34022730204E+01  0.19233621050E+01  0.46206751786E+01  0.00000000000E+00 0.  1.
</event>
<event>
 7    1  0.1381440E-008  0.4614232E+02  0.7816164E-02  0.1320468E+00
        -11   -1    0    0    0    0  0.00000000000E+00  0.00000000000E+00  0.45593999997E+02  0.45594000000E+02  0.51100000000E-03 0.  1.
         11   -1    0    0    0    0 -0.00000000000E+00 -0.00000000000E+00 -0.45593999997E+02  0.45594000000E+02  0.51100000000E-03 0. -1.
    9900012    2    1    2    0    0  0.89240430658E+01 -0.35683259876E+02  0.26003460322E+02  0.46142317312E+02  0.99999959088E+01 0.  0.
         12    1    1    2    0    0 -0.89240430658E+01  0.35683259876E+02 -0.26003460322E+02  0.45045682688E+02  0.00000000000E+00 0. -1.
         11    1    3    3    0    0  0.31159821192E+01 -0.18572742405E+02  0.13641252154E+02  0.23253814001E+02  0.51100000000E-03 0. -1.
        -11    1    3    3    0    0  0.57372518617E+01 -0.10559277040E+02  0.10790879175E+02  0.16151082446E+02  0.51100000000E-03 0.  1.
        -12    1    3    3    0    0  0.70809084993E-01 -0.65512404317E+01  0.15713289933E+01  0.67374208660E+01  0.00000000000E+00 0.  1.
</event>
<event>
 7    1  0.1381440E-008  0.4614232E+02  0.7816164E-02  0.1320468E+00
        -11   -1    0    0    0    0  0.00000000000E+00  0.00000000000E+00  0.45593999997E+02  0.45594000000E+02  0.51100000000E-03 0.  1.
         11   -1    0    0    0    0 -0.00000000000E+00 -0.00000000000E+00 -0.45593999997E+02  0.45594000000E+02  0.51100000000E-03 0. -1.
    9900012    2    1    2    0    0  0.27681559570E+02 -0.31756147644E+02 -0.15949672145E+02  0.46142315468E+02  0.99999790904E+01 0.  0.
         12    1    1    2    0    0 -0.27681559570E+02  0.31756147644E+02  0.15949672145E+02  0.45045684532E+02  0.00000000000E+00 0. -1.
         11    1    3    3    0    0  0.82757419665E+01 -0.11830877324E+02 -0.48166403118E+01  0.15220301821E+02  0.51100000000E-03 0. -1.
        -11    1    3    3    0    0  0.18606115433E+02 -0.15591619204E+02 -0.81762804444E+01  0.25615184619E+02  0.51100000000E-03 0.  1.
        -12    1    3    3    0    0  0.79970216983E+00 -0.43336511165E+01 -0.29567513889E+01  0.53068290283E+01  0.00000000000E+00 0.  1.
</event>
<event>
 7    1  0.1381440E-008  0.4614232E+02  0.7816164E-02  0.1320468E+00
        -11   -1    0    0    0    0  0.00000000000E+00  0.00000000000E+00  0.45593999997E+02  0.45594000000E+02  0.51100000000E-03 0. -1.
         11   -1    0    0    0    0 -0.00000000000E+00 -0.00000000000E+00 -0.45593999997E+02  0.45594000000E+02  0.51100000000E-03 0.  1.
    9900012    2    1    2    0    0  0.13947818581E+02  0.35184347800E+02 -0.24426082992E+02  0.46142317592E+02  0.99999984601E+01 0.  0.
         12    1    1    2    0    0 -0.13947818581E+02 -0.35184347800E+02  0.24426082992E+02  0.45045682408E+02  0.00000000000E+00 0. -1.
         11    1    3    3    0    0  0.32533169979E+01  0.25826669457E+01 -0.27655963925E+01  0.49902668975E+01  0.51100000000E-03 0. -1.
        -11    1    3    3    0    0 -0.17996321767E+00  0.90218170343E+01 -0.55796766219E+01  0.10609352517E+02  0.51100000000E-03 0.  1.
        -12    1    3    3    0    0  0.10874464800E+02  0.23579863820E+02 -0.16080809978E+02  0.30542698178E+02  0.00000000000E+00 0.  1.
</event>
<event>
 7    1  0.1381440E-008  0.4614232E+02  0.7816164E-02  0.1320468E+00
        -11   -1    0    0    0    0  0.00000000000E+00  0.00000000000E+00  0.45593999997E+02  0.45594000000E+02  0.51100000000E-03 0. -1.
         11   -1    0    0    0    0 -0.00000000000E+00 -0.00000000000E+00 -0.45593999997E+02  0.45594000000E+02  0.51100000000E-03 0.  1.
    9900012    2    1    2    0    0 -0.12643313714E+02  0.36638688886E+02 -0.22953573541E+02  0.46142318262E+02  0.10000004570E+02 0.  0.
         12    1    1    2    0    0  0.12643313714E+02 -0.36638688886E+02  0.22953573541E+02  0.45045681738E+02  0.00000000000E+00 0. -1.
         11    1    3    3    0    0 -0.54778035412E+00  0.81858162348E+00  0.13372683481E+00  0.99399311774E+00  0.51100000000E-03 0. -1.
        -11    1    3    3    0    0 -0.76400060959E+01  0.99704224303E+01 -0.70776127365E+01  0.14417753601E+02  0.51100000000E-03 0.  1.
        -12    1    3    3    0    0 -0.44555272640E+01  0.25849684832E+02 -0.16009687639E+02  0.30730571544E+02  0.00000000000E+00 0.  1.
</event>
<event>
 7    1  0.1381440E-008  0.4614231E+02  0.7816164E-02  0.1320468E+00
        -11   -1    0    0    0    0  0.00000000000E+00  0.00000000000E+00  0.45593999997E+02  0.45594000000E+02  0.51100000000E-03 0.  1.
         11   -1    0    0    0    0 -0.00000000000E+00 -0.00000000000E+00 -0.45593999997E+02  0.45594000000E+02  0.51100000000E-03 0. -1.
    9900012    2    1    2    0    0  0.25384937029E+02  0.35576710918E+02  0.10909466839E+02  0.46142313698E+02  0.99999629488E+01 0.  0.
         12    1    1    2    0    0 -0.25384937029E+02 -0.35576710918E+02 -0.10909466839E+02  0.45045686302E+02  0.00000000000E+00 0. -1.
         11    1    3    3    0    0  0.42458264568E+01  0.67723679881E+01 -0.12744372023E+01  0.80942078619E+01  0.51100000000E-03 0. -1.
        -11    1    3    3    0    0  0.79044852322E+01  0.81095596288E+01  0.22236168573E+01  0.11540810905E+02  0.51100000000E-03 0.  1.
         12    1    3    3    0    0  0.13234625340E+02  0.20694783301E+02  0.99602871838E+01  0.26507294931E+02  0.00000000000E+00 0. -1.
</event>
<event>
 7    1  0.1381440E-008  0.4614232E+02  0.7816164E-02  0.1320468E+00
        -11   -1    0    0    0    0  0.00000000000E+00  0.00000000000E+00  0.45593999997E+02  0.45594000000E+02  0.51100000000E-03 0. -1.
         11   -1    0    0    0    0 -0.00000000000E+00 -0.00000000000E+00 -0.45593999997E+02  0.45594000000E+02  0.51100000000E-03 0.  1.
    9900012    2    1    2    0    0  0.20291909748E+02 -0.37892541272E+02 -0.13472461434E+02  0.46142317606E+02  0.99999985857E+01 0.  0.
         12    1    1    2    0    0 -0.20291909748E+02  0.37892541272E+02  0.13472461434E+02  0.45045682394E+02  0.00000000000E+00 0. -1.
         11    1    3    3    0    0 -0.61171581023E+00 -0.33712130615E+01 -0.15494993380E-01  0.34262974323E+01  0.51100000000E-03 0. -1.
        -11    1    3    3    0    0  0.14313645870E+02 -0.26851533249E+02 -0.10005540485E+02  0.32031174449E+02  0.51100000000E-03 0.  1.
        -12    1    3    3    0    0  0.65899796881E+01 -0.76697949613E+01 -0.34514259558E+01  0.10684845725E+02  0.00000000000E+00 0.  1.
</event>
<event>
 7    1  0.1381440E-008  0.4614232E+02  0.7816164E-02  0.1320468E+00
        -11   -1    0    0    0    0  0.00000000000E+00  0.00000000000E+00  0.45593999997E+02  0.45594000000E+02  0.51100000000E-03 0. -1.
         11   -1    0    0    0    0 -0.00000000000E+00 -0.00000000000E+00 -0.45593999997E+02  0.45594000000E+02  0.51100000000E-03 0.  1.
    9900012    2    1    2    0    0  0.42054242599E+02 -0.18538291416E+01 -0.16034882192E+02  0.46142318187E+02  0.10000003886E+02 0.  0.
         12    1    1    2    0    0 -0.42054242599E+02  0.18538291416E+01  0.16034882192E+02  0.45045681813E+02  0.00000000000E+00 0. -1.
         11    1    3    3    0    0  0.20643945858E+02 -0.54056795705E+01 -0.92812557222E+01  0.23270917047E+02  0.51100000000E-03 0. -1.
        -11    1    3    3    0    0  0.19633845208E+02  0.25148710987E+01 -0.60819194080E+01  0.20707539647E+02  0.51100000000E-03 0.  1.
         12    1    3    3    0    0  0.17764515338E+01  0.10369793302E+01 -0.67170706160E+00  0.21638614927E+01  0.00000000000E+00 0. -1.
</event>
<event>
 7    1  0.1381440E-008  0.4614232E+02  0.7816164E-02  0.1320468E+00
        -11   -1    0    0    0    0  0.00000000000E+00  0.00000000000E+00  0.45593999997E+02  0.45594000000E+02  0.51100000000E-03 0.  1.
         11   -1    0    0    0    0 -0.00000000000E+00 -0.00000000000E+00 -0.45593999997E+02  0.45594000000E+02  0.51100000000E-03 0. -1.
    9900012    2    1    2    0    0 -0.22372308878E+02 -0.32175744603E+02  0.22210694310E+02  0.46142315556E+02  0.99999798922E+01 0.  0.
         12    1    1    2    0    0  0.22372308878E+02  0.32175744603E+02 -0.22210694310E+02  0.45045684444E+02  0.00000000000E+00 0. -1.
         11    1    3    3    0    0 -0.17046828768E+02 -0.19044803609E+02  0.12725093004E+02  0.28552178687E+02  0.51100000000E-03 0. -1.
        -11    1    3    3    0    0 -0.51840895110E+01 -0.91748216577E+01  0.84247913510E+01  0.13491821451E+02  0.51100000000E-03 0.  1.
         12    1    3    3    0    0 -0.14139059979E+00 -0.39561193360E+01  0.10608099547E+01  0.40983154176E+01  0.00000000000E+00 0. -1.
</event>
<event>
 7    1  0.1381440E-008  0.4614232E+02  0.7816164E-02  0.1320468E+00
        -11   -1    0    0    0    0  0.00000000000E+00  0.00000000000E+00  0.45593999997E+02  0.45594000000E+02  0.51100000000E-03 0.  1.
         11   -1    0    0    0    0 -0.00000000000E+00 -0.00000000000E+00 -0.45593999997E+02  0.45594000000E+02  0.51100000000E-03 0. -1.
    9900012    2    1    2    0    0  0.49001376821E+01 -0.24192347873E+02  0.37680664936E+02  0.46142317022E+02  0.99999932619E+01 0.  0.
         12    1    1    2    0    0 -0.49001376821E+01  0.24192347873E+02 -0.37680664936E+02  0.45045682978E+02  0.00000000000E+00 0. -1.
         11    1    3    3    0    0 -0.19908845423E+01 -0.39440700443E+01  0.98491004786E+01  0.10794632475E+02  0.51100000000E-03 0. -1.
        -11    1    3    3    0    0  0.23963542109E+01 -0.12239946099E+02  0.17948981812E+02  0.21856915207E+02  0.51100000000E-03 0.  1.
         12    1    3    3    0    0  0.44946680135E+01 -0.80083317297E+01  0.98825826456E+01  0.13490769340E+02  0.00000000000E+00 0. -1.
</event>
<event>
 7    1  0.1381440E-008  0.4614232E+02  0.7816164E-02  0.1320468E+00
        -11   -1    0    0    0    0  0.00000000000E+00  0.00000000000E+00  0.45593999997E+02  0.45594000000E+02  0.51100000000E-03 0. -1.
         11   -1    0    0    0    0 -0.00000000000E+00 -0.00000000000E+00 -0.45593999997E+02  0.45594000000E+02  0.51100000000E-03 0.  1.
    9900012    2    1    2    0    0 -0.12858591163E+02 -0.41415755934E+02  0.12186277631E+02  0.46142316869E+02  0.99999918632E+01 0.  0.
         12    1    1    2    0    0  0.12858591163E+02  0.41415755934E+02 -0.12186277631E+02  0.45045683131E+02  0.00000000000E+00 0. -1.
         11    1    3    3    0    0 -0.65867423616E+01 -0.20961640706E+02  0.68567896081E+01  0.23017191836E+02  0.51100000000E-03 0.  1.
        -11    1    3    3    0    0 -0.74674466074E+01 -0.16684180091E+02  0.29671376325E+01  0.18518329572E+02  0.51100000000E-03 0. -1.
         12    1    3    3    0    0  0.11955978064E+01 -0.37699351369E+01  0.23623503906E+01  0.46067954610E+01  0.00000000000E+00 0. -1.
</event>
<event>
 7    1  0.1381440E-008  0.4614233E+02  0.7816164E-02  0.1320468E+00
        -11   -1    0    0    0    0  0.00000000000E+00  0.00000000000E+00  0.45593999997E+02  0.45594000000E+02  0.51100000000E-03 0.  1.
         11   -1    0    0    0    0 -0.00000000000E+00 -0.00000000000E+00 -0.45593999997E+02  0.45594000000E+02  0.51100000000E-03 0. -1.
    9900012    2    1    2    0    0  0.44324103345E+02 -0.14324464573E+01  0.79015318532E+01  0.46142331553E+02  0.10000125768E+02 0.  0.
         12    1    1    2    0    0 -0.44324103345E+02  0.14324464573E+01 -0.79015318532E+01  0.45045668447E+02  0.00000000000E+00 0. -1.
         11    1    3    3    0    0  0.14052865446E+01  0.53218653013E+00  0.16195389338E+01  0.22092893415E+01  0.51100000000E-03 0. -1.
        -11    1    3    3    0    0  0.15127819842E+01 -0.58372841767E-01 -0.10463402421E+01  0.18403110834E+01  0.51100000000E-03 0.  1.
        -12    1    3    3    0    0  0.41406034816E+02 -0.19062601457E+01  0.73283331616E+01  0.42092731129E+02  0.00000000000E+00 0.  1.
</event>
<event>
 7    1  0.1381440E-008  0.4614232E+02  0.7816164E-02  0.1320468E+00
        -11   -1    0    0    0    0  0.00000000000E+00  0.00000000000E+00  0.45593999997E+02  0.45594000000E+02  0.51100000000E-03 0. -1.
         11   -1    0    0    0    0 -0.00000000000E+00 -0.00000000000E+00 -0.45593999997E+02  0.45594000000E+02  0.51100000000E-03 0.  1.
    9900012    2    1    2    0    0  0.44023469198E+02  0.60099707467E+01  0.74113386138E+01  0.46142317314E+02  0.99999959225E+01 0.  0.
         12    1    1    2    0    0 -0.44023469198E+02 -0.60099707467E+01 -0.74113386138E+01  0.45045682686E+02  0.00000000000E+00 0. -1.
         11    1    3    3    0    0  0.15453493349E+02  0.31248593805E+01  0.12732260578E+00  0.15766781984E+02  0.51100000000E-03 0. -1.
        -11    1    3    3    0    0  0.16860875487E+02  0.45153039761E+01  0.61179991761E+01  0.18496134903E+02  0.51100000000E-03 0.  1.
        -12    1    3    3    0    0  0.11709100362E+02 -0.16301926099E+01  0.11660168319E+01  0.11879400426E+02  0.00000000000E+00 0.  1.
</event>
<event>
 7    1  0.1381440E-008  0.4614232E+02  0.7816164E-02  0.1320468E+00
        -11   -1    0    0    0    0  0.00000000000E+00  0.00000000000E+00  0.45593999997E+02  0.45594000000E+02  0.51100000000E-03 0.  1.
         11   -1    0    0    0    0 -0.00000000000E+00 -0.00000000000E+00 -0.45593999997E+02  0.45594000000E+02  0.51100000000E-03 0. -1.
    9900012    2    1    2    0    0 -0.74596392501E+01  0.23908140997E+02  0.37441528348E+02  0.46142317980E+02  0.10000001993E+02 0.  0.
         12    1    1    2    0    0  0.74596392501E+01 -0.23908140997E+02 -0.37441528348E+02  0.45045682020E+02  0.00000000000E+00 0. -1.
         11    1    3    3    0    0  0.15583877642E+01  0.55224895517E+01  0.10735108159E+02  0.12172469376E+02  0.51100000000E-03 0. -1.
        -11    1    3    3    0    0 -0.40347356223E+01  0.13011421007E+02  0.18367452676E+02  0.22867870173E+02  0.51100000000E-03 0.  1.
        -12    1    3    3    0    0 -0.49832913920E+01  0.53742304375E+01  0.83389675133E+01  0.11101978431E+02  0.00000000000E+00 0.  1.
</event>
<event>
 7    1  0.1381440E-008  0.4614232E+02  0.7816164E-02  0.1320468E+00
        -11   -1    0    0    0    0  0.00000000000E+00  0.00000000000E+00  0.45593999997E+02  0.45594000000E+02  0.51100000000E-03 0.  1.
         11   -1    0    0    0    0 -0.00000000000E+00 -0.00000000000E+00 -0.45593999997E+02  0.45594000000E+02  0.51100000000E-03 0. -1.
    9900012    2    1    2    0    0 -0.58218732572E+01 -0.18178149096E+02  0.40801644681E+02  0.46142317394E+02  0.99999966495E+01 0.  0.
         12    1    1    2    0    0  0.58218732572E+01  0.18178149096E+02 -0.40801644681E+02  0.45045682606E+02  0.00000000000E+00 0. -1.
         11    1    3    3    0    0  0.40622305899E-01 -0.47951906897E+01  0.60503255613E+01  0.77202295032E+01  0.51100000000E-03 0. -1.
        -11    1    3    3    0    0 -0.53375723615E+01 -0.32693810543E+01  0.13610347398E+02  0.14980657120E+02  0.51100000000E-03 0.  1.
        -12    1    3    3    0    0 -0.52492320154E+00 -0.10113577352E+02  0.21140971722E+02  0.23441430770E+02  0.00000000000E+00 0.  1.
</event>
<event>
 7    1  0.1381440E-008  0.4614232E+02  0.7816164E-02  0.1320468E+00
        -11   -1    0    0    0    0  0.00000000000E+00  0.00000000000E+00  0.45593999997E+02  0.45594000000E+02  0.51100000000E-03 0. -1.
         11   -1    0    0    0    0 -0.00000000000E+00 -0.00000000000E+00 -0.45593999997E+02  0.45594000000E+02  0.51100000000E-03 0.  1.
    9900012    2    1    2    0    0  0.37513655722E+02 -0.23663073303E+02 -0.78675373110E+01  0.46142317109E+02  0.99999940534E+01 0.  0.
         12    1    1    2    0    0 -0.37513655722E+02  0.23663073303E+02  0.78675373110E+01  0.45045682891E+02  0.00000000000E+00 0. -1.
         11    1    3    3    0    0  0.18431827076E+02 -0.13231305644E+02  0.28739284254E+00  0.22691017899E+02  0.51100000000E-03 0. -1.
        -11    1    3    3    0    0  0.14247457293E+02 -0.87517558160E+01 -0.73722032846E+01  0.18273824195E+02  0.51100000000E-03 0.  1.
        -12    1    3    3    0    0  0.48343713539E+01 -0.16800118422E+01 -0.78272686888E+00  0.51774750148E+01  0.00000000000E+00 0.  1.
</event>
<event>
 7    1  0.1381440E-008  0.4614232E+02  0.7816164E-02  0.1320468E+00
        -11   -1    0    0    0    0  0.00000000000E+00  0.00000000000E+00  0.45593999997E+02  0.45594000000E+02  0.51100000000E-03 0. -1.
         11   -1    0    0    0    0 -0.00000000000E+00 -0.00000000000E+00 -0.45593999997E+02  0.45594000000E+02  0.51100000000E-03 0.  1.
    9900012    2    1    2    0    0  0.21627896846E+02  0.13168840854E+02 -0.37254922444E+02  0.46142317213E+02  0.99999950061E+01 0.  0.
         12    1    1    2    0    0 -0.21627896846E+02 -0.13168840854E+02  0.37254922444E+02  0.45045682787E+02  0.00000000000E+00 0. -1.
         11    1    3    3    0    0 -0.80416636847E+00 -0.37860617922E+00 -0.19790657307E+01  0.21694993926E+01  0.51100000000E-03 0. -1.
        -11    1    3    3    0    0  0.64914753647E+01  0.45212804793E+01 -0.97971605818E+01  0.12592282768E+02  0.51100000000E-03 0.  1.
         12    1    3    3    0    0  0.15940587849E+02  0.90261665541E+01 -0.25478696131E+02  0.31380535053E+02  0.00000000000E+00 0. -1.
</event>
<event>
 7    1  0.1381440E-008  0.4614232E+02  0.7816164E-02  0.1320468E+00
        -11   -1    0    0    0    0  0.00000000000E+00  0.00000000000E+00  0.45593999997E+02  0.45594000000E+02  0.51100000000E-03 0.  1.
         11   -1    0    0    0    0 -0.00000000000E+00 -0.00000000000E+00 -0.45593999997E+02  0.45594000000E+02  0.51100000000E-03 0. -1.
    9900012    2    1    2    0    0  0.28517804578E+02 -0.34504578579E+02  0.50281588069E+01  0.46142317611E+02  0.99999986353E+01 0.  0.
         12    1    1    2    0    0 -0.28517804578E+02  0.34504578579E+02 -0.50281588069E+01  0.45045682389E+02  0.00000000000E+00 0. -1.
         11    1    3    3    0    0  0.38259148655E+01 -0.79020385063E+01 -0.19851942313E+01  0.90011573428E+01  0.51100000000E-03 0. -1.
        -11    1    3    3    0    0  0.22147365718E+02 -0.25122500515E+02  0.59753843464E+01  0.34019862709E+02  0.51100000000E-03 0.  1.
         12    1    3    3    0    0  0.25445239946E+01 -0.14800395570E+01  0.10379686918E+01  0.31212975594E+01  0.00000000000E+00 0. -1.
</event>
<event>
 7    1  0.1381440E-008  0.4614232E+02  0.7816164E-02  0.1320468E+00
        -11   -1    0    0    0    0  0.00000000000E+00  0.00000000000E+00  0.45593999997E+02  0.45594000000E+02  0.51100000000E-03 0. -1.
         11   -1    0    0    0    0 -0.00000000000E+00 -0.00000000000E+00 -0.45593999997E+02  0.45594000000E+02  0.51100000000E-03 0.  1.
    9900012    2    1    2    0    0  0.17384085633E+02  0.24388811158E+02 -0.33646588299E+02  0.46142318219E+02  0.10000004171E+02 0.  0.
         12    1    1    2    0    0 -0.17384085633E+02 -0.24388811158E+02  0.33646588299E+02  0.45045681781E+02  0.00000000000E+00 0. -1.
         11    1    3    3    0    0  0.16223899882E+01  0.70928501208E+00 -0.43572120403E+01  0.47032469133E+01  0.51100000000E-03 0. -1.
        -11    1    3    3    0    0  0.89921180941E+01  0.15263361507E+02 -0.13338112139E+02  0.22175067712E+02  0.51100000000E-03 0.  1.
        -12    1    3    3    0    0  0.67695775505E+01  0.84161646386E+01 -0.15951264120E+02  0.19264003594E+02  0.00000000000E+00 0.  1.
</event>
<event>
 7    1  0.1381440E-008  0.4614232E+02  0.7816164E-02  0.1320468E+00
        -11   -1    0    0    0    0  0.00000000000E+00  0.00000000000E+00  0.45593999997E+02  0.45594000000E+02  0.51100000000E-03 0.  1.
         11   -1    0    0    0    0 -0.00000000000E+00 -0.00000000000E+00 -0.45593999997E+02  0.45594000000E+02  0.51100000000E-03 0. -1.
    9900012    2    1    2    0    0 -0.83563573350E+00  0.21311885609E+02  0.39676423327E+02  0.46142319593E+02  0.10000016704E+02 0.  0.
         12    1    1    2    0    0  0.83563573350E+00 -0.21311885609E+02 -0.39676423327E+02  0.45045680407E+02  0.00000000000E+00 0. -1.
         11    1    3    3    0    0  0.12668376590E+01  0.30961424345E+00  0.46611408142E+01  0.48401417939E+01  0.51100000000E-03 0. -1.
        -11    1    3    3    0    0 -0.79088722070E+00  0.18847486255E+02  0.27288281002E+02  0.33173837901E+02  0.51100000000E-03 0.  1.
         12    1    3    3    0    0 -0.13115861718E+01  0.21547851110E+01  0.77270015105E+01  0.81283398984E+01  0.00000000000E+00 0. -1.
</event>
<event>
 7    1  0.1381440E-008  0.4614232E+02  0.7816164E-02  0.1320468E+00
        -11   -1    0    0    0    0  0.00000000000E+00  0.00000000000E+00  0.45593999997E+02  0.45594000000E+02  0.51100000000E-03 0. -1.
         11   -1    0    0    0    0 -0.00000000000E+00 -0.00000000000E+00 -0.45593999997E+02  0.45594000000E+02  0.51100000000E-03 0.  1.
    9900012    2    1    2    0    0 -0.38946475788E+02  0.10246215526E+02 -0.20181690236E+02  0.46142317302E+02  0.99999958143E+01 0.  0.
         12    1    1    2    0    0  0.38946475788E+02 -0.10246215526E+02  0.20181690236E+02  0.45045682698E+02  0.00000000000E+00 0. -1.
         11    1    3    3    0    0 -0.76516367973E+01 -0.11790871387E+01 -0.23078142022E+01  0.80786012905E+01  0.51100000000E-03 0. -1.
        -11    1    3    3    0    0 -0.20971396866E+02  0.86094611898E+01 -0.14200099754E+02  0.26750049379E+02  0.51100000000E-03 0.  1.
        -12    1    3    3    0    0 -0.10323442125E+02  0.28158414750E+01 -0.36737762800E+01  0.11313666633E+02  0.00000000000E+00 0.  1.
</event>
<event>
 7    1  0.1381440E-008  0.4614232E+02  0.7816164E-02  0.1320468E+00
        -11   -1    0    0    0    0  0.00000000000E+00  0.00000000000E+00  0.45593999997E+02  0.45594000000E+02  0.51100000000E-03 0.  1.
         11   -1    0    0    0    0 -0.00000000000E+00 -0.00000000000E+00 -0.45593999997E+02  0.45594000000E+02  0.51100000000E-03 0. -1.
    9900012    2    1    2    0    0  0.18331474629E+02  0.12522484483E+01  0.41127877590E+02  0.46142318705E+02  0.10000008605E+02 0.  0.
         12    1    1    2    0    0 -0.18331474629E+02 -0.12522484483E+01 -0.41127877590E+02  0.45045681295E+02  0.00000000000E+00 0. -1.
         11    1    3    3    0    0  0.17994776102E+01  0.22565967057E+01  0.73962057452E+01  0.79394085453E+01  0.51100000000E-03 0. -1.
        -11    1    3    3    0    0  0.48663262923E+01  0.12356974100E+01  0.48802277042E+01  0.70017642333E+01  0.51100000000E-03 0.  1.
        -12    1    3    3    0    0  0.11665670727E+02 -0.22400456674E+01  0.28851444141E+02  0.31201145926E+02  0.00000000000E+00 0.  1.
</event>
<event>
 7    1  0.1381440E-008  0.4614232E+02  0.7816164E-02  0.1320468E+00
        -11   -1    0    0    0    0  0.00000000000E+00  0.00000000000E+00  0.45593999997E+02  0.45594000000E+02  0.51100000000E-03 0.  1.
         11   -1    0    0    0    0 -0.00000000000E+00 -0.00000000000E+00 -0.45593999997E+02  0.45594000000E+02  0.51100000000E-03 0. -1.
    9900012    2    1    2    0    0 -0.13519804520E+02  0.16644343581E+02  0.39614318251E+02  0.46142317654E+02  0.99999990205E+01 0.  0.
         12    1    1    2    0    0  0.13519804520E+02 -0.16644343581E+02 -0.39614318251E+02  0.45045682346E+02  0.00000000000E+00 0. -1.
         11    1    3    3    0    0 -0.16963936870E+01  0.72513186662E+01  0.14301702625E+02  0.16124455717E+02  0.51100000000E-03 0. -1.
        -11    1    3    3    0    0 -0.96651251565E+01  0.86617296489E+01  0.16937215713E+02  0.21337982125E+02  0.51100000000E-03 0.  1.
        -12    1    3    3    0    0 -0.21582856769E+01  0.73129526604E+00  0.83753999139E+01  0.86798798118E+01  0.00000000000E+00 0.  1.
</event>
<event>
 7    1  0.1381440E-008  0.4614232E+02  0.7816164E-02  0.1320468E+00
        -11   -1    0    0    0    0  0.00000000000E+00  0.00000000000E+00  0.45593999997E+02  0.45594000000E+02  0.51100000000E-03 0.  1.
         11   -1    0    0    0    0 -0.00000000000E+00 -0.00000000000E+00 -0.45593999997E+02  0.45594000000E+02  0.51100000000E-03 0. -1.
    9900012    2    1    2    0    0  0.23853245071E+02  0.20503589177E+02  0.32244984246E+02  0.46142317870E+02  0.10000000991E+02 0.  0.
         12    1    1    2    0    0 -0.23853245071E+02 -0.20503589177E+02 -0.32244984246E+02  0.45045682130E+02  0.00000000000E+00 0. -1.
         11    1    3    3    0    0  0.14545155585E+02  0.86593993003E+01  0.16099501087E+02  0.23361093355E+02  0.51100000000E-03 0.  1.
        -11    1    3    3    0    0  0.76103545563E+01  0.11400353467E+02  0.15926489511E+02  0.21012820469E+02  0.51100000000E-03 0. -1.
         12    1    3    3    0    0  0.16977349302E+01  0.44383640916E+00  0.21899364757E+00  0.17684040458E+01  0.00000000000E+00 0. -1.
</event>
<event>
 7    1  0.1381440E-008  0.4614232E+02  0.7816164E-02  0.1320468E+00
        -11   -1    0    0    0    0  0.00000000000E+00  0.00000000000E+00  0.45593999997E+02  0.45594000000E+02  0.51100000000E-03 0.  1.
         11   -1    0    0    0    0 -0.00000000000E+00 -0.00000000000E+00 -0.45593999997E+02  0.45594000000E+02  0.51100000000E-03 0. -1.
    9900012    2    1    2    0    0  0.11247902960E+02 -0.11066738113E+02  0.42191532773E+02  0.46142318174E+02  0.10000003766E+02 0.  0.
         12    1    1    2    0    0 -0.11247902960E+02  0.11066738113E+02 -0.42191532773E+02  0.45045681826E+02  0.00000000000E+00 0. -1.
         11    1    3    3    0    0  0.20896376480E+01 -0.51416624889E+01  0.74326937773E+01  0.92762177475E+01  0.51100000000E-03 0. -1.
        -11    1    3    3    0    0  0.23898457031E+01  0.51867942674E+00  0.12296347874E+02  0.12537167229E+02  0.51100000000E-03 0.  1.
        -12    1    3    3    0    0  0.67684196087E+01 -0.64437550507E+01  0.22462491121E+02  0.24328933197E+02  0.00000000000E+00 0.  1.
</event>
<event>
 7    1  0.1381440E-008  0.4614232E+02  0.7816164E-02  0.1320468E+00
        -11   -1    0    0    0    0  0.00000000000E+00  0.00000000000E+00  0.45593999997E+02  0.45594000000E+02  0.51100000000E-03 0. -1.
         11   -1    0    0    0    0 -0.00000000000E+00 -0.00000000000E+00 -0.45593999997E+02  0.45594000000E+02  0.51100000000E-03 0.  1.
    9900012    2    1    2    0    0 -0.19952297832E+01  0.33898435132E+02 -0.29597780876E+02  0.46142317864E+02  0.10000000940E+02 0.  0.
         12    1    1    2    0    0  0.19952297832E+01 -0.33898435132E+02  0.29597780876E+02  0.45045682136E+02  0.00000000000E+00 0. -1.
         11    1    3    3    0    0  0.15245068298E+01  0.49639586561E+01 -0.12124481455E+01  0.53324513481E+01  0.51100000000E-03 0. -1.
        -11    1    3    3    0    0 -0.12418038605E+01  0.21711545267E+02 -0.20972222810E+02  0.30212040721E+02  0.51100000000E-03 0.  1.
         12    1    3    3    0    0 -0.22779327525E+01  0.72229312091E+01 -0.74131099209E+01  0.10597825795E+02  0.00000000000E+00 0. -1.
</event>
<event>
 7    1  0.1381440E-008  0.4614231E+02  0.7816164E-02  0.1320468E+00
        -11   -1    0    0    0    0  0.00000000000E+00  0.00000000000E+00  0.45593999997E+02  0.45594000000E+02  0.51100000000E-03 0.  1.
         11   -1    0    0    0    0 -0.00000000000E+00 -0.00000000000E+00 -0.45593999997E+02  0.45594000000E+02  0.51100000000E-03 0. -1.
    9900012    2    1    2    0    0  0.13594120287E+02  0.29874371553E+01  0.42841439163E+02  0.46142314339E+02  0.99999687903E+01 0.  0.
         12    1    1    2    0    0 -0.13594120287E+02 -0.29874371553E+01 -0.42841439163E+02  0.45045685661E+02  0.00000000000E+00 0. -1.
         11    1    3    3    0    0  0.33897091290E+00  0.22014671373E+01  0.83869261798E+01  0.86776661519E+01  0.51100000000E-03 0. -1.
        -11    1    3    3    0    0  0.80263069470E+01 -0.26239960265E+01  0.18686512822E+02  0.20505919147E+02  0.51100000000E-03 0.  1.
        -12    1    3    3    0    0  0.52288424275E+01  0.34099660445E+01  0.15768000161E+02  0.16958729039E+02  0.00000000000E+00 0.  1.
</event>
<event>
 7    1  0.1381440E-008  0.4614232E+02  0.7816164E-02  0.1320468E+00
        -11   -1    0    0    0    0  0.00000000000E+00  0.00000000000E+00  0.45593999997E+02  0.45594000000E+02  0.51100000000E-03 0. -1.
         11   -1    0    0    0    0 -0.00000000000E+00 -0.00000000000E+00 -0.45593999997E+02  0.45594000000E+02  0.51100000000E-03 0.  1.
    9900012    2    1    2    0    0  0.21553034118E+02  0.91743585533E+01 -0.38476114008E+02  0.46142317813E+02  0.10000000469E+02 0.  0.
         12    1    1    2    0    0 -0.21553034118E+02 -0.91743585533E+01  0.38476114008E+02  0.45045682187E+02  0.00000000000E+00 0. -1.
         11    1    3    3    0    0 -0.80212287605E+00 -0.16742388071E+00 -0.12021033199E+01  0.14548142551E+01  0.51100000000E-03 0. -1.
        -11    1    3    3    0    0  0.11453238115E+02  0.70606319471E+01 -0.18869391176E+02  0.23175053623E+02  0.51100000000E-03 0.  1.
         12    1    3    3    0    0  0.10901918879E+02  0.22811504868E+01 -0.18404619512E+02  0.21512449934E+02  0.00000000000E+00 0. -1.
</event>
<event>
 7    1  0.1381440E-008  0.4614232E+02  0.7816164E-02  0.1320468E+00
        -11   -1    0    0    0    0  0.00000000000E+00  0.00000000000E+00  0.45593999997E+02  0.45594000000E+02  0.51100000000E-03 0. -1.
         11   -1    0    0    0    0 -0.00000000000E+00 -0.00000000000E+00 -0.45593999997E+02  0.45594000000E+02  0.51100000000E-03 0.  1.
    9900012    2    1    2    0    0 -0.28628006155E+01  0.15519079593E+02 -0.42190946067E+02  0.46142318866E+02  0.10000010074E+02 0.  0.
         12    1    1    2    0    0  0.28628006155E+01 -0.15519079593E+02  0.42190946067E+02  0.45045681134E+02  0.00000000000E+00 0. -1.
         11    1    3    3    0    0  0.10245470544E+01  0.82753007131E+01 -0.11103932961E+02  0.13886238729E+02  0.51100000000E-03 0. -1.
        -11    1    3    3    0    0 -0.15215741799E+01  0.78172421070E+00 -0.69325080697E+01  0.71404446027E+01  0.51100000000E-03 0.  1.
         12    1    3    3    0    0 -0.23657734899E+01  0.64620546688E+01 -0.24154505037E+02  0.25115635535E+02  0.00000000000E+00 0. -1.
</event>
<event>
 7    1  0.1381440E-008  0.4614232E+02  0.7816164E-02  0.1320468E+00
        -11   -1    0    0    0    0  0.00000000000E+00  0.00000000000E+00  0.45593999997E+02  0.45594000000E+02  0.51100000000E-03 0. -1.
         11   -1    0    0    0    0 -0.00000000000E+00 -0.00000000000E+00 -0.45593999997E+02  0.45594000000E+02  0.51100000000E-03 0.  1.
    9900012    2    1    2    0    0 -0.12995041174E+02 -0.19438674396E+02 -0.38501692078E+02  0.46142318184E+02  0.10000003859E+02 0.  0.
         12    1    1    2    0    0  0.12995041174E+02  0.19438674396E+02  0.38501692078E+02  0.45045681816E+02  0.00000000000E+00 0. -1.
         11    1    3    3    0    0 -0.41528953315E+00 -0.25537332349E+01 -0.28647153975E+01  0.38601312674E+01  0.51100000000E-03 0. -1.
        -11    1    3    3    0    0 -0.10170016755E+01 -0.82278478481E+01 -0.12149383455E+02  0.14708476849E+02  0.51100000000E-03 0.  1.
        -12    1    3    3    0    0 -0.11562749965E+02 -0.86570933126E+01 -0.23487593225E+02  0.27573710067E+02  0.00000000000E+00 0.  1.
</event>
<event>
 7    1  0.1381440E-008  0.4614232E+02  0.7816164E-02  0.1320468E+00
        -11   -1    0    0    0    0  0.00000000000E+00  0.00000000000E+00  0.45593999997E+02  0.45594000000E+02  0.51100000000E-03 0. -1.
         11   -1    0    0    0    0 -0.00000000000E+00 -0.00000000000E+00 -0.45593999997E+02  0.45594000000E+02  0.51100000000E-03 0.  1.
    9900012    2    1    2    0    0  0.19225906198E+02 -0.36178413253E+02  0.18724327215E+02  0.46142317806E+02  0.10000000411E+02 0.  0.
         12    1    1    2    0    0 -0.19225906198E+02  0.36178413253E+02 -0.18724327215E+02  0.45045682194E+02  0.00000000000E+00 0. -1.
         11    1    3    3    0    0 -0.60092899876E+00 -0.63995502179E-01  0.72088661716E+00  0.94068531495E+00  0.51100000000E-03 0. -1.
        -11    1    3    3    0    0  0.11640357606E+02 -0.16713416836E+02  0.79029015969E+01  0.21847015390E+02  0.51100000000E-03 0.  1.
        -12    1    3    3    0    0  0.81864775904E+01 -0.19401000915E+02  0.10100539001E+02  0.23354617101E+02  0.00000000000E+00 0.  1.
</event>
<event>
 7    1  0.1381440E-008  0.4614232E+02  0.7816164E-02  0.1320468E+00
        -11   -1    0    0    0    0  0.00000000000E+00  0.00000000000E+00  0.45593999997E+02  0.45594000000E+02  0.51100000000E-03 0.  1.
         11   -1    0    0    0    0 -0.00000000000E+00 -0.00000000000E+00 -0.45593999997E+02  0.45594000000E+02  0.51100000000E-03 0. -1.
    9900012    2    1    2    0    0 -0.38930461352E+02 -0.15399594773E+02  0.16624831364E+02  0.46142319207E+02  0.10000013183E+02 0.  0.
         12    1    1    2    0    0  0.38930461352E+02  0.15399594773E+02 -0.16624831364E+02  0.45045680793E+02  0.00000000000E+00 0. -1.
         11    1    3    3    0    0 -0.79820303228E+01 -0.21607963568E+01  0.10909523455E+01  0.83409847291E+01  0.51100000000E-03 0. -1.
        -11    1    3    3    0    0 -0.28782011511E+02 -0.13662052789E+02  0.12919676299E+02  0.34379847425E+02  0.51100000000E-03 0.  1.
        -12    1    3    3    0    0 -0.21664195177E+01  0.42325437262E+00  0.26142027200E+01  0.34214870527E+01  0.00000000000E+00 0.  1.
</event>
<event>
 7    1  0.1381440E-008  0.4614232E+02  0.7816164E-02  0.1320468E+00
        -11   -1    0    0    0    0  0.00000000000E+00  0.00000000000E+00  0.45593999997E+02  0.45594000000E+02  0.51100000000E-03 0.  1.
         11   -1    0    0    0    0 -0.00000000000E+00 -0.00000000000E+00 -0.45593999997E+02  0.45594000000E+02  0.51100000000E-03 0. -1.
    9900012    2    1    2    0    0  0.29854641875E+01  0.16059981789E+02  0.41979488704E+02  0.46142317817E+02  0.10000000514E+02 0.  0.
         12    1    1    2    0    0 -0.29854641875E+01 -0.16059981789E+02 -0.41979488704E+02  0.45045682183E+02  0.00000000000E+00 0. -1.
         11    1    3    3    0    0 -0.20606340418E+00  0.39274362766E+01  0.18606067753E+02  0.19017175797E+02  0.51100000000E-03 0.  1.
        -11    1    3    3    0    0  0.30968974780E+01  0.46377110716E+01  0.59340393966E+01  0.81432156913E+01  0.51100000000E-03 0. -1.
        -12    1    3    3    0    0  0.94630113610E-01  0.74948344406E+01  0.17439381554E+02  0.18981926329E+02  0.00000000000E+00 0.  1.
</event>
<event>
 7    1  0.1381440E-008  0.4614232E+02  0.7816164E-02  0.1320468E+00
        -11   -1    0    0    0    0  0.00000000000E+00  0.00000000000E+00  0.45593999997E+02  0.45594000000E+02  0.51100000000E-03 0. -1.
         11   -1    0    0    0    0 -0.00000000000E+00 -0.00000000000E+00 -0.45593999997E+02  0.45594000000E+02  0.51100000000E-03 0.  1.
    9900012    2    1    2    0    0 -0.42593028654E+02 -0.11721047401E+02 -0.88070665749E+01  0.46142318034E+02  0.10000002489E+02 0.  0.
         12    1    1    2    0    0  0.42593028654E+02  0.11721047401E+02  0.88070665749E+01  0.45045681966E+02  0.00000000000E+00 0. -1.
         11    1    3    3    0    0 -0.99872786388E+01 -0.48456061359E+01 -0.45593994436E+01  0.12000573194E+02  0.51100000000E-03 0. -1.
        -11    1    3    3    0    0 -0.23362794748E+02 -0.69509506827E+01 -0.49477945088E+01  0.24872003631E+02  0.51100000000E-03 0.  1.
         12    1    3    3    0    0 -0.92429552673E+01  0.75509417916E-01  0.70012737747E+00  0.92697412094E+01  0.00000000000E+00 0. -1.
</event>
<event>
 7    1  0.1381440E-008  0.4614232E+02  0.7816164E-02  0.1320468E+00
        -11   -1    0    0    0    0  0.00000000000E+00  0.00000000000E+00  0.45593999997E+02  0.45594000000E+02  0.51100000000E-03 0.  1.
         11   -1    0    0    0    0 -0.00000000000E+00 -0.00000000000E+00 -0.45593999997E+02  0.45594000000E+02  0.51100000000E-03 0. -1.
    9900012    2    1    2    0    0 -0.36310641491E+02 -0.36133170299E+01  0.26412022934E+02  0.46142315402E+02  0.99999784888E+01 0.  0.
         12    1    1    2    0    0  0.36310641491E+02  0.36133170299E+01 -0.26412022934E+02  0.45045684598E+02  0.00000000000E+00 0. -1.
         11    1    3    3    0    0  0.25120617258E+00 -0.10337730507E+01  0.39109307876E+00  0.11334660643E+01  0.51100000000E-03 0. -1.
        -11    1    3    3    0    0 -0.26373345153E+02 -0.25715103746E+01  0.17867585848E+02  0.31959609266E+02  0.51100000000E-03 0.  1.
        -12    1    3    3    0    0 -0.10188502510E+02 -0.80336046080E-02  0.81533440073E+01  0.13049240071E+02  0.00000000000E+00 0.  1.
</event>
<event>
 7    1  0.1381440E-008  0.4614232E+02  0.7816164E-02  0.1320468E+00
        -11   -1    0    0    0    0  0.00000000000E+00  0.00000000000E+00  0.45593999997E+02  0.45594000000E+02  0.51100000000E-03 0.  1.
         11   -1    0    0    0    0 -0.00000000000E+00 -0.00000000000E+00 -0.45593999997E+02  0.45594000000E+02  0.51100000000E-03 0. -1.
    9900012    2    1    2    0    0  0.13137062957E+02  0.15809638372E+02  0.40082244697E+02  0.46142318425E+02  0.10000006055E+02 0.  0.
         12    1    1    2    0    0 -0.13137062957E+02 -0.15809638372E+02 -0.40082244697E+02  0.45045681575E+02  0.00000000000E+00 0. -1.
         11    1    3    3    0    0  0.63013979970E+00 -0.11328526516E+01  0.38561445053E+01  0.40682037810E+01  0.51100000000E-03 0. -1.
        -11    1    3    3    0    0  0.85164370209E+01  0.14118522770E+02  0.28718143783E+02  0.33114863239E+02  0.51100000000E-03 0.  1.
         12    1    3    3    0    0  0.39904861368E+01  0.28239682542E+01  0.75079564086E+01  0.89592514052E+01  0.00000000000E+00 0. -1.
</event>
<event>
 7    1  0.1381440E-008  0.4614232E+02  0.7816164E-02  0.1320468E+00
        -11   -1    0    0    0    0  0.00000000000E+00  0.00000000000E+00  0.45593999997E+02  0.45594000000E+02  0.51100000000E-03 0.  1.
         11   -1    0    0    0    0 -0.00000000000E+00 -0.00000000000E+00 -0.45593999997E+02  0.45594000000E+02  0.51100000000E-03 0. -1.
    9900012    2    1    2    0    0 -0.30620380222E+02  0.18190015728E+02  0.27579506488E+02  0.46142317240E+02  0.99999952525E+01 0.  0.
         12    1    1    2    0    0  0.30620380222E+02 -0.18190015728E+02 -0.27579506488E+02  0.45045682760E+02  0.00000000000E+00 0. -1.
         11    1    3    3    0    0 -0.80798750384E+01  0.29638903105E+01  0.11592939527E+02  0.14438326549E+02  0.51100000000E-03 0. -1.
        -11    1    3    3    0    0 -0.13016246320E+02  0.69294673370E+01  0.84555418783E+01  0.16998128560E+02  0.51100000000E-03 0.  1.
         12    1    3    3    0    0 -0.95242588637E+01  0.82966580803E+01  0.75310250831E+01  0.14705862131E+02  0.00000000000E+00 0. -1.
</event>
<event>
 7    1  0.1381440E-008  0.4614231E+02  0.7816164E-02  0.1320468E+00
        -11   -1    0    0    0    0  0.00000000000E+00  0.00000000000E+00  0.45593999997E+02  0.45594000000E+02  0.51100000000E-03 0.  1.
         11   -1    0    0    0    0 -0.00000000000E+00 -0.00000000000E+00 -0.45593999997E+02  0.45594000000E+02  0.51100000000E-03 0. -1.
    9900012    2    1    2    0    0  0.43422793092E+02  0.49569883303E+01  0.10908866033E+02  0.46142311513E+02  0.99999430207E+01 0.  0.
         12    1    1    2    0    0 -0.43422793092E+02 -0.49569883303E+01 -0.10908866033E+02  0.45045688487E+02  0.00000000000E+00 0. -1.
         11    1    3    3    0    0  0.27862559649E+02  0.13709356242E+01  0.84612995643E+01  0.29151248434E+02  0.51100000000E-03 0. -1.
        -11    1    3    3    0    0  0.12888087394E+02  0.40018288297E+01  0.37256922954E+01  0.13999936214E+02  0.51100000000E-03 0.  1.
         12    1    3    3    0    0  0.26721460489E+01 -0.41577612355E+00 -0.12781258270E+01  0.29911268647E+01  0.00000000000E+00 0. -1.
</event>
<event>
 7    1  0.1381440E-008  0.4614232E+02  0.7816164E-02  0.1320468E+00
        -11   -1    0    0    0    0  0.00000000000E+00  0.00000000000E+00  0.45593999997E+02  0.45594000000E+02  0.51100000000E-03 0.  1.
         11   -1    0    0    0    0 -0.00000000000E+00 -0.00000000000E+00 -0.45593999997E+02  0.45594000000E+02  0.51100000000E-03 0. -1.
    9900012    2    1    2    0    0 -0.73182466905E+01  0.18649819142E+01  0.44408092503E+02  0.46142316834E+02  0.99999915475E+01 0.  0.
         12    1    1    2    0    0  0.73182466905E+01 -0.18649819142E+01 -0.44408092503E+02  0.45045683166E+02  0.00000000000E+00 0. -1.
         11    1    3    3    0    0  0.63861632243E+00 -0.58661423256E+00  0.23732816364E+01  0.25267396091E+01  0.51100000000E-03 0. -1.
        -11    1    3    3    0    0 -0.34447023321E+01  0.45825725673E+01  0.13803666865E+02  0.14946811187E+02  0.51100000000E-03 0.  1.
        -12    1    3    3    0    0 -0.45121606808E+01 -0.21309764205E+01  0.28231144001E+02  0.28668766038E+02  0.00000000000E+00 0.  1.
</event>
<event>
 7    1  0.1381440E-008  0.4614232E+02  0.7816164E-02  0.1320468E+00
        -11   -1    0    0    0    0  0.00000000000E+00  0.00000000000E+00  0.45593999997E+02  0.45594000000E+02  0.51100000000E-03 0.  1.
         11   -1    0    0    0    0 -0.00000000000E+00 -0.00000000000E+00 -0.45593999997E+02  0.45594000000E+02  0.51100000000E-03 0. -1.
    9900012    2    1    2    0    0 -0.39646873186E+02 -0.14091039254E+02  0.16083580696E+02  0.46142317535E+02  0.99999979388E+01 0.  0.
         12    1    1    2    0    0  0.39646873186E+02  0.14091039254E+02 -0.16083580696E+02  0.45045682465E+02  0.00000000000E+00 0. -1.
         11    1    3    3    0    0 -0.12468188728E+02 -0.76354087158E+01  0.31725608223E+01  0.14960626285E+02  0.51100000000E-03 0.  1.
        -11    1    3    3    0    0 -0.21167867381E+02 -0.33638948936E+01  0.11313527607E+02  0.24236136357E+02  0.51100000000E-03 0. -1.
         12    1    3    3    0    0 -0.60108170775E+01 -0.30917356445E+01  0.15974922672E+01  0.69455548935E+01  0.00000000000E+00 0. -1.
</event>
<event>
 7    1  0.1381440E-008  0.4614232E+02  0.7816164E-02  0.1320468E+00
        -11   -1    0    0    0    0  0.00000000000E+00  0.00000000000E+00  0.45593999997E+02  0.45594000000E+02  0.51100000000E-03 0.  1.
         11   -1    0    0    0    0 -0.00000000000E+00 -0.00000000000E+00 -0.45593999997E+02  0.45594000000E+02  0.51100000000E-03 0. -1.
    9900012    2    1    2    0    0  0.20769758616E+02  0.15146972041E+02  0.36990537431E+02  0.46142317694E+02  0.99999993883E+01 0.  0.
         12    1    1    2    0    0 -0.20769758616E+02 -0.15146972041E+02 -0.36990537431E+02  0.45045682306E+02  0.00000000000E+00 0. -1.
         11    1    3    3    0    0  0.61163731077E+01  0.18027638808E+01  0.14076489047E+02  0.15453398389E+02  0.51100000000E-03 0. -1.
        -11    1    3    3    0    0  0.11656662083E+02  0.10518200475E+02  0.20795655305E+02  0.26057044958E+02  0.51100000000E-03 0.  1.
         12    1    3    3    0    0  0.29967234260E+01  0.28260076856E+01  0.21183930786E+01  0.46318743470E+01  0.00000000000E+00 0. -1.
</event>
<event>
 7    1  0.1381440E-008  0.4614232E+02  0.7816164E-02  0.1320468E+00
        -11   -1    0    0    0    0  0.00000000000E+00  0.00000000000E+00  0.45593999997E+02  0.45594000000E+02  0.51100000000E-03 0.  1.
         11   -1    0    0    0    0 -0.00000000000E+00 -0.00000000000E+00 -0.45593999997E+02  0.45594000000E+02  0.51100000000E-03 0. -1.
    9900012    2    1    2    0    0  0.18727645881E+02 -0.15092276669E+02  0.38086900257E+02  0.46142317560E+02  0.99999981634E+01 0.  0.
         12    1    1    2    0    0 -0.18727645881E+02  0.15092276669E+02 -0.38086900257E+02  0.45045682440E+02  0.00000000000E+00 0. -1.
         11    1    3    3    0    0  0.54820259886E+01 -0.46928854659E+01  0.55167212098E+01  0.90835013130E+01  0.51100000000E-03 0. -1.
        -11    1    3    3    0    0  0.82237465087E+00 -0.65379624495E+00  0.64657002205E+01  0.65504983932E+01  0.51100000000E-03 0.  1.
        -12    1    3    3    0    0  0.12423245242E+02 -0.97455949582E+01  0.26104478827E+02  0.30508317854E+02  0.00000000000E+00 0.  1.
</event>
<event>
 7    1  0.1381440E-008  0.4614232E+02  0.7816164E-02  0.1320468E+00
        -11   -1    0    0    0    0  0.00000000000E+00  0.00000000000E+00  0.45593999997E+02  0.45594000000E+02  0.51100000000E-03 0.  1.
         11   -1    0    0    0    0 -0.00000000000E+00 -0.00000000000E+00 -0.45593999997E+02  0.45594000000E+02  0.51100000000E-03 0. -1.
    9900012    2    1    2    0    0 -0.26186024139E+02  0.94852553767E+00  0.36640223989E+02  0.46142316801E+02  0.99999912470E+01 0.  0.
         12    1    1    2    0    0  0.26186024139E+02 -0.94852553767E+00 -0.36640223989E+02  0.45045683199E+02  0.00000000000E+00 0. -1.
         11    1    3    3    0    0 -0.50307002318E+01 -0.10255903581E+01  0.39272759203E+01  0.64639985164E+01  0.51100000000E-03 0. -1.
        -11    1    3    3    0    0 -0.13141773275E+02  0.47506441824E+01  0.20417198993E+02  0.24741399312E+02  0.51100000000E-03 0.  1.
        -12    1    3    3    0    0 -0.80135506320E+01 -0.27765282866E+01  0.12295749076E+02  0.14936918972E+02  0.00000000000E+00 0.  1.
</event>
<event>
 7    1  0.1381440E-008  0.4614232E+02  0.7816164E-02  0.1320468E+00
        -11   -1    0    0    0    0  0.00000000000E+00  0.00000000000E+00  0.45593999997E+02  0.45594000000E+02  0.51100000000E-03 0. -1.
         11   -1    0    0    0    0 -0.00000000000E+00 -0.00000000000E+00 -0.45593999997E+02  0.45594000000E+02  0.51100000000E-03 0.  1.
    9900012    2    1    2    0    0 -0.26694291210E+02  0.36279050708E+02 -0.59899663915E+00  0.46142317627E+02  0.99999987736E+01 0.  0.
         12    1    1    2    0    0  0.26694291210E+02 -0.36279050708E+02  0.59899663915E+00  0.45045682373E+02  0.00000000000E+00 0. -1.
         11    1    3    3    0    0 -0.94513924257E+01  0.94923747501E+01  0.68675278237E+00  0.13412890323E+02  0.51100000000E-03 0. -1.
        -11    1    3    3    0    0 -0.15764517112E+02  0.18966114041E+02 -0.19703189464E+01  0.24740970850E+02  0.51100000000E-03 0.  1.
         12    1    3    3    0    0 -0.14783816723E+01  0.78205619169E+01  0.68456952487E+00  0.79884564529E+01  0.00000000000E+00 0. -1.
</event>
<event>
 7    1  0.1381440E-008  0.4614232E+02  0.7816164E-02  0.1320468E+00
        -11   -1    0    0    0    0  0.00000000000E+00  0.00000000000E+00  0.45593999997E+02  0.45594000000E+02  0.51100000000E-03 0.  1.
         11   -1    0    0    0    0 -0.00000000000E+00 -0.00000000000E+00 -0.45593999997E+02  0.45594000000E+02  0.51100000000E-03 0. -1.
    9900012    2    1    2    0    0  0.29585340283E+02  0.33269750417E+02 -0.68516325103E+01  0.46142317404E+02  0.99999967472E+01 0.  0.
         12    1    1    2    0    0 -0.29585340283E+02 -0.33269750417E+02  0.68516325103E+01  0.45045682596E+02  0.00000000000E+00 0. -1.
         11    1    3    3    0    0  0.10305666448E+01  0.33510257844E+01 -0.66453721084E+00  0.35683401439E+01  0.51100000000E-03 0. -1.
        -11    1    3    3    0    0  0.44368936168E+01  0.51432854332E+01  0.19231660265E+01  0.70596018189E+01  0.51100000000E-03 0.  1.
        -12    1    3    3    0    0  0.24117880021E+02  0.24775439199E+02 -0.81102613259E+01  0.35514375442E+02  0.00000000000E+00 0.  1.
</event>
<event>
 7    1  0.1381440E-008  0.4614232E+02  0.7816164E-02  0.1320468E+00
        -11   -1    0    0    0    0  0.00000000000E+00  0.00000000000E+00  0.45593999997E+02  0.45594000000E+02  0.51100000000E-03 0.  1.
         11   -1    0    0    0    0 -0.00000000000E+00 -0.00000000000E+00 -0.45593999997E+02  0.45594000000E+02  0.51100000000E-03 0. -1.
    9900012    2    1    2    0    0 -0.21204920595E+01 -0.32216618926E+02  0.31411883494E+02  0.46142318228E+02  0.10000004262E+02 0.  0.
         12    1    1    2    0    0  0.21204920595E+01  0.32216618926E+02 -0.31411883494E+02  0.45045681772E+02  0.00000000000E+00 0. -1.
         11    1    3    3    0    0  0.30207440418E+01 -0.42800698631E+01  0.58786036480E+01  0.78741268539E+01  0.51100000000E-03 0. -1.
        -11    1    3    3    0    0 -0.32798875711E+01 -0.18725545599E+02  0.18540047308E+02  0.26554417239E+02  0.51100000000E-03 0.  1.
         12    1    3    3    0    0 -0.18613485303E+01 -0.92110034643E+01  0.69932325382E+01  0.11713774136E+02  0.00000000000E+00 0. -1.
</event>
<event>
 7    1  0.1381440E-008  0.4614232E+02  0.7816164E-02  0.1320468E+00
        -11   -1    0    0    0    0  0.00000000000E+00  0.00000000000E+00  0.45593999997E+02  0.45594000000E+02  0.51100000000E-03 0.  1.
         11   -1    0    0    0    0 -0.00000000000E+00 -0.00000000000E+00 -0.45593999997E+02  0.45594000000E+02  0.51100000000E-03 0. -1.
    9900012    2    1    2    0    0  0.40865609823E+02 -0.33995275789E-01  0.18950310521E+02  0.46142317735E+02  0.99999997657E+01 0.  0.
         12    1    1    2    0    0 -0.40865609823E+02  0.33995275789E-01 -0.18950310521E+02  0.45045682265E+02  0.00000000000E+00 0. -1.
         11    1    3    3    0    0  0.27744645762E+02 -0.40076319465E+01  0.10113389698E+02  0.29801126384E+02  0.51100000000E-03 0. -1.
        -11    1    3    3    0    0  0.51525607313E+01  0.12614191625E+01  0.29534114145E+01  0.60714660204E+01  0.51100000000E-03 0.  1.
         12    1    3    3    0    0  0.79684033293E+01  0.27122175083E+01  0.58835094077E+01  0.10269725331E+02  0.00000000000E+00 0. -1.
</event>
<event>
 7    1  0.1381440E-008  0.4614232E+02  0.7816164E-02  0.1320468E+00
        -11   -1    0    0    0    0  0.00000000000E+00  0.00000000000E+00  0.45593999997E+02  0.45594000000E+02  0.51100000000E-03 0.  1.
         11   -1    0    0    0    0 -0.00000000000E+00 -0.00000000000E+00 -0.45593999997E+02  0.45594000000E+02  0.51100000000E-03 0. -1.
    9900012    2    1    2    0    0 -0.92529719434E+01  0.23417736818E+02  0.37351112345E+02  0.46142317845E+02  0.10000000761E+02 0.  0.
         12    1    1    2    0    0  0.92529719434E+01 -0.23417736818E+02 -0.37351112345E+02  0.45045682155E+02  0.00000000000E+00 0. -1.
         11    1    3    3    0    0  0.13552175694E+01  0.55090681381E+01  0.45304940877E+01  0.72602908586E+01  0.51100000000E-03 0. -1.
        -11    1    3    3    0    0 -0.22253437909E+01  0.29286396362E+01  0.60576507316E+01  0.70869046666E+01  0.51100000000E-03 0.  1.
         12    1    3    3    0    0 -0.83828457218E+01  0.14980029044E+02  0.26762967525E+02  0.31795122319E+02  0.00000000000E+00 0. -1.
</event>
<event>
 7    1  0.1381440E-008  0.4614232E+02  0.7816164E-02  0.1320468E+00
        -11   -1    0    0    0    0  0.00000000000E+00  0.00000000000E+00  0.45593999997E+02  0.45594000000E+02  0.51100000000E-03 0.  1.
         11   -1    0    0    0    0 -0.00000000000E+00 -0.00000000000E+00 -0.45593999997E+02  0.45594000000E+02  0.51100000000E-03 0. -1.
    9900012    2    1    2    0    0  0.41479270303E+02 -0.47187030002E+00  0.17560209919E+02  0.46142317645E+02  0.99999989425E+01 0.  0.
         12    1    1    2    0    0 -0.41479270303E+02  0.47187030002E+00 -0.17560209919E+02  0.45045682355E+02  0.00000000000E+00 0. -1.
         11    1    3    3    0    0  0.27932790965E+02 -0.46149738152E-02  0.10260345324E+02  0.29757612788E+02  0.51100000000E-03 0. -1.
        -11    1    3    3    0    0  0.12356325518E+02  0.11505800772E+01  0.51309137617E+01  0.13428659319E+02  0.51100000000E-03 0.  1.
         12    1    3    3    0    0  0.11901538197E+01 -0.16178354034E+01  0.21689508334E+01  0.29560455384E+01  0.00000000000E+00 0. -1.
</event>
<event>
 7    1  0.1381440E-008  0.4614232E+02  0.7816164E-02  0.1320468E+00
        -11   -1    0    0    0    0  0.00000000000E+00  0.00000000000E+00  0.45593999997E+02  0.45594000000E+02  0.51100000000E-03 0.  1.
         11   -1    0    0    0    0 -0.00000000000E+00 -0.00000000000E+00 -0.45593999997E+02  0.45594000000E+02  0.51100000000E-03 0. -1.
    9900012    2    1    2    0    0 -0.41068737381E+02 -0.82395747440E+01  0.16570507483E+02  0.46142317629E+02  0.99999987917E+01 0.  0.
         12    1    1    2    0    0  0.41068737381E+02  0.82395747440E+01 -0.16570507483E+02  0.45045682371E+02  0.00000000000E+00 0. -1.
         11    1    3    3    0    0 -0.22727393393E+02  0.14020593485E+00  0.75654672616E+01  0.23953921668E+02  0.51100000000E-03 0.  1.
        -11    1    3    3    0    0 -0.55244525821E+01 -0.35701333605E+01  0.32765340321E+01  0.73485443503E+01  0.51100000000E-03 0. -1.
        -12    1    3    3    0    0 -0.12816891406E+02 -0.48096473184E+01  0.57285061895E+01  0.14839851610E+02  0.00000000000E+00 0.  1.
</event>
<event>
 7    1  0.1381440E-008  0.4614232E+02  0.7816164E-02  0.1320468E+00
        -11   -1    0    0    0    0  0.00000000000E+00  0.00000000000E+00  0.45593999997E+02  0.45594000000E+02  0.51100000000E-03 0.  1.
         11   -1    0    0    0    0 -0.00000000000E+00 -0.00000000000E+00 -0.45593999997E+02  0.45594000000E+02  0.51100000000E-03 0. -1.
    9900012    2    1    2    0    0  0.13854637033E+02  0.32666615703E+02  0.27749860802E+02  0.46142317373E+02  0.99999964618E+01 0.  0.
         12    1    1    2    0    0 -0.13854637033E+02 -0.32666615703E+02 -0.27749860802E+02  0.45045682627E+02  0.00000000000E+00 0. -1.
         11    1    3    3    0    0  0.12350143908E+02  0.17950409927E+02  0.15305765905E+02  0.26627236832E+02  0.51100000000E-03 0.  1.
        -11    1    3    3    0    0  0.50815748648E+00  0.12886438132E+02  0.10114026711E+02  0.16389388284E+02  0.51100000000E-03 0. -1.
         12    1    3    3    0    0  0.99633563874E+00  0.18297676442E+01  0.23300681858E+01  0.31256922573E+01  0.00000000000E+00 0. -1.
</event>
<event>
 7    1  0.1381440E-008  0.4614232E+02  0.7816164E-02  0.1320468E+00
        -11   -1    0    0    0    0  0.00000000000E+00  0.00000000000E+00  0.45593999997E+02  0.45594000000E+02  0.51100000000E-03 0. -1.
         11   -1    0    0    0    0 -0.00000000000E+00 -0.00000000000E+00 -0.45593999997E+02  0.45594000000E+02  0.51100000000E-03 0.  1.
    9900012    2    1    2    0    0 -0.44307931338E+02 -0.61506324772E+01 -0.53000378718E+01  0.46142318068E+02  0.10000002795E+02 0.  0.
         12    1    1    2    0    0  0.44307931338E+02  0.61506324772E+01  0.53000378718E+01  0.45045681932E+02  0.00000000000E+00 0. -1.
         11    1    3    3    0    0 -0.46516120314E+01  0.28027832791E+00 -0.35882172670E+01  0.58814414771E+01  0.51100000000E-03 0. -1.
        -11    1    3    3    0    0 -0.39415903376E+01 -0.10158445659E+00  0.10335626756E+00  0.39442536139E+01  0.51100000000E-03 0.  1.
         12    1    3    3    0    0 -0.35714728969E+02 -0.63293263485E+01 -0.18151768724E+01  0.36316622977E+02  0.00000000000E+00 0. -1.
</event>
<event>
 7    1  0.1381440E-008  0.4614232E+02  0.7816164E-02  0.1320468E+00
        -11   -1    0    0    0    0  0.00000000000E+00  0.00000000000E+00  0.45593999997E+02  0.45594000000E+02  0.51100000000E-03 0.  1.
         11   -1    0    0    0    0 -0.00000000000E+00 -0.00000000000E+00 -0.45593999997E+02  0.45594000000E+02  0.51100000000E-03 0. -1.
    9900012    2    1    2    0    0  0.29910324870E+01  0.62344109334E+01  0.44511786625E+02  0.46142319812E+02  0.10000018701E+02 0.  0.
         12    1    1    2    0    0 -0.29910324870E+01 -0.62344109334E+01 -0.44511786625E+02  0.45045680188E+02  0.00000000000E+00 0. -1.
         11    1    3    3    0    0 -0.12848898965E+01  0.38133165651E+01  0.34943931678E+02  0.35174858729E+02  0.51100000000E-03 0.  1.
        -11    1    3    3    0    0  0.26649171759E+00  0.10915394523E+00 -0.51550224174E-01  0.29255786784E+00  0.51100000000E-03 0. -1.
        -12    1    3    3    0    0  0.40094306659E+01  0.23119404232E+01  0.96194051719E+01  0.10674903215E+02  0.00000000000E+00 0.  1.
</event>
<event>
 7    1  0.1381440E-008  0.4614232E+02  0.7816164E-02  0.1320468E+00
        -11   -1    0    0    0    0  0.00000000000E+00  0.00000000000E+00  0.45593999997E+02  0.45594000000E+02  0.51100000000E-03 0.  1.
         11   -1    0    0    0    0 -0.00000000000E+00 -0.00000000000E+00 -0.45593999997E+02  0.45594000000E+02  0.51100000000E-03 0. -1.
    9900012    2    1    2    0    0  0.38847762661E+02 -0.22744699627E+02  0.16258777397E+01  0.46142317596E+02  0.99999984900E+01 0.  0.
         12    1    1    2    0    0 -0.38847762661E+02  0.22744699627E+02 -0.16258777397E+01  0.45045682404E+02  0.00000000000E+00 0. -1.
         11    1    3    3    0    0  0.11003458117E+02 -0.79633474035E+01 -0.72870695130E+00  0.13602279459E+02  0.51100000000E-03 0. -1.
        -11    1    3    3    0    0  0.85797058619E+01 -0.42508374206E+01  0.43058297777E+01  0.10498625710E+02  0.51100000000E-03 0.  1.
        -12    1    3    3    0    0  0.19264598682E+02 -0.10530514803E+02 -0.19512450867E+01  0.22041412427E+02  0.00000000000E+00 0.  1.
</event>
<event>
 7    1  0.1381440E-008  0.4614232E+02  0.7816164E-02  0.1320468E+00
        -11   -1    0    0    0    0  0.00000000000E+00  0.00000000000E+00  0.45593999997E+02  0.45594000000E+02  0.51100000000E-03 0.  1.
         11   -1    0    0    0    0 -0.00000000000E+00 -0.00000000000E+00 -0.45593999997E+02  0.45594000000E+02  0.51100000000E-03 0. -1.
    9900012    2    1    2    0    0  0.83260078797E+01 -0.40927187901E+02  0.16874726364E+02  0.46142317559E+02  0.99999981551E+01 0.  0.
         12    1    1    2    0    0 -0.83260078797E+01  0.40927187901E+02 -0.16874726364E+02  0.45045682441E+02  0.00000000000E+00 0. -1.
         11    1    3    3    0    0  0.15141425539E+01 -0.12043314121E+02  0.87807831780E+01  0.14981194751E+02  0.51100000000E-03 0. -1.
        -11    1    3    3    0    0  0.40508374060E+01 -0.18757591614E+02  0.76413341490E+01  0.20655423372E+02  0.51100000000E-03 0.  1.
         12    1    3    3    0    0  0.27610279198E+01 -0.10126282167E+02  0.45260903721E+00  0.10505699436E+02  0.00000000000E+00 0. -1.
</event>
<event>
 7    1  0.1381440E-008  0.4614232E+02  0.7816164E-02  0.1320468E+00
        -11   -1    0    0    0    0  0.00000000000E+00  0.00000000000E+00  0.45593999997E+02  0.45594000000E+02  0.51100000000E-03 0.  1.
         11   -1    0    0    0    0 -0.00000000000E+00 -0.00000000000E+00 -0.45593999997E+02  0.45594000000E+02  0.51100000000E-03 0. -1.
    9900012    2    1    2    0    0 -0.15866596442E+02 -0.18228781396E+02  0.38014156364E+02  0.46142318321E+02  0.10000005104E+02 0.  0.
         12    1    1    2    0    0  0.15866596442E+02  0.18228781396E+02 -0.38014156364E+02  0.45045681679E+02  0.00000000000E+00 0. -1.
         11    1    3    3    0    0 -0.59016814162E+01 -0.10841438478E+02  0.18291732918E+02  0.22067037074E+02  0.51100000000E-03 0. -1.
        -11    1    3    3    0    0 -0.10743577966E+02 -0.73357826877E+01  0.18299070369E+02  0.22452041149E+02  0.51100000000E-03 0.  1.
         12    1    3    3    0    0  0.77866293993E+00 -0.51560230322E-01  0.14233530771E+01  0.16232400973E+01  0.00000000000E+00 0. -1.
</event>
<event>
 7    1  0.1381440E-008  0.4614231E+02  0.7816164E-02  0.1320468E+00
        -11   -1    0    0    0    0  0.00000000000E+00  0.00000000000E+00  0.45593999997E+02  0.45594000000E+02  0.51100000000E-03 0. -1.
         11   -1    0    0    0    0 -0.00000000000E+00 -0.00000000000E+00 -0.45593999997E+02  0.45594000000E+02  0.51100000000E-03 0.  1.
    9900012    2    1    2    0    0  0.19503299283E+01 -0.25151600220E+02 -0.37318990617E+02  0.46142313845E+02  0.99999642895E+01 0.  0.
         12    1    1    2    0    0 -0.19503299283E+01  0.25151600220E+02  0.37318990617E+02  0.45045686155E+02  0.00000000000E+00 0. -1.
         11    1    3    3    0    0  0.22745338470E+01 -0.78182189730E+01 -0.15221548792E+02  0.17262491130E+02  0.51100000000E-03 0. -1.
        -11    1    3    3    0    0 -0.10587880031E+01 -0.11259089792E+02 -0.91043575580E+01  0.14518176944E+02  0.51100000000E-03 0.  1.
        -12    1    3    3    0    0  0.73458408436E+00 -0.60742914558E+01 -0.12993084268E+02  0.14361645771E+02  0.00000000000E+00 0.  1.
</event>
<event>
 7    1  0.1381440E-008  0.4614232E+02  0.7816164E-02  0.1320468E+00
        -11   -1    0    0    0    0  0.00000000000E+00  0.00000000000E+00  0.45593999997E+02  0.45594000000E+02  0.51100000000E-03 0. -1.
         11   -1    0    0    0    0 -0.00000000000E+00 -0.00000000000E+00 -0.45593999997E+02  0.45594000000E+02  0.51100000000E-03 0.  1.
    9900012    2    1    2    0    0  0.44417907407E+02 -0.42080694999E+01  0.62012199334E+01  0.46142317898E+02  0.10000001248E+02 0.  0.
         12    1    1    2    0    0 -0.44417907407E+02  0.42080694999E+01 -0.62012199334E+01  0.45045682102E+02  0.00000000000E+00 0. -1.
         11    1    3    3    0    0  0.11558298816E+02 -0.41371664522E+01  0.34230565612E+01  0.12744713973E+02  0.51100000000E-03 0. -1.
        -11    1    3    3    0    0  0.23545583939E+02 -0.23396450108E+01  0.12925657954E+01  0.23696818107E+02  0.51100000000E-03 0.  1.
         12    1    3    3    0    0  0.93140246530E+01  0.22687419631E+01  0.14855975767E+01  0.97007858183E+01  0.00000000000E+00 0. -1.
</event>
<event>
 7    1  0.1381440E-008  0.4614232E+02  0.7816164E-02  0.1320468E+00
        -11   -1    0    0    0    0  0.00000000000E+00  0.00000000000E+00  0.45593999997E+02  0.45594000000E+02  0.51100000000E-03 0.  1.
         11   -1    0    0    0    0 -0.00000000000E+00 -0.00000000000E+00 -0.45593999997E+02  0.45594000000E+02  0.51100000000E-03 0. -1.
    9900012    2    1    2    0    0  0.74047892195E+01 -0.18810955710E+02  0.40254570415E+02  0.46142318771E+02  0.10000009207E+02 0.  0.
         12    1    1    2    0    0 -0.74047892195E+01  0.18810955710E+02 -0.40254570415E+02  0.45045681229E+02  0.00000000000E+00 0. -1.
         11    1    3    3    0    0 -0.41549169823E+00 -0.70624791016E+01  0.20493613663E+02  0.21680393116E+02  0.51100000000E-03 0. -1.
        -11    1    3    3    0    0  0.63250726620E+01 -0.10343792833E+02  0.18265238907E+02  0.21923036901E+02  0.51100000000E-03 0.  1.
         12    1    3    3    0    0  0.14952082557E+01 -0.14046837751E+01  0.14957178444E+01  0.25388887542E+01  0.00000000000E+00 0. -1.
</event>
<event>
 7    1  0.1381440E-008  0.4614232E+02  0.7816164E-02  0.1320468E+00
        -11   -1    0    0    0    0  0.00000000000E+00  0.00000000000E+00  0.45593999997E+02  0.45594000000E+02  0.51100000000E-03 0. -1.
         11   -1    0    0    0    0 -0.00000000000E+00 -0.00000000000E+00 -0.45593999997E+02  0.45594000000E+02  0.51100000000E-03 0.  1.
    9900012    2    1    2    0    0 -0.20435385584E+02  0.39907474057E+02 -0.43476422605E+01  0.46142318045E+02  0.10000002589E+02 0.  0.
         12    1    1    2    0    0  0.20435385584E+02 -0.39907474057E+02  0.43476422605E+01  0.45045681955E+02  0.00000000000E+00 0. -1.
         11    1    3    3    0    0 -0.69452926280E+01  0.88060776090E+01  0.35869923680E+00  0.11221085418E+02  0.51100000000E-03 0. -1.
        -11    1    3    3    0    0 -0.42190934274E+01  0.35155045637E+01 -0.46069895553E+00  0.55110584714E+01  0.51100000000E-03 0.  1.
        -12    1    3    3    0    0 -0.92709995288E+01  0.27585891884E+02 -0.42456425418E+01  0.29410174156E+02  0.00000000000E+00 0.  1.
</event>
<event>
 7    1  0.1381440E-008  0.4614232E+02  0.7816164E-02  0.1320468E+00
        -11   -1    0    0    0    0  0.00000000000E+00  0.00000000000E+00  0.45593999997E+02  0.45594000000E+02  0.51100000000E-03 0. -1.
         11   -1    0    0    0    0 -0.00000000000E+00 -0.00000000000E+00 -0.45593999997E+02  0.45594000000E+02  0.51100000000E-03 0.  1.
    9900012    2    1    2    0    0  0.25322481925E+02  0.36452496410E+02 -0.76877118509E+01  0.46142317644E+02  0.99999989356E+01 0.  0.
         12    1    1    2    0    0 -0.25322481925E+02 -0.36452496410E+02  0.76877118509E+01  0.45045682356E+02  0.00000000000E+00 0. -1.
         11    1    3    3    0    0  0.62847452610E+01  0.10298597237E+02 -0.85546530227E+00  0.12095079545E+02  0.51100000000E-03 0. -1.
        -11    1    3    3    0    0  0.10200702682E+02  0.10558740463E+02  0.47771342936E+00  0.14689096152E+02  0.51100000000E-03 0.  1.
        -12    1    3    3    0    0  0.88370339813E+01  0.15595158710E+02 -0.73099599780E+01  0.19358141948E+02  0.00000000000E+00 0.  1.
</event>
<event>
 7    1  0.1381440E-008  0.4614232E+02  0.7816164E-02  0.1320468E+00
        -11   -1    0    0    0    0  0.00000000000E+00  0.00000000000E+00  0.45593999997E+02  0.45594000000E+02  0.51100000000E-03 0.  1.
         11   -1    0    0    0    0 -0.00000000000E+00 -0.00000000000E+00 -0.45593999997E+02  0.45594000000E+02  0.51100000000E-03 0. -1.
    9900012    2    1    2    0    0 -0.34796382800E+02 -0.96707603402E+01  0.26922139092E+02  0.46142318355E+02  0.10000005418E+02 0.  0.
         12    1    1    2    0    0  0.34796382800E+02  0.96707603402E+01 -0.26922139092E+02  0.45045681645E+02  0.00000000000E+00 0. -1.
         11    1    3    3    0    0 -0.35987929016E+01 -0.14371805156E+00  0.24559208473E+01  0.43593018588E+01  0.51100000000E-03 0. -1.
        -11    1    3    3    0    0 -0.30553331257E+02 -0.95383499005E+01  0.21055908688E+02  0.38312366942E+02  0.51100000000E-03 0.  1.
        -12    1    3    3    0    0 -0.64425864133E+00  0.11307611861E-01  0.34103095565E+01  0.34706495545E+01  0.00000000000E+00 0.  1.
</event>
<event>
 7    1  0.1381440E-008  0.4614232E+02  0.7816164E-02  0.1320468E+00
        -11   -1    0    0    0    0  0.00000000000E+00  0.00000000000E+00  0.45593999997E+02  0.45594000000E+02  0.51100000000E-03 0.  1.
         11   -1    0    0    0    0 -0.00000000000E+00 -0.00000000000E+00 -0.45593999997E+02  0.45594000000E+02  0.51100000000E-03 0. -1.
    9900012    2    1    2    0    0 -0.24313698953E+01 -0.38001548611E+02  0.24064170736E+02  0.46142316859E+02  0.99999917742E+01 0.  0.
         12    1    1    2    0    0  0.24313698953E+01  0.38001548611E+02 -0.24064170736E+02  0.45045683141E+02  0.00000000000E+00 0. -1.
         11    1    3    3    0    0 -0.34555172043E+01 -0.88402645769E+01  0.39517819293E+01  0.10281413211E+02  0.51100000000E-03 0.  1.
        -11    1    3    3    0    0  0.22710643206E+01 -0.25026693874E+02  0.15418272326E+02  0.29482473798E+02  0.51100000000E-03 0. -1.
        -12    1    3    3    0    0 -0.12469170116E+01 -0.41345901598E+01  0.46941164806E+01  0.63784298505E+01  0.00000000000E+00 0.  1.
</event>
<event>
 7    1  0.1381440E-008  0.4614232E+02  0.7816164E-02  0.1320468E+00
        -11   -1    0    0    0    0  0.00000000000E+00  0.00000000000E+00  0.45593999997E+02  0.45594000000E+02  0.51100000000E-03 0.  1.
         11   -1    0    0    0    0 -0.00000000000E+00 -0.00000000000E+00 -0.45593999997E+02  0.45594000000E+02  0.51100000000E-03 0. -1.
    9900012    2    1    2    0    0  0.29853902450E+00 -0.43600627843E+02  0.11314131735E+02  0.46142318179E+02  0.10000003808E+02 0.  0.
         12    1    1    2    0    0 -0.29853902450E+00  0.43600627843E+02 -0.11314131735E+02  0.45045681821E+02  0.00000000000E+00 0. -1.
         11    1    3    3    0    0 -0.18183146683E+00 -0.88632655949E+00  0.14423900353E+01  0.17026822156E+01  0.51100000000E-03 0. -1.
        -11    1    3    3    0    0 -0.18676823340E+01 -0.31462435364E+02  0.48200391887E+01  0.31884257156E+02  0.51100000000E-03 0.  1.
        -12    1    3    3    0    0  0.23480528253E+01 -0.11251865919E+02  0.50517025107E+01  0.12555378807E+02  0.00000000000E+00 0.  1.
</event>
<event>
 7    1  0.1381440E-008  0.4614232E+02  0.7816164E-02  0.1320468E+00
        -11   -1    0    0    0    0  0.00000000000E+00  0.00000000000E+00  0.45593999997E+02  0.45594000000E+02  0.51100000000E-03 0.  1.
         11   -1    0    0    0    0 -0.00000000000E+00 -0.00000000000E+00 -0.45593999997E+02  0.45594000000E+02  0.51100000000E-03 0. -1.
    9900012    2    1    2    0    0  0.24989061869E+02  0.20556013065E+02  0.31338643003E+02  0.46142318392E+02  0.10000005754E+02 0.  0.
         12    1    1    2    0    0 -0.24989061869E+02 -0.20556013065E+02 -0.31338643003E+02  0.45045681608E+02  0.00000000000E+00 0. -1.
         11    1    3    3    0    0  0.81542471188E+00  0.68279991845E+00 -0.65754287993E+00  0.12503983723E+01  0.51100000000E-03 0. -1.
        -11    1    3    3    0    0  0.22724721809E+02  0.19360173593E+02  0.31113840884E+02  0.43119605722E+02  0.51100000000E-03 0.  1.
        -12    1    3    3    0    0  0.14489153489E+01  0.51303955375E+00  0.88234499901E+00  0.17723142975E+01  0.00000000000E+00 0.  1.
</event>
<event>
 7    1  0.1381440E-008  0.4614232E+02  0.7816164E-02  0.1320468E+00
        -11   -1    0    0    0    0  0.00000000000E+00  0.00000000000E+00  0.45593999997E+02  0.45594000000E+02  0.51100000000E-03 0.  1.
         11   -1    0    0    0    0 -0.00000000000E+00 -0.00000000000E+00 -0.45593999997E+02  0.45594000000E+02  0.51100000000E-03 0. -1.
    9900012    2    1    2    0    0  0.17233506199E+01 -0.85517683266E+01  0.44192881634E+02  0.46142318010E+02  0.10000002269E+02 0.  0.
         12    1    1    2    0    0 -0.17233506199E+01  0.85517683266E+01 -0.44192881634E+02  0.45045681990E+02  0.00000000000E+00 0. -1.
         11    1    3    3    0    0  0.56538628035E+00  0.16717473692E+01  0.42741255471E+01  0.46241269842E+01  0.51100000000E-03 0. -1.
        -11    1    3    3    0    0  0.17613398776E+01 -0.10507050244E+02  0.38560293289E+02  0.40004957715E+02  0.51100000000E-03 0.  1.
        -12    1    3    3    0    0 -0.60337553804E+00  0.28353454850E+00  0.13584627973E+01  0.15132333104E+01  0.00000000000E+00 0.  1.
</event>
<event>
 7    1  0.1381440E-008  0.4614232E+02  0.7816164E-02  0.1320468E+00
        -11   -1    0    0    0    0  0.00000000000E+00  0.00000000000E+00  0.45593999997E+02  0.45594000000E+02  0.51100000000E-03 0. -1.
         11   -1    0    0    0    0 -0.00000000000E+00 -0.00000000000E+00 -0.45593999997E+02  0.45594000000E+02  0.51100000000E-03 0.  1.
    9900012    2    1    2    0    0  0.21838590181E+02 -0.23548865367E+02 -0.31585445172E+02  0.46142318432E+02  0.10000006122E+02 0.  0.
         12    1    1    2    0    0 -0.21838590181E+02  0.23548865367E+02  0.31585445172E+02  0.45045681568E+02  0.00000000000E+00 0. -1.
         11    1    3    3    0    0  0.11806395998E+01 -0.47990441087E+01 -0.43850977432E+01  0.66071035031E+01  0.51100000000E-03 0. -1.
        -11    1    3    3    0    0  0.11945967321E+02 -0.11740750212E+02 -0.20603044501E+02  0.26552528952E+02  0.51100000000E-03 0.  1.
        -12    1    3    3    0    0  0.87119832607E+01 -0.70090710464E+01 -0.65973029273E+01  0.12982685977E+02  0.00000000000E+00 0.  1.
</event>
<event>
 7    1  0.1381440E-008  0.4614232E+02  0.7816164E-02  0.1320468E+00
        -11   -1    0    0    0    0  0.00000000000E+00  0.00000000000E+00  0.45593999997E+02  0.45594000000E+02  0.51100000000E-03 0. -1.
         11   -1    0    0    0    0 -0.00000000000E+00 -0.00000000000E+00 -0.45593999997E+02  0.45594000000E+02  0.51100000000E-03 0.  1.
    9900012    2    1    2    0    0  0.27585224251E+02  0.34700567980E+02 -0.80024678919E+01  0.46142317549E+02  0.99999980646E+01 0.  0.
         12    1    1    2    0    0 -0.27585224251E+02 -0.34700567980E+02  0.80024678919E+01  0.45045682451E+02  0.00000000000E+00 0. -1.
         11    1    3    3    0    0  0.70125502128E+01  0.37041441350E+01 -0.55917686458E+00  0.79504228370E+01  0.51100000000E-03 0. -1.
        -11    1    3    3    0    0  0.18707092481E+02  0.29932911008E+02 -0.67679879601E+01  0.35940786466E+02  0.51100000000E-03 0.  1.
        -12    1    3    3    0    0  0.18655815578E+01  0.10635128372E+01 -0.67530306723E+00  0.22511082463E+01  0.00000000000E+00 0.  1.
</event>
<event>
 7    1  0.1381440E-008  0.4614232E+02  0.7816164E-02  0.1320468E+00
        -11   -1    0    0    0    0  0.00000000000E+00  0.00000000000E+00  0.45593999997E+02  0.45594000000E+02  0.51100000000E-03 0. -1.
         11   -1    0    0    0    0 -0.00000000000E+00 -0.00000000000E+00 -0.45593999997E+02  0.45594000000E+02  0.51100000000E-03 0.  1.
    9900012    2    1    2    0    0 -0.39409923661E+02 -0.21300247356E+02 -0.47192034581E+01  0.46142317614E+02  0.99999986566E+01 0.  0.
         12    1    1    2    0    0  0.39409923661E+02  0.21300247356E+02  0.47192034581E+01  0.45045682386E+02  0.00000000000E+00 0. -1.
         11    1    3    3    0    0 -0.89077222940E+01 -0.68283609592E+01 -0.44129175546E+01  0.12060177091E+02  0.51100000000E-03 0. -1.
        -11    1    3    3    0    0 -0.45936953763E+01 -0.21451645785E+01 -0.17258913549E+01  0.53556016944E+01  0.51100000000E-03 0.  1.
         12    1    3    3    0    0 -0.25908505990E+02 -0.12326721818E+02  0.14196054514E+01  0.28726538829E+02  0.00000000000E+00 0. -1.
</event>
<event>
 7    1  0.1381440E-008  0.4614232E+02  0.7816164E-02  0.1320468E+00
        -11   -1    0    0    0    0  0.00000000000E+00  0.00000000000E+00  0.45593999997E+02  0.45594000000E+02  0.51100000000E-03 0.  1.
         11   -1    0    0    0    0 -0.00000000000E+00 -0.00000000000E+00 -0.45593999997E+02  0.45594000000E+02  0.51100000000E-03 0. -1.
    9900012    2    1    2    0    0  0.29871799890E+02  0.21145821585E+01  0.33649926920E+02  0.46142317986E+02  0.10000002053E+02 0.  0.
         12    1    1    2    0    0 -0.29871799890E+02 -0.21145821585E+01 -0.33649926920E+02  0.45045682014E+02  0.00000000000E+00 0. -1.
         11    1    3    3    0    0  0.66358547990E+01 -0.34760350304E+01  0.78685610173E+01  0.10864236797E+02  0.51100000000E-03 0. -1.
        -11    1    3    3    0    0  0.70079871043E+01  0.67665446532E+00  0.89441948986E+01  0.11382810161E+02  0.51100000000E-03 0.  1.
         12    1    3    3    0    0  0.16227957987E+02  0.49139627236E+01  0.16837171004E+02  0.23895271028E+02  0.00000000000E+00 0. -1.
</event>
<event>
 7    1  0.1381440E-008  0.4614232E+02  0.7816164E-02  0.1320468E+00
        -11   -1    0    0    0    0  0.00000000000E+00  0.00000000000E+00  0.45593999997E+02  0.45594000000E+02  0.51100000000E-03 0.  1.
         11   -1    0    0    0    0 -0.00000000000E+00 -0.00000000000E+00 -0.45593999997E+02  0.45594000000E+02  0.51100000000E-03 0. -1.
    9900012    2    1    2    0    0  0.40102253057E+02  0.15887795100E+02  0.12980785716E+02  0.46142317286E+02  0.99999956653E+01 0.  0.
         12    1    1    2    0    0 -0.40102253057E+02 -0.15887795100E+02 -0.12980785716E+02  0.45045682714E+02  0.00000000000E+00 0. -1.
         11    1    3    3    0    0  0.26814666684E+01 -0.10514887695E+00 -0.94827460326E+00  0.28461455979E+01  0.51100000000E-03 0. -1.
        -11    1    3    3    0    0  0.27595507282E+02  0.94146776929E+01  0.94148609207E+01  0.30639644003E+02  0.51100000000E-03 0.  1.
         12    1    3    3    0    0  0.98252791063E+01  0.65782662842E+01  0.45141993986E+01  0.12656527685E+02  0.00000000000E+00 0. -1.
</event>
<event>
 7    1  0.1381440E-008  0.4614232E+02  0.7816164E-02  0.1320468E+00
        -11   -1    0    0    0    0  0.00000000000E+00  0.00000000000E+00  0.45593999997E+02  0.45594000000E+02  0.51100000000E-03 0.  1.
         11   -1    0    0    0    0 -0.00000000000E+00 -0.00000000000E+00 -0.45593999997E+02  0.45594000000E+02  0.51100000000E-03 0. -1.
    9900012    2    1    2    0    0 -0.34733129152E+00  0.30564386254E+02  0.33087929741E+02  0.46142318290E+02  0.10000004827E+02 0.  0.
         12    1    1    2    0    0  0.34733129152E+00 -0.30564386254E+02 -0.33087929741E+02  0.45045681710E+02  0.00000000000E+00 0. -1.
         11    1    3    3    0    0  0.27409154908E+01  0.11568583424E+02  0.11943333107E+02  0.16851941910E+02  0.51100000000E-03 0. -1.
        -11    1    3    3    0    0 -0.47334167843E+01  0.97874257175E+01  0.12311685011E+02  0.16424875181E+02  0.51100000000E-03 0.  1.
        -12    1    3    3    0    0  0.16451700019E+01  0.92083771121E+01  0.88329116227E+01  0.12865501199E+02  0.00000000000E+00 0.  1.
</event>
<event>
 7    1  0.1381440E-008  0.4614232E+02  0.7816164E-02  0.1320468E+00
        -11   -1    0    0    0    0  0.00000000000E+00  0.00000000000E+00  0.45593999997E+02  0.45594000000E+02  0.51100000000E-03 0.  1.
         11   -1    0    0    0    0 -0.00000000000E+00 -0.00000000000E+00 -0.45593999997E+02  0.45594000000E+02  0.51100000000E-03 0. -1.
    9900012    2    1    2    0    0  0.13905941954E+02  0.22344286483E+02  0.36557778462E+02  0.46142317342E+02  0.99999961791E+01 0.  0.
         12    1    1    2    0    0 -0.13905941954E+02 -0.22344286483E+02 -0.36557778462E+02  0.45045682658E+02  0.00000000000E+00 0. -1.
         11    1    3    3    0    0  0.10051039234E+02  0.17118707353E+02  0.24451466056E+02  0.31495201598E+02  0.51100000000E-03 0. -1.
        -11    1    3    3    0    0  0.50136263259E+01  0.35875875684E+01  0.82378210747E+01  0.10289262841E+02  0.51100000000E-03 0.  1.
         12    1    3    3    0    0 -0.11587236055E+01  0.16379915614E+01  0.38684913309E+01  0.43578529033E+01  0.00000000000E+00 0. -1.
</event>
<event>
 7    1  0.1381440E-008  0.4614232E+02  0.7816164E-02  0.1320468E+00
        -11   -1    0    0    0    0  0.00000000000E+00  0.00000000000E+00  0.45593999997E+02  0.45594000000E+02  0.51100000000E-03 0. -1.
         11   -1    0    0    0    0 -0.00000000000E+00 -0.00000000000E+00 -0.45593999997E+02  0.45594000000E+02  0.51100000000E-03 0.  1.
    9900012    2    1    2    0    0  0.35533155040E+02  0.27487268332E+02  0.33103634104E+01  0.46142317262E+02  0.99999954442E+01 0.  0.
         12    1    1    2    0    0 -0.35533155040E+02 -0.27487268332E+02 -0.33103634104E+01  0.45045682738E+02  0.00000000000E+00 0. -1.
         11    1    3    3    0    0  0.39104704862E+01  0.48392291761E+01 -0.23519475974E+01  0.66514341464E+01  0.51100000000E-03 0. -1.
        -11    1    3    3    0    0  0.43893263771E+01  0.32089834219E+01 -0.53092714895E+00  0.54631167428E+01  0.51100000000E-03 0.  1.
         12    1    3    3    0    0  0.27233358177E+02  0.19439055734E+02  0.61932381567E+01  0.34027766372E+02  0.00000000000E+00 0. -1.
</event>
<event>
 7    1  0.1381440E-008  0.4614232E+02  0.7816164E-02  0.1320468E+00
        -11   -1    0    0    0    0  0.00000000000E+00  0.00000000000E+00  0.45593999997E+02  0.45594000000E+02  0.51100000000E-03 0. -1.
         11   -1    0    0    0    0 -0.00000000000E+00 -0.00000000000E+00 -0.45593999997E+02  0.45594000000E+02  0.51100000000E-03 0.  1.
    9900012    2    1    2    0    0  0.25711113795E+02  0.36809382949E+02 -0.36223576878E+01  0.46142317400E+02  0.99999967060E+01 0.  0.
         12    1    1    2    0    0 -0.25711113795E+02 -0.36809382949E+02  0.36223576878E+01  0.45045682600E+02  0.00000000000E+00 0. -1.
         11    1    3    3    0    0  0.32053565689E+01  0.78943091778E+01 -0.41522774149E+01  0.94781768352E+01  0.51100000000E-03 0. -1.
        -11    1    3    3    0    0  0.11100761137E+02  0.15175595603E+02  0.93174965032E-01  0.18802507321E+02  0.51100000000E-03 0.  1.
         12    1    3    3    0    0  0.11404996090E+02  0.13739478169E+02  0.43674476203E+00  0.17861633244E+02  0.00000000000E+00 0. -1.
</event>
<event>
 7    1  0.1381440E-008  0.4614232E+02  0.7816164E-02  0.1320468E+00
        -11   -1    0    0    0    0  0.00000000000E+00  0.00000000000E+00  0.45593999997E+02  0.45594000000E+02  0.51100000000E-03 0.  1.
         11   -1    0    0    0    0 -0.00000000000E+00 -0.00000000000E+00 -0.45593999997E+02  0.45594000000E+02  0.51100000000E-03 0. -1.
    9900012    2    1    2    0    0 -0.15157425322E+02  0.41583025148E+02  0.83796135473E+01  0.46142318230E+02  0.10000004280E+02 0.  0.
         12    1    1    2    0    0  0.15157425322E+02 -0.41583025148E+02 -0.83796135473E+01  0.45045681770E+02  0.00000000000E+00 0. -1.
         11    1    3    3    0    0 -0.14875725449E+01  0.97974201164E+01  0.24543175631E+01  0.10209112987E+02  0.51100000000E-03 0. -1.
        -11    1    3    3    0    0 -0.80647872441E+01  0.24534906979E+02  0.68576290991E+01  0.26721331009E+02  0.51100000000E-03 0.  1.
         12    1    3    3    0    0 -0.56050655328E+01  0.72506980528E+01 -0.93233311481E+00  0.92118742348E+01  0.00000000000E+00 0. -1.
</event>
<event>
 7    1  0.1381440E-008  0.4614231E+02  0.7816164E-02  0.1320468E+00
        -11   -1    0    0    0    0  0.00000000000E+00  0.00000000000E+00  0.45593999997E+02  0.45594000000E+02  0.51100000000E-03 0.  1.
         11   -1    0    0    0    0 -0.00000000000E+00 -0.00000000000E+00 -0.45593999997E+02  0.45594000000E+02  0.51100000000E-03 0. -1.
    9900012    2    1    2    0    0 -0.72884737854E+01  0.29466480648E+02  0.33282404467E+02  0.46142314535E+02  0.99999705809E+01 0.  0.
         12    1    1    2    0    0  0.72884737854E+01 -0.29466480648E+02 -0.33282404467E+02  0.45045685465E+02  0.00000000000E+00 0. -1.
         11    1    3    3    0    0 -0.47651780161E+01  0.18744985796E+02  0.13974333688E+02  0.23861337270E+02  0.51100000000E-03 0. -1.
        -11    1    3    3    0    0 -0.12775465600E+01  0.29678883058E+01  0.64589543665E+01  0.72220895853E+01  0.51100000000E-03 0.  1.
         12    1    3    3    0    0 -0.12457492093E+01  0.77536065457E+01  0.12849116412E+02  0.15058887679E+02  0.00000000000E+00 0. -1.
</event>
<event>
 7    1  0.1381440E-008  0.4614232E+02  0.7816164E-02  0.1320468E+00
        -11   -1    0    0    0    0  0.00000000000E+00  0.00000000000E+00  0.45593999997E+02  0.45594000000E+02  0.51100000000E-03 0. -1.
         11   -1    0    0    0    0 -0.00000000000E+00 -0.00000000000E+00 -0.45593999997E+02  0.45594000000E+02  0.51100000000E-03 0.  1.
    9900012    2    1    2    0    0  0.22072603307E+02  0.38284517152E+01 -0.39080131139E+02  0.46142317530E+02  0.99999978941E+01 0.  0.
         12    1    1    2    0    0 -0.22072603307E+02 -0.38284517152E+01  0.39080131139E+02  0.45045682470E+02  0.00000000000E+00 0. -1.
         11    1    3    3    0    0  0.23928586117E+01  0.17141019151E+00 -0.16934975739E+01  0.29365095068E+01  0.51100000000E-03 0. -1.
        -11    1    3    3    0    0  0.13992120507E+01  0.17064008070E+01 -0.96742041571E+00  0.24094606448E+01  0.51100000000E-03 0.  1.
        -12    1    3    3    0    0  0.18280532645E+02  0.19506407167E+01 -0.36419213150E+02  0.40796347379E+02  0.00000000000E+00 0.  1.
</event>
<event>
 7    1  0.1381440E-008  0.4614232E+02  0.7816164E-02  0.1320468E+00
        -11   -1    0    0    0    0  0.00000000000E+00  0.00000000000E+00  0.45593999997E+02  0.45594000000E+02  0.51100000000E-03 0.  1.
         11   -1    0    0    0    0 -0.00000000000E+00 -0.00000000000E+00 -0.45593999997E+02  0.45594000000E+02  0.51100000000E-03 0. -1.
    9900012    2    1    2    0    0  0.24099846532E+02 -0.40573826788E+01  0.37839774161E+02  0.46142318014E+02  0.10000002303E+02 0.  0.
         12    1    1    2    0    0 -0.24099846532E+02  0.40573826788E+01 -0.37839774161E+02  0.45045681986E+02  0.00000000000E+00 0. -1.
         11    1    3    3    0    0 -0.88196971889E+00 -0.22387262430E+00  0.12002426715E+01  0.15061780335E+01  0.51100000000E-03 0. -1.
        -11    1    3    3    0    0  0.11091265231E+02 -0.55583336733E+00  0.13939669750E+02  0.17822443945E+02  0.51100000000E-03 0.  1.
        -12    1    3    3    0    0  0.13890551020E+02 -0.32776766872E+01  0.22699861739E+02  0.26813696035E+02  0.00000000000E+00 0.  1.
</event>
<event>
 7    1  0.1381440E-008  0.4614232E+02  0.7816164E-02  0.1320468E+00
        -11   -1    0    0    0    0  0.00000000000E+00  0.00000000000E+00  0.45593999997E+02  0.45594000000E+02  0.51100000000E-03 0.  1.
         11   -1    0    0    0    0 -0.00000000000E+00 -0.00000000000E+00 -0.45593999997E+02  0.45594000000E+02  0.51100000000E-03 0. -1.
    9900012    2    1    2    0    0  0.14206942880E+02  0.57115821593E+01  0.42363358420E+02  0.46142317262E+02  0.99999954474E+01 0.  0.
         12    1    1    2    0    0 -0.14206942880E+02 -0.57115821593E+01 -0.42363358420E+02  0.45045682738E+02  0.00000000000E+00 0. -1.
         11    1    3    3    0    0  0.25393689003E+01 -0.16017037297E+01  0.16546278331E+02  0.16816455516E+02  0.51100000000E-03 0. -1.
        -11    1    3    3    0    0  0.43205912272E+01  0.27348193775E+01  0.11657472456E+02  0.12729627250E+02  0.51100000000E-03 0.  1.
         12    1    3    3    0    0  0.73469827522E+01  0.45784665114E+01  0.14159607632E+02  0.16596234496E+02  0.00000000000E+00 0. -1.
</event>
<event>
 7    1  0.1381440E-008  0.4614232E+02  0.7816164E-02  0.1320468E+00
        -11   -1    0    0    0    0  0.00000000000E+00  0.00000000000E+00  0.45593999997E+02  0.45594000000E+02  0.51100000000E-03 0.  1.
         11   -1    0    0    0    0 -0.00000000000E+00 -0.00000000000E+00 -0.45593999997E+02  0.45594000000E+02  0.51100000000E-03 0. -1.
    9900012    2    1    2    0    0  0.45604642200E+00  0.28992231490E+02  0.34472539596E+02  0.46142318173E+02  0.10000003751E+02 0.  0.
         12    1    1    2    0    0 -0.45604642200E+00 -0.28992231490E+02 -0.34472539596E+02  0.45045681827E+02  0.00000000000E+00 0. -1.
         11    1    3    3    0    0  0.14747202183E+01  0.15463014898E+01  0.62282121834E+01  0.65845634086E+01  0.51100000000E-03 0. -1.
        -11    1    3    3    0    0  0.41435580326E+00  0.15960917893E+02  0.14281119118E+02  0.21421320086E+02  0.51100000000E-03 0.  1.
         12    1    3    3    0    0 -0.14330295995E+01  0.11485012107E+02  0.13963208294E+02  0.18136434677E+02  0.00000000000E+00 0. -1.
</event>
<event>
 7    1  0.1381440E-008  0.4614232E+02  0.7816164E-02  0.1320468E+00
        -11   -1    0    0    0    0  0.00000000000E+00  0.00000000000E+00  0.45593999997E+02  0.45594000000E+02  0.51100000000E-03 0.  1.
         11   -1    0    0    0    0 -0.00000000000E+00 -0.00000000000E+00 -0.45593999997E+02  0.45594000000E+02  0.51100000000E-03 0. -1.
    9900012    2    1    2    0    0 -0.38092652265E+02 -0.18122029943E+02 -0.15800484938E+02  0.46142318186E+02  0.10000003873E+02 0.  0.
         12    1    1    2    0    0  0.38092652265E+02  0.18122029943E+02  0.15800484938E+02  0.45045681814E+02  0.00000000000E+00 0. -1.
         11    1    3    3    0    0 -0.31387456125E+01 -0.37579759107E+01 -0.27593559364E+01  0.56203338344E+01  0.51100000000E-03 0. -1.
        -11    1    3    3    0    0 -0.27519430028E+02 -0.84103842642E+01 -0.87621697797E+01  0.30080379187E+02  0.51100000000E-03 0.  1.
        -12    1    3    3    0    0 -0.74344766246E+01 -0.59536697676E+01 -0.42789592218E+01  0.10441605164E+02  0.00000000000E+00 0.  1.
</event>
<event>
 7    1  0.1381440E-008  0.4614232E+02  0.7816164E-02  0.1320468E+00
        -11   -1    0    0    0    0  0.00000000000E+00  0.00000000000E+00  0.45593999997E+02  0.45594000000E+02  0.51100000000E-03 0. -1.
         11   -1    0    0    0    0 -0.00000000000E+00 -0.00000000000E+00 -0.45593999997E+02  0.45594000000E+02  0.51100000000E-03 0.  1.
    9900012    2    1    2    0    0  0.29470748269E+02 -0.25112040810E+02 -0.23021161737E+02  0.46142317800E+02  0.10000000352E+02 0.  0.
         12    1    1    2    0    0 -0.29470748269E+02  0.25112040810E+02  0.23021161737E+02  0.45045682200E+02  0.00000000000E+00 0. -1.
         11    1    3    3    0    0  0.64889493068E+01 -0.19404404795E+01 -0.34186728440E+01  0.75867711601E+01  0.51100000000E-03 0. -1.
        -11    1    3    3    0    0  0.13282107434E+02 -0.17176967227E+02 -0.14145301309E+02  0.25914322881E+02  0.51100000000E-03 0.  1.
        -12    1    3    3    0    0  0.96996915280E+01 -0.59946331030E+01 -0.54571875846E+01  0.12641223758E+02  0.00000000000E+00 0.  1.
</event>
<event>
 7    1  0.1381440E-008  0.4614232E+02  0.7816164E-02  0.1320468E+00
        -11   -1    0    0    0    0  0.00000000000E+00  0.00000000000E+00  0.45593999997E+02  0.45594000000E+02  0.51100000000E-03 0.  1.
         11   -1    0    0    0    0 -0.00000000000E+00 -0.00000000000E+00 -0.45593999997E+02  0.45594000000E+02  0.51100000000E-03 0. -1.
    9900012    2    1    2    0    0  0.82099213859E+01  0.23313746105E+02  0.37658729439E+02  0.46142317970E+02  0.10000001906E+02 0.  0.
         12    1    1    2    0    0 -0.82099213859E+01 -0.23313746105E+02 -0.37658729439E+02  0.45045682030E+02  0.00000000000E+00 0. -1.
         11    1    3    3    0    0 -0.16126392614E+01  0.41896890238E+01  0.47279209665E+01  0.65197650594E+01  0.51100000000E-03 0. -1.
        -11    1    3    3    0    0  0.69210172261E+01  0.91536599259E+01  0.14788510111E+02  0.18718707249E+02  0.51100000000E-03 0.  1.
        -12    1    3    3    0    0  0.29015434213E+01  0.99703971550E+01  0.18142298361E+02  0.20903845662E+02  0.00000000000E+00 0.  1.
</event>
<event>
 7    1  0.1381440E-008  0.4614232E+02  0.7816164E-02  0.1320468E+00
        -11   -1    0    0    0    0  0.00000000000E+00  0.00000000000E+00  0.45593999997E+02  0.45594000000E+02  0.51100000000E-03 0.  1.
         11   -1    0    0    0    0 -0.00000000000E+00 -0.00000000000E+00 -0.45593999997E+02  0.45594000000E+02  0.51100000000E-03 0. -1.
    9900012    2    1    2    0    0 -0.43489419165E+02 -0.42173162841E+01  0.10954365279E+02  0.46142318136E+02  0.10000003417E+02 0.  0.
         12    1    1    2    0    0  0.43489419165E+02  0.42173162841E+01 -0.10954365279E+02  0.45045681864E+02  0.00000000000E+00 0. -1.
         11    1    3    3    0    0 -0.32244709498E+02 -0.25476734955E+01  0.12182066704E+02  0.34563198351E+02  0.51100000000E-03 0. -1.
        -11    1    3    3    0    0 -0.11218748799E+02 -0.18136971955E+01 -0.12418587613E+01  0.11432061738E+02  0.51100000000E-03 0.  1.
         12    1    3    3    0    0 -0.25960867594E-01  0.14405440694E+00  0.14157336723E-01  0.14705804632E+00  0.00000000000E+00 0. -1.
</event>
<event>
 7    1  0.1381440E-008  0.4614232E+02  0.7816164E-02  0.1320468E+00
        -11   -1    0    0    0    0  0.00000000000E+00  0.00000000000E+00  0.45593999997E+02  0.45594000000E+02  0.51100000000E-03 0.  1.
         11   -1    0    0    0    0 -0.00000000000E+00 -0.00000000000E+00 -0.45593999997E+02  0.45594000000E+02  0.51100000000E-03 0. -1.
    9900012    2    1    2    0    0 -0.29146687498E+02  0.20004473990E+02  0.27917827790E+02  0.46142317851E+02  0.10000000823E+02 0.  0.
         12    1    1    2    0    0  0.29146687498E+02 -0.20004473990E+02 -0.27917827790E+02  0.45045682149E+02  0.00000000000E+00 0. -1.
         11    1    3    3    0    0 -0.77190655214E+00  0.10252196830E+01 -0.67877704829E+00  0.14517760385E+01  0.51100000000E-03 0. -1.
        -11    1    3    3    0    0 -0.89691734993E+01  0.75531635516E+01  0.82156504661E+01  0.14317585891E+02  0.51100000000E-03 0.  1.
        -12    1    3    3    0    0 -0.19405607446E+02  0.11426090755E+02  0.20380954372E+02  0.30372955922E+02  0.00000000000E+00 0.  1.
</event>
<event>
 7    1  0.1381440E-008  0.4614232E+02  0.7816164E-02  0.1320468E+00
        -11   -1    0    0    0    0  0.00000000000E+00  0.00000000000E+00  0.45593999997E+02  0.45594000000E+02  0.51100000000E-03 0.  1.
         11   -1    0    0    0    0 -0.00000000000E+00 -0.00000000000E+00 -0.45593999997E+02  0.45594000000E+02  0.51100000000E-03 0. -1.
    9900012    2    1    2    0    0 -0.80087587652E+01 -0.85193627663E+01  0.43501649591E+02  0.46142320118E+02  0.10000021488E+02 0.  0.
         12    1    1    2    0    0  0.80087587652E+01  0.85193627663E+01 -0.43501649591E+02  0.45045679882E+02  0.00000000000E+00 0. -1.
         11    1    3    3    0    0 -0.38758285204E+01 -0.59367351586E+01  0.19589616460E+02  0.20833145330E+02  0.51100000000E-03 0. -1.
        -11    1    3    3    0    0 -0.72516543711E+00  0.14094226842E+01  0.14034242628E+02  0.14123466416E+02  0.51100000000E-03 0.  1.
        -12    1    3    3    0    0 -0.34077648077E+01 -0.39920502920E+01  0.98777905040E+01  0.11185708371E+02  0.00000000000E+00 0.  1.
</event>
<event>
 7    1  0.1381440E-008  0.4614232E+02  0.7816164E-02  0.1320468E+00
        -11   -1    0    0    0    0  0.00000000000E+00  0.00000000000E+00  0.45593999997E+02  0.45594000000E+02  0.51100000000E-03 0. -1.
         11   -1    0    0    0    0 -0.00000000000E+00 -0.00000000000E+00 -0.45593999997E+02  0.45594000000E+02  0.51100000000E-03 0.  1.
    9900012    2    1    2    0    0  0.43647215169E+02  0.11132988150E+02 -0.30113523221E+00  0.46142317636E+02  0.99999988627E+01 0.  0.
         12    1    1    2    0    0 -0.43647215169E+02 -0.11132988150E+02  0.30113523221E+00  0.45045682364E+02  0.00000000000E+00 0. -1.
         11    1    3    3    0    0  0.14618628030E+02  0.86651807713E+01 -0.29113219141E+00  0.16996305525E+02  0.51100000000E-03 0. -1.
        -11    1    3    3    0    0  0.22627932560E+02  0.20768043748E+01 -0.33019761419E+00  0.22725436829E+02  0.51100000000E-03 0.  1.
         12    1    3    3    0    0  0.64006545793E+01  0.39100300360E+00  0.32019457339E+00  0.64205752824E+01  0.00000000000E+00 0. -1.
</event>
<event>
 7    1  0.1381440E-008  0.4614232E+02  0.7816164E-02  0.1320468E+00
        -11   -1    0    0    0    0  0.00000000000E+00  0.00000000000E+00  0.45593999997E+02  0.45594000000E+02  0.51100000000E-03 0.  1.
         11   -1    0    0    0    0 -0.00000000000E+00 -0.00000000000E+00 -0.45593999997E+02  0.45594000000E+02  0.51100000000E-03 0. -1.
    9900012    2    1    2    0    0 -0.25367895922E+02 -0.76280160737E+01  0.36433456173E+02  0.46142317616E+02  0.99999986769E+01 0.  0.
         12    1    1    2    0    0  0.25367895922E+02  0.76280160737E+01 -0.36433456173E+02  0.45045682384E+02  0.00000000000E+00 0. -1.
         11    1    3    3    0    0 -0.15678603427E+02 -0.24339577933E+00  0.22943119695E+02  0.27789648946E+02  0.51100000000E-03 0.  1.
        -11    1    3    3    0    0 -0.83370238919E+01 -0.50786546960E+01  0.10318592935E+02  0.14204649285E+02  0.51100000000E-03 0. -1.
        -12    1    3    3    0    0 -0.13522686027E+01 -0.23059655984E+01  0.31717435432E+01  0.41480193851E+01  0.00000000000E+00 0.  1.
</event>
<event>
 7    1  0.1381440E-008  0.4614232E+02  0.7816164E-02  0.1320468E+00
        -11   -1    0    0    0    0  0.00000000000E+00  0.00000000000E+00  0.45593999997E+02  0.45594000000E+02  0.51100000000E-03 0.  1.
         11   -1    0    0    0    0 -0.00000000000E+00 -0.00000000000E+00 -0.45593999997E+02  0.45594000000E+02  0.51100000000E-03 0. -1.
    9900012    2    1    2    0    0 -0.25698507590E+00 -0.44933298161E+02  0.31695641356E+01  0.46142318056E+02  0.10000002689E+02 0.  0.
         12    1    1    2    0    0  0.25698507590E+00  0.44933298161E+02 -0.31695641356E+01  0.45045681944E+02  0.00000000000E+00 0. -1.
         11    1    3    3    0    0  0.27123841650E+01 -0.24721907868E+02 -0.13177501914E+00  0.24870607580E+02  0.51100000000E-03 0. -1.
        -11    1    3    3    0    0 -0.28634653185E+01 -0.16276522633E+02  0.45512842523E+01  0.17141727196E+02  0.51100000000E-03 0.  1.
        -12    1    3    3    0    0 -0.10590392235E+00 -0.39348676613E+01 -0.12499450975E+01  0.41299832807E+01  0.00000000000E+00 0.  1.
</event>
<event>
 7    1  0.1381440E-008  0.4614231E+02  0.7816164E-02  0.1320468E+00
        -11   -1    0    0    0    0  0.00000000000E+00  0.00000000000E+00  0.45593999997E+02  0.45594000000E+02  0.51100000000E-03 0.  1.
         11   -1    0    0    0    0 -0.00000000000E+00 -0.00000000000E+00 -0.45593999997E+02  0.45594000000E+02  0.51100000000E-03 0. -1.
    9900012    2    1    2    0    0 -0.25595181204E+02 -0.27175931279E+01  0.36967766350E+02  0.46142308062E+02  0.99999115579E+01 0.  0.
         12    1    1    2    0    0  0.25595181204E+02  0.27175931279E+01 -0.36967766350E+02  0.45045691938E+02  0.00000000000E+00 0. -1.
         11    1    3    3    0    0 -0.33409370163E+01  0.97488650094E+00  0.34413478682E+01  0.48943987626E+01  0.51100000000E-03 0. -1.
        -11    1    3    3    0    0 -0.17458941752E+02 -0.22248511515E+01  0.30963594535E+02  0.35616131128E+02  0.51100000000E-03 0.  1.
        -12    1    3    3    0    0 -0.47953024354E+01 -0.14676284773E+01  0.25628239470E+01  0.56317781719E+01  0.00000000000E+00 0.  1.
</event>
<event>
 7    1  0.1381440E-008  0.4614232E+02  0.7816164E-02  0.1320468E+00
        -11   -1    0    0    0    0  0.00000000000E+00  0.00000000000E+00  0.45593999997E+02  0.45594000000E+02  0.51100000000E-03 0.  1.
         11   -1    0    0    0    0 -0.00000000000E+00 -0.00000000000E+00 -0.45593999997E+02  0.45594000000E+02  0.51100000000E-03 0. -1.
    9900012    2    1    2    0    0 -0.37825646918E+02  0.23325376117E+02 -0.73661875656E+01  0.46142318131E+02  0.10000003376E+02 0.  0.
         12    1    1    2    0    0  0.37825646918E+02 -0.23325376117E+02  0.73661875656E+01  0.45045681869E+02  0.00000000000E+00 0. -1.
         11    1    3    3    0    0 -0.90537773065E+01  0.12192592910E+01 -0.28751100539E+01  0.95772509008E+01  0.51100000000E-03 0. -1.
        -11    1    3    3    0    0 -0.17793846871E+02  0.13763649214E+02 -0.30569689056E+01  0.22702512753E+02  0.51100000000E-03 0.  1.
         12    1    3    3    0    0 -0.10978022741E+02  0.83424676112E+01 -0.14341086061E+01  0.13862554478E+02  0.00000000000E+00 0. -1.
</event>
<event>
 7    1  0.1381440E-008  0.4614232E+02  0.7816164E-02  0.1320468E+00
        -11   -1    0    0    0    0  0.00000000000E+00  0.00000000000E+00  0.45593999997E+02  0.45594000000E+02  0.51100000000E-03 0.  1.
         11   -1    0    0    0    0 -0.00000000000E+00 -0.00000000000E+00 -0.45593999997E+02  0.45594000000E+02  0.51100000000E-03 0. -1.
    9900012    2    1    2    0    0 -0.38655648339E+02 -0.26494205419E+01  0.22974657306E+02  0.46142318120E+02  0.10000003270E+02 0.  0.
         12    1    1    2    0    0  0.38655648339E+02  0.26494205419E+01 -0.22974657306E+02  0.45045681880E+02  0.00000000000E+00 0. -1.
         11    1    3    3    0    0 -0.32549403068E+01 -0.19722511488E+01  0.41368073017E+01  0.56211730010E+01  0.51100000000E-03 0. -1.
        -11    1    3    3    0    0 -0.19172775478E+02  0.68231282678E-01  0.13394830115E+02  0.23388489671E+02  0.51100000000E-03 0.  1.
         12    1    3    3    0    0 -0.16227932555E+02 -0.74540067575E+00  0.54430198887E+01  0.17132655447E+02  0.00000000000E+00 0. -1.
</event>
<event>
 7    1  0.1381440E-008  0.4614232E+02  0.7816164E-02  0.1320468E+00
        -11   -1    0    0    0    0  0.00000000000E+00  0.00000000000E+00  0.45593999997E+02  0.45594000000E+02  0.51100000000E-03 0.  1.
         11   -1    0    0    0    0 -0.00000000000E+00 -0.00000000000E+00 -0.45593999997E+02  0.45594000000E+02  0.51100000000E-03 0. -1.
    9900012    2    1    2    0    0 -0.11088110117E+01 -0.44620644700E+02  0.60730649941E+01  0.46142317480E+02  0.99999974329E+01 0.  0.
         12    1    1    2    0    0  0.11088110117E+01  0.44620644700E+02 -0.60730649941E+01  0.45045682520E+02  0.00000000000E+00 0. -1.
         11    1    3    3    0    0  0.85198796262E-01 -0.30642388896E+01  0.10990161394E+01  0.32564790101E+01  0.51100000000E-03 0. -1.
        -11    1    3    3    0    0 -0.97009155004E+00 -0.42041580186E+02  0.48105073517E+01  0.42327018834E+02  0.51100000000E-03 0.  1.
        -12    1    3    3    0    0 -0.22391825791E+00  0.48517437586E+00  0.16354150294E+00  0.55881963495E+00  0.00000000000E+00 0.  1.
</event>
<event>
 7    1  0.1381440E-008  0.4614232E+02  0.7816164E-02  0.1320468E+00
        -11   -1    0    0    0    0  0.00000000000E+00  0.00000000000E+00  0.45593999997E+02  0.45594000000E+02  0.51100000000E-03 0.  1.
         11   -1    0    0    0    0 -0.00000000000E+00 -0.00000000000E+00 -0.45593999997E+02  0.45594000000E+02  0.51100000000E-03 0. -1.
    9900012    2    1    2    0    0  0.54136283115E+01  0.17771427413E+02  0.41036353087E+02  0.46142320091E+02  0.10000021243E+02 0.  0.
         12    1    1    2    0    0 -0.54136283115E+01 -0.17771427413E+02 -0.41036353087E+02  0.45045679909E+02  0.00000000000E+00 0. -1.
         11    1    3    3    0    0 -0.32993182330E+00  0.44914091983E+01  0.84212357349E+01  0.95498074932E+01  0.51100000000E-03 0. -1.
        -11    1    3    3    0    0  0.36305368731E+01  0.12742005046E+02  0.31435379623E+02  0.34113378357E+02  0.51100000000E-03 0.  1.
        -12    1    3    3    0    0  0.21130232617E+01  0.53801316800E+00  0.11797377293E+01  0.24791342407E+01  0.00000000000E+00 0.  1.
</event>
<event>
 7    1  0.1381440E-008  0.4614232E+02  0.7816164E-02  0.1320468E+00
        -11   -1    0    0    0    0  0.00000000000E+00  0.00000000000E+00  0.45593999997E+02  0.45594000000E+02  0.51100000000E-03 0.  1.
         11   -1    0    0    0    0 -0.00000000000E+00 -0.00000000000E+00 -0.45593999997E+02  0.45594000000E+02  0.51100000000E-03 0. -1.
    9900012    2    1    2    0    0 -0.43973149691E+02  0.97101461300E+01  0.10902651068E+01  0.46142317525E+02  0.99999978512E+01 0.  0.
         12    1    1    2    0    0  0.43973149691E+02 -0.97101461300E+01 -0.10902651068E+01  0.45045682475E+02  0.00000000000E+00 0. -1.
         11    1    3    3    0    0 -0.23525548489E+01  0.96386123076E+00  0.17520643178E+00  0.25483799450E+01  0.51100000000E-03 0. -1.
        -11    1    3    3    0    0 -0.14482035694E+01  0.23056006638E+01 -0.90127654781E+00  0.28679936674E+01  0.51100000000E-03 0.  1.
        -12    1    3    3    0    0 -0.40172391273E+02  0.64406842355E+01  0.18163352228E+01  0.40725943913E+02  0.00000000000E+00 0.  1.
</event>
<event>
 7    1  0.1381440E-008  0.4614231E+02  0.7816164E-02  0.1320468E+00
        -11   -1    0    0    0    0  0.00000000000E+00  0.00000000000E+00  0.45593999997E+02  0.45594000000E+02  0.51100000000E-03 0.  1.
         11   -1    0    0    0    0 -0.00000000000E+00 -0.00000000000E+00 -0.45593999997E+02  0.45594000000E+02  0.51100000000E-03 0. -1.
    9900012    2    1    2    0    0  0.20968287707E+02 -0.14512587422E+02  0.37132596625E+02  0.46142311914E+02  0.99999466810E+01 0.  0.
         12    1    1    2    0    0 -0.20968287707E+02  0.14512587422E+02 -0.37132596625E+02  0.45045688086E+02  0.00000000000E+00 0. -1.
         11    1    3    3    0    0  0.59002863238E+01 -0.35560808262E+00  0.94091873745E+01  0.11111824473E+02  0.51100000000E-03 0. -1.
        -11    1    3    3    0    0  0.91894410597E+01 -0.11809139065E+02  0.17722153086E+02  0.23194316173E+02  0.51100000000E-03 0.  1.
        -12    1    3    3    0    0  0.58785603236E+01 -0.23478402746E+01  0.10001256164E+02  0.11836171268E+02  0.00000000000E+00 0.  1.
</event>
<event>
 7    1  0.1381440E-008  0.4614232E+02  0.7816164E-02  0.1320468E+00
        -11   -1    0    0    0    0  0.00000000000E+00  0.00000000000E+00  0.45593999997E+02  0.45594000000E+02  0.51100000000E-03 0. -1.
         11   -1    0    0    0    0 -0.00000000000E+00 -0.00000000000E+00 -0.45593999997E+02  0.45594000000E+02  0.51100000000E-03 0.  1.
    9900012    2    1    2    0    0  0.10231024401E+02  0.32112998042E+02 -0.29886366735E+02  0.46142318518E+02  0.10000006904E+02 0.  0.
         12    1    1    2    0    0 -0.10231024401E+02 -0.32112998042E+02  0.29886366735E+02  0.45045681482E+02  0.00000000000E+00 0. -1.
         11    1    3    3    0    0  0.42921263251E+01  0.17268010937E+02 -0.11942070999E+02  0.21429409934E+02  0.51100000000E-03 0.  1.
        -11    1    3    3    0    0  0.48337881222E+01  0.12290257077E+02 -0.17452645701E+02  0.21886314648E+02  0.51100000000E-03 0. -1.
         12    1    3    3    0    0  0.11051099540E+01  0.25547300282E+01 -0.49165003542E+00  0.28265939370E+01  0.00000000000E+00 0. -1.
</event>
<event>
 7    1  0.1381440E-008  0.4614232E+02  0.7816164E-02  0.1320468E+00
        -11   -1    0    0    0    0  0.00000000000E+00  0.00000000000E+00  0.45593999997E+02  0.45594000000E+02  0.51100000000E-03 0.  1.
         11   -1    0    0    0    0 -0.00000000000E+00 -0.00000000000E+00 -0.45593999997E+02  0.45594000000E+02  0.51100000000E-03 0. -1.
    9900012    2    1    2    0    0  0.70899875125E+01 -0.25664269304E+02  0.36334430077E+02  0.46142318177E+02  0.10000003793E+02 0.  0.
         12    1    1    2    0    0 -0.70899875125E+01  0.25664269304E+02 -0.36334430077E+02  0.45045681823E+02  0.00000000000E+00 0. -1.
         11    1    3    3    0    0  0.54869992498E+01 -0.16200633806E+02  0.27166768838E+02  0.32102975342E+02  0.51100000000E-03 0. -1.
        -11    1    3    3    0    0  0.52303500352E+00 -0.27182591971E+01  0.21277326943E+00  0.27762873416E+01  0.51100000000E-03 0.  1.
        -12    1    3    3    0    0  0.10799532592E+01 -0.67453763012E+01  0.89548879700E+01  0.11263055493E+02  0.00000000000E+00 0.  1.
</event>
<event>
 7    1  0.1381440E-008  0.4614232E+02  0.7816164E-02  0.1320468E+00
        -11   -1    0    0    0    0  0.00000000000E+00  0.00000000000E+00  0.45593999997E+02  0.45594000000E+02  0.51100000000E-03 0.  1.
         11   -1    0    0    0    0 -0.00000000000E+00 -0.00000000000E+00 -0.45593999997E+02  0.45594000000E+02  0.51100000000E-03 0. -1.
    9900012    2    1    2    0    0 -0.37589934484E+02  0.22203931600E+02 -0.11094847411E+02  0.46142318830E+02  0.10000009747E+02 0.  0.
         12    1    1    2    0    0  0.37589934484E+02 -0.22203931600E+02  0.11094847411E+02  0.45045681170E+02  0.00000000000E+00 0. -1.
         11    1    3    3    0    0 -0.22778124009E+02  0.16745636553E+02 -0.63040123972E+01  0.28965494118E+02  0.51100000000E-03 0. -1.
        -11    1    3    3    0    0 -0.73039541126E+01  0.40773308342E+00 -0.10701526802E+01  0.73931873347E+01  0.51100000000E-03 0.  1.
        -12    1    3    3    0    0 -0.75078563622E+01  0.50505619635E+01 -0.37206823339E+01  0.97836373774E+01  0.00000000000E+00 0.  1.
</event>
<event>
 7    1  0.1381440E-008  0.4614232E+02  0.7816164E-02  0.1320468E+00
        -11   -1    0    0    0    0  0.00000000000E+00  0.00000000000E+00  0.45593999997E+02  0.45594000000E+02  0.51100000000E-03 0.  1.
         11   -1    0    0    0    0 -0.00000000000E+00 -0.00000000000E+00 -0.45593999997E+02  0.45594000000E+02  0.51100000000E-03 0. -1.
    9900012    2    1    2    0    0 -0.10604994552E+02  0.12672109989E+02  0.41905429245E+02  0.46142320060E+02  0.10000020967E+02 0.  0.
         12    1    1    2    0    0  0.10604994552E+02 -0.12672109989E+02 -0.41905429245E+02  0.45045679940E+02  0.00000000000E+00 0. -1.
         11    1    3    3    0    0 -0.42477732312E+01  0.11572439412E+02  0.26021690494E+02  0.28793980409E+02  0.51100000000E-03 0.  1.
        -11    1    3    3    0    0 -0.36379668814E+01 -0.51498825499E+00  0.67898057503E+01  0.77201993706E+01  0.51100000000E-03 0. -1.
        -12    1    3    3    0    0 -0.27192544393E+01  0.16146588324E+01  0.90939330003E+01  0.96281402807E+01  0.00000000000E+00 0.  1.
</event>
<event>
 7    1  0.1381440E-008  0.4614232E+02  0.7816164E-02  0.1320468E+00
        -11   -1    0    0    0    0  0.00000000000E+00  0.00000000000E+00  0.45593999997E+02  0.45594000000E+02  0.51100000000E-03 0.  1.
         11   -1    0    0    0    0 -0.00000000000E+00 -0.00000000000E+00 -0.45593999997E+02  0.45594000000E+02  0.51100000000E-03 0. -1.
    9900012    2    1    2    0    0  0.35684607504E+02 -0.11862142730E+02  0.24799432900E+02  0.46142317465E+02  0.99999973026E+01 0.  0.
         12    1    1    2    0    0 -0.35684607504E+02  0.11862142730E+02 -0.24799432900E+02  0.45045682535E+02  0.00000000000E+00 0. -1.
         11    1    3    3    0    0  0.21694745474E+02 -0.96885487767E+01  0.15497114641E+02  0.28367067543E+02  0.51100000000E-03 0.  1.
        -11    1    3    3    0    0  0.16894878263E+01 -0.22313524116E+01  0.11948112340E+01  0.30431688823E+01  0.51100000000E-03 0. -1.
         12    1    3    3    0    0  0.12300374204E+02  0.57758457814E-01  0.81075070253E+01  0.14732081040E+02  0.00000000000E+00 0. -1.
</event>
<event>
 7    1  0.1381440E-008  0.4614232E+02  0.7816164E-02  0.1320468E+00
        -11   -1    0    0    0    0  0.00000000000E+00  0.00000000000E+00  0.45593999997E+02  0.45594000000E+02  0.51100000000E-03 0.  1.
         11   -1    0    0    0    0 -0.00000000000E+00 -0.00000000000E+00 -0.45593999997E+02  0.45594000000E+02  0.51100000000E-03 0. -1.
    9900012    2    1    2    0    0  0.12622982968E+02  0.31371986700E+01  0.43126926516E+02  0.46142317574E+02  0.99999982914E+01 0.  0.
         12    1    1    2    0    0 -0.12622982968E+02 -0.31371986700E+01 -0.43126926516E+02  0.45045682426E+02  0.00000000000E+00 0. -1.
         11    1    3    3    0    0  0.50339996014E+01  0.45040331386E+01  0.17672583789E+02  0.18919505399E+02  0.51100000000E-03 0. -1.
        -11    1    3    3    0    0  0.31014178190E+00 -0.18211965631E+01  0.95365198157E+01  0.97138126038E+01  0.51100000000E-03 0.  1.
        -12    1    3    3    0    0  0.72788415851E+01  0.45436209450E+00  0.15917822911E+02  0.17508999571E+02  0.00000000000E+00 0.  1.
</event>
<event>
 7    1  0.1381440E-008  0.4614232E+02  0.7816164E-02  0.1320468E+00
        -11   -1    0    0    0    0  0.00000000000E+00  0.00000000000E+00  0.45593999997E+02  0.45594000000E+02  0.51100000000E-03 0.  1.
         11   -1    0    0    0    0 -0.00000000000E+00 -0.00000000000E+00 -0.45593999997E+02  0.45594000000E+02  0.51100000000E-03 0. -1.
    9900012    2    1    2    0    0 -0.53428621380E+01  0.88235769960E+01  0.43848738287E+02  0.46142317230E+02  0.99999951584E+01 0.  0.
         12    1    1    2    0    0  0.53428621380E+01 -0.88235769960E+01 -0.43848738287E+02  0.45045682770E+02  0.00000000000E+00 0. -1.
         11    1    3    3    0    0  0.19206503542E+01  0.10914344788E+01  0.53365695509E+01  0.57757338787E+01  0.51100000000E-03 0. -1.
        -11    1    3    3    0    0  0.71854038554E+00  0.19641746598E+01  0.95354531552E+01  0.97621283292E+01  0.51100000000E-03 0.  1.
         12    1    3    3    0    0 -0.79820528777E+01  0.57679678574E+01  0.28976715581E+02  0.30604455022E+02  0.00000000000E+00 0. -1.
</event>
<event>
 7    1  0.1381440E-008  0.4614232E+02  0.7816164E-02  0.1320468E+00
        -11   -1    0    0    0    0  0.00000000000E+00  0.00000000000E+00  0.45593999997E+02  0.45594000000E+02  0.51100000000E-03 0.  1.
         11   -1    0    0    0    0 -0.00000000000E+00 -0.00000000000E+00 -0.45593999997E+02  0.45594000000E+02  0.51100000000E-03 0. -1.
    9900012    2    1    2    0    0  0.53916689040E+01  0.62435962546E+00  0.44717486146E+02  0.46142317790E+02  0.10000000264E+02 0.  0.
         12    1    1    2    0    0 -0.53916689040E+01 -0.62435962546E+00 -0.44717486146E+02  0.45045682210E+02  0.00000000000E+00 0. -1.
         11    1    3    3    0    0 -0.41022365336E+00  0.32102439884E+01  0.19299569471E+02  0.19569040138E+02  0.51100000000E-03 0. -1.
        -11    1    3    3    0    0 -0.71959315862E-01 -0.17685793904E+01  0.46605913975E+01  0.49853950334E+01  0.51100000000E-03 0.  1.
        -12    1    3    3    0    0  0.58738518733E+01 -0.81730497253E+00  0.20757325278E+02  0.21587882618E+02  0.00000000000E+00 0.  1.
</event>
<event>
 7    1  0.1381440E-008  0.4614232E+02  0.7816164E-02  0.1320468E+00
        -11   -1    0    0    0    0  0.00000000000E+00  0.00000000000E+00  0.45593999997E+02  0.45594000000E+02  0.51100000000E-03 0.  1.
         11   -1    0    0    0    0 -0.00000000000E+00 -0.00000000000E+00 -0.45593999997E+02  0.45594000000E+02  0.51100000000E-03 0. -1.
    9900012    2    1    2    0    0  0.36224136374E+02 -0.99888287780E+01  0.24842477819E+02  0.46142318069E+02  0.10000002811E+02 0.  0.
         12    1    1    2    0    0 -0.36224136374E+02  0.99888287780E+01 -0.24842477819E+02  0.45045681931E+02  0.00000000000E+00 0. -1.
         11    1    3    3    0    0  0.15092286062E+02 -0.68270437130E+00  0.59961381669E+01  0.16254133537E+02  0.51100000000E-03 0. -1.
        -11    1    3    3    0    0  0.25336364103E+01 -0.41836342802E+00  0.17421792267E+01  0.31031484232E+01  0.51100000000E-03 0.  1.
         12    1    3    3    0    0  0.18598213902E+02 -0.88877609787E+01  0.17104160425E+02  0.26785036110E+02  0.00000000000E+00 0. -1.
</event>
<event>
 7    1  0.1381440E-008  0.4614232E+02  0.7816164E-02  0.1320468E+00
        -11   -1    0    0    0    0  0.00000000000E+00  0.00000000000E+00  0.45593999997E+02  0.45594000000E+02  0.51100000000E-03 0. -1.
         11   -1    0    0    0    0 -0.00000000000E+00 -0.00000000000E+00 -0.45593999997E+02  0.45594000000E+02  0.51100000000E-03 0.  1.
    9900012    2    1    2    0    0  0.56926656326E+00 -0.32250916197E+02 -0.31443089064E+02  0.46142317523E+02  0.99999978246E+01 0.  0.
         12    1    1    2    0    0 -0.56926656326E+00  0.32250916197E+02  0.31443089064E+02  0.45045682477E+02  0.00000000000E+00 0. -1.
         11    1    3    3    0    0 -0.39709069566E+00 -0.25641787626E+01 -0.63446475107E+01  0.68547243594E+01  0.51100000000E-03 0. -1.
        -11    1    3    3    0    0 -0.14463497023E+01 -0.12953010738E+02 -0.82860255735E+01  0.15444437015E+02  0.51100000000E-03 0.  1.
         12    1    3    3    0    0  0.24127069612E+01 -0.16733726696E+02 -0.16812415980E+02  0.23843156148E+02  0.00000000000E+00 0. -1.
</event>
<event>
 7    1  0.1381440E-008  0.4614232E+02  0.7816164E-02  0.1320468E+00
        -11   -1    0    0    0    0  0.00000000000E+00  0.00000000000E+00  0.45593999997E+02  0.45594000000E+02  0.51100000000E-03 0.  1.
         11   -1    0    0    0    0 -0.00000000000E+00 -0.00000000000E+00 -0.45593999997E+02  0.45594000000E+02  0.51100000000E-03 0. -1.
    9900012    2    1    2    0    0 -0.18100285110E+02 -0.77543754408E+01  0.40513735360E+02  0.46142318605E+02  0.10000007693E+02 0.  0.
         12    1    1    2    0    0  0.18100285110E+02  0.77543754408E+01 -0.40513735360E+02  0.45045681395E+02  0.00000000000E+00 0. -1.
         11    1    3    3    0    0 -0.84688267811E+01 -0.15149192125E+00  0.16332515619E+02  0.18398234794E+02  0.51100000000E-03 0. -1.
        -11    1    3    3    0    0 -0.93465274540E+01 -0.66749730925E+01  0.17115284862E+02  0.20611788312E+02  0.51100000000E-03 0.  1.
        -12    1    3    3    0    0 -0.28493087473E+00 -0.92791042701E+00  0.70659348792E+01  0.71322954987E+01  0.00000000000E+00 0.  1.
</event>
<event>
 7    1  0.1381440E-008  0.4614232E+02  0.7816164E-02  0.1320468E+00
        -11   -1    0    0    0    0  0.00000000000E+00  0.00000000000E+00  0.45593999997E+02  0.45594000000E+02  0.51100000000E-03 0.  1.
         11   -1    0    0    0    0 -0.00000000000E+00 -0.00000000000E+00 -0.45593999997E+02  0.45594000000E+02  0.51100000000E-03 0. -1.
    9900012    2    1    2    0    0 -0.21250833958E+02  0.23575418816E+02  0.31964280633E+02  0.46142317048E+02  0.99999934961E+01 0.  0.
         12    1    1    2    0    0  0.21250833958E+02 -0.23575418816E+02 -0.31964280633E+02  0.45045682952E+02  0.00000000000E+00 0. -1.
         11    1    3    3    0    0  0.44292139713E+00  0.70822119743E+00 -0.33237961195E+00  0.89901785082E+00  0.51100000000E-03 0. -1.
        -11    1    3    3    0    0 -0.51944223570E+01  0.67310661497E+01  0.10366716802E+02  0.13407389479E+02  0.51100000000E-03 0.  1.
         12    1    3    3    0    0 -0.16499332998E+02  0.16136131468E+02  0.21929943443E+02  0.31835909718E+02  0.00000000000E+00 0. -1.
</event>
<event>
 7    1  0.1381440E-008  0.4614232E+02  0.7816164E-02  0.1320468E+00
        -11   -1    0    0    0    0  0.00000000000E+00  0.00000000000E+00  0.45593999997E+02  0.45594000000E+02  0.51100000000E-03 0.  1.
         11   -1    0    0    0    0 -0.00000000000E+00 -0.00000000000E+00 -0.45593999997E+02  0.45594000000E+02  0.51100000000E-03 0. -1.
    9900012    2    1    2    0    0 -0.11209592566E+02  0.15699529034E+02  0.40706055692E+02  0.46142321546E+02  0.10000034516E+02 0.  0.
         12    1    1    2    0    0  0.11209592566E+02 -0.15699529034E+02 -0.40706055692E+02  0.45045678454E+02  0.00000000000E+00 0. -1.
         11    1    3    3    0    0 -0.33629059698E+01  0.97018807738E+01  0.26312202558E+02  0.28244780594E+02  0.51100000000E-03 0. -1.
        -11    1    3    3    0    0 -0.61415320965E+01  0.22933675648E+01  0.86654493946E+01  0.10865908372E+02  0.51100000000E-03 0.  1.
        -12    1    3    3    0    0 -0.17051544997E+01  0.37042806958E+01  0.57284037395E+01  0.70316325803E+01  0.00000000000E+00 0.  1.
</event>
<event>
 7    1  0.1381440E-008  0.4614232E+02  0.7816164E-02  0.1320468E+00
        -11   -1    0    0    0    0  0.00000000000E+00  0.00000000000E+00  0.45593999997E+02  0.45594000000E+02  0.51100000000E-03 0.  1.
         11   -1    0    0    0    0 -0.00000000000E+00 -0.00000000000E+00 -0.45593999997E+02  0.45594000000E+02  0.51100000000E-03 0. -1.
    9900012    2    1    2    0    0  0.28734566535E+02  0.89300110360E+01  0.33521530883E+02  0.46142318256E+02  0.10000004509E+02 0.  0.
         12    1    1    2    0    0 -0.28734566535E+02 -0.89300110360E+01 -0.33521530883E+02  0.45045681744E+02  0.00000000000E+00 0. -1.
         11    1    3    3    0    0  0.11940705000E+02 -0.43621017381E+00  0.10301894536E+02  0.15776556865E+02  0.51100000000E-03 0. -1.
        -11    1    3    3    0    0  0.13596961579E+02  0.64612318517E+01  0.16128012666E+02  0.22062132128E+02  0.51100000000E-03 0.  1.
         12    1    3    3    0    0  0.31968999562E+01  0.29049893581E+01  0.70916236806E+01  0.83036292625E+01  0.00000000000E+00 0. -1.
</event>
<event>
 7    1  0.1381440E-008  0.4614232E+02  0.7816164E-02  0.1320468E+00
        -11   -1    0    0    0    0  0.00000000000E+00  0.00000000000E+00  0.45593999997E+02  0.45594000000E+02  0.51100000000E-03 0. -1.
         11   -1    0    0    0    0 -0.00000000000E+00 -0.00000000000E+00 -0.45593999997E+02  0.45594000000E+02  0.51100000000E-03 0.  1.
    9900012    2    1    2    0    0  0.30270898060E+02  0.21452452122E+02 -0.25545616543E+02  0.46142317677E+02  0.99999992309E+01 0.  0.
         12    1    1    2    0    0 -0.30270898060E+02 -0.21452452122E+02  0.25545616543E+02  0.45045682323E+02  0.00000000000E+00 0. -1.
         11    1    3    3    0    0  0.20124944902E+01  0.15989276741E+01 -0.39291608578E+01  0.46952112932E+01  0.51100000000E-03 0. -1.
        -11    1    3    3    0    0  0.16452634546E+02  0.15279674370E+02 -0.16140984118E+02  0.27653010703E+02  0.51100000000E-03 0.  1.
        -12    1    3    3    0    0  0.11805769023E+02  0.45738500782E+01 -0.54754715672E+01  0.13794095681E+02  0.00000000000E+00 0.  1.
</event>
<event>
 7    1  0.1381440E-008  0.4614232E+02  0.7816164E-02  0.1320468E+00
        -11   -1    0    0    0    0  0.00000000000E+00  0.00000000000E+00  0.45593999997E+02  0.45594000000E+02  0.51100000000E-03 0.  1.
         11   -1    0    0    0    0 -0.00000000000E+00 -0.00000000000E+00 -0.45593999997E+02  0.45594000000E+02  0.51100000000E-03 0. -1.
    9900012    2    1    2    0    0  0.94408648716E+01 -0.11293388370E+02  0.42572796029E+02  0.46142317497E+02  0.99999975909E+01 0.  0.
         12    1    1    2    0    0 -0.94408648716E+01  0.11293388370E+02 -0.42572796029E+02  0.45045682503E+02  0.00000000000E+00 0. -1.
         11    1    3    3    0    0 -0.89754163775E+00 -0.25631133983E+01  0.46012631043E+01  0.53429162168E+01  0.51100000000E-03 0. -1.
        -11    1    3    3    0    0  0.72286998212E+01 -0.48263126542E+01  0.31194573996E+02  0.32382847960E+02  0.51100000000E-03 0.  1.
        -12    1    3    3    0    0  0.31097066881E+01 -0.39039623178E+01  0.67769589292E+01  0.84165533203E+01  0.00000000000E+00 0.  1.
</event>
<event>
 7    1  0.1381440E-008  0.4614232E+02  0.7816164E-02  0.1320468E+00
        -11   -1    0    0    0    0  0.00000000000E+00  0.00000000000E+00  0.45593999997E+02  0.45594000000E+02  0.51100000000E-03 0.  1.
         11   -1    0    0    0    0 -0.00000000000E+00 -0.00000000000E+00 -0.45593999997E+02  0.45594000000E+02  0.51100000000E-03 0. -1.
    9900012    2    1    2    0    0 -0.43430630839E+02 -0.11616899679E+02 -0.28180402286E+01  0.46142318698E+02  0.10000008545E+02 0.  0.
         12    1    1    2    0    0  0.43430630839E+02  0.11616899679E+02  0.28180402286E+01  0.45045681302E+02  0.00000000000E+00 0. -1.
         11    1    3    3    0    0 -0.17315972912E+02 -0.86226682010E+00  0.19225562326E+01  0.17443699283E+02  0.51100000000E-03 0. -1.
        -11    1    3    3    0    0 -0.14250600068E+02 -0.68514457275E+01 -0.28440882020E+01  0.16065825495E+02  0.51100000000E-03 0.  1.
         12    1    3    3    0    0 -0.11864057859E+02 -0.39031871310E+01 -0.18965082592E+01  0.12632793921E+02  0.00000000000E+00 0. -1.
</event>
<event>
 7    1  0.1381440E-008  0.4614232E+02  0.7816164E-02  0.1320468E+00
        -11   -1    0    0    0    0  0.00000000000E+00  0.00000000000E+00  0.45593999997E+02  0.45594000000E+02  0.51100000000E-03 0. -1.
         11   -1    0    0    0    0 -0.00000000000E+00 -0.00000000000E+00 -0.45593999997E+02  0.45594000000E+02  0.51100000000E-03 0.  1.
    9900012    2    1    2    0    0 -0.14901167086E+02  0.42191045264E+02  0.51946500395E+01  0.46142317965E+02  0.10000001859E+02 0.  0.
         12    1    1    2    0    0  0.14901167086E+02 -0.42191045264E+02 -0.51946500395E+01  0.45045682035E+02  0.00000000000E+00 0. -1.
         11    1    3    3    0    0 -0.67093519665E+01  0.15994008244E+02  0.56102736198E+01  0.18229066730E+02  0.51100000000E-03 0. -1.
        -11    1    3    3    0    0  0.23770332653E+00  0.58334957093E+01 -0.63580497506E+00  0.58728547819E+01  0.51100000000E-03 0.  1.
        -12    1    3    3    0    0 -0.84295184464E+01  0.20363541310E+02  0.22018139478E+00  0.22040396453E+02  0.00000000000E+00 0.  1.
</event>
<event>
 7    1  0.1381440E-008  0.4614232E+02  0.7816164E-02  0.1320468E+00
        -11   -1    0    0    0    0  0.00000000000E+00  0.00000000000E+00  0.45593999997E+02  0.45594000000E+02  0.51100000000E-03 0. -1.
         11   -1    0    0    0    0 -0.00000000000E+00 -0.00000000000E+00 -0.45593999997E+02  0.45594000000E+02  0.51100000000E-03 0.  1.
    9900012    2    1    2    0    0 -0.39839030524E+02 -0.21022900443E+02 -0.53111044638E-01  0.46142317445E+02  0.99999971141E+01 0.  0.
         12    1    1    2    0    0  0.39839030524E+02  0.21022900443E+02  0.53111044638E-01  0.45045682555E+02  0.00000000000E+00 0. -1.
         11    1    3    3    0    0 -0.12592287041E+02 -0.31021220713E+01 -0.29295950802E+01  0.13295539924E+02  0.51100000000E-03 0. -1.
        -11    1    3    3    0    0 -0.23390651710E+02 -0.14477486829E+02  0.30292064728E+01  0.27674831606E+02  0.51100000000E-03 0.  1.
        -12    1    3    3    0    0 -0.38560917735E+01 -0.34432915420E+01 -0.15272243725E+00  0.51719459154E+01  0.00000000000E+00 0.  1.
</event>
<event>
 7    1  0.1381440E-008  0.4614232E+02  0.7816164E-02  0.1320468E+00
        -11   -1    0    0    0    0  0.00000000000E+00  0.00000000000E+00  0.45593999997E+02  0.45594000000E+02  0.51100000000E-03 0.  1.
         11   -1    0    0    0    0 -0.00000000000E+00 -0.00000000000E+00 -0.45593999997E+02  0.45594000000E+02  0.51100000000E-03 0. -1.
    9900012    2    1    2    0    0 -0.66719330525E+01  0.91743276904E+01  0.43593927663E+02  0.46142317539E+02  0.99999979780E+01 0.  0.
         12    1    1    2    0    0  0.66719330525E+01 -0.91743276904E+01 -0.43593927663E+02  0.45045682461E+02  0.00000000000E+00 0. -1.
         11    1    3    3    0    0 -0.38594641918E+01  0.45293715219E+00  0.21219664063E+02  0.21572546422E+02  0.51100000000E-03 0. -1.
        -11    1    3    3    0    0 -0.35649772478E+01  0.86359309708E+01  0.19936894906E+02  0.22017450926E+02  0.51100000000E-03 0.  1.
        -12    1    3    3    0    0  0.75250838701E+00  0.85459567448E-01  0.24373686942E+01  0.25523201919E+01  0.00000000000E+00 0.  1.
</event>
<event>
 7    1  0.1381440E-008  0.4614232E+02  0.7816164E-02  0.1320468E+00
        -11   -1    0    0    0    0  0.00000000000E+00  0.00000000000E+00  0.45593999997E+02  0.45594000000E+02  0.51100000000E-03 0.  1.
         11   -1    0    0    0    0 -0.00000000000E+00 -0.00000000000E+00 -0.45593999997E+02  0.45594000000E+02  0.51100000000E-03 0. -1.
    9900012    2    1    2    0    0  0.86544741007E+01  0.12462630150E+02  0.42413399239E+02  0.46142317552E+02  0.99999980896E+01 0.  0.
         12    1    1    2    0    0 -0.86544741007E+01 -0.12462630150E+02 -0.42413399239E+02  0.45045682448E+02  0.00000000000E+00 0. -1.
         11    1    3    3    0    0 -0.80825409395E+00  0.66033889275E+00  0.11087227526E+01  0.15226912152E+01  0.51100000000E-03 0. -1.
        -11    1    3    3    0    0 -0.12250096040E+01  0.63110615954E+00  0.26275992568E+01  0.29670223507E+01  0.51100000000E-03 0.  1.
        -12    1    3    3    0    0  0.10687737799E+02  0.11171185098E+02  0.38677077230E+02  0.41652603986E+02  0.00000000000E+00 0.  1.
</event>
<event>
 7    1  0.1381440E-008  0.4614231E+02  0.7816164E-02  0.1320468E+00
        -11   -1    0    0    0    0  0.00000000000E+00  0.00000000000E+00  0.45593999997E+02  0.45594000000E+02  0.51100000000E-03 0.  1.
         11   -1    0    0    0    0 -0.00000000000E+00 -0.00000000000E+00 -0.45593999997E+02  0.45594000000E+02  0.51100000000E-03 0. -1.
    9900012    2    1    2    0    0  0.20342117483E+02  0.39380118107E+02  0.80323336180E+01  0.46142313978E+02  0.99999655022E+01 0.  0.
         12    1    1    2    0    0 -0.20342117483E+02 -0.39380118107E+02 -0.80323336180E+01  0.45045686022E+02  0.00000000000E+00 0. -1.
         11    1    3    3    0    0  0.90773439537E+01  0.13983935368E+02  0.60088786122E+01  0.17721603880E+02  0.51100000000E-03 0. -1.
        -11    1    3    3    0    0  0.26226875020E+01  0.10617667908E+02  0.27784344182E+01  0.11284195125E+02  0.51100000000E-03 0.  1.
        -12    1    3    3    0    0  0.86420860272E+01  0.14778514831E+02 -0.75497941238E+00  0.17136514973E+02  0.00000000000E+00 0.  1.
</event>
<event>
 7    1  0.1381440E-008  0.4614232E+02  0.7816164E-02  0.1320468E+00
        -11   -1    0    0    0    0  0.00000000000E+00  0.00000000000E+00  0.45593999997E+02  0.45594000000E+02  0.51100000000E-03 0.  1.
         11   -1    0    0    0    0 -0.00000000000E+00 -0.00000000000E+00 -0.45593999997E+02  0.45594000000E+02  0.51100000000E-03 0. -1.
    9900012    2    1    2    0    0  0.33354791150E+02 -0.17360598594E+02  0.24802843710E+02  0.46142317273E+02  0.99999955505E+01 0.  0.
         12    1    1    2    0    0 -0.33354791150E+02  0.17360598594E+02 -0.24802843710E+02  0.45045682727E+02  0.00000000000E+00 0. -1.
         11    1    3    3    0    0  0.31467359175E+01 -0.62841312965E+00  0.47151886893E+01  0.57034949490E+01  0.51100000000E-03 0. -1.
        -11    1    3    3    0    0  0.17046656747E+02 -0.11987587503E+02  0.14428888195E+02  0.25347259717E+02  0.51100000000E-03 0.  1.
         12    1    3    3    0    0  0.13161398486E+02 -0.47445979610E+01  0.56587668262E+01  0.15091562607E+02  0.00000000000E+00 0. -1.
</event>
<event>
 7    1  0.1381440E-008  0.4614232E+02  0.7816164E-02  0.1320468E+00
        -11   -1    0    0    0    0  0.00000000000E+00  0.00000000000E+00  0.45593999997E+02  0.45594000000E+02  0.51100000000E-03 0.  1.
         11   -1    0    0    0    0 -0.00000000000E+00 -0.00000000000E+00 -0.45593999997E+02  0.45594000000E+02  0.51100000000E-03 0. -1.
    9900012    2    1    2    0    0 -0.18996840385E+02  0.34240128047E+02  0.22267626334E+02  0.46142317679E+02  0.99999992492E+01 0.  0.
         12    1    1    2    0    0  0.18996840385E+02 -0.34240128047E+02 -0.22267626334E+02  0.45045682321E+02  0.00000000000E+00 0. -1.
         11    1    3    3    0    0 -0.27923839437E+01  0.27089434792E+01  0.51826768847E+01  0.64804261291E+01  0.51100000000E-03 0. -1.
        -11    1    3    3    0    0 -0.58853016869E+01  0.76375352037E+01  0.61159499612E+01  0.11418124370E+02  0.51100000000E-03 0.  1.
         12    1    3    3    0    0 -0.10319154754E+02  0.23893649364E+02  0.10968999488E+02  0.28243767180E+02  0.00000000000E+00 0. -1.
</event>
<event>
 7    1  0.1381440E-008  0.4614232E+02  0.7816164E-02  0.1320468E+00
        -11   -1    0    0    0    0  0.00000000000E+00  0.00000000000E+00  0.45593999997E+02  0.45594000000E+02  0.51100000000E-03 0. -1.
         11   -1    0    0    0    0 -0.00000000000E+00 -0.00000000000E+00 -0.45593999997E+02  0.45594000000E+02  0.51100000000E-03 0.  1.
    9900012    2    1    2    0    0  0.10564308939E+02  0.43181620072E+02 -0.72702504968E+01  0.46142317879E+02  0.10000001078E+02 0.  0.
         12    1    1    2    0    0 -0.10564308939E+02 -0.43181620072E+02  0.72702504968E+01  0.45045682121E+02  0.00000000000E+00 0. -1.
         11    1    3    3    0    0  0.50000436241E+01  0.14922369466E+02  0.18445075965E+00  0.15738855393E+02  0.51100000000E-03 0. -1.
        -11    1    3    3    0    0  0.43490079795E+00  0.18626232642E+00 -0.10560261226E+01  0.11571619554E+01  0.51100000000E-03 0.  1.
        -12    1    3    3    0    0  0.51293645174E+01  0.28072988279E+02 -0.63986751339E+01  0.29246300531E+02  0.00000000000E+00 0.  1.
</event>
<event>
 7    1  0.1381440E-008  0.4614232E+02  0.7816164E-02  0.1320468E+00
        -11   -1    0    0    0    0  0.00000000000E+00  0.00000000000E+00  0.45593999997E+02  0.45594000000E+02  0.51100000000E-03 0.  1.
         11   -1    0    0    0    0 -0.00000000000E+00 -0.00000000000E+00 -0.45593999997E+02  0.45594000000E+02  0.51100000000E-03 0. -1.
    9900012    2    1    2    0    0  0.25787680775E+02 -0.33828162897E+02  0.14824454909E+02  0.46142317098E+02  0.99999939567E+01 0.  0.
         12    1    1    2    0    0 -0.25787680775E+02  0.33828162897E+02 -0.14824454909E+02  0.45045682902E+02  0.00000000000E+00 0. -1.
         11    1    3    3    0    0  0.97851954163E+01 -0.93390467822E+01  0.76845569351E+01  0.15557000343E+02  0.51100000000E-03 0. -1.
        -11    1    3    3    0    0  0.49589578120E+01 -0.59792456622E+01 -0.32606663672E+00  0.77748929885E+01  0.51100000000E-03 0.  1.
        -12    1    3    3    0    0  0.11043527547E+02 -0.18509870452E+02  0.74659646109E+01  0.22810423766E+02  0.00000000000E+00 0.  1.
</event>
<event>
 7    1  0.1381440E-008  0.4614232E+02  0.7816164E-02  0.1320468E+00
        -11   -1    0    0    0    0  0.00000000000E+00  0.00000000000E+00  0.45593999997E+02  0.45594000000E+02  0.51100000000E-03 0.  1.
         11   -1    0    0    0    0 -0.00000000000E+00 -0.00000000000E+00 -0.45593999997E+02  0.45594000000E+02  0.51100000000E-03 0. -1.
    9900012    2    1    2    0    0  0.17286336999E+01  0.36300448766E+02  0.26615834685E+02  0.46142318620E+02  0.10000007829E+02 0.  0.
         12    1    1    2    0    0 -0.17286336999E+01 -0.36300448766E+02 -0.26615834685E+02  0.45045681380E+02  0.00000000000E+00 0. -1.
         11    1    3    3    0    0  0.16174962418E+01  0.10763344026E+02  0.65462038040E+01  0.12701128029E+02  0.51100000000E-03 0. -1.
        -11    1    3    3    0    0  0.31515445781E+01  0.17978287031E+02  0.11281828025E+02  0.21457648559E+02  0.51100000000E-03 0.  1.
        -12    1    3    3    0    0 -0.30404071200E+01  0.75588177081E+01  0.87878028554E+01  0.11983542032E+02  0.00000000000E+00 0.  1.
</event>
<event>
 7    1  0.1381440E-008  0.4614232E+02  0.7816164E-02  0.1320468E+00
        -11   -1    0    0    0    0  0.00000000000E+00  0.00000000000E+00  0.45593999997E+02  0.45594000000E+02  0.51100000000E-03 0. -1.
         11   -1    0    0    0    0 -0.00000000000E+00 -0.00000000000E+00 -0.45593999997E+02  0.45594000000E+02  0.51100000000E-03 0.  1.
    9900012    2    1    2    0    0 -0.23130306993E+02 -0.82012153380E+01 -0.37773568437E+02  0.46142317554E+02  0.99999981112E+01 0.  0.
         12    1    1    2    0    0  0.23130306993E+02  0.82012153380E+01  0.37773568437E+02  0.45045682446E+02  0.00000000000E+00 0. -1.
         11    1    3    3    0    0 -0.10958496612E+02 -0.10855892941E+01 -0.14815082966E+02  0.18459518836E+02  0.51100000000E-03 0.  1.
        -11    1    3    3    0    0 -0.27880892885E+01  0.53936648694E+00 -0.76723113527E+01  0.81809974846E+01  0.51100000000E-03 0. -1.
        -12    1    3    3    0    0 -0.93837210922E+01 -0.76549925308E+01 -0.15286174118E+02  0.19501801233E+02  0.00000000000E+00 0.  1.
</event>
<event>
 7    1  0.1381440E-008  0.4614232E+02  0.7816164E-02  0.1320468E+00
        -11   -1    0    0    0    0  0.00000000000E+00  0.00000000000E+00  0.45593999997E+02  0.45594000000E+02  0.51100000000E-03 0.  1.
         11   -1    0    0    0    0 -0.00000000000E+00 -0.00000000000E+00 -0.45593999997E+02  0.45594000000E+02  0.51100000000E-03 0. -1.
    9900012    2    1    2    0    0 -0.28636025363E+01  0.42394230955E+02  0.14954671637E+02  0.46142320501E+02  0.10000024982E+02 0.  0.
         12    1    1    2    0    0  0.28636025363E+01 -0.42394230955E+02 -0.14954671637E+02  0.45045679499E+02  0.00000000000E+00 0. -1.
         11    1    3    3    0    0 -0.30504349848E+01  0.49847341364E+01  0.23589085014E+01  0.63021565822E+01  0.51100000000E-03 0. -1.
        -11    1    3    3    0    0  0.17319554198E+01  0.20081232039E+02  0.45015748774E+01  0.20652354016E+02  0.51100000000E-03 0.  1.
        -12    1    3    3    0    0 -0.15451229713E+01  0.17328264780E+02  0.80941882585E+01  0.19187809903E+02  0.00000000000E+00 0.  1.
</event>
<event>
 7    1  0.1381440E-008  0.4614232E+02  0.7816164E-02  0.1320468E+00
        -11   -1    0    0    0    0  0.00000000000E+00  0.00000000000E+00  0.45593999997E+02  0.45594000000E+02  0.51100000000E-03 0.  1.
         11   -1    0    0    0    0 -0.00000000000E+00 -0.00000000000E+00 -0.45593999997E+02  0.45594000000E+02  0.51100000000E-03 0. -1.
    9900012    2    1    2    0    0  0.46109246403E+01  0.33439234400E+02  0.29827344287E+02  0.46142317737E+02  0.99999997818E+01 0.  0.
         12    1    1    2    0    0 -0.46109246403E+01 -0.33439234400E+02 -0.29827344287E+02  0.45045682263E+02  0.00000000000E+00 0. -1.
         11    1    3    3    0    0 -0.38689774626E+00  0.64069934096E+01  0.16842445423E+01  0.66359576819E+01  0.51100000000E-03 0. -1.
        -11    1    3    3    0    0  0.41261463373E+00  0.96239533447E+01  0.11362059325E+02  0.14895875979E+02  0.51100000000E-03 0.  1.
         12    1    3    3    0    0  0.45852077528E+01  0.17408287646E+02  0.16781040420E+02  0.24610484076E+02  0.00000000000E+00 0. -1.
</event>
<event>
 7    1  0.1381440E-008  0.4614232E+02  0.7816164E-02  0.1320468E+00
        -11   -1    0    0    0    0  0.00000000000E+00  0.00000000000E+00  0.45593999997E+02  0.45594000000E+02  0.51100000000E-03 0.  1.
         11   -1    0    0    0    0 -0.00000000000E+00 -0.00000000000E+00 -0.45593999997E+02  0.45594000000E+02  0.51100000000E-03 0. -1.
    9900012    2    1    2    0    0  0.31774562441E+02  0.31728985303E+02 -0.35724071639E+01  0.46142318525E+02  0.10000006962E+02 0.  0.
         12    1    1    2    0    0 -0.31774562441E+02 -0.31728985303E+02  0.35724071639E+01  0.45045681475E+02  0.00000000000E+00 0. -1.
         11    1    3    3    0    0  0.68036938649E+01  0.47899141052E+01 -0.29452308143E+01  0.88265458789E+01  0.51100000000E-03 0. -1.
        -11    1    3    3    0    0  0.17290105115E+02  0.14684401898E+02  0.13190654810E+01  0.22722661112E+02  0.51100000000E-03 0.  1.
        -12    1    3    3    0    0  0.76807634604E+01  0.12254669299E+02 -0.19462418306E+01  0.14593111534E+02  0.00000000000E+00 0.  1.
</event>
<event>
 7    1  0.1381440E-008  0.4614232E+02  0.7816164E-02  0.1320468E+00
        -11   -1    0    0    0    0  0.00000000000E+00  0.00000000000E+00  0.45593999997E+02  0.45594000000E+02  0.51100000000E-03 0.  1.
         11   -1    0    0    0    0 -0.00000000000E+00 -0.00000000000E+00 -0.45593999997E+02  0.45594000000E+02  0.51100000000E-03 0. -1.
    9900012    2    1    2    0    0  0.33061980356E+02  0.27186273161E+02 -0.14033019911E+02  0.46142316064E+02  0.99999845232E+01 0.  0.
         12    1    1    2    0    0 -0.33061980356E+02 -0.27186273161E+02  0.14033019911E+02  0.45045683936E+02  0.00000000000E+00 0. -1.
         11    1    3    3    0    0  0.22903530468E+02  0.19848938805E+02 -0.13262857384E+02  0.33082555310E+02  0.51100000000E-03 0. -1.
        -11    1    3    3    0    0  0.29329830615E+00  0.15030443630E+01 -0.44165282050E+00  0.15938079334E+01  0.51100000000E-03 0.  1.
         12    1    3    3    0    0  0.98651515815E+01  0.58342899928E+01 -0.32850970650E+00  0.11465952820E+02  0.00000000000E+00 0. -1.
</event>
<event>
 7    1  0.1381440E-008  0.4614232E+02  0.7816164E-02  0.1320468E+00
        -11   -1    0    0    0    0  0.00000000000E+00  0.00000000000E+00  0.45593999997E+02  0.45594000000E+02  0.51100000000E-03 0.  1.
         11   -1    0    0    0    0 -0.00000000000E+00 -0.00000000000E+00 -0.45593999997E+02  0.45594000000E+02  0.51100000000E-03 0. -1.
    9900012    2    1    2    0    0  0.14266302395E+02 -0.16602487088E+02  0.39369321706E+02  0.46142318152E+02  0.10000003564E+02 0.  0.
         12    1    1    2    0    0 -0.14266302395E+02  0.16602487088E+02 -0.39369321706E+02  0.45045681848E+02  0.00000000000E+00 0. -1.
         11    1    3    3    0    0  0.23281500816E+01  0.54840140740E+00  0.63927859622E+01  0.68255944449E+01  0.51100000000E-03 0. -1.
        -11    1    3    3    0    0  0.11024359342E+02 -0.17016783322E+02  0.30072076201E+02  0.36268956159E+02  0.51100000000E-03 0.  1.
        -12    1    3    3    0    0  0.91379297113E+00 -0.13410517335E+00  0.29044595429E+01  0.30477675482E+01  0.00000000000E+00 0.  1.
</event>
<event>
 7    1  0.1381440E-008  0.4614232E+02  0.7816164E-02  0.1320468E+00
        -11   -1    0    0    0    0  0.00000000000E+00  0.00000000000E+00  0.45593999997E+02  0.45594000000E+02  0.51100000000E-03 0.  1.
         11   -1    0    0    0    0 -0.00000000000E+00 -0.00000000000E+00 -0.45593999997E+02  0.45594000000E+02  0.51100000000E-03 0. -1.
    9900012    2    1    2    0    0 -0.82963786431E+01 -0.14138242065E+02  0.41957047305E+02  0.46142316457E+02  0.99999881120E+01 0.  0.
         12    1    1    2    0    0  0.82963786431E+01  0.14138242065E+02 -0.41957047305E+02  0.45045683543E+02  0.00000000000E+00 0. -1.
         11    1    3    3    0    0 -0.27923568625E+00 -0.93142268200E+00  0.33029507057E+00  0.10269449234E+01  0.51100000000E-03 0. -1.
        -11    1    3    3    0    0  0.12250260465E+01 -0.10204631488E+01  0.82296282555E+01  0.83826496609E+01  0.51100000000E-03 0.  1.
        -12    1    3    3    0    0 -0.92421690033E+01 -0.12186356234E+02  0.33397123979E+02  0.36732721873E+02  0.00000000000E+00 0.  1.
</event>
<event>
 7    1  0.1381440E-008  0.4614232E+02  0.7816164E-02  0.1320468E+00
        -11   -1    0    0    0    0  0.00000000000E+00  0.00000000000E+00  0.45593999997E+02  0.45594000000E+02  0.51100000000E-03 0.  1.
         11   -1    0    0    0    0 -0.00000000000E+00 -0.00000000000E+00 -0.45593999997E+02  0.45594000000E+02  0.51100000000E-03 0. -1.
    9900012    2    1    2    0    0  0.15590512694E+02  0.95093517333E+01  0.41177928977E+02  0.46142315509E+02  0.99999794597E+01 0.  0.
         12    1    1    2    0    0 -0.15590512694E+02 -0.95093517333E+01 -0.41177928977E+02  0.45045684491E+02  0.00000000000E+00 0. -1.
         11    1    3    3    0    0  0.70448027837E+01  0.23816643314E+01  0.10033465835E+02  0.12488875377E+02  0.51100000000E-03 0. -1.
        -11    1    3    3    0    0  0.85357511318E+01  0.61542407556E+01  0.30909960968E+02  0.32652096624E+02  0.51100000000E-03 0.  1.
        -12    1    3    3    0    0  0.99587780638E-02  0.97344664623E+00  0.23450217418E+00  0.10013435075E+01  0.00000000000E+00 0.  1.
</event>
<event>
 7    1  0.1381440E-008  0.4614232E+02  0.7816164E-02  0.1320468E+00
        -11   -1    0    0    0    0  0.00000000000E+00  0.00000000000E+00  0.45593999997E+02  0.45594000000E+02  0.51100000000E-03 0.  1.
         11   -1    0    0    0    0 -0.00000000000E+00 -0.00000000000E+00 -0.45593999997E+02  0.45594000000E+02  0.51100000000E-03 0. -1.
    9900012    2    1    2    0    0 -0.12965544739E+02 -0.23640301941E+02  0.36085235660E+02  0.46142318088E+02  0.10000002981E+02 0.  0.
         12    1    1    2    0    0  0.12965544739E+02  0.23640301941E+02 -0.36085235660E+02  0.45045681912E+02  0.00000000000E+00 0. -1.
         11    1    3    3    0    0 -0.60426488971E-01 -0.24993729843E+01  0.70612805358E+01  0.74908076829E+01  0.51100000000E-03 0. -1.
        -11    1    3    3    0    0 -0.59870069663E+01 -0.11102755714E+02  0.19303252190E+02  0.23059292752E+02  0.51100000000E-03 0.  1.
         12    1    3    3    0    0 -0.69181112842E+01 -0.10038173243E+02  0.97207029340E+01  0.15592217653E+02  0.00000000000E+00 0. -1.
</event>
<event>
 7    1  0.1381440E-008  0.4614232E+02  0.7816164E-02  0.1320468E+00
        -11   -1    0    0    0    0  0.00000000000E+00  0.00000000000E+00  0.45593999997E+02  0.45594000000E+02  0.51100000000E-03 0.  1.
         11   -1    0    0    0    0 -0.00000000000E+00 -0.00000000000E+00 -0.45593999997E+02  0.45594000000E+02  0.51100000000E-03 0. -1.
    9900012    2    1    2    0    0 -0.43204662244E+01  0.44051088219E+02  0.83635391014E+01  0.46142316656E+02  0.99999899186E+01 0.  0.
         12    1    1    2    0    0  0.43204662244E+01 -0.44051088219E+02 -0.83635391014E+01  0.45045683344E+02  0.00000000000E+00 0. -1.
         11    1    3    3    0    0  0.23052055727E+01  0.69643301295E+01 -0.53089342960E+00  0.73551148855E+01  0.51100000000E-03 0. -1.
        -11    1    3    3    0    0 -0.26651910107E+01  0.14617911670E+02  0.22822331230E+01  0.15033135834E+02  0.51100000000E-03 0.  1.
         12    1    3    3    0    0 -0.39604807863E+01  0.22468846419E+02  0.66121994080E+01  0.23754065936E+02  0.00000000000E+00 0. -1.
</event>
<event>
 7    1  0.1381440E-008  0.4614232E+02  0.7816164E-02  0.1320468E+00
        -11   -1    0    0    0    0  0.00000000000E+00  0.00000000000E+00  0.45593999997E+02  0.45594000000E+02  0.51100000000E-03 0.  1.
         11   -1    0    0    0    0 -0.00000000000E+00 -0.00000000000E+00 -0.45593999997E+02  0.45594000000E+02  0.51100000000E-03 0. -1.
    9900012    2    1    2    0    0 -0.24987223821E+02 -0.18648903971E+02  0.32511083555E+02  0.46142317326E+02  0.99999960362E+01 0.  0.
         12    1    1    2    0    0  0.24987223821E+02  0.18648903971E+02 -0.32511083555E+02  0.45045682674E+02  0.00000000000E+00 0. -1.
         11    1    3    3    0    0 -0.33427012299E+01 -0.22329822470E+01  0.10038592003E+02  0.10813565133E+02  0.51100000000E-03 0. -1.
        -11    1    3    3    0    0 -0.13160733030E+02 -0.11168299157E+02  0.13528295186E+02  0.21930585283E+02  0.51100000000E-03 0.  1.
         12    1    3    3    0    0 -0.84837895614E+01 -0.52476225670E+01  0.89441963662E+01  0.13398166911E+02  0.00000000000E+00 0. -1.
</event>
<event>
 7    1  0.1381440E-008  0.4614231E+02  0.7816164E-02  0.1320468E+00
        -11   -1    0    0    0    0  0.00000000000E+00  0.00000000000E+00  0.45593999997E+02  0.45594000000E+02  0.51100000000E-03 0. -1.
         11   -1    0    0    0    0 -0.00000000000E+00 -0.00000000000E+00 -0.45593999997E+02  0.45594000000E+02  0.51100000000E-03 0.  1.
    9900012    2    1    2    0    0  0.40007711294E+02 -0.14936918392E+02 -0.14331291478E+02  0.46142307538E+02  0.99999067740E+01 0.  0.
         12    1    1    2    0    0 -0.40007711294E+02  0.14936918392E+02  0.14331291478E+02  0.45045692462E+02  0.00000000000E+00 0. -1.
         11    1    3    3    0    0  0.26042679947E+02 -0.64799111897E+01 -0.72436055635E+01  0.27797126644E+02  0.51100000000E-03 0. -1.
        -11    1    3    3    0    0  0.62686743392E+01 -0.14395572789E+01 -0.35435581821E+01  0.73433921305E+01  0.51100000000E-03 0.  1.
         12    1    3    3    0    0  0.76963570077E+01 -0.70174499230E+01 -0.35441277320E+01  0.11001788763E+02  0.00000000000E+00 0. -1.
</event>
<event>
 7    1  0.1381440E-008  0.4614232E+02  0.7816164E-02  0.1320468E+00
        -11   -1    0    0    0    0  0.00000000000E+00  0.00000000000E+00  0.45593999997E+02  0.45594000000E+02  0.51100000000E-03 0. -1.
         11   -1    0    0    0    0 -0.00000000000E+00 -0.00000000000E+00 -0.45593999997E+02  0.45594000000E+02  0.51100000000E-03 0.  1.
    9900012    2    1    2    0    0 -0.20578364445E+02 -0.29928311862E+02 -0.26644710050E+02  0.46142317545E+02  0.99999980322E+01 0.  0.
         12    1    1    2    0    0  0.20578364445E+02  0.29928311862E+02  0.26644710050E+02  0.45045682455E+02  0.00000000000E+00 0. -1.
         11    1    3    3    0    0 -0.21988462539E+01 -0.74772852282E+01 -0.36979559515E+01  0.86266794141E+01  0.51100000000E-03 0. -1.
        -11    1    3    3    0    0 -0.12080856337E+02 -0.14930447456E+02 -0.18766448444E+02  0.26852279951E+02  0.51100000000E-03 0.  1.
         12    1    3    3    0    0 -0.62986618542E+01 -0.75205791775E+01 -0.41803056539E+01  0.10663358180E+02  0.00000000000E+00 0. -1.
</event>
<event>
 7    1  0.1381440E-008  0.4614232E+02  0.7816164E-02  0.1320468E+00
        -11   -1    0    0    0    0  0.00000000000E+00  0.00000000000E+00  0.45593999997E+02  0.45594000000E+02  0.51100000000E-03 0.  1.
         11   -1    0    0    0    0 -0.00000000000E+00 -0.00000000000E+00 -0.45593999997E+02  0.45594000000E+02  0.51100000000E-03 0. -1.
    9900012    2    1    2    0    0  0.98257211760E+01 -0.42160515505E+00  0.43958968373E+02  0.46142318210E+02  0.10000004091E+02 0.  0.
         12    1    1    2    0    0 -0.98257211760E+01  0.42160515505E+00 -0.43958968373E+02  0.45045681790E+02  0.00000000000E+00 0. -1.
         11    1    3    3    0    0  0.52361423226E+01  0.42654391205E+01  0.15894409826E+02  0.17269725571E+02  0.51100000000E-03 0. -1.
        -11    1    3    3    0    0  0.15566892317E+01 -0.17171475265E+01  0.13673797513E+02  0.13868836133E+02  0.51100000000E-03 0.  1.
         12    1    3    3    0    0  0.30328896217E+01 -0.29698967490E+01  0.14390761033E+02  0.15003756506E+02  0.00000000000E+00 0. -1.
</event>
<event>
 7    1  0.1381440E-008  0.4614231E+02  0.7816164E-02  0.1320468E+00
        -11   -1    0    0    0    0  0.00000000000E+00  0.00000000000E+00  0.45593999997E+02  0.45594000000E+02  0.51100000000E-03 0.  1.
         11   -1    0    0    0    0 -0.00000000000E+00 -0.00000000000E+00 -0.45593999997E+02  0.45594000000E+02  0.51100000000E-03 0. -1.
    9900012    2    1    2    0    0 -0.36518804640E+02  0.22554833968E+01  0.26275542753E+02  0.46142307147E+02  0.99999032108E+01 0.  0.
         12    1    1    2    0    0  0.36518804640E+02 -0.22554833968E+01 -0.26275542753E+02  0.45045692853E+02  0.00000000000E+00 0. -1.
         11    1    3    3    0    0 -0.72621203559E+01 -0.25132563389E+01  0.48653005458E+01  0.90953833977E+01  0.51100000000E-03 0. -1.
        -11    1    3    3    0    0 -0.14380569879E+02  0.47295948305E+01  0.13023542689E+02  0.19969539848E+02  0.51100000000E-03 0.  1.
        -12    1    3    3    0    0 -0.14876114405E+02  0.39144905277E-01  0.83866995179E+01  0.17077383901E+02  0.00000000000E+00 0.  1.
</event>
<event>
 7    1  0.1381440E-008  0.4614232E+02  0.7816164E-02  0.1320468E+00
        -11   -1    0    0    0    0  0.00000000000E+00  0.00000000000E+00  0.45593999997E+02  0.45594000000E+02  0.51100000000E-03 0. -1.
         11   -1    0    0    0    0 -0.00000000000E+00 -0.00000000000E+00 -0.45593999997E+02  0.45594000000E+02  0.51100000000E-03 0.  1.
    9900012    2    1    2    0    0 -0.41025658775E+02  0.15319812851E+02  0.10550454019E+02  0.46142318479E+02  0.10000006544E+02 0.  0.
         12    1    1    2    0    0  0.41025658775E+02 -0.15319812851E+02 -0.10550454019E+02  0.45045681521E+02  0.00000000000E+00 0. -1.
         11    1    3    3    0    0 -0.11093407502E+02  0.29114514923E+01  0.68360145515E+01  0.13351828901E+02  0.51100000000E-03 0. -1.
        -11    1    3    3    0    0 -0.22065910669E+02  0.76292743728E+01  0.20556199514E+01  0.23437914044E+02  0.51100000000E-03 0.  1.
        -12    1    3    3    0    0 -0.78663406036E+01  0.47790869860E+01  0.16588195165E+01  0.93525755330E+01  0.00000000000E+00 0.  1.
</event>
<event>
 7    1  0.1381440E-008  0.4614232E+02  0.7816164E-02  0.1320468E+00
        -11   -1    0    0    0    0  0.00000000000E+00  0.00000000000E+00  0.45593999997E+02  0.45594000000E+02  0.51100000000E-03 0. -1.
         11   -1    0    0    0    0 -0.00000000000E+00 -0.00000000000E+00 -0.45593999997E+02  0.45594000000E+02  0.51100000000E-03 0.  1.
    9900012    2    1    2    0    0  0.54199631809E+01 -0.40775272189E+02  0.18360683413E+02  0.46142317429E+02  0.99999969681E+01 0.  0.
         12    1    1    2    0    0 -0.54199631809E+01  0.40775272189E+02 -0.18360683413E+02  0.45045682571E+02  0.00000000000E+00 0. -1.
         11    1    3    3    0    0 -0.15697068401E+00 -0.29006259221E+01 -0.74927675115E+00  0.29999477406E+01  0.51100000000E-03 0. -1.
        -11    1    3    3    0    0  0.34734857313E+01 -0.97116866007E+01  0.66670311433E+01  0.12281338049E+02  0.51100000000E-03 0.  1.
        -12    1    3    3    0    0  0.21034481336E+01 -0.28162959666E+02  0.12442929021E+02  0.30861031639E+02  0.00000000000E+00 0.  1.
</event>
<event>
 7    1  0.1381440E-008  0.4614232E+02  0.7816164E-02  0.1320468E+00
        -11   -1    0    0    0    0  0.00000000000E+00  0.00000000000E+00  0.45593999997E+02  0.45594000000E+02  0.51100000000E-03 0. -1.
         11   -1    0    0    0    0 -0.00000000000E+00 -0.00000000000E+00 -0.45593999997E+02  0.45594000000E+02  0.51100000000E-03 0.  1.
    9900012    2    1    2    0    0 -0.81827720304E+01  0.69811323608E+01 -0.43742650827E+02  0.46142317981E+02  0.10000002006E+02 0.  0.
         12    1    1    2    0    0  0.81827720304E+01 -0.69811323608E+01  0.43742650827E+02  0.45045682019E+02  0.00000000000E+00 0. -1.
         11    1    3    3    0    0 -0.16988376745E+01  0.23379292227E+00 -0.90109762665E+01  0.91726987366E+01  0.51100000000E-03 0. -1.
        -11    1    3    3    0    0 -0.51941068541E+01  0.39227397889E+00 -0.22822920727E+02  0.23409791449E+02  0.51100000000E-03 0.  1.
        -12    1    3    3    0    0 -0.12898275018E+01  0.63550654597E+01 -0.11908753834E+02  0.13559827796E+02  0.00000000000E+00 0.  1.
</event>
<event>
 7    1  0.1381440E-008  0.4614232E+02  0.7816164E-02  0.1320468E+00
        -11   -1    0    0    0    0  0.00000000000E+00  0.00000000000E+00  0.45593999997E+02  0.45594000000E+02  0.51100000000E-03 0.  1.
         11   -1    0    0    0    0 -0.00000000000E+00 -0.00000000000E+00 -0.45593999997E+02  0.45594000000E+02  0.51100000000E-03 0. -1.
    9900012    2    1    2    0    0 -0.21342187895E+02 -0.39662214534E+02 -0.73018935441E+00  0.46142318493E+02  0.10000006676E+02 0.  0.
         12    1    1    2    0    0  0.21342187895E+02  0.39662214534E+02  0.73018935441E+00  0.45045681507E+02  0.00000000000E+00 0. -1.
         11    1    3    3    0    0 -0.81237671200E+00 -0.21087020745E+01  0.16555243877E+01  0.28013106969E+01  0.51100000000E-03 0. -1.
        -11    1    3    3    0    0 -0.19209493172E+02 -0.30371042550E+02 -0.26473899216E+01  0.36033505619E+02  0.51100000000E-03 0.  1.
        -12    1    3    3    0    0 -0.13203180108E+01 -0.71824699096E+01  0.26167617954E+00  0.73075021775E+01  0.00000000000E+00 0.  1.
</event>
<event>
 7    1  0.1381440E-008  0.4614232E+02  0.7816164E-02  0.1320468E+00
        -11   -1    0    0    0    0  0.00000000000E+00  0.00000000000E+00  0.45593999997E+02  0.45594000000E+02  0.51100000000E-03 0.  1.
         11   -1    0    0    0    0 -0.00000000000E+00 -0.00000000000E+00 -0.45593999997E+02  0.45594000000E+02  0.51100000000E-03 0. -1.
    9900012    2    1    2    0    0 -0.33122249126E+02 -0.20664819032E+02  0.22472103531E+02  0.46142316856E+02  0.99999917454E+01 0.  0.
         12    1    1    2    0    0  0.33122249126E+02  0.20664819032E+02 -0.22472103531E+02  0.45045683144E+02  0.00000000000E+00 0. -1.
         11    1    3    3    0    0 -0.80511279612E+01 -0.40026564980E+01  0.95562808189E+01  0.13121144151E+02  0.51100000000E-03 0. -1.
        -11    1    3    3    0    0 -0.57533307377E+01 -0.28777283231E+01  0.44616731935E+01  0.78287076089E+01  0.51100000000E-03 0.  1.
         12    1    3    3    0    0 -0.19317790427E+02 -0.13784434211E+02  0.84541495187E+01  0.25192465096E+02  0.00000000000E+00 0. -1.
</event>
<event>
 7    1  0.1381440E-008  0.4614232E+02  0.7816164E-02  0.1320468E+00
        -11   -1    0    0    0    0  0.00000000000E+00  0.00000000000E+00  0.45593999997E+02  0.45594000000E+02  0.51100000000E-03 0.  1.
         11   -1    0    0    0    0 -0.00000000000E+00 -0.00000000000E+00 -0.45593999997E+02  0.45594000000E+02  0.51100000000E-03 0. -1.
    9900012    2    1    2    0    0 -0.28675944003E+02  0.33748340842E+02  0.82373036447E+01  0.46142318238E+02  0.10000004352E+02 0.  0.
         12    1    1    2    0    0  0.28675944003E+02 -0.33748340842E+02 -0.82373036447E+01  0.45045681762E+02  0.00000000000E+00 0. -1.
         11    1    3    3    0    0 -0.96790386972E+01  0.10449763243E+02  0.53458591473E+01  0.15213794800E+02  0.51100000000E-03 0. -1.
        -11    1    3    3    0    0 -0.17425564754E+02  0.22801671920E+02  0.39520574850E+01  0.28968695310E+02  0.51100000000E-03 0.  1.
         12    1    3    3    0    0 -0.15713405514E+01  0.49690567890E+00 -0.10606129876E+01  0.19598281281E+01  0.00000000000E+00 0. -1.
</event>
<event>
 7    1  0.1381440E-008  0.4614232E+02  0.7816164E-02  0.1320468E+00
        -11   -1    0    0    0    0  0.00000000000E+00  0.00000000000E+00  0.45593999997E+02  0.45594000000E+02  0.51100000000E-03 0.  1.
         11   -1    0    0    0    0 -0.00000000000E+00 -0.00000000000E+00 -0.45593999997E+02  0.45594000000E+02  0.51100000000E-03 0. -1.
    9900012    2    1    2    0    0  0.22952849926E+02 -0.21504881294E+02  0.32246244790E+02  0.46142317163E+02  0.99999945449E+01 0.  0.
         12    1    1    2    0    0 -0.22952849926E+02  0.21504881294E+02 -0.32246244790E+02  0.45045682837E+02  0.00000000000E+00 0. -1.
         11    1    3    3    0    0  0.10629431510E+02 -0.12667118070E+02  0.11863766150E+02  0.20351649613E+02  0.51100000000E-03 0. -1.
        -11    1    3    3    0    0  0.53124786877E+01 -0.33997842547E+01  0.12137771865E+02  0.13678686666E+02  0.51100000000E-03 0.  1.
        -12    1    3    3    0    0  0.70109397289E+01 -0.54379789687E+01  0.82447067750E+01  0.12111980885E+02  0.00000000000E+00 0.  1.
</event>
<event>
 7    1  0.1381440E-008  0.4614232E+02  0.7816164E-02  0.1320468E+00
        -11   -1    0    0    0    0  0.00000000000E+00  0.00000000000E+00  0.45593999997E+02  0.45594000000E+02  0.51100000000E-03 0.  1.
         11   -1    0    0    0    0 -0.00000000000E+00 -0.00000000000E+00 -0.45593999997E+02  0.45594000000E+02  0.51100000000E-03 0. -1.
    9900012    2    1    2    0    0  0.34970207769E+02 -0.50320857614E+01  0.27944159808E+02  0.46142318898E+02  0.10000010370E+02 0.  0.
         12    1    1    2    0    0 -0.34970207769E+02  0.50320857614E+01 -0.27944159808E+02  0.45045681102E+02  0.00000000000E+00 0. -1.
         11    1    3    3    0    0  0.18265181010E+02 -0.60445284496E+01  0.14117947064E+02  0.23863561994E+02  0.51100000000E-03 0. -1.
        -11    1    3    3    0    0  0.12037359333E+02 -0.37003916796E+00  0.12208688021E+02  0.17148965338E+02  0.51100000000E-03 0.  1.
        -12    1    3    3    0    0  0.46676674257E+01  0.13824818561E+01  0.16175247237E+01  0.51297915661E+01  0.00000000000E+00 0.  1.
</event>
<event>
 7    1  0.1381440E-008  0.4614232E+02  0.7816164E-02  0.1320468E+00
        -11   -1    0    0    0    0  0.00000000000E+00  0.00000000000E+00  0.45593999997E+02  0.45594000000E+02  0.51100000000E-03 0.  1.
         11   -1    0    0    0    0 -0.00000000000E+00 -0.00000000000E+00 -0.45593999997E+02  0.45594000000E+02  0.51100000000E-03 0. -1.
    9900012    2    1    2    0    0  0.11431863584E+02  0.34219338499E+02  0.26971520342E+02  0.46142317167E+02  0.99999945819E+01 0.  0.
         12    1    1    2    0    0 -0.11431863584E+02 -0.34219338499E+02 -0.26971520342E+02  0.45045682833E+02  0.00000000000E+00 0. -1.
         11    1    3    3    0    0  0.48814091200E+00 -0.31990743414E+00  0.12496834558E+01  0.13792502736E+01  0.51100000000E-03 0. -1.
        -11    1    3    3    0    0  0.66461929851E+01  0.26318976807E+02  0.21205763486E+02  0.34446259981E+02  0.51100000000E-03 0.  1.
        -12    1    3    3    0    0  0.42975296866E+01  0.82202691263E+01  0.45160734005E+01  0.10316806913E+02  0.00000000000E+00 0.  1.
</event>
<event>
 7    1  0.1381440E-008  0.4614232E+02  0.7816164E-02  0.1320468E+00
        -11   -1    0    0    0    0  0.00000000000E+00  0.00000000000E+00  0.45593999997E+02  0.45594000000E+02  0.51100000000E-03 0. -1.
         11   -1    0    0    0    0 -0.00000000000E+00 -0.00000000000E+00 -0.45593999997E+02  0.45594000000E+02  0.51100000000E-03 0.  1.
    9900012    2    1    2    0    0  0.22249966656E+02 -0.23478492168E+02 -0.31349850113E+02  0.46142315270E+02  0.99999772833E+01 0.  0.
         12    1    1    2    0    0 -0.22249966656E+02  0.23478492168E+02  0.31349850113E+02  0.45045684730E+02  0.00000000000E+00 0. -1.
         11    1    3    3    0    0  0.29581196889E+00  0.66251387835E+00 -0.15876459582E+01  0.17455799351E+01  0.51100000000E-03 0. -1.
        -11    1    3    3    0    0  0.13204499445E+02 -0.16175234948E+02 -0.21460063374E+02  0.29942133382E+02  0.51100000000E-03 0.  1.
        -12    1    3    3    0    0  0.87496552429E+01 -0.79657710985E+01 -0.83021407804E+01  0.14454601952E+02  0.00000000000E+00 0.  1.
</event>
<event>
 7    1  0.1381440E-008  0.4614233E+02  0.7816164E-02  0.1320468E+00
        -11   -1    0    0    0    0  0.00000000000E+00  0.00000000000E+00  0.45593999997E+02  0.45594000000E+02  0.51100000000E-03 0.  1.
         11   -1    0    0    0    0 -0.00000000000E+00 -0.00000000000E+00 -0.45593999997E+02  0.45594000000E+02  0.51100000000E-03 0. -1.
    9900012    2    1    2    0    0  0.20029093754E+02 -0.51805093230E+01  0.40013879580E+02  0.46142325041E+02  0.10000066388E+02 0.  0.
         12    1    1    2    0    0 -0.20029093754E+02  0.51805093230E+01 -0.40013879580E+02  0.45045674959E+02  0.00000000000E+00 0. -1.
         11    1    3    3    0    0  0.32935466534E+01 -0.22864563946E+01  0.21081424175E+01  0.45298561916E+01  0.51100000000E-03 0. -1.
        -11    1    3    3    0    0  0.12576579208E+02 -0.11907532866E+01  0.26645936457E+02  0.29488882107E+02  0.51100000000E-03 0.  1.
         12    1    3    3    0    0  0.41589678919E+01 -0.17032996419E+01  0.11259800705E+02  0.12123586743E+02  0.00000000000E+00 0. -1.
</event>
<event>
 7    1  0.1381440E-008  0.4614232E+02  0.7816164E-02  0.1320468E+00
        -11   -1    0    0    0    0  0.00000000000E+00  0.00000000000E+00  0.45593999997E+02  0.45594000000E+02  0.51100000000E-03 0.  1.
         11   -1    0    0    0    0 -0.00000000000E+00 -0.00000000000E+00 -0.45593999997E+02  0.45594000000E+02  0.51100000000E-03 0. -1.
    9900012    2    1    2    0    0  0.34590254949E+02  0.19998990095E+02  0.20800676735E+02  0.46142317688E+02  0.99999993351E+01 0.  0.
         12    1    1    2    0    0 -0.34590254949E+02 -0.19998990095E+02 -0.20800676735E+02  0.45045682312E+02  0.00000000000E+00 0. -1.
         11    1    3    3    0    0  0.13958225318E+01  0.10341375530E+01 -0.97561593901E+00  0.19923824282E+01  0.51100000000E-03 0. -1.
        -11    1    3    3    0    0  0.23714860892E+02  0.14381111934E+02  0.14054752325E+02  0.31092556517E+02  0.51100000000E-03 0.  1.
        -12    1    3    3    0    0  0.94795715261E+01  0.45837406082E+01  0.77215403491E+01  0.13057378743E+02  0.00000000000E+00 0.  1.
</event>
<event>
 7    1  0.1381440E-008  0.4614232E+02  0.7816164E-02  0.1320468E+00
        -11   -1    0    0    0    0  0.00000000000E+00  0.00000000000E+00  0.45593999997E+02  0.45594000000E+02  0.51100000000E-03 0.  1.
         11   -1    0    0    0    0 -0.00000000000E+00 -0.00000000000E+00 -0.45593999997E+02  0.45594000000E+02  0.51100000000E-03 0. -1.
    9900012    2    1    2    0    0  0.43014667945E+02  0.55313025508E+01  0.12176060898E+02  0.46142318461E+02  0.10000006379E+02 0.  0.
         12    1    1    2    0    0 -0.43014667945E+02 -0.55313025508E+01 -0.12176060898E+02  0.45045681539E+02  0.00000000000E+00 0. -1.
         11    1    3    3    0    0  0.70120544305E+01  0.43402858422E+01  0.13853289096E+01  0.83621842229E+01  0.51100000000E-03 0. -1.
        -11    1    3    3    0    0  0.29652896644E+02  0.23655715256E+01  0.87217824749E+01  0.30999349958E+02  0.51100000000E-03 0.  1.
         12    1    3    3    0    0  0.63497168711E+01 -0.11745548170E+01  0.20689495135E+01  0.67807842799E+01  0.00000000000E+00 0. -1.
</event>
<event>
 7    1  0.1381440E-008  0.4614232E+02  0.7816164E-02  0.1320468E+00
        -11   -1    0    0    0    0  0.00000000000E+00  0.00000000000E+00  0.45593999997E+02  0.45594000000E+02  0.51100000000E-03 0.  1.
         11   -1    0    0    0    0 -0.00000000000E+00 -0.00000000000E+00 -0.45593999997E+02  0.45594000000E+02  0.51100000000E-03 0. -1.
    9900012    2    1    2    0    0 -0.13948694336E+02  0.13476330930E+02  0.40656314400E+02  0.46142317970E+02  0.10000001902E+02 0.  0.
         12    1    1    2    0    0  0.13948694336E+02 -0.13476330930E+02 -0.40656314400E+02  0.45045682030E+02  0.00000000000E+00 0. -1.
         11    1    3    3    0    0 -0.43950648109E+01  0.75548555176E+01  0.11173922725E+02  0.14186225217E+02  0.51100000000E-03 0. -1.
        -11    1    3    3    0    0 -0.68494129497E+01  0.14858774996E+01  0.19127421646E+02  0.20371071370E+02  0.51100000000E-03 0.  1.
        -12    1    3    3    0    0 -0.27042165751E+01  0.44355979124E+01  0.10354970029E+02  0.11585021382E+02  0.00000000000E+00 0.  1.
</event>
<event>
 7    1  0.1381440E-008  0.4614232E+02  0.7816164E-02  0.1320468E+00
        -11   -1    0    0    0    0  0.00000000000E+00  0.00000000000E+00  0.45593999997E+02  0.45594000000E+02  0.51100000000E-03 0.  1.
         11   -1    0    0    0    0 -0.00000000000E+00 -0.00000000000E+00 -0.45593999997E+02  0.45594000000E+02  0.51100000000E-03 0. -1.
    9900012    2    1    2    0    0  0.42048637635E+02 -0.99136913431E+01  0.12757130348E+02  0.46142316769E+02  0.99999909515E+01 0.  0.
         12    1    1    2    0    0 -0.42048637635E+02  0.99136913431E+01 -0.12757130348E+02  0.45045683231E+02  0.00000000000E+00 0. -1.
         11    1    3    3    0    0  0.98961991879E+01 -0.15299754407E+01  0.54230547145E+01  0.11387936859E+02  0.51100000000E-03 0. -1.
        -11    1    3    3    0    0  0.23888495827E+02 -0.33141438810E+01  0.36940773655E+01  0.24398565335E+02  0.51100000000E-03 0.  1.
        -12    1    3    3    0    0  0.82639426202E+01 -0.50695720214E+01  0.36399982684E+01  0.10355814575E+02  0.00000000000E+00 0.  1.
</event>
<event>
 7    1  0.1381440E-008  0.4614232E+02  0.7816164E-02  0.1320468E+00
        -11   -1    0    0    0    0  0.00000000000E+00  0.00000000000E+00  0.45593999997E+02  0.45594000000E+02  0.51100000000E-03 0. -1.
         11   -1    0    0    0    0 -0.00000000000E+00 -0.00000000000E+00 -0.45593999997E+02  0.45594000000E+02  0.51100000000E-03 0.  1.
    9900012    2    1    2    0    0 -0.94609302452E+01 -0.32188521861E+02 -0.30058331178E+02  0.46142318587E+02  0.10000007536E+02 0.  0.
         12    1    1    2    0    0  0.94609302452E+01  0.32188521861E+02  0.30058331178E+02  0.45045681413E+02  0.00000000000E+00 0. -1.
         11    1    3    3    0    0 -0.26483797761E+01 -0.22377751304E+02 -0.22930373674E+02  0.32149334456E+02  0.51100000000E-03 0. -1.
        -11    1    3    3    0    0 -0.35046424613E+01 -0.52422906008E+01 -0.46361816189E+01  0.78267687962E+01  0.51100000000E-03 0.  1.
         12    1    3    3    0    0 -0.33079080078E+01 -0.45684799564E+01 -0.24917758847E+01  0.61662153352E+01  0.00000000000E+00 0. -1.
</event>
<event>
 7    1  0.1381440E-008  0.4614232E+02  0.7816164E-02  0.1320468E+00
        -11   -1    0    0    0    0  0.00000000000E+00  0.00000000000E+00  0.45593999997E+02  0.45594000000E+02  0.51100000000E-03 0.  1.
         11   -1    0    0    0    0 -0.00000000000E+00 -0.00000000000E+00 -0.45593999997E+02  0.45594000000E+02  0.51100000000E-03 0. -1.
    9900012    2    1    2    0    0  0.23806276597E+02  0.19260782825E+02  0.33036297251E+02  0.46142317671E+02  0.99999991771E+01 0.  0.
         12    1    1    2    0    0 -0.23806276597E+02 -0.19260782825E+02 -0.33036297251E+02  0.45045682329E+02  0.00000000000E+00 0. -1.
         11    1    3    3    0    0  0.55470533981E+01  0.48012906196E+01  0.32577885903E+01  0.80271651145E+01  0.51100000000E-03 0. -1.
        -11    1    3    3    0    0  0.28448700675E+01  0.19705766100E+01  0.76459669610E+01  0.83926913983E+01  0.51100000000E-03 0.  1.
         12    1    3    3    0    0  0.15414353131E+02  0.12488915595E+02  0.22132541700E+02  0.29722461158E+02  0.00000000000E+00 0. -1.
</event>
<event>
 7    1  0.1381440E-008  0.4614232E+02  0.7816164E-02  0.1320468E+00
        -11   -1    0    0    0    0  0.00000000000E+00  0.00000000000E+00  0.45593999997E+02  0.45594000000E+02  0.51100000000E-03 0.  1.
         11   -1    0    0    0    0 -0.00000000000E+00 -0.00000000000E+00 -0.45593999997E+02  0.45594000000E+02  0.51100000000E-03 0. -1.
    9900012    2    1    2    0    0 -0.28627521090E+02 -0.27459707600E+02  0.21343449722E+02  0.46142319283E+02  0.10000013879E+02 0.  0.
         12    1    1    2    0    0  0.28627521090E+02  0.27459707600E+02 -0.21343449722E+02  0.45045680717E+02  0.00000000000E+00 0. -1.
         11    1    3    3    0    0 -0.29253216300E+01 -0.45258549268E+01  0.16922803812E+01  0.56484230196E+01  0.51100000000E-03 0. -1.
        -11    1    3    3    0    0 -0.11263832066E+02 -0.59004696137E+01  0.44096791250E+01  0.13458630120E+02  0.51100000000E-03 0.  1.
        -12    1    3    3    0    0 -0.14438367394E+02 -0.17033383059E+02  0.15241490215E+02  0.27035266143E+02  0.00000000000E+00 0.  1.
</event>
<event>
 7    1  0.1381440E-008  0.4614232E+02  0.7816164E-02  0.1320468E+00
        -11   -1    0    0    0    0  0.00000000000E+00  0.00000000000E+00  0.45593999997E+02  0.45594000000E+02  0.51100000000E-03 0.  1.
         11   -1    0    0    0    0 -0.00000000000E+00 -0.00000000000E+00 -0.45593999997E+02  0.45594000000E+02  0.51100000000E-03 0. -1.
    9900012    2    1    2    0    0  0.10874927180E+02 -0.20183589673E+02  0.38774632522E+02  0.46142318071E+02  0.10000002825E+02 0.  0.
         12    1    1    2    0    0 -0.10874927180E+02  0.20183589673E+02 -0.38774632522E+02  0.45045681929E+02  0.00000000000E+00 0. -1.
         11    1    3    3    0    0  0.25091716582E+01 -0.14626344591E+02  0.21419041426E+02  0.26057652127E+02  0.51100000000E-03 0. -1.
        -11    1    3    3    0    0  0.67361037916E+01 -0.44226661614E+01  0.12953414206E+02  0.15255360046E+02  0.51100000000E-03 0.  1.
         12    1    3    3    0    0  0.16296517298E+01 -0.11345789202E+01  0.44021768902E+01  0.48293058983E+01  0.00000000000E+00 0. -1.
</event>
<event>
 7    1  0.1381440E-008  0.4614232E+02  0.7816164E-02  0.1320468E+00
        -11   -1    0    0    0    0  0.00000000000E+00  0.00000000000E+00  0.45593999997E+02  0.45594000000E+02  0.51100000000E-03 0.  1.
         11   -1    0    0    0    0 -0.00000000000E+00 -0.00000000000E+00 -0.45593999997E+02  0.45594000000E+02  0.51100000000E-03 0. -1.
    9900012    2    1    2    0    0 -0.47057412058E+01 -0.24270199734E+02  0.37655369455E+02  0.46142318251E+02  0.10000004467E+02 0.  0.
         12    1    1    2    0    0  0.47057412058E+01  0.24270199734E+02 -0.37655369455E+02  0.45045681749E+02  0.00000000000E+00 0. -1.
         11    1    3    3    0    0  0.10577638195E+01 -0.65926698503E+01  0.42669589188E+01  0.79239572644E+01  0.51100000000E-03 0. -1.
        -11    1    3    3    0    0 -0.37722314319E+01 -0.11447484178E+02  0.22005857117E+02  0.25090483688E+02  0.51100000000E-03 0.  1.
         12    1    3    3    0    0 -0.19912735935E+01 -0.62300457057E+01  0.11382553420E+02  0.13127877299E+02  0.00000000000E+00 0. -1.
</event>
<event>
 7    1  0.1381440E-008  0.4614232E+02  0.7816164E-02  0.1320468E+00
        -11   -1    0    0    0    0  0.00000000000E+00  0.00000000000E+00  0.45593999997E+02  0.45594000000E+02  0.51100000000E-03 0.  1.
         11   -1    0    0    0    0 -0.00000000000E+00 -0.00000000000E+00 -0.45593999997E+02  0.45594000000E+02  0.51100000000E-03 0. -1.
    9900012    2    1    2    0    0  0.29102453795E+02  0.95079080212E+01 -0.33041797217E+02  0.46142317686E+02  0.99999993124E+01 0.  0.
         12    1    1    2    0    0 -0.29102453795E+02 -0.95079080212E+01  0.33041797217E+02  0.45045682314E+02  0.00000000000E+00 0. -1.
         11    1    3    3    0    0  0.99243477829E+01  0.46790114793E+00 -0.63090385702E+01  0.11769264138E+02  0.51100000000E-03 0. -1.
        -11    1    3    3    0    0  0.17785072775E+02  0.86168625346E+01 -0.26211116016E+02  0.32826540125E+02  0.51100000000E-03 0.  1.
        -12    1    3    3    0    0  0.13930332377E+01  0.42314433864E+00 -0.52164263084E+00  0.15465134229E+01  0.00000000000E+00 0.  1.
</event>
<event>
 7    1  0.1381440E-008  0.4614232E+02  0.7816164E-02  0.1320468E+00
        -11   -1    0    0    0    0  0.00000000000E+00  0.00000000000E+00  0.45593999997E+02  0.45594000000E+02  0.51100000000E-03 0. -1.
         11   -1    0    0    0    0 -0.00000000000E+00 -0.00000000000E+00 -0.45593999997E+02  0.45594000000E+02  0.51100000000E-03 0.  1.
    9900012    2    1    2    0    0  0.48805648668E+00 -0.42154422370E+02  0.15870725273E+02  0.46142318240E+02  0.10000004370E+02 0.  0.
         12    1    1    2    0    0 -0.48805648668E+00  0.42154422370E+02 -0.15870725273E+02  0.45045681760E+02  0.00000000000E+00 0. -1.
         11    1    3    3    0    0 -0.23652293083E+01 -0.11857693145E+02  0.67070624075E+01  0.13826926007E+02  0.51100000000E-03 0. -1.
        -11    1    3    3    0    0 -0.12432763919E+01 -0.16947520496E+02  0.42964442504E+01  0.17527795658E+02  0.51100000000E-03 0.  1.
         12    1    3    3    0    0  0.40965621868E+01 -0.13349208729E+02  0.48672186156E+01  0.14787596576E+02  0.00000000000E+00 0. -1.
</event>
<event>
 7    1  0.1381440E-008  0.4614232E+02  0.7816164E-02  0.1320468E+00
        -11   -1    0    0    0    0  0.00000000000E+00  0.00000000000E+00  0.45593999997E+02  0.45594000000E+02  0.51100000000E-03 0.  1.
         11   -1    0    0    0    0 -0.00000000000E+00 -0.00000000000E+00 -0.45593999997E+02  0.45594000000E+02  0.51100000000E-03 0. -1.
    9900012    2    1    2    0    0  0.37078972257E+02  0.22689003797E+02  0.11809843099E+02  0.46142317954E+02  0.10000001759E+02 0.  0.
         12    1    1    2    0    0 -0.37078972257E+02 -0.22689003797E+02 -0.11809843099E+02  0.45045682046E+02  0.00000000000E+00 0. -1.
         11    1    3    3    0    0  0.50799344267E+01  0.24337537080E+00  0.22366302861E+01  0.55558510283E+01  0.51100000000E-03 0. -1.
        -11    1    3    3    0    0  0.21259641457E+02  0.11940514379E+02  0.50927637575E+01  0.24909525918E+02  0.51100000000E-03 0.  1.
         12    1    3    3    0    0  0.10739396374E+02  0.10505114048E+02  0.44804490551E+01  0.15676941008E+02  0.00000000000E+00 0. -1.
</event>
<event>
 7    1  0.1381440E-008  0.4614232E+02  0.7816164E-02  0.1320468E+00
        -11   -1    0    0    0    0  0.00000000000E+00  0.00000000000E+00  0.45593999997E+02  0.45594000000E+02  0.51100000000E-03 0.  1.
         11   -1    0    0    0    0 -0.00000000000E+00 -0.00000000000E+00 -0.45593999997E+02  0.45594000000E+02  0.51100000000E-03 0. -1.
    9900012    2    1    2    0    0 -0.43975236782E+02  0.83437476361E+01  0.50669370508E+01  0.46142318457E+02  0.10000006341E+02 0.  0.
         12    1    1    2    0    0  0.43975236782E+02 -0.83437476361E+01 -0.50669370508E+01  0.45045681543E+02  0.00000000000E+00 0. -1.
         11    1    3    3    0    0 -0.90629836863E+00 -0.21001605718E+00 -0.40519259298E+00  0.10147239899E+01  0.51100000000E-03 0. -1.
        -11    1    3    3    0    0 -0.27908327116E+02  0.71696650552E+01  0.74865160697E+01  0.29771240191E+02  0.51100000000E-03 0.  1.
        -12    1    3    3    0    0 -0.15160611298E+02  0.13840986381E+01 -0.20143864260E+01  0.15356354275E+02  0.00000000000E+00 0.  1.
</event>
<event>
 7    1  0.1381440E-008  0.4614232E+02  0.7816164E-02  0.1320468E+00
        -11   -1    0    0    0    0  0.00000000000E+00  0.00000000000E+00  0.45593999997E+02  0.45594000000E+02  0.51100000000E-03 0. -1.
         11   -1    0    0    0    0 -0.00000000000E+00 -0.00000000000E+00 -0.45593999997E+02  0.45594000000E+02  0.51100000000E-03 0.  1.
    9900012    2    1    2    0    0 -0.71131926197E+01  0.10180804084E+02 -0.43299737409E+02  0.46142317180E+02  0.99999947016E+01 0.  0.
         12    1    1    2    0    0  0.71131926197E+01 -0.10180804084E+02  0.43299737409E+02  0.45045682820E+02  0.00000000000E+00 0. -1.
         11    1    3    3    0    0  0.16028681295E+01  0.36318110843E+01 -0.11833117392E+02  0.12481262175E+02  0.51100000000E-03 0. -1.
        -11    1    3    3    0    0 -0.67295418771E+01  0.66980792140E+01 -0.21590538025E+02  0.23586062230E+02  0.51100000000E-03 0.  1.
         12    1    3    3    0    0 -0.19865188722E+01 -0.14908621411E+00 -0.98760819909E+01  0.10074992775E+02  0.00000000000E+00 0. -1.
</event>
<event>
 7    1  0.1381440E-008  0.4614232E+02  0.7816164E-02  0.1320468E+00
        -11   -1    0    0    0    0  0.00000000000E+00  0.00000000000E+00  0.45593999997E+02  0.45594000000E+02  0.51100000000E-03 0. -1.
         11   -1    0    0    0    0 -0.00000000000E+00 -0.00000000000E+00 -0.45593999997E+02  0.45594000000E+02  0.51100000000E-03 0.  1.
    9900012    2    1    2    0    0 -0.71932788991E+01  0.40030920127E+02 -0.19362221544E+02  0.46142318180E+02  0.10000003817E+02 0.  0.
         12    1    1    2    0    0  0.71932788991E+01 -0.40030920127E+02  0.19362221544E+02  0.45045681820E+02  0.00000000000E+00 0. -1.
         11    1    3    3    0    0 -0.62889103237E+01  0.10470694107E+02 -0.62886640560E+01  0.13738017471E+02  0.51100000000E-03 0. -1.
        -11    1    3    3    0    0 -0.39348322903E+00  0.28092688327E+02 -0.12434321108E+02  0.30724034699E+02  0.51100000000E-03 0.  1.
         12    1    3    3    0    0 -0.51088534639E+00  0.14675376920E+01 -0.63923638043E+00  0.16802660101E+01  0.00000000000E+00 0. -1.
</event>
<event>
 7    1  0.1381440E-008  0.4614232E+02  0.7816164E-02  0.1320468E+00
        -11   -1    0    0    0    0  0.00000000000E+00  0.00000000000E+00  0.45593999997E+02  0.45594000000E+02  0.51100000000E-03 0. -1.
         11   -1    0    0    0    0 -0.00000000000E+00 -0.00000000000E+00 -0.45593999997E+02  0.45594000000E+02  0.51100000000E-03 0.  1.
    9900012    2    1    2    0    0  0.41172118750E+01  0.37432968436E+02 -0.24717097253E+02  0.46142318119E+02  0.10000003260E+02 0.  0.
         12    1    1    2    0    0 -0.41172118750E+01 -0.37432968436E+02  0.24717097253E+02  0.45045681881E+02  0.00000000000E+00 0. -1.
         11    1    3    3    0    0  0.12168542904E+01  0.40818375376E+01  0.35123045014E+00  0.42738150565E+01  0.51100000000E-03 0. -1.
        -11    1    3    3    0    0  0.21783550846E+01  0.15442364674E+02 -0.12304447375E+02  0.19864825271E+02  0.51100000000E-03 0.  1.
         12    1    3    3    0    0  0.72200250003E+00  0.17908766224E+02 -0.12763880329E+02  0.22003677791E+02  0.00000000000E+00 0. -1.
</event>
<event>
 7    1  0.1381440E-008  0.4614232E+02  0.7816164E-02  0.1320468E+00
        -11   -1    0    0    0    0  0.00000000000E+00  0.00000000000E+00  0.45593999997E+02  0.45594000000E+02  0.51100000000E-03 0.  1.
         11   -1    0    0    0    0 -0.00000000000E+00 -0.00000000000E+00 -0.45593999997E+02  0.45594000000E+02  0.51100000000E-03 0. -1.
    9900012    2    1    2    0    0  0.21280931529E+02 -0.21939692262E+02  0.33089051673E+02  0.46142317811E+02  0.10000000452E+02 0.  0.
         12    1    1    2    0    0 -0.21280931529E+02  0.21939692262E+02 -0.33089051673E+02  0.45045682189E+02  0.00000000000E+00 0. -1.
         11    1    3    3    0    0  0.10917929159E+02 -0.12283003575E+02  0.23345745687E+02  0.28549907108E+02  0.51100000000E-03 0. -1.
        -11    1    3    3    0    0  0.94226068438E+01 -0.68108565712E+01  0.81461611204E+01  0.14196239933E+02  0.51100000000E-03 0.  1.
         12    1    3    3    0    0  0.94039552629E+00 -0.28458321159E+01  0.15971448656E+01  0.33961707701E+01  0.00000000000E+00 0. -1.
</event>
<event>
 7    1  0.1381440E-008  0.4614232E+02  0.7816164E-02  0.1320468E+00
        -11   -1    0    0    0    0  0.00000000000E+00  0.00000000000E+00  0.45593999997E+02  0.45594000000E+02  0.51100000000E-03 0.  1.
         11   -1    0    0    0    0 -0.00000000000E+00 -0.00000000000E+00 -0.45593999997E+02  0.45594000000E+02  0.51100000000E-03 0. -1.
    9900012    2    1    2    0    0 -0.25026937872E+02 -0.99135651089E+01  0.36117684367E+02  0.46142317449E+02  0.99999971576E+01 0.  0.
         12    1    1    2    0    0  0.25026937872E+02  0.99135651089E+01 -0.36117684367E+02  0.45045682551E+02  0.00000000000E+00 0. -1.
         11    1    3    3    0    0 -0.85278538508E+01 -0.37062876711E+01  0.80894990100E+01  0.12324806453E+02  0.51100000000E-03 0. -1.
        -11    1    3    3    0    0  0.32583168065E+00 -0.88244237302E+00  0.33440913227E+01  0.34738764891E+01  0.51100000000E-03 0.  1.
        -12    1    3    3    0    0 -0.16824915702E+02 -0.53248350648E+01  0.24684094034E+02  0.30343634508E+02  0.00000000000E+00 0.  1.
</event>
<event>
 7    1  0.1381440E-008  0.4614232E+02  0.7816164E-02  0.1320468E+00
        -11   -1    0    0    0    0  0.00000000000E+00  0.00000000000E+00  0.45593999997E+02  0.45594000000E+02  0.51100000000E-03 0.  1.
         11   -1    0    0    0    0 -0.00000000000E+00 -0.00000000000E+00 -0.45593999997E+02  0.45594000000E+02  0.51100000000E-03 0. -1.
    9900012    2    1    2    0    0 -0.23722306676E+02  0.71096168442E+01  0.37627366609E+02  0.46142320922E+02  0.10000028820E+02 0.  0.
         12    1    1    2    0    0  0.23722306676E+02 -0.71096168442E+01 -0.37627366609E+02  0.45045679078E+02  0.00000000000E+00 0. -1.
         11    1    3    3    0    0 -0.17713662856E+02  0.40690954980E+01  0.30675119646E+02  0.35655214983E+02  0.51100000000E-03 0. -1.
        -11    1    3    3    0    0 -0.44042410815E+01  0.39517793803E+01  0.45850837138E+01  0.74857793648E+01  0.51100000000E-03 0.  1.
         12    1    3    3    0    0 -0.16044027386E+01 -0.91125803410E+00  0.23671632491E+01  0.30013265734E+01  0.00000000000E+00 0. -1.
</event>
<event>
 7    1  0.1381440E-008  0.4614232E+02  0.7816164E-02  0.1320468E+00
        -11   -1    0    0    0    0  0.00000000000E+00  0.00000000000E+00  0.45593999997E+02  0.45594000000E+02  0.51100000000E-03 0. -1.
         11   -1    0    0    0    0 -0.00000000000E+00 -0.00000000000E+00 -0.45593999997E+02  0.45594000000E+02  0.51100000000E-03 0.  1.
    9900012    2    1    2    0    0 -0.25810592584E+02 -0.21227517604E+02 -0.30204621720E+02  0.46142319115E+02  0.10000012344E+02 0.  0.
         12    1    1    2    0    0  0.25810592584E+02  0.21227517604E+02  0.30204621720E+02  0.45045680885E+02  0.00000000000E+00 0. -1.
         11    1    3    3    0    0 -0.11985595082E+02 -0.11211579104E+02 -0.17169561283E+02  0.23751796361E+02  0.51100000000E-03 0.  1.
        -11    1    3    3    0    0 -0.90218232731E+01 -0.26364558098E+01 -0.68417355585E+01  0.11625555476E+02  0.51100000000E-03 0. -1.
        -12    1    3    3    0    0 -0.48031742293E+01 -0.73794826893E+01 -0.61933248791E+01  0.10764967278E+02  0.00000000000E+00 0.  1.
</event>
<event>
 7    1  0.1381440E-008  0.4614232E+02  0.7816164E-02  0.1320468E+00
        -11   -1    0    0    0    0  0.00000000000E+00  0.00000000000E+00  0.45593999997E+02  0.45594000000E+02  0.51100000000E-03 0. -1.
         11   -1    0    0    0    0 -0.00000000000E+00 -0.00000000000E+00 -0.45593999997E+02  0.45594000000E+02  0.51100000000E-03 0.  1.
    9900012    2    1    2    0    0  0.16535949573E+02  0.19563412308E+02 -0.37053324260E+02  0.46142316876E+02  0.99999919303E+01 0.  0.
         12    1    1    2    0    0 -0.16535949573E+02 -0.19563412308E+02  0.37053324260E+02  0.45045683124E+02  0.00000000000E+00 0. -1.
         11    1    3    3    0    0  0.11480565077E+02  0.14522105402E+02 -0.22383742401E+02  0.29046976502E+02  0.51100000000E-03 0. -1.
        -11    1    3    3    0    0  0.15129442693E+01  0.17342018682E+01 -0.85452141497E+00  0.24549263923E+01  0.51100000000E-03 0.  1.
         12    1    3    3    0    0  0.35424402264E+01  0.33071050377E+01 -0.13815060444E+02  0.14640413981E+02  0.00000000000E+00 0. -1.
</event>
<event>
 7    1  0.1381440E-008  0.4614232E+02  0.7816164E-02  0.1320468E+00
        -11   -1    0    0    0    0  0.00000000000E+00  0.00000000000E+00  0.45593999997E+02  0.45594000000E+02  0.51100000000E-03 0.  1.
         11   -1    0    0    0    0 -0.00000000000E+00 -0.00000000000E+00 -0.45593999997E+02  0.45594000000E+02  0.51100000000E-03 0. -1.
    9900012    2    1    2    0    0  0.98912842883E+01  0.43859080304E+02  0.27670615854E+01  0.46142322518E+02  0.10000043379E+02 0.  0.
         12    1    1    2    0    0 -0.98912842883E+01 -0.43859080304E+02 -0.27670615854E+01  0.45045677482E+02  0.00000000000E+00 0. -1.
         11    1    3    3    0    0  0.20141885650E+01  0.99179940762E+01 -0.32626216623E+01  0.10633356123E+02  0.51100000000E-03 0. -1.
        -11    1    3    3    0    0  0.35661174218E+01  0.22063929569E+02  0.42093347920E+01  0.22743189775E+02  0.51100000000E-03 0.  1.
         12    1    3    3    0    0  0.43109783015E+01  0.11877156659E+02  0.18203484558E+01  0.12765776620E+02  0.00000000000E+00 0. -1.
</event>
<event>
 7    1  0.1381440E-008  0.4614232E+02  0.7816164E-02  0.1320468E+00
        -11   -1    0    0    0    0  0.00000000000E+00  0.00000000000E+00  0.45593999997E+02  0.45594000000E+02  0.51100000000E-03 0.  1.
         11   -1    0    0    0    0 -0.00000000000E+00 -0.00000000000E+00 -0.45593999997E+02  0.45594000000E+02  0.51100000000E-03 0. -1.
    9900012    2    1    2    0    0 -0.37940112183E+02 -0.84333013466E+01  0.22771491371E+02  0.46142317595E+02  0.99999984879E+01 0.  0.
         12    1    1    2    0    0  0.37940112183E+02  0.84333013466E+01 -0.22771491371E+02  0.45045682405E+02  0.00000000000E+00 0. -1.
         11    1    3    3    0    0 -0.27041823384E+02 -0.44969487440E+01  0.15757611385E+02  0.31619378184E+02  0.51100000000E-03 0. -1.
        -11    1    3    3    0    0 -0.11341752352E+02 -0.40412014545E+01  0.60899475097E+01  0.13492743107E+02  0.51100000000E-03 0.  1.
         12    1    3    3    0    0  0.44346355320E+00  0.10484885191E+00  0.92393247629E+00  0.10301963044E+01  0.00000000000E+00 0. -1.
</event>
<event>
 7    1  0.1381440E-008  0.4614232E+02  0.7816164E-02  0.1320468E+00
        -11   -1    0    0    0    0  0.00000000000E+00  0.00000000000E+00  0.45593999997E+02  0.45594000000E+02  0.51100000000E-03 0.  1.
         11   -1    0    0    0    0 -0.00000000000E+00 -0.00000000000E+00 -0.45593999997E+02  0.45594000000E+02  0.51100000000E-03 0. -1.
    9900012    2    1    2    0    0  0.72161153480E+01  0.29471440837E+02  0.33293773061E+02  0.46142317961E+02  0.10000001824E+02 0.  0.
         12    1    1    2    0    0 -0.72161153480E+01 -0.29471440837E+02 -0.33293773061E+02  0.45045682039E+02  0.00000000000E+00 0. -1.
         11    1    3    3    0    0  0.32228662627E+01  0.15232572766E+02  0.19647967018E+02  0.25069119415E+02  0.51100000000E-03 0.  1.
        -11    1    3    3    0    0  0.13105182243E+01  0.88022592111E+01  0.41791789195E+01  0.98317222264E+01  0.51100000000E-03 0. -1.
         12    1    3    3    0    0  0.26827308610E+01  0.54366088599E+01  0.94666271229E+01  0.11241476320E+02  0.00000000000E+00 0. -1.
</event>
<event>
 7    1  0.1381440E-008  0.4614232E+02  0.7816164E-02  0.1320468E+00
        -11   -1    0    0    0    0  0.00000000000E+00  0.00000000000E+00  0.45593999997E+02  0.45594000000E+02  0.51100000000E-03 0. -1.
         11   -1    0    0    0    0 -0.00000000000E+00 -0.00000000000E+00 -0.45593999997E+02  0.45594000000E+02  0.51100000000E-03 0.  1.
    9900012    2    1    2    0    0  0.27330242024E+02  0.14618930551E+02 -0.32687279355E+02  0.46142317730E+02  0.99999997139E+01 0.  0.
         12    1    1    2    0    0 -0.27330242024E+02 -0.14618930551E+02  0.32687279355E+02  0.45045682270E+02  0.00000000000E+00 0. -1.
         11    1    3    3    0    0  0.21719890098E+02  0.11237512584E+02 -0.27886526103E+02  0.37090344475E+02  0.51100000000E-03 0. -1.
        -11    1    3    3    0    0  0.10538183078E+01  0.29077932595E+01 -0.19120179878E+01  0.36361528725E+01  0.51100000000E-03 0.  1.
         12    1    3    3    0    0  0.45565336190E+01  0.47362470768E+00 -0.28887352639E+01  0.54158203819E+01  0.00000000000E+00 0. -1.
</event>
<event>
 7    1  0.1381440E-008  0.4614231E+02  0.7816164E-02  0.1320468E+00
        -11   -1    0    0    0    0  0.00000000000E+00  0.00000000000E+00  0.45593999997E+02  0.45594000000E+02  0.51100000000E-03 0. -1.
         11   -1    0    0    0    0 -0.00000000000E+00 -0.00000000000E+00 -0.45593999997E+02  0.45594000000E+02  0.51100000000E-03 0.  1.
    9900012    2    1    2    0    0  0.83567433786E+01 -0.42801418926E+02 -0.11283520112E+02  0.46142307108E+02  0.99999028586E+01 0.  0.
         12    1    1    2    0    0 -0.83567433786E+01  0.42801418926E+02  0.11283520112E+02  0.45045692892E+02  0.00000000000E+00 0. -1.
         11    1    3    3    0    0  0.69001159686E+00 -0.18549893238E+02 -0.58507630124E+01  0.19462941279E+02  0.51100000000E-03 0. -1.
        -11    1    3    3    0    0  0.55966390891E+01 -0.14353988409E+02 -0.46555213481E+00  0.15413503541E+02  0.51100000000E-03 0.  1.
        -12    1    3    3    0    0  0.20700926927E+01 -0.98975372786E+01 -0.49672049650E+01  0.11265862288E+02  0.00000000000E+00 0.  1.
</event>
<event>
 7    1  0.1381440E-008  0.4614232E+02  0.7816164E-02  0.1320468E+00
        -11   -1    0    0    0    0  0.00000000000E+00  0.00000000000E+00  0.45593999997E+02  0.45594000000E+02  0.51100000000E-03 0. -1.
         11   -1    0    0    0    0 -0.00000000000E+00 -0.00000000000E+00 -0.45593999997E+02  0.45594000000E+02  0.51100000000E-03 0.  1.
    9900012    2    1    2    0    0  0.14209459234E+02  0.42180641099E+02 -0.69280778264E+01  0.46142317880E+02  0.10000001086E+02 0.  0.
         12    1    1    2    0    0 -0.14209459234E+02 -0.42180641099E+02  0.69280778264E+01  0.45045682120E+02  0.00000000000E+00 0. -1.
         11    1    3    3    0    0  0.11882984559E+01  0.27218487858E+01  0.93609252299E+00  0.31139658807E+01  0.51100000000E-03 0. -1.
        -11    1    3    3    0    0  0.47115916450E+01  0.24691215222E+02 -0.68487600954E+01  0.26053036676E+02  0.51100000000E-03 0.  1.
        -12    1    3    3    0    0  0.83095691333E+01  0.14767577092E+02 -0.10154102540E+01  0.16975315323E+02  0.00000000000E+00 0.  1.
</event>
<event>
 7    1  0.1381440E-008  0.4614232E+02  0.7816164E-02  0.1320468E+00
        -11   -1    0    0    0    0  0.00000000000E+00  0.00000000000E+00  0.45593999997E+02  0.45594000000E+02  0.51100000000E-03 0.  1.
         11   -1    0    0    0    0 -0.00000000000E+00 -0.00000000000E+00 -0.45593999997E+02  0.45594000000E+02  0.51100000000E-03 0. -1.
    9900012    2    1    2    0    0 -0.22781822910E+02  0.30283466860E+02 -0.24351870987E+02  0.46142318290E+02  0.10000004824E+02 0.  0.
         12    1    1    2    0    0  0.22781822910E+02 -0.30283466860E+02  0.24351870987E+02  0.45045681710E+02  0.00000000000E+00 0. -1.
         11    1    3    3    0    0 -0.14689082954E+02  0.11865397612E+02 -0.12260195813E+02  0.22513756243E+02  0.51100000000E-03 0. -1.
        -11    1    3    3    0    0 -0.48468054393E+01  0.13830987152E+02 -0.92610458267E+01  0.17336513451E+02  0.51100000000E-03 0.  1.
        -12    1    3    3    0    0 -0.32459345162E+01  0.45870820968E+01 -0.28306293470E+01  0.62920485970E+01  0.00000000000E+00 0.  1.
</event>
<event>
 7    1  0.1381440E-008  0.4614232E+02  0.7816164E-02  0.1320468E+00
        -11   -1    0    0    0    0  0.00000000000E+00  0.00000000000E+00  0.45593999997E+02  0.45594000000E+02  0.51100000000E-03 0. -1.
         11   -1    0    0    0    0 -0.00000000000E+00 -0.00000000000E+00 -0.45593999997E+02  0.45594000000E+02  0.51100000000E-03 0.  1.
    9900012    2    1    2    0    0  0.32089476441E+02 -0.18617835904E+02 -0.25549070666E+02  0.46142319587E+02  0.10000016652E+02 0.  0.
         12    1    1    2    0    0 -0.32089476441E+02  0.18617835904E+02  0.25549070666E+02  0.45045680413E+02  0.00000000000E+00 0. -1.
         11    1    3    3    0    0  0.11531180022E+02 -0.52777894645E+01 -0.46906193752E+01  0.13521282658E+02  0.51100000000E-03 0.  1.
        -11    1    3    3    0    0  0.53075556045E+01 -0.55624862689E+01 -0.87748175926E+01  0.11666568649E+02  0.51100000000E-03 0. -1.
         12    1    3    3    0    0  0.15250740814E+02 -0.77775601700E+01 -0.12083633698E+02  0.20954468281E+02  0.00000000000E+00 0. -1.
</event>
<event>
 7    1  0.1381440E-008  0.4614232E+02  0.7816164E-02  0.1320468E+00
        -11   -1    0    0    0    0  0.00000000000E+00  0.00000000000E+00  0.45593999997E+02  0.45594000000E+02  0.51100000000E-03 0.  1.
         11   -1    0    0    0    0 -0.00000000000E+00 -0.00000000000E+00 -0.45593999997E+02  0.45594000000E+02  0.51100000000E-03 0. -1.
    9900012    2    1    2    0    0 -0.17565779479E+02 -0.19146862639E+02  0.36796122235E+02  0.46142316864E+02  0.99999918197E+01 0.  0.
         12    1    1    2    0    0  0.17565779479E+02  0.19146862639E+02 -0.36796122235E+02  0.45045683136E+02  0.00000000000E+00 0. -1.
         11    1    3    3    0    0 -0.14844699141E+01 -0.17055826491E-01  0.11013302677E+01  0.18484778729E+01  0.51100000000E-03 0. -1.
        -11    1    3    3    0    0 -0.91566061166E+01 -0.15538568622E+02  0.28212767750E+02  0.33485083467E+02  0.51100000000E-03 0.  1.
        -12    1    3    3    0    0 -0.69247034486E+01 -0.35912381908E+01  0.74820242169E+01  0.10808755524E+02  0.00000000000E+00 0.  1.
</event>
<event>
 7    1  0.1381440E-008  0.4614232E+02  0.7816164E-02  0.1320468E+00
        -11   -1    0    0    0    0  0.00000000000E+00  0.00000000000E+00  0.45593999997E+02  0.45594000000E+02  0.51100000000E-03 0.  1.
         11   -1    0    0    0    0 -0.00000000000E+00 -0.00000000000E+00 -0.45593999997E+02  0.45594000000E+02  0.51100000000E-03 0. -1.
    9900012    2    1    2    0    0  0.15649516141E+02 -0.19600144783E+02  0.37417114256E+02  0.46142317963E+02  0.10000001837E+02 0.  0.
         12    1    1    2    0    0 -0.15649516141E+02  0.19600144783E+02 -0.37417114256E+02  0.45045682037E+02  0.00000000000E+00 0. -1.
         11    1    3    3    0    0  0.35621292787E+01 -0.76510653285E+01  0.19396356067E+02  0.21152924020E+02  0.51100000000E-03 0. -1.
        -11    1    3    3    0    0  0.50873577307E+01 -0.48618450332E+01  0.98513270587E+01  0.12106502009E+02  0.51100000000E-03 0.  1.
         12    1    3    3    0    0  0.70000291315E+01 -0.70872344213E+01  0.81694311305E+01  0.12882891934E+02  0.00000000000E+00 0. -1.
</event>
<event>
 7    1  0.1381440E-008  0.4614232E+02  0.7816164E-02  0.1320468E+00
        -11   -1    0    0    0    0  0.00000000000E+00  0.00000000000E+00  0.45593999997E+02  0.45594000000E+02  0.51100000000E-03 0.  1.
         11   -1    0    0    0    0 -0.00000000000E+00 -0.00000000000E+00 -0.45593999997E+02  0.45594000000E+02  0.51100000000E-03 0. -1.
    9900012    2    1    2    0    0 -0.36262064001E+02 -0.21092406170E+02 -0.16409948452E+02  0.46142319942E+02  0.10000019885E+02 0.  0.
         12    1    1    2    0    0  0.36262064001E+02  0.21092406170E+02  0.16409948452E+02  0.45045680058E+02  0.00000000000E+00 0. -1.
         11    1    3    3    0    0 -0.17061753645E+02 -0.15528232225E+02 -0.88052598968E+01  0.24693360152E+02  0.51100000000E-03 0. -1.
        -11    1    3    3    0    0 -0.72247560881E+01 -0.14841606367E+01 -0.33545733718E+01  0.81026536453E+01  0.51100000000E-03 0.  1.
         12    1    3    3    0    0 -0.11975554268E+02 -0.40800133087E+01 -0.42501151839E+01  0.13346306145E+02  0.00000000000E+00 0. -1.
</event>
<event>
 7    1  0.1381440E-008  0.4614232E+02  0.7816164E-02  0.1320468E+00
        -11   -1    0    0    0    0  0.00000000000E+00  0.00000000000E+00  0.45593999997E+02  0.45594000000E+02  0.51100000000E-03 0.  1.
         11   -1    0    0    0    0 -0.00000000000E+00 -0.00000000000E+00 -0.45593999997E+02  0.45594000000E+02  0.51100000000E-03 0. -1.
    9900012    2    1    2    0    0  0.19505078182E+02 -0.71604583713E+01  0.39967401839E+02  0.46142318201E+02  0.10000004013E+02 0.  0.
         12    1    1    2    0    0 -0.19505078182E+02  0.71604583713E+01 -0.39967401839E+02  0.45045681799E+02  0.00000000000E+00 0. -1.
         11    1    3    3    0    0  0.10301164870E+02 -0.65938412595E+01  0.17654711960E+02  0.21477467143E+02  0.51100000000E-03 0. -1.
        -11    1    3    3    0    0  0.92074742671E+01  0.14404358118E-01  0.17112749886E+02  0.19432549982E+02  0.51100000000E-03 0.  1.
        -12    1    3    3    0    0 -0.35609547071E-02 -0.58102146989E+00  0.51999399922E+01  0.52323010762E+01  0.00000000000E+00 0.  1.
</event>
<event>
 7    1  0.1875159E-008  0.4614232E+02  0.7816164E-02  0.1320468E+00
        -11   -1    0    0    0    0  0.00000000000E+00  0.00000000000E+00  0.45593999997E+02  0.45594000000E+02  0.51100000000E-03 0. -1.
         11   -1    0    0    0    0 -0.00000000000E+00 -0.00000000000E+00 -0.45593999997E+02  0.45594000000E+02  0.51100000000E-03 0.  1.
    9900012    2    1    2    0    0  0.16911817913E+02 -0.18578474288E+02 -0.37389092427E+02  0.46142317360E+02  0.99999963442E+01 0.  0.
         12    1    1    2    0    0 -0.16911817913E+02  0.18578474288E+02  0.37389092427E+02  0.45045682640E+02  0.00000000000E+00 0. -1.
         11    1    3    3    0    0 -0.47213437248E+00 -0.70637165110E+00 -0.56980838815E+00  0.10230120407E+01  0.51100000000E-03 0. -1.
        -11    1    3    3    0    0  0.12844798822E+02 -0.96421144569E+01 -0.27724033393E+02  0.32040306737E+02  0.51100000000E-03 0.  1.
        -12    1    3    3    0    0  0.45391534634E+01 -0.82299881803E+01 -0.90952506456E+01  0.13078998582E+02  0.00000000000E+00 0.  1.
</event>
<event>
 7    1  0.1381440E-008  0.4614232E+02  0.7816164E-02  0.1320468E+00
        -11   -1    0    0    0    0  0.00000000000E+00  0.00000000000E+00  0.45593999997E+02  0.45594000000E+02  0.51100000000E-03 0. -1.
         11   -1    0    0    0    0 -0.00000000000E+00 -0.00000000000E+00 -0.45593999997E+02  0.45594000000E+02  0.51100000000E-03 0.  1.
    9900012    2    1    2    0    0 -0.42496894876E+02  0.14482851382E+02  0.36571190578E+01  0.46142316766E+02  0.99999909246E+01 0.  0.
         12    1    1    2    0    0  0.42496894876E+02 -0.14482851382E+02 -0.36571190578E+01  0.45045683234E+02  0.00000000000E+00 0. -1.
         11    1    3    3    0    0 -0.67198197073E+01  0.56206649038E+01  0.26631080871E+01  0.91564182846E+01  0.51100000000E-03 0. -1.
        -11    1    3    3    0    0 -0.29020105451E+02  0.78972668099E+01  0.17031125092E+01  0.30123644134E+02  0.51100000000E-03 0.  1.
         12    1    3    3    0    0 -0.67569697175E+01  0.96491966802E+00 -0.70910153855E+00  0.68622543468E+01  0.00000000000E+00 0. -1.
</event>
<event>
 7    1  0.1381440E-008  0.4614231E+02  0.7816164E-02  0.1320468E+00
        -11   -1    0    0    0    0  0.00000000000E+00  0.00000000000E+00  0.45593999997E+02  0.45594000000E+02  0.51100000000E-03 0. -1.
         11   -1    0    0    0    0 -0.00000000000E+00 -0.00000000000E+00 -0.45593999997E+02  0.45594000000E+02  0.51100000000E-03 0.  1.
    9900012    2    1    2    0    0  0.25139169060E+02 -0.36364098505E+01 -0.37200981312E+02  0.46142308661E+02  0.99999170175E+01 0.  0.
         12    1    1    2    0    0 -0.25139169060E+02  0.36364098505E+01  0.37200981312E+02  0.45045691339E+02  0.00000000000E+00 0. -1.
         11    1    3    3    0    0  0.40343698976E+00 -0.12095390613E+01 -0.21583171337E-02  0.12750494363E+01  0.51100000000E-03 0. -1.
        -11    1    3    3    0    0  0.20421833807E+02 -0.28541758239E+01 -0.32351522275E+02  0.38364288204E+02  0.51100000000E-03 0.  1.
         12    1    3    3    0    0  0.43138982634E+01  0.42730503477E+00 -0.48473007202E+01  0.65029710204E+01  0.00000000000E+00 0. -1.
</event>
<event>
 7    1  0.1381440E-008  0.4614232E+02  0.7816164E-02  0.1320468E+00
        -11   -1    0    0    0    0  0.00000000000E+00  0.00000000000E+00  0.45593999997E+02  0.45594000000E+02  0.51100000000E-03 0.  1.
         11   -1    0    0    0    0 -0.00000000000E+00 -0.00000000000E+00 -0.45593999997E+02  0.45594000000E+02  0.51100000000E-03 0. -1.
    9900012    2    1    2    0    0  0.40644089888E+02 -0.16291683893E+02 -0.10571300441E+02  0.46142318743E+02  0.10000008951E+02 0.  0.
         12    1    1    2    0    0 -0.40644089888E+02  0.16291683893E+02  0.10571300441E+02  0.45045681257E+02  0.00000000000E+00 0. -1.
         11    1    3    3    0    0 -0.21689423745E+00 -0.86809786634E+00 -0.91446285044E+00  0.12794059488E+01  0.51100000000E-03 0. -1.
        -11    1    3    3    0    0  0.95685159692E+01 -0.24125447797E+01 -0.12559463176E+01  0.99475761661E+01  0.51100000000E-03 0.  1.
         12    1    3    3    0    0  0.31292468156E+02 -0.13011041247E+02 -0.84008912733E+01  0.34915336628E+02  0.00000000000E+00 0. -1.
</event>
<event>
 7    1  0.1381440E-008  0.4614232E+02  0.7816164E-02  0.1320468E+00
        -11   -1    0    0    0    0  0.00000000000E+00  0.00000000000E+00  0.45593999997E+02  0.45594000000E+02  0.51100000000E-03 0. -1.
         11   -1    0    0    0    0 -0.00000000000E+00 -0.00000000000E+00 -0.45593999997E+02  0.45594000000E+02  0.51100000000E-03 0.  1.
    9900012    2    1    2    0    0  0.23857167061E+02 -0.29949041032E+02  0.23727707849E+02  0.46142316537E+02  0.99999888352E+01 0.  0.
         12    1    1    2    0    0 -0.23857167061E+02  0.29949041032E+02 -0.23727707849E+02  0.45045683463E+02  0.00000000000E+00 0. -1.
         11    1    3    3    0    0  0.55026253755E+01 -0.87876505279E+01  0.32081123678E+01  0.10853279368E+02  0.51100000000E-03 0. -1.
        -11    1    3    3    0    0  0.60737441406E+01 -0.10601355178E+02  0.63527280816E+01  0.13770847970E+02  0.51100000000E-03 0.  1.
        -12    1    3    3    0    0  0.12280797545E+02 -0.10560035326E+02  0.14166867400E+02  0.21518189198E+02  0.00000000000E+00 0.  1.
</event>
<event>
 7    1  0.1381440E-008  0.4614232E+02  0.7816164E-02  0.1320468E+00
        -11   -1    0    0    0    0  0.00000000000E+00  0.00000000000E+00  0.45593999997E+02  0.45594000000E+02  0.51100000000E-03 0.  1.
         11   -1    0    0    0    0 -0.00000000000E+00 -0.00000000000E+00 -0.45593999997E+02  0.45594000000E+02  0.51100000000E-03 0. -1.
    9900012    2    1    2    0    0  0.44669444890E+02  0.23007558479E+01  0.53348545108E+01  0.46142318111E+02  0.10000003187E+02 0.  0.
         12    1    1    2    0    0 -0.44669444890E+02 -0.23007558479E+01 -0.53348545108E+01  0.45045681889E+02  0.00000000000E+00 0. -1.
         11    1    3    3    0    0  0.96372919154E+01  0.20068267123E+01 -0.92736063523E+00  0.98876057225E+01  0.51100000000E-03 0. -1.
        -11    1    3    3    0    0  0.82892202935E+01  0.16177589552E+01 -0.10185382650E+01  0.85068053681E+01  0.51100000000E-03 0.  1.
        -12    1    3    3    0    0  0.26742932681E+02 -0.13238298196E+01  0.72807534110E+01  0.27747907020E+02  0.00000000000E+00 0.  1.
</event>
<event>
 7    1  0.1381440E-008  0.4614232E+02  0.7816164E-02  0.1320468E+00
        -11   -1    0    0    0    0  0.00000000000E+00  0.00000000000E+00  0.45593999997E+02  0.45594000000E+02  0.51100000000E-03 0.  1.
         11   -1    0    0    0    0 -0.00000000000E+00 -0.00000000000E+00 -0.45593999997E+02  0.45594000000E+02  0.51100000000E-03 0. -1.
    9900012    2    1    2    0    0 -0.18854918019E+02 -0.12188135787E+01  0.40891564041E+02  0.46142318189E+02  0.10000003903E+02 0.  0.
         12    1    1    2    0    0  0.18854918019E+02  0.12188135787E+01 -0.40891564041E+02  0.45045681811E+02  0.00000000000E+00 0. -1.
         11    1    3    3    0    0 -0.13351673974E+02  0.24173640324E+01  0.23681743065E+02  0.27293512079E+02  0.51100000000E-03 0.  1.
        -11    1    3    3    0    0 -0.16665764878E+01 -0.18148638652E+01  0.23909087371E+01  0.34333151456E+01  0.51100000000E-03 0. -1.
         12    1    3    3    0    0 -0.38366675573E+01 -0.18213137459E+01  0.14818912239E+02  0.15415490964E+02  0.00000000000E+00 0. -1.
</event>
<event>
 7    1  0.1381440E-008  0.4614233E+02  0.7816164E-02  0.1320468E+00
        -11   -1    0    0    0    0  0.00000000000E+00  0.00000000000E+00  0.45593999997E+02  0.45594000000E+02  0.51100000000E-03 0. -1.
         11   -1    0    0    0    0 -0.00000000000E+00 -0.00000000000E+00 -0.45593999997E+02  0.45594000000E+02  0.51100000000E-03 0.  1.
    9900012    2    1    2    0    0  0.38631286171E+02 -0.21349224109E+02 -0.89970480125E+01  0.46142328574E+02  0.10000098604E+02 0.  0.
         12    1    1    2    0    0 -0.38631286171E+02  0.21349224109E+02  0.89970480125E+01  0.45045671426E+02  0.00000000000E+00 0. -1.
         11    1    3    3    0    0  0.75048234158E+01 -0.27710014301E+01 -0.24636369126E+01  0.83708022630E+01  0.51100000000E-03 0. -1.
        -11    1    3    3    0    0  0.19733863136E+02 -0.15926238827E+02 -0.29060184842E+01  0.25524799336E+02  0.51100000000E-03 0.  1.
        -12    1    3    3    0    0  0.11392599619E+02 -0.26519838513E+01 -0.36273926158E+01  0.12246726975E+02  0.00000000000E+00 0.  1.
</event>
<event>
 7    1  0.1398954E-008  0.4614232E+02  0.7816164E-02  0.1320468E+00
        -11   -1    0    0    0    0  0.00000000000E+00  0.00000000000E+00  0.45593999997E+02  0.45594000000E+02  0.51100000000E-03 0. -1.
         11   -1    0    0    0    0 -0.00000000000E+00 -0.00000000000E+00 -0.45593999997E+02  0.45594000000E+02  0.51100000000E-03 0.  1.
    9900012    2    1    2    0    0  0.43414363939E+02 -0.56324946874E+01 -0.10610449384E+02  0.46142316203E+02  0.99999857916E+01 0.  0.
         12    1    1    2    0    0 -0.43414363939E+02  0.56324946874E+01  0.10610449384E+02  0.45045683797E+02  0.00000000000E+00 0. -1.
         11    1    3    3    0    0  0.26431823484E+01 -0.24205332348E+01 -0.10911303038E+01  0.37464596179E+01  0.51100000000E-03 0. -1.
        -11    1    3    3    0    0  0.33705925507E+02 -0.40008755009E+00 -0.78685662821E+01  0.34614503029E+02  0.51100000000E-03 0.  1.
        -12    1    3    3    0    0  0.70652560830E+01 -0.28118739025E+01 -0.16507527980E+01  0.77813535559E+01  0.00000000000E+00 0.  1.
</event>
<event>
 7    1  0.1381440E-008  0.4614232E+02  0.7816164E-02  0.1320468E+00
        -11   -1    0    0    0    0  0.00000000000E+00  0.00000000000E+00  0.45593999997E+02  0.45594000000E+02  0.51100000000E-03 0.  1.
         11   -1    0    0    0    0 -0.00000000000E+00 -0.00000000000E+00 -0.45593999997E+02  0.45594000000E+02  0.51100000000E-03 0. -1.
    9900012    2    1    2    0    0  0.25771269786E+01 -0.21851396887E+02  0.39306339878E+02  0.46142317810E+02  0.10000000442E+02 0.  0.
         12    1    1    2    0    0 -0.25771269786E+01  0.21851396887E+02 -0.39306339878E+02  0.45045682190E+02  0.00000000000E+00 0. -1.
         11    1    3    3    0    0  0.10887680203E+01 -0.17263831782E+01  0.98732945245E+01  0.10082051364E+02  0.51100000000E-03 0. -1.
        -11    1    3    3    0    0  0.22844435344E+01 -0.11340667208E+02  0.12942946297E+02  0.17359414566E+02  0.51100000000E-03 0.  1.
        -12    1    3    3    0    0 -0.79608457611E+00 -0.87843465015E+01  0.16490099057E+02  0.18700851879E+02  0.00000000000E+00 0.  1.
</event>
<event>
 7    1  0.1381440E-008  0.4614232E+02  0.7816164E-02  0.1320468E+00
        -11   -1    0    0    0    0  0.00000000000E+00  0.00000000000E+00  0.45593999997E+02  0.45594000000E+02  0.51100000000E-03 0. -1.
         11   -1    0    0    0    0 -0.00000000000E+00 -0.00000000000E+00 -0.45593999997E+02  0.45594000000E+02  0.51100000000E-03 0.  1.
    9900012    2    1    2    0    0  0.15955897834E+02  0.15450777264E+02 -0.39189234214E+02  0.46142320163E+02  0.10000021899E+02 0.  0.
         12    1    1    2    0    0 -0.15955897834E+02 -0.15450777264E+02  0.39189234214E+02  0.45045679837E+02  0.00000000000E+00 0. -1.
         11    1    3    3    0    0  0.13410793870E+02  0.12819331539E+02 -0.26440113922E+02  0.32299601821E+02  0.51100000000E-03 0. -1.
        -11    1    3    3    0    0  0.29810481865E+01  0.27816710581E+00 -0.67777542630E+01  0.74095869210E+01  0.51100000000E-03 0.  1.
         12    1    3    3    0    0 -0.43594422276E+00  0.23532786192E+01 -0.59713660286E+01  0.64331314204E+01  0.00000000000E+00 0. -1.
</event>
<event>
 7    1  0.1381440E-008  0.4614232E+02  0.7816164E-02  0.1320468E+00
        -11   -1    0    0    0    0  0.00000000000E+00  0.00000000000E+00  0.45593999997E+02  0.45594000000E+02  0.51100000000E-03 0. -1.
         11   -1    0    0    0    0 -0.00000000000E+00 -0.00000000000E+00 -0.45593999997E+02  0.45594000000E+02  0.51100000000E-03 0.  1.
    9900012    2    1    2    0    0  0.44831365232E+02 -0.43477508626E+01 -0.59930532269E+00  0.46142318597E+02  0.10000007627E+02 0.  0.
         12    1    1    2    0    0 -0.44831365232E+02  0.43477508626E+01  0.59930532269E+00  0.45045681403E+02  0.00000000000E+00 0. -1.
         11    1    3    3    0    0  0.13684787120E+02 -0.44334303285E+01  0.16618513313E+01  0.14480692425E+02  0.51100000000E-03 0. -1.
        -11    1    3    3    0    0  0.19686415466E+02 -0.21450431494E+01 -0.18850895425E+00  0.19803830435E+02  0.51100000000E-03 0.  1.
         12    1    3    3    0    0  0.11460162647E+02  0.22307226154E+01 -0.20726476997E+01  0.11857795738E+02  0.00000000000E+00 0. -1.
</event>
<event>
 7    1  0.1381440E-008  0.4614232E+02  0.7816164E-02  0.1320468E+00
        -11   -1    0    0    0    0  0.00000000000E+00  0.00000000000E+00  0.45593999997E+02  0.45594000000E+02  0.51100000000E-03 0.  1.
         11   -1    0    0    0    0 -0.00000000000E+00 -0.00000000000E+00 -0.45593999997E+02  0.45594000000E+02  0.51100000000E-03 0. -1.
    9900012    2    1    2    0    0 -0.17207953758E+02  0.76671450787E+01  0.40917169525E+02  0.46142317098E+02  0.99999939516E+01 0.  0.
         12    1    1    2    0    0  0.17207953758E+02 -0.76671450787E+01 -0.40917169525E+02  0.45045682902E+02  0.00000000000E+00 0. -1.
         11    1    3    3    0    0 -0.22532114273E+01  0.40621729430E+01  0.50677226084E+01  0.68745926026E+01  0.51100000000E-03 0. -1.
        -11    1    3    3    0    0 -0.13807084888E+02  0.42365857290E+01  0.30302977498E+02  0.33568656471E+02  0.51100000000E-03 0.  1.
        -12    1    3    3    0    0 -0.11476574422E+01 -0.63161359320E+00  0.55464694185E+01  0.56990680243E+01  0.00000000000E+00 0.  1.
</event>
<event>
 7    1  0.1381440E-008  0.4614232E+02  0.7816164E-02  0.1320468E+00
        -11   -1    0    0    0    0  0.00000000000E+00  0.00000000000E+00  0.45593999997E+02  0.45594000000E+02  0.51100000000E-03 0. -1.
         11   -1    0    0    0    0 -0.00000000000E+00 -0.00000000000E+00 -0.45593999997E+02  0.45594000000E+02  0.51100000000E-03 0.  1.
    9900012    2    1    2    0    0  0.22276357911E+02 -0.38374055156E+02 -0.77659058336E+01  0.46142317362E+02  0.99999963614E+01 0.  0.
         12    1    1    2    0    0 -0.22276357911E+02  0.38374055156E+02  0.77659058336E+01  0.45045682638E+02  0.00000000000E+00 0. -1.
         11    1    3    3    0    0  0.15786888871E+02 -0.22396571647E+02 -0.74366638413E+01  0.28392538652E+02  0.51100000000E-03 0.  1.
        -11    1    3    3    0    0  0.54036626796E+01 -0.15472352837E+02  0.31111721970E+00  0.16391768265E+02  0.51100000000E-03 0. -1.
        -12    1    3    3    0    0  0.10858063598E+01 -0.50513067177E+00 -0.64035921200E+00  0.13580104443E+01  0.00000000000E+00 0.  1.
</event>
<event>
 7    1  0.1381440E-008  0.4614232E+02  0.7816164E-02  0.1320468E+00
        -11   -1    0    0    0    0  0.00000000000E+00  0.00000000000E+00  0.45593999997E+02  0.45594000000E+02  0.51100000000E-03 0.  1.
         11   -1    0    0    0    0 -0.00000000000E+00 -0.00000000000E+00 -0.45593999997E+02  0.45594000000E+02  0.51100000000E-03 0. -1.
    9900012    2    1    2    0    0  0.17494463172E+02 -0.97354798453E+01  0.40351922782E+02  0.46142317835E+02  0.10000000670E+02 0.  0.
         12    1    1    2    0    0 -0.17494463172E+02  0.97354798453E+01 -0.40351922782E+02  0.45045682165E+02  0.00000000000E+00 0. -1.
         11    1    3    3    0    0  0.78613255980E+01 -0.30105308253E+01  0.23738062943E+02  0.25186491788E+02  0.51100000000E-03 0. -1.
        -11    1    3    3    0    0  0.14010147386E+01  0.25250722808E+00  0.45606681006E+01  0.47776873048E+01  0.51100000000E-03 0.  1.
         12    1    3    3    0    0  0.82321228356E+01 -0.69774562480E+01  0.12053191739E+02  0.16178138742E+02  0.00000000000E+00 0. -1.
</event>
<event>
 7    1  0.1381440E-008  0.4614232E+02  0.7816164E-02  0.1320468E+00
        -11   -1    0    0    0    0  0.00000000000E+00  0.00000000000E+00  0.45593999997E+02  0.45594000000E+02  0.51100000000E-03 0. -1.
         11   -1    0    0    0    0 -0.00000000000E+00 -0.00000000000E+00 -0.45593999997E+02  0.45594000000E+02  0.51100000000E-03 0.  1.
    9900012    2    1    2    0    0 -0.40681609381E+02 -0.15001850948E+02 -0.12209204485E+02  0.46142317101E+02  0.99999939774E+01 0.  0.
         12    1    1    2    0    0  0.40681609381E+02  0.15001850948E+02  0.12209204485E+02  0.45045682899E+02  0.00000000000E+00 0. -1.
         11    1    3    3    0    0  0.26002579605E+00 -0.31926757592E+00 -0.89240889929E+00  0.98282201049E+00  0.51100000000E-03 0. -1.
        -11    1    3    3    0    0 -0.22052015622E+02 -0.61137726805E+01 -0.44693051625E+01  0.23316181039E+02  0.51100000000E-03 0.  1.
         12    1    3    3    0    0 -0.18889619556E+02 -0.85688106917E+01 -0.68474904228E+01  0.21843314051E+02  0.00000000000E+00 0. -1.
</event>
<event>
 7    1  0.1381440E-008  0.4614232E+02  0.7816164E-02  0.1320468E+00
        -11   -1    0    0    0    0  0.00000000000E+00  0.00000000000E+00  0.45593999997E+02  0.45594000000E+02  0.51100000000E-03 0.  1.
         11   -1    0    0    0    0 -0.00000000000E+00 -0.00000000000E+00 -0.45593999997E+02  0.45594000000E+02  0.51100000000E-03 0. -1.
    9900012    2    1    2    0    0  0.31899075908E+02  0.10736423860E+02  0.29938132705E+02  0.46142316178E+02  0.99999855669E+01 0.  0.
         12    1    1    2    0    0 -0.31899075908E+02 -0.10736423860E+02 -0.29938132705E+02  0.45045683822E+02  0.00000000000E+00 0. -1.
         11    1    3    3    0    0  0.20705660326E+02  0.81834825133E+01  0.15460860335E+02  0.27105939536E+02  0.51100000000E-03 0. -1.
        -11    1    3    3    0    0  0.49757915585E+01  0.16318173983E+01  0.10100299307E+02  0.11377054804E+02  0.51100000000E-03 0.  1.
        -12    1    3    3    0    0  0.62176240238E+01  0.92112394865E+00  0.43769730624E+01  0.76593218381E+01  0.00000000000E+00 0.  1.
</event>
<event>
 7    1  0.1381440E-008  0.4614232E+02  0.7816164E-02  0.1320468E+00
        -11   -1    0    0    0    0  0.00000000000E+00  0.00000000000E+00  0.45593999997E+02  0.45594000000E+02  0.51100000000E-03 0. -1.
         11   -1    0    0    0    0 -0.00000000000E+00 -0.00000000000E+00 -0.45593999997E+02  0.45594000000E+02  0.51100000000E-03 0.  1.
    9900012    2    1    2    0    0  0.55050287777E+01  0.44615726780E+02 -0.28714148968E+01  0.46142318282E+02  0.10000004748E+02 0.  0.
         12    1    1    2    0    0 -0.55050287777E+01 -0.44615726780E+02  0.28714148968E+01  0.45045681718E+02  0.00000000000E+00 0. -1.
         11    1    3    3    0    0 -0.39363435920E+00  0.22660774720E+02  0.87640280648E+00  0.22681131829E+02  0.51100000000E-03 0. -1.
        -11    1    3    3    0    0  0.61300719413E+01  0.18237561936E+02 -0.19907185581E+01  0.19342942073E+02  0.51100000000E-03 0.  1.
        -12    1    3    3    0    0 -0.23140880448E+00  0.37173901236E+01 -0.17570991452E+01  0.41182443798E+01  0.00000000000E+00 0.  1.
</event>
<event>
 7    1  0.1381440E-008  0.4614232E+02  0.7816164E-02  0.1320468E+00
        -11   -1    0    0    0    0  0.00000000000E+00  0.00000000000E+00  0.45593999997E+02  0.45594000000E+02  0.51100000000E-03 0. -1.
         11   -1    0    0    0    0 -0.00000000000E+00 -0.00000000000E+00 -0.45593999997E+02  0.45594000000E+02  0.51100000000E-03 0.  1.
    9900012    2    1    2    0    0  0.31537936743E+02 -0.10927807234E+02 -0.30249877701E+02  0.46142317345E+02  0.99999962038E+01 0.  0.
         12    1    1    2    0    0 -0.31537936743E+02  0.10927807234E+02  0.30249877701E+02  0.45045682655E+02  0.00000000000E+00 0. -1.
         11    1    3    3    0    0  0.45725596965E+01 -0.35590309126E+01 -0.70902542980E+01  0.91567848881E+01  0.51100000000E-03 0. -1.
        -11    1    3    3    0    0  0.57092565522E+01  0.11311916981E+01 -0.61339477919E+01  0.84557980588E+01  0.51100000000E-03 0.  1.
         12    1    3    3    0    0  0.21256120494E+02 -0.84999680198E+01 -0.17025675611E+02  0.28529734398E+02  0.00000000000E+00 0. -1.
</event>
<event>
 7    1  0.1381440E-008  0.4614232E+02  0.7816164E-02  0.1320468E+00
        -11   -1    0    0    0    0  0.00000000000E+00  0.00000000000E+00  0.45593999997E+02  0.45594000000E+02  0.51100000000E-03 0.  1.
         11   -1    0    0    0    0 -0.00000000000E+00 -0.00000000000E+00 -0.45593999997E+02  0.45594000000E+02  0.51100000000E-03 0. -1.
    9900012    2    1    2    0    0 -0.73568087044E+01 -0.16078170863E+02  0.41430462913E+02  0.46142317967E+02  0.10000001879E+02 0.  0.
         12    1    1    2    0    0  0.73568087044E+01  0.16078170863E+02 -0.41430462913E+02  0.45045682033E+02  0.00000000000E+00 0. -1.
         11    1    3    3    0    0 -0.30017753003E+01 -0.72476821352E+01  0.19538693095E+02  0.21054692574E+02  0.51100000000E-03 0.  1.
        -11    1    3    3    0    0  0.14700677490E+01 -0.41278871371E+01  0.11277125582E+02  0.12098516977E+02  0.51100000000E-03 0. -1.
         12    1    3    3    0    0 -0.58251011531E+01 -0.47026015904E+01  0.10614644237E+02  0.12989108416E+02  0.00000000000E+00 0. -1.
</event>
<event>
 7    1  0.1381440E-008  0.4614232E+02  0.7816164E-02  0.1320468E+00
        -11   -1    0    0    0    0  0.00000000000E+00  0.00000000000E+00  0.45593999997E+02  0.45594000000E+02  0.51100000000E-03 0. -1.
         11   -1    0    0    0    0 -0.00000000000E+00 -0.00000000000E+00 -0.45593999997E+02  0.45594000000E+02  0.51100000000E-03 0.  1.
    9900012    2    1    2    0    0  0.11790885592E+02  0.20848873856E+02 -0.38149875369E+02  0.46142317468E+02  0.99999973272E+01 0.  0.
         12    1    1    2    0    0 -0.11790885592E+02 -0.20848873856E+02  0.38149875369E+02  0.45045682532E+02  0.00000000000E+00 0. -1.
         11    1    3    3    0    0  0.60124524897E+01  0.80054623501E+01 -0.11524788876E+02  0.15266229766E+02  0.51100000000E-03 0. -1.
        -11    1    3    3    0    0  0.23843727829E+01  0.11863137160E+02 -0.20438687513E+02  0.23752035794E+02  0.51100000000E-03 0.  1.
        -12    1    3    3    0    0  0.33940603192E+01  0.98027434598E+00 -0.61863989804E+01  0.71240519080E+01  0.00000000000E+00 0.  1.
</event>
<event>
 7    1  0.1381440E-008  0.4614232E+02  0.7816164E-02  0.1320468E+00
        -11   -1    0    0    0    0  0.00000000000E+00  0.00000000000E+00  0.45593999997E+02  0.45594000000E+02  0.51100000000E-03 0. -1.
         11   -1    0    0    0    0 -0.00000000000E+00 -0.00000000000E+00 -0.45593999997E+02  0.45594000000E+02  0.51100000000E-03 0.  1.
    9900012    2    1    2    0    0 -0.25217606737E+02  0.37275643174E+02 -0.19267008277E+01  0.46142318302E+02  0.10000004930E+02 0.  0.
         12    1    1    2    0    0  0.25217606737E+02 -0.37275643174E+02  0.19267008277E+01  0.45045681698E+02  0.00000000000E+00 0. -1.
         11    1    3    3    0    0 -0.11041792573E+01  0.10700022041E+01  0.15298442684E+01  0.21689952272E+01  0.51100000000E-03 0. -1.
        -11    1    3    3    0    0 -0.11247140248E+02  0.13621820763E+02  0.55568478820E+00  0.17673736179E+02  0.51100000000E-03 0.  1.
         12    1    3    3    0    0 -0.12866287232E+02  0.22583820206E+02 -0.40122298843E+01  0.26299586896E+02  0.00000000000E+00 0. -1.
</event>
<event>
 7    1  0.1381440E-008  0.4614232E+02  0.7816164E-02  0.1320468E+00
        -11   -1    0    0    0    0  0.00000000000E+00  0.00000000000E+00  0.45593999997E+02  0.45594000000E+02  0.51100000000E-03 0.  1.
         11   -1    0    0    0    0 -0.00000000000E+00 -0.00000000000E+00 -0.45593999997E+02  0.45594000000E+02  0.51100000000E-03 0. -1.
    9900012    2    1    2    0    0 -0.10161227761E+02 -0.40623267425E+02  0.16601606093E+02  0.46142315071E+02  0.99999754687E+01 0.  0.
         12    1    1    2    0    0  0.10161227761E+02  0.40623267425E+02 -0.16601606093E+02  0.45045684929E+02  0.00000000000E+00 0. -1.
         11    1    3    3    0    0 -0.18159931798E+01 -0.19897734660E+02  0.97627593989E+01  0.22238011314E+02  0.51100000000E-03 0. -1.
        -11    1    3    3    0    0 -0.84712511751E+01 -0.18062851533E+02  0.72087902272E+01  0.21213094040E+02  0.51100000000E-03 0.  1.
        -12    1    3    3    0    0  0.12601659412E+00 -0.26626812316E+01 -0.36994353298E+00  0.26912097170E+01  0.00000000000E+00 0.  1.
</event>
<event>
 7    1  0.1381440E-008  0.4614232E+02  0.7816164E-02  0.1320468E+00
        -11   -1    0    0    0    0  0.00000000000E+00  0.00000000000E+00  0.45593999997E+02  0.45594000000E+02  0.51100000000E-03 0.  1.
         11   -1    0    0    0    0 -0.00000000000E+00 -0.00000000000E+00 -0.45593999997E+02  0.45594000000E+02  0.51100000000E-03 0. -1.
    9900012    2    1    2    0    0  0.28991916082E+02  0.12398345623E+02  0.32169291607E+02  0.46142317690E+02  0.99999993544E+01 0.  0.
         12    1    1    2    0    0 -0.28991916082E+02 -0.12398345623E+02 -0.32169291607E+02  0.45045682310E+02  0.00000000000E+00 0. -1.
         11    1    3    3    0    0  0.22991325967E+02  0.72512669886E+01  0.26573861216E+02  0.35879688444E+02  0.51100000000E-03 0. -1.
        -11    1    3    3    0    0  0.36087838432E+01  0.10695353231E+01  0.16689369495E+01  0.41173507790E+01  0.51100000000E-03 0.  1.
         12    1    3    3    0    0  0.23918062710E+01  0.40775433113E+01  0.39264934417E+01  0.61452784673E+01  0.00000000000E+00 0. -1.
</event>
<event>
 7    1  0.1381440E-008  0.4614232E+02  0.7816164E-02  0.1320468E+00
        -11   -1    0    0    0    0  0.00000000000E+00  0.00000000000E+00  0.45593999997E+02  0.45594000000E+02  0.51100000000E-03 0.  1.
         11   -1    0    0    0    0 -0.00000000000E+00 -0.00000000000E+00 -0.45593999997E+02  0.45594000000E+02  0.51100000000E-03 0. -1.
    9900012    2    1    2    0    0  0.18476219372E+02  0.38184698678E+02  0.15154919005E+02  0.46142318015E+02  0.10000002320E+02 0.  0.
         12    1    1    2    0    0 -0.18476219372E+02 -0.38184698678E+02 -0.15154919005E+02  0.45045681985E+02  0.00000000000E+00 0. -1.
         11    1    3    3    0    0  0.38375071513E+01  0.52962377284E+01  0.39478190128E+01  0.76394941213E+01  0.51100000000E-03 0. -1.
        -11    1    3    3    0    0  0.10078779825E+02  0.27660106168E+02  0.11382753635E+02  0.31563117029E+02  0.51100000000E-03 0.  1.
         12    1    3    3    0    0  0.45599323961E+01  0.52283547812E+01 -0.17565364293E+00  0.69397068653E+01  0.00000000000E+00 0. -1.
</event>
<event>
 7    1  0.1381440E-008  0.4614232E+02  0.7816164E-02  0.1320468E+00
        -11   -1    0    0    0    0  0.00000000000E+00  0.00000000000E+00  0.45593999997E+02  0.45594000000E+02  0.51100000000E-03 0.  1.
         11   -1    0    0    0    0 -0.00000000000E+00 -0.00000000000E+00 -0.45593999997E+02  0.45594000000E+02  0.51100000000E-03 0. -1.
    9900012    2    1    2    0    0 -0.42821329213E+02 -0.10307938713E+02  0.94442462621E+01  0.46142316261E+02  0.99999863210E+01 0.  0.
         12    1    1    2    0    0  0.42821329213E+02  0.10307938713E+02 -0.94442462621E+01  0.45045683739E+02  0.00000000000E+00 0. -1.
         11    1    3    3    0    0 -0.16571601849E+02 -0.80483601121E+00  0.49767726693E+01  0.17321489985E+02  0.51100000000E-03 0. -1.
        -11    1    3    3    0    0 -0.13323869998E+02 -0.75616610015E+01  0.13230899147E+01  0.15377086720E+02  0.51100000000E-03 0.  1.
        -12    1    3    3    0    0 -0.12925857367E+02 -0.19414417002E+01  0.31443836781E+01  0.13443739556E+02  0.00000000000E+00 0.  1.
</event>
<event>
 7    1  0.1381440E-008  0.4614232E+02  0.7816164E-02  0.1320468E+00
        -11   -1    0    0    0    0  0.00000000000E+00  0.00000000000E+00  0.45593999997E+02  0.45594000000E+02  0.51100000000E-03 0. -1.
         11   -1    0    0    0    0 -0.00000000000E+00 -0.00000000000E+00 -0.45593999997E+02  0.45594000000E+02  0.51100000000E-03 0.  1.
    9900012    2    1    2    0    0  0.39883148351E+02  0.18477745621E+02 -0.98499209170E+01  0.46142317102E+02  0.99999939912E+01 0.  0.
         12    1    1    2    0    0 -0.39883148351E+02 -0.18477745621E+02  0.98499209170E+01  0.45045682898E+02  0.00000000000E+00 0. -1.
         11    1    3    3    0    0  0.30253737832E+01  0.11989366296E+01 -0.25134809075E+01  0.41119243795E+01  0.51100000000E-03 0. -1.
        -11    1    3    3    0    0  0.30645457865E+02  0.11019917736E+02 -0.57548141336E+01  0.33071143927E+02  0.51100000000E-03 0.  1.
         12    1    3    3    0    0  0.62123167032E+01  0.62588912557E+01 -0.15816258759E+01  0.89592487957E+01  0.00000000000E+00 0. -1.
</event>
<event>
 7    1  0.1381440E-008  0.4614232E+02  0.7816164E-02  0.1320468E+00
        -11   -1    0    0    0    0  0.00000000000E+00  0.00000000000E+00  0.45593999997E+02  0.45594000000E+02  0.51100000000E-03 0.  1.
         11   -1    0    0    0    0 -0.00000000000E+00 -0.00000000000E+00 -0.45593999997E+02  0.45594000000E+02  0.51100000000E-03 0. -1.
    9900012    2    1    2    0    0  0.19999147345E+02 -0.27435106904E+02  0.29605111160E+02  0.46142316609E+02  0.99999894910E+01 0.  0.
         12    1    1    2    0    0 -0.19999147345E+02  0.27435106904E+02 -0.29605111160E+02  0.45045683391E+02  0.00000000000E+00 0. -1.
         11    1    3    3    0    0  0.13048995296E+02 -0.11728872758E+02  0.18383500442E+02  0.25412513122E+02  0.51100000000E-03 0. -1.
        -11    1    3    3    0    0  0.59897417132E+01 -0.10372127798E+02  0.83047654384E+01  0.14574881478E+02  0.51100000000E-03 0.  1.
         12    1    3    3    0    0  0.96041033574E+00 -0.53341063481E+01  0.29168452801E+01  0.61549220087E+01  0.00000000000E+00 0. -1.
</event>
<event>
 7    1  0.1381440E-008  0.4614232E+02  0.7816164E-02  0.1320468E+00
        -11   -1    0    0    0    0  0.00000000000E+00  0.00000000000E+00  0.45593999997E+02  0.45594000000E+02  0.51100000000E-03 0.  1.
         11   -1    0    0    0    0 -0.00000000000E+00 -0.00000000000E+00 -0.45593999997E+02  0.45594000000E+02  0.51100000000E-03 0. -1.
    9900012    2    1    2    0    0 -0.30602098641E+02 -0.30479304842E+02  0.12792069235E+02  0.46142317630E+02  0.99999988042E+01 0.  0.
         12    1    1    2    0    0  0.30602098641E+02  0.30479304842E+02 -0.12792069235E+02  0.45045682370E+02  0.00000000000E+00 0. -1.
         11    1    3    3    0    0 -0.56005054242E+01 -0.39554212777E+01  0.58027333378E+01  0.89823567587E+01  0.51100000000E-03 0. -1.
        -11    1    3    3    0    0 -0.23423934065E+02 -0.25271135470E+02  0.62852643373E+01  0.35025926441E+02  0.51100000000E-03 0.  1.
         12    1    3    3    0    0 -0.15776591518E+01 -0.12527480939E+01  0.70407155996E+00  0.21340344298E+01  0.00000000000E+00 0. -1.
</event>
<event>
 7    1  0.1381440E-008  0.4614232E+02  0.7816164E-02  0.1320468E+00
        -11   -1    0    0    0    0  0.00000000000E+00  0.00000000000E+00  0.45593999997E+02  0.45594000000E+02  0.51100000000E-03 0.  1.
         11   -1    0    0    0    0 -0.00000000000E+00 -0.00000000000E+00 -0.45593999997E+02  0.45594000000E+02  0.51100000000E-03 0. -1.
    9900012    2    1    2    0    0  0.40953792265E+02 -0.84206697879E+01  0.16762836686E+02  0.46142317917E+02  0.10000001419E+02 0.  0.
         12    1    1    2    0    0 -0.40953792265E+02  0.84206697879E+01 -0.16762836686E+02  0.45045682083E+02  0.00000000000E+00 0. -1.
         11    1    3    3    0    0  0.26591950991E+02 -0.74862812893E+01  0.15423934177E+02  0.31639753646E+02  0.51100000000E-03 0.  1.
        -11    1    3    3    0    0  0.98617171450E+01 -0.87370623829E+00  0.42044329719E+00  0.99092684122E+01  0.51100000000E-03 0. -1.
         12    1    3    3    0    0  0.45001241296E+01 -0.60682260346E-01  0.91845921199E+00  0.45932958584E+01  0.00000000000E+00 0. -1.
</event>
<event>
 7    1  0.1381440E-008  0.4614232E+02  0.7816164E-02  0.1320468E+00
        -11   -1    0    0    0    0  0.00000000000E+00  0.00000000000E+00  0.45593999997E+02  0.45594000000E+02  0.51100000000E-03 0.  1.
         11   -1    0    0    0    0 -0.00000000000E+00 -0.00000000000E+00 -0.45593999997E+02  0.45594000000E+02  0.51100000000E-03 0. -1.
    9900012    2    1    2    0    0  0.29208899733E+01 -0.20896177017E+02  0.39798639307E+02  0.46142317601E+02  0.99999985384E+01 0.  0.
         12    1    1    2    0    0 -0.29208899733E+01  0.20896177017E+02 -0.39798639307E+02  0.45045682399E+02  0.00000000000E+00 0. -1.
         11    1    3    3    0    0  0.20410876351E+01 -0.57029363858E+01  0.54406622358E+01  0.81418872493E+01  0.51100000000E-03 0. -1.
        -11    1    3    3    0    0  0.24922760014E+01 -0.11584977341E+02  0.21507918816E+02  0.24556337506E+02  0.51100000000E-03 0.  1.
         12    1    3    3    0    0 -0.16124736633E+01 -0.36082632899E+01  0.12850058255E+02  0.13444092846E+02  0.00000000000E+00 0. -1.
</event>
<event>
 7    1  0.1381440E-008  0.4614232E+02  0.7816164E-02  0.1320468E+00
        -11   -1    0    0    0    0  0.00000000000E+00  0.00000000000E+00  0.45593999997E+02  0.45594000000E+02  0.51100000000E-03 0.  1.
         11   -1    0    0    0    0 -0.00000000000E+00 -0.00000000000E+00 -0.45593999997E+02  0.45594000000E+02  0.51100000000E-03 0. -1.
    9900012    2    1    2    0    0  0.41226836345E+02  0.77568610345E+01  0.16410133318E+02  0.46142318701E+02  0.10000008570E+02 0.  0.
         12    1    1    2    0    0 -0.41226836345E+02 -0.77568610345E+01 -0.16410133318E+02  0.45045681299E+02  0.00000000000E+00 0. -1.
         11    1    3    3    0    0  0.30739340569E+01 -0.31538807645E+00  0.42994324239E+01  0.52946822052E+01  0.51100000000E-03 0. -1.
        -11    1    3    3    0    0  0.12884973679E+02  0.32231180552E+01  0.41473884389E+01  0.13914448169E+02  0.51100000000E-03 0.  1.
         12    1    3    3    0    0  0.25267928609E+02  0.48491310558E+01  0.79633124555E+01  0.26933188327E+02  0.00000000000E+00 0. -1.
</event>
<event>
 7    1  0.1381440E-008  0.4614232E+02  0.7816164E-02  0.1320468E+00
        -11   -1    0    0    0    0  0.00000000000E+00  0.00000000000E+00  0.45593999997E+02  0.45594000000E+02  0.51100000000E-03 0. -1.
         11   -1    0    0    0    0 -0.00000000000E+00 -0.00000000000E+00 -0.45593999997E+02  0.45594000000E+02  0.51100000000E-03 0.  1.
    9900012    2    1    2    0    0 -0.10412363998E+02  0.80012592783E+01 -0.43089163567E+02  0.46142317732E+02  0.99999997322E+01 0.  0.
         12    1    1    2    0    0  0.10412363998E+02 -0.80012592783E+01  0.43089163567E+02  0.45045682268E+02  0.00000000000E+00 0. -1.
         11    1    3    3    0    0 -0.68091473674E+01  0.18460368485E+01 -0.27024607804E+02  0.27930301953E+02  0.51100000000E-03 0. -1.
        -11    1    3    3    0    0 -0.29471693717E+01  0.69165639979E+01 -0.13412967524E+02  0.15376357270E+02  0.51100000000E-03 0.  1.
         12    1    3    3    0    0 -0.65604725935E+00 -0.76134156808E+00 -0.26515882394E+01  0.28356585093E+01  0.00000000000E+00 0. -1.
</event>
<event>
 7    1  0.1381440E-008  0.4614232E+02  0.7816164E-02  0.1320468E+00
        -11   -1    0    0    0    0  0.00000000000E+00  0.00000000000E+00  0.45593999997E+02  0.45594000000E+02  0.51100000000E-03 0.  1.
         11   -1    0    0    0    0 -0.00000000000E+00 -0.00000000000E+00 -0.45593999997E+02  0.45594000000E+02  0.51100000000E-03 0. -1.
    9900012    2    1    2    0    0 -0.37566787866E+02 -0.77224417385E+01  0.23626549356E+02  0.46142317727E+02  0.99999996859E+01 0.  0.
         12    1    1    2    0    0  0.37566787866E+02  0.77224417385E+01 -0.23626549356E+02  0.45045682273E+02  0.00000000000E+00 0. -1.
         11    1    3    3    0    0 -0.28212686625E+01 -0.30717066851E+00  0.51650113758E+01  0.58933227859E+01  0.51100000000E-03 0. -1.
        -11    1    3    3    0    0 -0.27596135854E+02 -0.71364023351E+01  0.15969418956E+02  0.32672577101E+02  0.51100000000E-03 0.  1.
        -12    1    3    3    0    0 -0.71493833496E+01 -0.27886873489E+00  0.24921190244E+01  0.75764178397E+01  0.00000000000E+00 0.  1.
</event>
<event>
 7    1  0.1381440E-008  0.4614232E+02  0.7816164E-02  0.1320468E+00
        -11   -1    0    0    0    0  0.00000000000E+00  0.00000000000E+00  0.45593999997E+02  0.45594000000E+02  0.51100000000E-03 0. -1.
         11   -1    0    0    0    0 -0.00000000000E+00 -0.00000000000E+00 -0.45593999997E+02  0.45594000000E+02  0.51100000000E-03 0.  1.
    9900012    2    1    2    0    0  0.94353496205E+01  0.35961185088E+02 -0.25433851705E+02  0.46142317988E+02  0.10000002067E+02 0.  0.
         12    1    1    2    0    0 -0.94353496205E+01 -0.35961185088E+02  0.25433851705E+02  0.45045682012E+02  0.00000000000E+00 0. -1.
         11    1    3    3    0    0 -0.91170531470E+00  0.18879250134E+01  0.19591768911E+00  0.21056712562E+01  0.51100000000E-03 0. -1.
        -11    1    3    3    0    0  0.75599972449E+01  0.18494691129E+02 -0.13986567239E+02  0.24389161972E+02  0.51100000000E-03 0.  1.
         12    1    3    3    0    0  0.27870576903E+01  0.15578568946E+02 -0.11643202155E+02  0.19647484760E+02  0.00000000000E+00 0. -1.
</event>
<event>
 7    1  0.1381440E-008  0.4614232E+02  0.7816164E-02  0.1320468E+00
        -11   -1    0    0    0    0  0.00000000000E+00  0.00000000000E+00  0.45593999997E+02  0.45594000000E+02  0.51100000000E-03 0. -1.
         11   -1    0    0    0    0 -0.00000000000E+00 -0.00000000000E+00 -0.45593999997E+02  0.45594000000E+02  0.51100000000E-03 0.  1.
    9900012    2    1    2    0    0 -0.44591682716E+01 -0.38627848371E+02 -0.22740243299E+02  0.46142317446E+02  0.99999971257E+01 0.  0.
         12    1    1    2    0    0  0.44591682716E+01  0.38627848371E+02  0.22740243299E+02  0.45045682554E+02  0.00000000000E+00 0. -1.
         11    1    3    3    0    0 -0.56384737958E+01 -0.27615903082E+02 -0.18709161092E+02  0.33829915738E+02  0.51100000000E-03 0.  1.
        -11    1    3    3    0    0  0.11361081277E+01 -0.78527362686E+00 -0.21945918993E+00  0.13984130091E+01  0.51100000000E-03 0. -1.
        -12    1    3    3    0    0  0.43197396459E-01 -0.10226671662E+02 -0.38116230173E+01  0.10913988699E+02  0.00000000000E+00 0.  1.
</event>
<event>
 7    1  0.1381440E-008  0.4614232E+02  0.7816164E-02  0.1320468E+00
        -11   -1    0    0    0    0  0.00000000000E+00  0.00000000000E+00  0.45593999997E+02  0.45594000000E+02  0.51100000000E-03 0. -1.
         11   -1    0    0    0    0 -0.00000000000E+00 -0.00000000000E+00 -0.45593999997E+02  0.45594000000E+02  0.51100000000E-03 0.  1.
    9900012    2    1    2    0    0  0.22992853364E+02  0.26560662646E+02 -0.28195271887E+02  0.46142318045E+02  0.10000002587E+02 0.  0.
         12    1    1    2    0    0 -0.22992853364E+02 -0.26560662646E+02  0.28195271887E+02  0.45045681955E+02  0.00000000000E+00 0. -1.
         11    1    3    3    0    0  0.94316875689E+01  0.97478785391E+01 -0.70161324932E+01  0.15271017708E+02  0.51100000000E-03 0. -1.
        -11    1    3    3    0    0  0.80628757134E+01  0.11045333941E+02 -0.17172579000E+02  0.21952376555E+02  0.51100000000E-03 0.  1.
        -12    1    3    3    0    0  0.54982900821E+01  0.57674501655E+01 -0.40065603940E+01  0.89189237820E+01  0.00000000000E+00 0.  1.
</event>
<event>
 7    1  0.1381440E-008  0.4614232E+02  0.7816164E-02  0.1320468E+00
        -11   -1    0    0    0    0  0.00000000000E+00  0.00000000000E+00  0.45593999997E+02  0.45594000000E+02  0.51100000000E-03 0.  1.
         11   -1    0    0    0    0 -0.00000000000E+00 -0.00000000000E+00 -0.45593999997E+02  0.45594000000E+02  0.51100000000E-03 0. -1.
    9900012    2    1    2    0    0 -0.27667060141E+02 -0.14992084200E+02  0.32231734148E+02  0.46142317724E+02  0.99999996621E+01 0.  0.
         12    1    1    2    0    0  0.27667060141E+02  0.14992084200E+02 -0.32231734148E+02  0.45045682276E+02  0.00000000000E+00 0. -1.
         11    1    3    3    0    0  0.57614539276E+00  0.14217747811E+00  0.16851314000E+01  0.17865682314E+01  0.51100000000E-03 0. -1.
        -11    1    3    3    0    0 -0.55886085274E+01 -0.41656113951E+01  0.59817427196E+01  0.91851026010E+01  0.51100000000E-03 0.  1.
         12    1    3    3    0    0 -0.22654597006E+02 -0.10968650283E+02  0.24564860028E+02  0.35170646892E+02  0.00000000000E+00 0. -1.
</event>
<event>
 7    1  0.1381440E-008  0.4614232E+02  0.7816164E-02  0.1320468E+00
        -11   -1    0    0    0    0  0.00000000000E+00  0.00000000000E+00  0.45593999997E+02  0.45594000000E+02  0.51100000000E-03 0.  1.
         11   -1    0    0    0    0 -0.00000000000E+00 -0.00000000000E+00 -0.45593999997E+02  0.45594000000E+02  0.51100000000E-03 0. -1.
    9900012    2    1    2    0    0 -0.22313265993E+02  0.28476210382E+02  0.26839096098E+02  0.46142317894E+02  0.10000001214E+02 0.  0.
         12    1    1    2    0    0  0.22313265993E+02 -0.28476210382E+02 -0.26839096098E+02  0.45045682106E+02  0.00000000000E+00 0. -1.
         11    1    3    3    0    0 -0.14897081335E+02  0.22353953495E+02  0.21123849210E+02  0.34173663468E+02  0.51100000000E-03 0. -1.
        -11    1    3    3    0    0 -0.74688269978E+01  0.63280775940E+01  0.60963923217E+01  0.11532299960E+02  0.51100000000E-03 0.  1.
         12    1    3    3    0    0  0.52642339897E-01 -0.20582070663E+00 -0.38114543298E+00  0.43635446636E+00  0.00000000000E+00 0. -1.
</event>
<event>
 7    1  0.1381440E-008  0.4614231E+02  0.7816164E-02  0.1320468E+00
        -11   -1    0    0    0    0  0.00000000000E+00  0.00000000000E+00  0.45593999997E+02  0.45594000000E+02  0.51100000000E-03 0.  1.
         11   -1    0    0    0    0 -0.00000000000E+00 -0.00000000000E+00 -0.45593999997E+02  0.45594000000E+02  0.51100000000E-03 0. -1.
    9900012    2    1    2    0    0  0.27422177246E+02  0.28536937071E+02  0.21512364111E+02  0.46142307731E+02  0.99999085400E+01 0.  0.
         12    1    1    2    0    0 -0.27422177246E+02 -0.28536937071E+02 -0.21512364111E+02  0.45045692269E+02  0.00000000000E+00 0. -1.
         11    1    3    3    0    0  0.19732959084E+01  0.37088839677E+01  0.47372148026E+01  0.63317392062E+01  0.51100000000E-03 0. -1.
        -11    1    3    3    0    0  0.63589964856E+01  0.29907523919E+01  0.22986708550E+01  0.73936002147E+01  0.51100000000E-03 0.  1.
        -12    1    3    3    0    0  0.19089884852E+02  0.21837300711E+02  0.14476478454E+02  0.32416968310E+02  0.00000000000E+00 0.  1.
</event>
<event>
 7    1  0.1381440E-008  0.4614232E+02  0.7816164E-02  0.1320468E+00
        -11   -1    0    0    0    0  0.00000000000E+00  0.00000000000E+00  0.45593999997E+02  0.45594000000E+02  0.51100000000E-03 0.  1.
         11   -1    0    0    0    0 -0.00000000000E+00 -0.00000000000E+00 -0.45593999997E+02  0.45594000000E+02  0.51100000000E-03 0. -1.
    9900012    2    1    2    0    0 -0.16628741677E+02 -0.12704535368E+02  0.39889763697E+02  0.46142317449E+02  0.99999971517E+01 0.  0.
         12    1    1    2    0    0  0.16628741677E+02  0.12704535368E+02 -0.39889763697E+02  0.45045682551E+02  0.00000000000E+00 0. -1.
         11    1    3    3    0    0 -0.16734054473E+00 -0.19554115297E+01  0.56490917216E+01  0.59802905153E+01  0.51100000000E-03 0. -1.
        -11    1    3    3    0    0 -0.13665169070E+02 -0.85121679479E+01  0.21090726340E+02  0.26533235511E+02  0.51100000000E-03 0.  1.
        -12    1    3    3    0    0 -0.27962320620E+01 -0.22369558909E+01  0.13149945636E+02  0.13628791422E+02  0.00000000000E+00 0.  1.
</event>
<event>
 7    1  0.1381440E-008  0.4614232E+02  0.7816164E-02  0.1320468E+00
        -11   -1    0    0    0    0  0.00000000000E+00  0.00000000000E+00  0.45593999997E+02  0.45594000000E+02  0.51100000000E-03 0. -1.
         11   -1    0    0    0    0 -0.00000000000E+00 -0.00000000000E+00 -0.45593999997E+02  0.45594000000E+02  0.51100000000E-03 0.  1.
    9900012    2    1    2    0    0 -0.31723513086E+02  0.30987022989E+02 -0.79079984970E+01  0.46142319670E+02  0.10000017403E+02 0.  0.
         12    1    1    2    0    0  0.31723513086E+02 -0.30987022989E+02  0.79079984970E+01  0.45045680330E+02  0.00000000000E+00 0. -1.
         11    1    3    3    0    0 -0.22534946368E+02  0.24202566701E+02 -0.84917823322E+01  0.34142325787E+02  0.51100000000E-03 0. -1.
        -11    1    3    3    0    0 -0.77040408927E+01  0.53411619200E+01  0.18746702513E+01  0.95600546831E+01  0.51100000000E-03 0.  1.
        -12    1    3    3    0    0 -0.14845258253E+01  0.14432943675E+01 -0.12908864161E+01  0.24399391993E+01  0.00000000000E+00 0.  1.
</event>
<event>
 7    1  0.1381440E-008  0.4614232E+02  0.7816164E-02  0.1320468E+00
        -11   -1    0    0    0    0  0.00000000000E+00  0.00000000000E+00  0.45593999997E+02  0.45594000000E+02  0.51100000000E-03 0.  1.
         11   -1    0    0    0    0 -0.00000000000E+00 -0.00000000000E+00 -0.45593999997E+02  0.45594000000E+02  0.51100000000E-03 0. -1.
    9900012    2    1    2    0    0 -0.30902979717E+02  0.31218798318E+02  0.99752589497E+01  0.46142319686E+02  0.10000017555E+02 0.  0.
         12    1    1    2    0    0  0.30902979717E+02 -0.31218798318E+02 -0.99752589497E+01  0.45045680314E+02  0.00000000000E+00 0. -1.
         11    1    3    3    0    0 -0.25267482366E+01  0.11336026140E+01  0.26546714717E+01  0.38362471794E+01  0.51100000000E-03 0. -1.
        -11    1    3    3    0    0 -0.14333596826E+02  0.13954320857E+02  0.59715053911E+01  0.20876636354E+02  0.51100000000E-03 0.  1.
         12    1    3    3    0    0 -0.14042634655E+02  0.16130874846E+02  0.13490820869E+01  0.21429436153E+02  0.00000000000E+00 0. -1.
</event>
<event>
 7    1  0.1381440E-008  0.4614232E+02  0.7816164E-02  0.1320468E+00
        -11   -1    0    0    0    0  0.00000000000E+00  0.00000000000E+00  0.45593999997E+02  0.45594000000E+02  0.51100000000E-03 0. -1.
         11   -1    0    0    0    0 -0.00000000000E+00 -0.00000000000E+00 -0.45593999997E+02  0.45594000000E+02  0.51100000000E-03 0.  1.
    9900012    2    1    2    0    0  0.13196702835E+02 -0.16453933410E+02 -0.39802369677E+02  0.46142317384E+02  0.99999965628E+01 0.  0.
         12    1    1    2    0    0 -0.13196702835E+02  0.16453933410E+02  0.39802369677E+02  0.45045682616E+02  0.00000000000E+00 0. -1.
         11    1    3    3    0    0 -0.38114068296E+00  0.24507034991E+00 -0.44633194468E+00  0.63603471806E+00  0.51100000000E-03 0. -1.
        -11    1    3    3    0    0  0.68571513969E+01 -0.75962287732E+01 -0.26349013559E+02  0.28266477188E+02  0.51100000000E-03 0.  1.
         12    1    3    3    0    0  0.67206921214E+01 -0.91027749868E+01 -0.13007024174E+02  0.17239805478E+02  0.00000000000E+00 0. -1.
</event>
<event>
 7    1  0.1381440E-008  0.4614232E+02  0.7816164E-02  0.1320468E+00
        -11   -1    0    0    0    0  0.00000000000E+00  0.00000000000E+00  0.45593999997E+02  0.45594000000E+02  0.51100000000E-03 0.  1.
         11   -1    0    0    0    0 -0.00000000000E+00 -0.00000000000E+00 -0.45593999997E+02  0.45594000000E+02  0.51100000000E-03 0. -1.
    9900012    2    1    2    0    0  0.50660713005E+01  0.93064797400E+01  0.43781703681E+02  0.46142320731E+02  0.10000027085E+02 0.  0.
         12    1    1    2    0    0 -0.50660713005E+01 -0.93064797400E+01 -0.43781703681E+02  0.45045679269E+02  0.00000000000E+00 0. -1.
         11    1    3    3    0    0  0.48568297177E+01  0.79281555657E+00  0.10184072895E+02  0.11310733505E+02  0.51100000000E-03 0.  1.
        -11    1    3    3    0    0 -0.73402810738E-01  0.74111773072E+01  0.22805579348E+02  0.23979686960E+02  0.51100000000E-03 0. -1.
        -12    1    3    3    0    0  0.28264439360E+00  0.11024868763E+01  0.10792051438E+02  0.10851900267E+02  0.00000000000E+00 0.  1.
</event>
<event>
 7    1  0.1381440E-008  0.4614232E+02  0.7816164E-02  0.1320468E+00
        -11   -1    0    0    0    0  0.00000000000E+00  0.00000000000E+00  0.45593999997E+02  0.45594000000E+02  0.51100000000E-03 0. -1.
         11   -1    0    0    0    0 -0.00000000000E+00 -0.00000000000E+00 -0.45593999997E+02  0.45594000000E+02  0.51100000000E-03 0.  1.
    9900012    2    1    2    0    0  0.45129447108E+00 -0.44823019240E+02 -0.44504545492E+01  0.46142320227E+02  0.10000022487E+02 0.  0.
         12    1    1    2    0    0 -0.45129447108E+00  0.44823019240E+02  0.44504545492E+01  0.45045679773E+02  0.00000000000E+00 0. -1.
         11    1    3    3    0    0  0.17801919252E+01 -0.15085758706E+02  0.14679651387E+01  0.15261196576E+02  0.51100000000E-03 0. -1.
        -11    1    3    3    0    0  0.20458043444E+01 -0.16509736182E+02 -0.26724873576E+01  0.16849299486E+02  0.51100000000E-03 0.  1.
        -12    1    3    3    0    0 -0.33747017985E+01 -0.13227524352E+02 -0.32459323303E+01  0.14031824165E+02  0.00000000000E+00 0.  1.
</event>
<event>
 7    1  0.1381440E-008  0.4614231E+02  0.7816164E-02  0.1320468E+00
        -11   -1    0    0    0    0  0.00000000000E+00  0.00000000000E+00  0.45593999997E+02  0.45594000000E+02  0.51100000000E-03 0.  1.
         11   -1    0    0    0    0 -0.00000000000E+00 -0.00000000000E+00 -0.45593999997E+02  0.45594000000E+02  0.51100000000E-03 0. -1.
    9900012    2    1    2    0    0 -0.29139848073E+02 -0.52623394956E+01  0.33945411844E+02  0.46142312659E+02  0.99999534775E+01 0.  0.
         12    1    1    2    0    0  0.29139848073E+02  0.52623394956E+01 -0.33945411844E+02  0.45045687341E+02  0.00000000000E+00 0. -1.
         11    1    3    3    0    0 -0.21219407833E+01 -0.34882041670E+01  0.43586782419E+01  0.59722924641E+01  0.51100000000E-03 0. -1.
        -11    1    3    3    0    0 -0.13662232419E+02  0.22601638592E+00  0.15132475282E+02  0.20388709780E+02  0.51100000000E-03 0.  1.
         12    1    3    3    0    0 -0.13355674871E+02 -0.20001517146E+01  0.14454258321E+02  0.19781310415E+02  0.00000000000E+00 0. -1.
</event>
<event>
 7    1  0.1381440E-008  0.4614232E+02  0.7816164E-02  0.1320468E+00
        -11   -1    0    0    0    0  0.00000000000E+00  0.00000000000E+00  0.45593999997E+02  0.45594000000E+02  0.51100000000E-03 0.  1.
         11   -1    0    0    0    0 -0.00000000000E+00 -0.00000000000E+00 -0.45593999997E+02  0.45594000000E+02  0.51100000000E-03 0. -1.
    9900012    2    1    2    0    0 -0.87317088994E+01  0.34352372816E+02  0.27799014924E+02  0.46142317753E+02  0.99999999245E+01 0.  0.
         12    1    1    2    0    0  0.87317088994E+01 -0.34352372816E+02 -0.27799014924E+02  0.45045682247E+02  0.00000000000E+00 0. -1.
         11    1    3    3    0    0 -0.33106581997E+00  0.11298648092E+02  0.49854606528E+01  0.12354103426E+02  0.51100000000E-03 0. -1.
        -11    1    3    3    0    0 -0.31911502070E+01  0.11490327270E+02  0.83855037282E+01  0.14578330955E+02  0.51100000000E-03 0.  1.
         12    1    3    3    0    0 -0.52094928725E+01  0.11563397454E+02  0.14428050543E+02  0.19209883371E+02  0.00000000000E+00 0. -1.
</event>
<event>
 7    1  0.1381440E-008  0.4614232E+02  0.7816164E-02  0.1320468E+00
        -11   -1    0    0    0    0  0.00000000000E+00  0.00000000000E+00  0.45593999997E+02  0.45594000000E+02  0.51100000000E-03 0.  1.
         11   -1    0    0    0    0 -0.00000000000E+00 -0.00000000000E+00 -0.45593999997E+02  0.45594000000E+02  0.51100000000E-03 0. -1.
    9900012    2    1    2    0    0 -0.57316680376E+01  0.28805706267E+02  0.34153957367E+02  0.46142317234E+02  0.99999951909E+01 0.  0.
         12    1    1    2    0    0  0.57316680376E+01 -0.28805706267E+02 -0.34153957367E+02  0.45045682766E+02  0.00000000000E+00 0. -1.
         11    1    3    3    0    0  0.11787323353E+01  0.10512339684E+02  0.10157625834E+02  0.14665471639E+02  0.51100000000E-03 0. -1.
        -11    1    3    3    0    0 -0.54703672269E+01  0.67487888382E+01  0.11349702422E+02  0.14292893818E+02  0.51100000000E-03 0.  1.
        -12    1    3    3    0    0 -0.14400331460E+01  0.11544577745E+02  0.12646629111E+02  0.17183951776E+02  0.00000000000E+00 0.  1.
</event>
<event>
 7    1  0.1381440E-008  0.4614232E+02  0.7816164E-02  0.1320468E+00
        -11   -1    0    0    0    0  0.00000000000E+00  0.00000000000E+00  0.45593999997E+02  0.45594000000E+02  0.51100000000E-03 0.  1.
         11   -1    0    0    0    0 -0.00000000000E+00 -0.00000000000E+00 -0.45593999997E+02  0.45594000000E+02  0.51100000000E-03 0. -1.
    9900012    2    1    2    0    0 -0.24354189983E+02 -0.30849101472E+02  0.22007268142E+02  0.46142317827E+02  0.10000000603E+02 0.  0.
         12    1    1    2    0    0  0.24354189983E+02  0.30849101472E+02 -0.22007268142E+02  0.45045682173E+02  0.00000000000E+00 0. -1.
         11    1    3    3    0    0 -0.59011517030E+01 -0.54866443698E+01  0.26616853320E+01  0.84859546858E+01  0.51100000000E-03 0. -1.
        -11    1    3    3    0    0 -0.71077514571E+01 -0.15038497026E+02  0.73578718249E+01  0.18188314975E+02  0.51100000000E-03 0.  1.
        -12    1    3    3    0    0 -0.11345286823E+02 -0.10323960076E+02  0.11987710985E+02  0.19468048166E+02  0.00000000000E+00 0.  1.
</event>
<event>
 7    1  0.1381440E-008  0.4614232E+02  0.7816164E-02  0.1320468E+00
        -11   -1    0    0    0    0  0.00000000000E+00  0.00000000000E+00  0.45593999997E+02  0.45594000000E+02  0.51100000000E-03 0. -1.
         11   -1    0    0    0    0 -0.00000000000E+00 -0.00000000000E+00 -0.45593999997E+02  0.45594000000E+02  0.51100000000E-03 0.  1.
    9900012    2    1    2    0    0 -0.42242139027E+02 -0.13166113430E+02 -0.84479970785E+01  0.46142317553E+02  0.99999981068E+01 0.  0.
         12    1    1    2    0    0  0.42242139027E+02  0.13166113430E+02  0.84479970785E+01  0.45045682447E+02  0.00000000000E+00 0. -1.
         11    1    3    3    0    0 -0.69845145297E+01 -0.16246434254E+01 -0.31431637571E+01  0.78295841614E+01  0.51100000000E-03 0. -1.
        -11    1    3    3    0    0 -0.17249392887E+02 -0.98261466387E+01 -0.29787548427E+01  0.20074055231E+02  0.51100000000E-03 0.  1.
        -12    1    3    3    0    0 -0.18008231611E+02 -0.17153233662E+01 -0.23260784786E+01  0.18238678162E+02  0.00000000000E+00 0.  1.
</event>
<event>
 7    1  0.1381440E-008  0.4614232E+02  0.7816164E-02  0.1320468E+00
        -11   -1    0    0    0    0  0.00000000000E+00  0.00000000000E+00  0.45593999997E+02  0.45594000000E+02  0.51100000000E-03 0.  1.
         11   -1    0    0    0    0 -0.00000000000E+00 -0.00000000000E+00 -0.45593999997E+02  0.45594000000E+02  0.51100000000E-03 0. -1.
    9900012    2    1    2    0    0 -0.15990624520E+02 -0.15118378553E+02  0.39304554209E+02  0.46142318474E+02  0.10000006499E+02 0.  0.
         12    1    1    2    0    0  0.15990624520E+02  0.15118378553E+02 -0.39304554209E+02  0.45045681526E+02  0.00000000000E+00 0. -1.
         11    1    3    3    0    0 -0.47244225955E+01 -0.95304242685E+01  0.17641733475E+02  0.20600483389E+02  0.51100000000E-03 0. -1.
        -11    1    3    3    0    0 -0.63795436792E+01 -0.56501687060E+01  0.12061288507E+02  0.14768130033E+02  0.51100000000E-03 0.  1.
         12    1    3    3    0    0 -0.48866582456E+01  0.62214421575E-01  0.96015322272E+01  0.10773705052E+02  0.00000000000E+00 0. -1.
</event>
<event>
 7    1  0.1381440E-008  0.4614232E+02  0.7816164E-02  0.1320468E+00
        -11   -1    0    0    0    0  0.00000000000E+00  0.00000000000E+00  0.45593999997E+02  0.45594000000E+02  0.51100000000E-03 0.  1.
         11   -1    0    0    0    0 -0.00000000000E+00 -0.00000000000E+00 -0.45593999997E+02  0.45594000000E+02  0.51100000000E-03 0. -1.
    9900012    2    1    2    0    0 -0.42626367480E+02 -0.18927600316E+01  0.14440350610E+02  0.46142317956E+02  0.10000001777E+02 0.  0.
         12    1    1    2    0    0  0.42626367480E+02  0.18927600316E+01 -0.14440350610E+02  0.45045682044E+02  0.00000000000E+00 0. -1.
         11    1    3    3    0    0 -0.23913568509E+01  0.15690033630E+01  0.66938649226E+00  0.29374202421E+01  0.51100000000E-03 0. -1.
        -11    1    3    3    0    0 -0.37206573943E+02 -0.50153297278E+01  0.12443634938E+02  0.39551570482E+02  0.51100000000E-03 0.  1.
        -12    1    3    3    0    0 -0.30284366860E+01  0.15535663332E+01  0.13273291799E+01  0.36533272320E+01  0.00000000000E+00 0.  1.
</event>
<event>
 7    1  0.1381440E-008  0.4614232E+02  0.7816164E-02  0.1320468E+00
        -11   -1    0    0    0    0  0.00000000000E+00  0.00000000000E+00  0.45593999997E+02  0.45594000000E+02  0.51100000000E-03 0.  1.
         11   -1    0    0    0    0 -0.00000000000E+00 -0.00000000000E+00 -0.45593999997E+02  0.45594000000E+02  0.51100000000E-03 0. -1.
    9900012    2    1    2    0    0  0.47880570341E+01  0.37666350223E+02  0.24237036266E+02  0.46142319227E+02  0.10000013368E+02 0.  0.
         12    1    1    2    0    0 -0.47880570341E+01 -0.37666350223E+02 -0.24237036266E+02  0.45045680773E+02  0.00000000000E+00 0. -1.
         11    1    3    3    0    0 -0.85678535325E+00  0.76705098790E+01  0.36377606780E+01  0.85325322124E+01  0.51100000000E-03 0. -1.
        -11    1    3    3    0    0 -0.13602543689E+01  0.79770020961E+01  0.75813464541E+01  0.11088718082E+02  0.51100000000E-03 0.  1.
         12    1    3    3    0    0  0.70050967562E+01  0.22018838248E+02  0.13017929134E+02  0.26521068932E+02  0.00000000000E+00 0. -1.
</event>
<event>
 7    1  0.1381440E-008  0.4614232E+02  0.7816164E-02  0.1320468E+00
        -11   -1    0    0    0    0  0.00000000000E+00  0.00000000000E+00  0.45593999997E+02  0.45594000000E+02  0.51100000000E-03 0.  1.
         11   -1    0    0    0    0 -0.00000000000E+00 -0.00000000000E+00 -0.45593999997E+02  0.45594000000E+02  0.51100000000E-03 0. -1.
    9900012    2    1    2    0    0 -0.65947177565E+00 -0.13403168076E+02  0.43000390869E+02  0.46142318382E+02  0.10000005665E+02 0.  0.
         12    1    1    2    0    0  0.65947177565E+00  0.13403168076E+02 -0.43000390869E+02  0.45045681618E+02  0.00000000000E+00 0. -1.
         11    1    3    3    0    0  0.11359209001E+01 -0.78398455463E+00  0.67748865370E+00  0.15375107188E+01  0.51100000000E-03 0. -1.
        -11    1    3    3    0    0  0.42463789783E+00 -0.27922860246E+01  0.18861750322E+02  0.19072042472E+02  0.51100000000E-03 0.  1.
        -12    1    3    3    0    0 -0.22200305736E+01 -0.98268974967E+01  0.23461151894E+02  0.25532765192E+02  0.00000000000E+00 0.  1.
</event>
<event>
 7    1  0.1381440E-008  0.4614232E+02  0.7816164E-02  0.1320468E+00
        -11   -1    0    0    0    0  0.00000000000E+00  0.00000000000E+00  0.45593999997E+02  0.45594000000E+02  0.51100000000E-03 0. -1.
         11   -1    0    0    0    0 -0.00000000000E+00 -0.00000000000E+00 -0.45593999997E+02  0.45594000000E+02  0.51100000000E-03 0.  1.
    9900012    2    1    2    0    0 -0.92584955823E+00  0.44432362117E+02 -0.73499220876E+01  0.46142319237E+02  0.10000013458E+02 0.  0.
         12    1    1    2    0    0  0.92584955823E+00 -0.44432362117E+02  0.73499220876E+01  0.45045680763E+02  0.00000000000E+00 0. -1.
         11    1    3    3    0    0 -0.94553733667E+00  0.55300323676E+01  0.37940216950E+00  0.56230992441E+01  0.51100000000E-03 0. -1.
        -11    1    3    3    0    0  0.15719809012E+00  0.39131640570E+02 -0.81963008934E+01  0.39981112460E+02  0.51100000000E-03 0.  1.
        -12    1    3    3    0    0 -0.13751031168E+00 -0.22931082045E+00  0.46697663622E+00  0.53810753291E+00  0.00000000000E+00 0.  1.
</event>
<event>
 7    1  0.1381440E-008  0.4614232E+02  0.7816164E-02  0.1320468E+00
        -11   -1    0    0    0    0  0.00000000000E+00  0.00000000000E+00  0.45593999997E+02  0.45594000000E+02  0.51100000000E-03 0.  1.
         11   -1    0    0    0    0 -0.00000000000E+00 -0.00000000000E+00 -0.45593999997E+02  0.45594000000E+02  0.51100000000E-03 0. -1.
    9900012    2    1    2    0    0  0.20594178654E+02 -0.28213856630E+02  0.28442426193E+02  0.46142317542E+02  0.99999980013E+01 0.  0.
         12    1    1    2    0    0 -0.20594178654E+02  0.28213856630E+02 -0.28442426193E+02  0.45045682458E+02  0.00000000000E+00 0. -1.
         11    1    3    3    0    0  0.94567414665E+01 -0.12570833276E+02  0.87709282583E+01  0.18010691025E+02  0.51100000000E-03 0. -1.
        -11    1    3    3    0    0  0.95012287689E+01 -0.15154323844E+02  0.15665168113E+02  0.23776550876E+02  0.51100000000E-03 0.  1.
         12    1    3    3    0    0  0.16362084184E+01 -0.48869951025E+00  0.40063298222E+01  0.43550756416E+01  0.00000000000E+00 0. -1.
</event>
<event>
 7    1  0.1381440E-008  0.4614232E+02  0.7816164E-02  0.1320468E+00
        -11   -1    0    0    0    0  0.00000000000E+00  0.00000000000E+00  0.45593999997E+02  0.45594000000E+02  0.51100000000E-03 0. -1.
         11   -1    0    0    0    0 -0.00000000000E+00 -0.00000000000E+00 -0.45593999997E+02  0.45594000000E+02  0.51100000000E-03 0.  1.
    9900012    2    1    2    0    0  0.36714577367E+02 -0.22343622819E+01 -0.26003095201E+02  0.46142317343E+02  0.99999961830E+01 0.  0.
         12    1    1    2    0    0 -0.36714577367E+02  0.22343622819E+01  0.26003095201E+02  0.45045682657E+02  0.00000000000E+00 0. -1.
         11    1    3    3    0    0 -0.22064092083E+00  0.46616545240E+00 -0.50084337053E+00  0.71891375552E+00  0.51100000000E-03 0. -1.
        -11    1    3    3    0    0  0.17841265754E+02 -0.30769686449E+01 -0.15665247385E+02  0.23941146081E+02  0.51100000000E-03 0.  1.
         12    1    3    3    0    0  0.19093952533E+02  0.37644091062E+00 -0.98370044457E+01  0.21482257506E+02  0.00000000000E+00 0. -1.
</event>
<event>
 7    1  0.1381440E-008  0.4614232E+02  0.7816164E-02  0.1320468E+00
        -11   -1    0    0    0    0  0.00000000000E+00  0.00000000000E+00  0.45593999997E+02  0.45594000000E+02  0.51100000000E-03 0.  1.
         11   -1    0    0    0    0 -0.00000000000E+00 -0.00000000000E+00 -0.45593999997E+02  0.45594000000E+02  0.51100000000E-03 0. -1.
    9900012    2    1    2    0    0  0.58593477022E+01 -0.45209357095E+01  0.44433577639E+02  0.46142316111E+02  0.99999849546E+01 0.  0.
         12    1    1    2    0    0 -0.58593477022E+01  0.45209357095E+01 -0.44433577639E+02  0.45045683889E+02  0.00000000000E+00 0. -1.
         11    1    3    3    0    0 -0.43071145317E+00  0.62312421335E+00  0.74849042653E-01  0.76118248893E+00  0.51100000000E-03 0. -1.
        -11    1    3    3    0    0  0.57622380380E+01 -0.61508790223E+01  0.38257112567E+02  0.39174524403E+02  0.51100000000E-03 0.  1.
         12    1    3    3    0    0  0.52782111740E+00  0.10068190994E+01  0.61016160296E+01  0.62066092195E+01  0.00000000000E+00 0. -1.
</event>
<event>
 7    1  0.1381440E-008  0.4614232E+02  0.7816164E-02  0.1320468E+00
        -11   -1    0    0    0    0  0.00000000000E+00  0.00000000000E+00  0.45593999997E+02  0.45594000000E+02  0.51100000000E-03 0.  1.
         11   -1    0    0    0    0 -0.00000000000E+00 -0.00000000000E+00 -0.45593999997E+02  0.45594000000E+02  0.51100000000E-03 0. -1.
    9900012    2    1    2    0    0  0.10030359865E+01 -0.12915960639E+02  0.43142616245E+02  0.46142318110E+02  0.10000003186E+02 0.  0.
         12    1    1    2    0    0 -0.10030359865E+01  0.12915960639E+02 -0.43142616245E+02  0.45045681890E+02  0.00000000000E+00 0. -1.
         11    1    3    3    0    0  0.78659031370E+00 -0.89644686772E+01  0.31561846459E+02  0.32819667505E+02  0.51100000000E-03 0. -1.
        -11    1    3    3    0    0  0.83664913215E+00 -0.28598341568E+01  0.11688668432E+02  0.12062487436E+02  0.51100000000E-03 0.  1.
         12    1    3    3    0    0 -0.62020345934E+00 -0.10916578053E+01 -0.10789864596E+00  0.12601631691E+01  0.00000000000E+00 0. -1.
</event>
<event>
 7    1  0.1381440E-008  0.4614232E+02  0.7816164E-02  0.1320468E+00
        -11   -1    0    0    0    0  0.00000000000E+00  0.00000000000E+00  0.45593999997E+02  0.45594000000E+02  0.51100000000E-03 0.  1.
         11   -1    0    0    0    0 -0.00000000000E+00 -0.00000000000E+00 -0.45593999997E+02  0.45594000000E+02  0.51100000000E-03 0. -1.
    9900012    2    1    2    0    0 -0.55659806349E+01  0.76521616412E+01  0.44040637894E+02  0.46142317584E+02  0.99999983871E+01 0.  0.
         12    1    1    2    0    0  0.55659806349E+01 -0.76521616412E+01 -0.44040637894E+02  0.45045682416E+02  0.00000000000E+00 0. -1.
         11    1    3    3    0    0  0.11300220163E+01  0.37978101740E+00  0.17403299334E+02  0.17444082416E+02  0.51100000000E-03 0. -1.
        -11    1    3    3    0    0 -0.33424688081E+01  0.45383465931E+01  0.19968570294E+02  0.20748794842E+02  0.51100000000E-03 0.  1.
         12    1    3    3    0    0 -0.33535338431E+01  0.27340340307E+01  0.66687682656E+01  0.79494403260E+01  0.00000000000E+00 0. -1.
</event>
<event>
 7    1  0.1381440E-008  0.4614232E+02  0.7816164E-02  0.1320468E+00
        -11   -1    0    0    0    0  0.00000000000E+00  0.00000000000E+00  0.45593999997E+02  0.45594000000E+02  0.51100000000E-03 0.  1.
         11   -1    0    0    0    0 -0.00000000000E+00 -0.00000000000E+00 -0.45593999997E+02  0.45594000000E+02  0.51100000000E-03 0. -1.
    9900012    2    1    2    0    0  0.46346037568E+01 -0.15807958033E+02  0.41925439924E+02  0.46142316500E+02  0.99999885018E+01 0.  0.
         12    1    1    2    0    0 -0.46346037568E+01  0.15807958033E+02 -0.41925439924E+02  0.45045683500E+02  0.00000000000E+00 0. -1.
         11    1    3    3    0    0  0.37099818207E+01 -0.52347387995E+01  0.11116913516E+02  0.12835584202E+02  0.51100000000E-03 0. -1.
        -11    1    3    3    0    0 -0.48508039531E+00 -0.11064715778E+02  0.28265091238E+02  0.30357513423E+02  0.51100000000E-03 0.  1.
         12    1    3    3    0    0  0.14097023314E+01  0.49149654472E+00  0.25434351693E+01  0.29492188758E+01  0.00000000000E+00 0. -1.
</event>
<event>
 7    1  0.1381440E-008  0.4614232E+02  0.7816164E-02  0.1320468E+00
        -11   -1    0    0    0    0  0.00000000000E+00  0.00000000000E+00  0.45593999997E+02  0.45594000000E+02  0.51100000000E-03 0. -1.
         11   -1    0    0    0    0 -0.00000000000E+00 -0.00000000000E+00 -0.45593999997E+02  0.45594000000E+02  0.51100000000E-03 0.  1.
    9900012    2    1    2    0    0  0.71033628298E+01  0.23387055046E+02 -0.37837829207E+02  0.46142318449E+02  0.10000006276E+02 0.  0.
         12    1    1    2    0    0 -0.71033628298E+01 -0.23387055046E+02  0.37837829207E+02  0.45045681551E+02  0.00000000000E+00 0. -1.
         11    1    3    3    0    0  0.33009664167E+01  0.14253741481E+02 -0.16769593884E+02  0.22254995052E+02  0.51100000000E-03 0. -1.
        -11    1    3    3    0    0  0.43894850306E+01  0.35712638297E+01 -0.10982369472E+02  0.12354511065E+02  0.51100000000E-03 0.  1.
        -12    1    3    3    0    0 -0.58708861744E+00  0.55620497358E+01 -0.10085865852E+02  0.11532812332E+02  0.00000000000E+00 0.  1.
</event>
<event>
 7    1  0.1381440E-008  0.4614232E+02  0.7816164E-02  0.1320468E+00
        -11   -1    0    0    0    0  0.00000000000E+00  0.00000000000E+00  0.45593999997E+02  0.45594000000E+02  0.51100000000E-03 0.  1.
         11   -1    0    0    0    0 -0.00000000000E+00 -0.00000000000E+00 -0.45593999997E+02  0.45594000000E+02  0.51100000000E-03 0. -1.
    9900012    2    1    2    0    0 -0.31512782779E+02  0.32066860907E+02  0.27882683239E+01  0.46142317775E+02  0.10000000124E+02 0.  0.
         12    1    1    2    0    0  0.31512782779E+02 -0.32066860907E+02 -0.27882683239E+01  0.45045682225E+02  0.00000000000E+00 0. -1.
         11    1    3    3    0    0 -0.10815500001E+02  0.10645354602E+02 -0.80184892020E+00  0.15196762051E+02  0.51100000000E-03 0. -1.
        -11    1    3    3    0    0 -0.10646656254E+02  0.14529715822E+02 -0.69849468825E+00  0.18026420231E+02  0.51100000000E-03 0.  1.
         12    1    3    3    0    0 -0.10050626523E+02  0.68917904838E+01  0.42886119323E+01  0.12919135493E+02  0.00000000000E+00 0. -1.
</event>
<event>
 7    1  0.1381440E-008  0.4614232E+02  0.7816164E-02  0.1320468E+00
        -11   -1    0    0    0    0  0.00000000000E+00  0.00000000000E+00  0.45593999997E+02  0.45594000000E+02  0.51100000000E-03 0. -1.
         11   -1    0    0    0    0 -0.00000000000E+00 -0.00000000000E+00 -0.45593999997E+02  0.45594000000E+02  0.51100000000E-03 0.  1.
    9900012    2    1    2    0    0  0.49087865684E+01 -0.96448435754E+00 -0.44767024090E+02  0.46142324719E+02  0.10000063449E+02 0.  0.
         12    1    1    2    0    0 -0.49087865684E+01  0.96448435754E+00  0.44767024090E+02  0.45045675281E+02  0.00000000000E+00 0. -1.
         11    1    3    3    0    0  0.33039470470E+01  0.27793964717E-01 -0.98561996851E+01  0.10395263878E+02  0.51100000000E-03 0. -1.
        -11    1    3    3    0    0 -0.65285857069E+00 -0.38136823795E+01 -0.13931294672E+02  0.14458608823E+02  0.51100000000E-03 0.  1.
        -12    1    3    3    0    0  0.22576980920E+01  0.28214040573E+01 -0.20979529732E+02  0.21288452018E+02  0.00000000000E+00 0.  1.
</event>
<event>
 7    1  0.1381440E-008  0.4614232E+02  0.7816164E-02  0.1320468E+00
        -11   -1    0    0    0    0  0.00000000000E+00  0.00000000000E+00  0.45593999997E+02  0.45594000000E+02  0.51100000000E-03 0.  1.
         11   -1    0    0    0    0 -0.00000000000E+00 -0.00000000000E+00 -0.45593999997E+02  0.45594000000E+02  0.51100000000E-03 0. -1.
    9900012    2    1    2    0    0  0.13267364476E+02 -0.28199226269E+02  0.32525284648E+02  0.46142318035E+02  0.10000002494E+02 0.  0.
         12    1    1    2    0    0 -0.13267364476E+02  0.28199226269E+02 -0.32525284648E+02  0.45045681965E+02  0.00000000000E+00 0. -1.
         11    1    3    3    0    0 -0.99042430867E+00 -0.12534256104E+01  0.17494529148E+01  0.23690930404E+01  0.51100000000E-03 0.  1.
        -11    1    3    3    0    0  0.89126156436E+01 -0.11726464434E+02  0.17564576354E+02  0.22922893109E+02  0.51100000000E-03 0. -1.
        -12    1    3    3    0    0  0.53451731412E+01 -0.15219336225E+02  0.13211255378E+02  0.20850331885E+02  0.00000000000E+00 0.  1.
</event>
<event>
 7    1  0.1381440E-008  0.4614232E+02  0.7816164E-02  0.1320468E+00
        -11   -1    0    0    0    0  0.00000000000E+00  0.00000000000E+00  0.45593999997E+02  0.45594000000E+02  0.51100000000E-03 0.  1.
         11   -1    0    0    0    0 -0.00000000000E+00 -0.00000000000E+00 -0.45593999997E+02  0.45594000000E+02  0.51100000000E-03 0. -1.
    9900012    2    1    2    0    0  0.35737828691E+01  0.10989778206E+02  0.43538102740E+02  0.46142317197E+02  0.99999948564E+01 0.  0.
         12    1    1    2    0    0 -0.35737828691E+01 -0.10989778206E+02 -0.43538102740E+02  0.45045682803E+02  0.00000000000E+00 0. -1.
         11    1    3    3    0    0  0.24575875690E+00  0.17484283535E+01  0.18424206462E+01  0.25518450526E+01  0.51100000000E-03 0. -1.
        -11    1    3    3    0    0 -0.24526764673E+01  0.47687738569E+01  0.19388253446E+02  0.20116192430E+02  0.51100000000E-03 0.  1.
        -12    1    3    3    0    0  0.57807005794E+01  0.44725759953E+01  0.22307428648E+02  0.23474279714E+02  0.00000000000E+00 0.  1.
</event>
<event>
 7    1  0.1381440E-008  0.4614232E+02  0.7816164E-02  0.1320468E+00
        -11   -1    0    0    0    0  0.00000000000E+00  0.00000000000E+00  0.45593999997E+02  0.45594000000E+02  0.51100000000E-03 0.  1.
         11   -1    0    0    0    0 -0.00000000000E+00 -0.00000000000E+00 -0.45593999997E+02  0.45594000000E+02  0.51100000000E-03 0. -1.
    9900012    2    1    2    0    0  0.59581362366E+01  0.35457014838E+02  0.27136951971E+02  0.46142318177E+02  0.10000003791E+02 0.  0.
         12    1    1    2    0    0 -0.59581362366E+01 -0.35457014838E+02 -0.27136951971E+02  0.45045681823E+02  0.00000000000E+00 0. -1.
         11    1    3    3    0    0 -0.13951435240E+01  0.16628058398E+01  0.48902066898E+00  0.22249697052E+01  0.51100000000E-03 0. -1.
        -11    1    3    3    0    0  0.64925294549E+01  0.24021445197E+02  0.21235237852E+02  0.32712659551E+02  0.51100000000E-03 0.  1.
         12    1    3    3    0    0  0.86075030564E+00  0.97727638014E+01  0.54126934505E+01  0.11204688920E+02  0.00000000000E+00 0. -1.
</event>
<event>
 7    1  0.1381440E-008  0.4614232E+02  0.7816164E-02  0.1320468E+00
        -11   -1    0    0    0    0  0.00000000000E+00  0.00000000000E+00  0.45593999997E+02  0.45594000000E+02  0.51100000000E-03 0.  1.
         11   -1    0    0    0    0 -0.00000000000E+00 -0.00000000000E+00 -0.45593999997E+02  0.45594000000E+02  0.51100000000E-03 0. -1.
    9900012    2    1    2    0    0  0.15518802616E+02  0.22293018805E+01  0.42229262959E+02  0.46142315727E+02  0.99999814550E+01 0.  0.
         12    1    1    2    0    0 -0.15518802616E+02 -0.22293018805E+01 -0.42229262959E+02  0.45045684273E+02  0.00000000000E+00 0. -1.
         11    1    3    3    0    0  0.37184340254E+01  0.32737582803E+01  0.98242418508E+01  0.11002725712E+02  0.51100000000E-03 0. -1.
        -11    1    3    3    0    0  0.67059717573E+01  0.75518475767E+00  0.25467189155E+02  0.26346120871E+02  0.51100000000E-03 0.  1.
        -12    1    3    3    0    0  0.50943968331E+01 -0.17996411574E+01  0.69378319535E+01  0.87934691450E+01  0.00000000000E+00 0.  1.
</event>
<event>
 7    1  0.1381440E-008  0.4614232E+02  0.7816164E-02  0.1320468E+00
        -11   -1    0    0    0    0  0.00000000000E+00  0.00000000000E+00  0.45593999997E+02  0.45594000000E+02  0.51100000000E-03 0.  1.
         11   -1    0    0    0    0 -0.00000000000E+00 -0.00000000000E+00 -0.45593999997E+02  0.45594000000E+02  0.51100000000E-03 0. -1.
    9900012    2    1    2    0    0  0.24966916147E+02  0.32938488302E+02  0.17911520477E+02  0.46142317862E+02  0.10000000919E+02 0.  0.
         12    1    1    2    0    0 -0.24966916147E+02 -0.32938488302E+02 -0.17911520477E+02  0.45045682138E+02  0.00000000000E+00 0. -1.
         11    1    3    3    0    0  0.19218270819E+01  0.67724726616E+00  0.29874118733E+01  0.36161738280E+01  0.51100000000E-03 0. -1.
        -11    1    3    3    0    0  0.16095918064E+02  0.19521750403E+02  0.90706120548E+01  0.26878491781E+02  0.51100000000E-03 0.  1.
         12    1    3    3    0    0  0.69491710014E+01  0.12739490633E+02  0.58534965484E+01  0.15647652253E+02  0.00000000000E+00 0. -1.
</event>
<event>
 7    1  0.1381440E-008  0.4614232E+02  0.7816164E-02  0.1320468E+00
        -11   -1    0    0    0    0  0.00000000000E+00  0.00000000000E+00  0.45593999997E+02  0.45594000000E+02  0.51100000000E-03 0.  1.
         11   -1    0    0    0    0 -0.00000000000E+00 -0.00000000000E+00 -0.45593999997E+02  0.45594000000E+02  0.51100000000E-03 0. -1.
    9900012    2    1    2    0    0  0.35221184377E+02 -0.37453642594E+01  0.27830807793E+02  0.46142318245E+02  0.10000004413E+02 0.  0.
         12    1    1    2    0    0 -0.35221184377E+02  0.37453642594E+01 -0.27830807793E+02  0.45045681755E+02  0.00000000000E+00 0. -1.
         11    1    3    3    0    0  0.16374209650E+02 -0.17328362388E+01  0.85085800884E+01  0.18534114451E+02  0.51100000000E-03 0. -1.
        -11    1    3    3    0    0  0.63396782428E+01  0.15153320233E+00  0.10071972359E+02  0.11902063267E+02  0.51100000000E-03 0.  1.
        -12    1    3    3    0    0  0.12507296484E+02 -0.21640612230E+01  0.92502553455E+01  0.15706140528E+02  0.00000000000E+00 0.  1.
</event>
<event>
 7    1  0.1381440E-008  0.4614232E+02  0.7816164E-02  0.1320468E+00
        -11   -1    0    0    0    0  0.00000000000E+00  0.00000000000E+00  0.45593999997E+02  0.45594000000E+02  0.51100000000E-03 0.  1.
         11   -1    0    0    0    0 -0.00000000000E+00 -0.00000000000E+00 -0.45593999997E+02  0.45594000000E+02  0.51100000000E-03 0. -1.
    9900012    2    1    2    0    0  0.29550839639E+02 -0.23260575643E+02  0.24795300689E+02  0.46142318311E+02  0.10000005011E+02 0.  0.
         12    1    1    2    0    0 -0.29550839639E+02  0.23260575643E+02 -0.24795300689E+02  0.45045681689E+02  0.00000000000E+00 0. -1.
         11    1    3    3    0    0  0.26056437569E+01 -0.49375253596E+01  0.16031986612E+01  0.58085094708E+01  0.51100000000E-03 0. -1.
        -11    1    3    3    0    0  0.18746630277E+02 -0.97764750307E+01  0.15410441569E+02  0.26162899694E+02  0.51100000000E-03 0.  1.
         12    1    3    3    0    0  0.81985656046E+01 -0.85465752529E+01  0.77816604586E+01  0.14170909146E+02  0.00000000000E+00 0. -1.
</event>
<event>
 7    1  0.1381440E-008  0.4614232E+02  0.7816164E-02  0.1320468E+00
        -11   -1    0    0    0    0  0.00000000000E+00  0.00000000000E+00  0.45593999997E+02  0.45594000000E+02  0.51100000000E-03 0. -1.
         11   -1    0    0    0    0 -0.00000000000E+00 -0.00000000000E+00 -0.45593999997E+02  0.45594000000E+02  0.51100000000E-03 0.  1.
    9900012    2    1    2    0    0  0.41523226902E+02 -0.17388918264E+02  0.16001856466E+01  0.46142318244E+02  0.10000004408E+02 0.  0.
         12    1    1    2    0    0 -0.41523226902E+02  0.17388918264E+02 -0.16001856466E+01  0.45045681756E+02  0.00000000000E+00 0. -1.
         11    1    3    3    0    0  0.10378743254E+02 -0.51233811836E+01 -0.10835076125E+01  0.11625030550E+02  0.51100000000E-03 0. -1.
        -11    1    3    3    0    0  0.15107104119E+02 -0.28553770824E+01  0.39689223881E+01  0.15878605680E+02  0.51100000000E-03 0.  1.
        -12    1    3    3    0    0  0.16037379529E+02 -0.94101599975E+01 -0.12852291290E+01  0.18638682015E+02  0.00000000000E+00 0.  1.
</event>
<event>
 7    1  0.1381440E-008  0.4614232E+02  0.7816164E-02  0.1320468E+00
        -11   -1    0    0    0    0  0.00000000000E+00  0.00000000000E+00  0.45593999997E+02  0.45594000000E+02  0.51100000000E-03 0. -1.
         11   -1    0    0    0    0 -0.00000000000E+00 -0.00000000000E+00 -0.45593999997E+02  0.45594000000E+02  0.51100000000E-03 0.  1.
    9900012    2    1    2    0    0  0.41480705075E+02 -0.15883659896E+02  0.74949299165E+01  0.46142317413E+02  0.99999968290E+01 0.  0.
         12    1    1    2    0    0 -0.41480705075E+02  0.15883659896E+02 -0.74949299165E+01  0.45045682587E+02  0.00000000000E+00 0. -1.
         11    1    3    3    0    0  0.28035162661E+02 -0.13030132154E+02  0.13707747397E+01  0.30945657418E+02  0.51100000000E-03 0.  1.
        -11    1    3    3    0    0  0.50663713089E+01 -0.19770288538E+01  0.30010818080E+01  0.62115419670E+01  0.51100000000E-03 0. -1.
        -12    1    3    3    0    0  0.83791711059E+01 -0.87649888782E+00  0.31230733689E+01  0.89851180287E+01  0.00000000000E+00 0.  1.
</event>
<event>
 7    1  0.1381440E-008  0.4614232E+02  0.7816164E-02  0.1320468E+00
        -11   -1    0    0    0    0  0.00000000000E+00  0.00000000000E+00  0.45593999997E+02  0.45594000000E+02  0.51100000000E-03 0. -1.
         11   -1    0    0    0    0 -0.00000000000E+00 -0.00000000000E+00 -0.45593999997E+02  0.45594000000E+02  0.51100000000E-03 0.  1.
    9900012    2    1    2    0    0 -0.35501643103E+02  0.27725258339E+02 -0.23857996368E+00  0.46142317262E+02  0.99999954456E+01 0.  0.
         12    1    1    2    0    0  0.35501643103E+02 -0.27725258339E+02  0.23857996368E+00  0.45045682738E+02  0.00000000000E+00 0. -1.
         11    1    3    3    0    0 -0.79688803944E+01  0.23675210915E+01 -0.21298162603E+00  0.83158626909E+01  0.51100000000E-03 0. -1.
        -11    1    3    3    0    0 -0.11887800256E+02  0.11019322343E+02 -0.27147594166E+01  0.16435181130E+02  0.51100000000E-03 0.  1.
         12    1    3    3    0    0 -0.15644962453E+02  0.14338414904E+02  0.26891610789E+01  0.21391273441E+02  0.00000000000E+00 0. -1.
</event>
<event>
 7    1  0.1381440E-008  0.4614232E+02  0.7816164E-02  0.1320468E+00
        -11   -1    0    0    0    0  0.00000000000E+00  0.00000000000E+00  0.45593999997E+02  0.45594000000E+02  0.51100000000E-03 0.  1.
         11   -1    0    0    0    0 -0.00000000000E+00 -0.00000000000E+00 -0.45593999997E+02  0.45594000000E+02  0.51100000000E-03 0. -1.
    9900012    2    1    2    0    0 -0.17329928401E+02  0.99576139109E+01  0.40368714887E+02  0.46142316135E+02  0.99999851742E+01 0.  0.
         12    1    1    2    0    0  0.17329928401E+02 -0.99576139109E+01 -0.40368714887E+02  0.45045683865E+02  0.00000000000E+00 0. -1.
         11    1    3    3    0    0 -0.12593029052E+02  0.45353257564E+01  0.25009468654E+02  0.28365949359E+02  0.51100000000E-03 0.  1.
        -11    1    3    3    0    0 -0.25079277076E+00  0.32493009595E+01  0.29207929722E+01  0.43762867350E+01  0.51100000000E-03 0. -1.
         12    1    3    3    0    0 -0.44861065785E+01  0.21729871950E+01  0.12438453262E+02  0.13400080042E+02  0.00000000000E+00 0. -1.
</event>
<event>
 7    1  0.1381440E-008  0.4614232E+02  0.7816164E-02  0.1320468E+00
        -11   -1    0    0    0    0  0.00000000000E+00  0.00000000000E+00  0.45593999997E+02  0.45594000000E+02  0.51100000000E-03 0.  1.
         11   -1    0    0    0    0 -0.00000000000E+00 -0.00000000000E+00 -0.45593999997E+02  0.45594000000E+02  0.51100000000E-03 0. -1.
    9900012    2    1    2    0    0 -0.33531779032E+02 -0.24001313337E+02  0.18129268161E+02  0.46142316400E+02  0.99999875903E+01 0.  0.
         12    1    1    2    0    0  0.33531779032E+02  0.24001313337E+02 -0.18129268161E+02  0.45045683600E+02  0.00000000000E+00 0. -1.
         11    1    3    3    0    0 -0.10134061457E+02 -0.64182731837E+01  0.83782786133E+00  0.12024782246E+02  0.51100000000E-03 0. -1.
        -11    1    3    3    0    0 -0.18757324250E+02 -0.14575381542E+02  0.15221357791E+02  0.28212917137E+02  0.51100000000E-03 0.  1.
         12    1    3    3    0    0 -0.46403933247E+01 -0.30076586117E+01  0.20700825083E+01  0.59046170175E+01  0.00000000000E+00 0. -1.
</event>
<event>
 7    1  0.1381440E-008  0.4614233E+02  0.7816164E-02  0.1320468E+00
        -11   -1    0    0    0    0  0.00000000000E+00  0.00000000000E+00  0.45593999997E+02  0.45594000000E+02  0.51100000000E-03 0.  1.
         11   -1    0    0    0    0 -0.00000000000E+00 -0.00000000000E+00 -0.45593999997E+02  0.45594000000E+02  0.51100000000E-03 0. -1.
    9900012    2    1    2    0    0 -0.31071800770E+02  0.31759841725E+02  0.74140732877E+01  0.46142325044E+02  0.10000066414E+02 0.  0.
         12    1    1    2    0    0  0.31071800770E+02 -0.31759841725E+02 -0.74140732877E+01  0.45045674956E+02  0.00000000000E+00 0. -1.
         11    1    3    3    0    0  0.24673528062E+00 -0.10879427187E+00 -0.10140799400E+00  0.28809431557E+00  0.51100000000E-03 0. -1.
        -11    1    3    3    0    0 -0.21528187744E+02  0.20894545885E+02  0.17298186458E+01  0.30050577167E+02  0.51100000000E-03 0.  1.
         12    1    3    3    0    0 -0.97903483062E+01  0.10974090112E+02  0.57856626359E+01  0.15803653561E+02  0.00000000000E+00 0. -1.
</event>
<event>
 7    1  0.1381440E-008  0.4614232E+02  0.7816164E-02  0.1320468E+00
        -11   -1    0    0    0    0  0.00000000000E+00  0.00000000000E+00  0.45593999997E+02  0.45594000000E+02  0.51100000000E-03 0.  1.
         11   -1    0    0    0    0 -0.00000000000E+00 -0.00000000000E+00 -0.45593999997E+02  0.45594000000E+02  0.51100000000E-03 0. -1.
    9900012    2    1    2    0    0  0.45444334551E+01  0.23829363851E+02  0.37955541144E+02  0.46142316960E+02  0.99999926978E+01 0.  0.
         12    1    1    2    0    0 -0.45444334551E+01 -0.23829363851E+02 -0.37955541144E+02  0.45045683040E+02  0.00000000000E+00 0. -1.
         11    1    3    3    0    0 -0.96129871106E-01  0.92463944972E+01  0.16861400294E+02  0.19230493293E+02  0.51100000000E-03 0.  1.
        -11    1    3    3    0    0 -0.15862495156E+01  0.35451807573E+01  0.66059009229E+01  0.76630556172E+01  0.51100000000E-03 0. -1.
         12    1    3    3    0    0  0.62268128418E+01  0.11037788596E+02  0.14488239927E+02  0.19248768050E+02  0.00000000000E+00 0. -1.
</event>
<event>
 7    1  0.1381440E-008  0.4614232E+02  0.7816164E-02  0.1320468E+00
        -11   -1    0    0    0    0  0.00000000000E+00  0.00000000000E+00  0.45593999997E+02  0.45594000000E+02  0.51100000000E-03 0.  1.
         11   -1    0    0    0    0 -0.00000000000E+00 -0.00000000000E+00 -0.45593999997E+02  0.45594000000E+02  0.51100000000E-03 0. -1.
    9900012    2    1    2    0    0  0.17607522501E+02  0.41442345324E+02 -0.12730409648E+01  0.46142317988E+02  0.10000002070E+02 0.  0.
         12    1    1    2    0    0 -0.17607522501E+02 -0.41442345324E+02  0.12730409648E+01  0.45045682012E+02  0.00000000000E+00 0. -1.
         11    1    3    3    0    0  0.64314226494E+01  0.13644525416E+02 -0.35483998649E+01  0.15496045076E+02  0.51100000000E-03 0. -1.
        -11    1    3    3    0    0  0.34896214525E+01  0.49348802257E+01  0.24590197351E+01  0.65251267453E+01  0.51100000000E-03 0.  1.
         12    1    3    3    0    0  0.76864783992E+01  0.22862939682E+02 -0.18366083498E+00  0.24121146167E+02  0.00000000000E+00 0. -1.
</event>
<event>
 7    1  0.1381440E-008  0.4614232E+02  0.7816164E-02  0.1320468E+00
        -11   -1    0    0    0    0  0.00000000000E+00  0.00000000000E+00  0.45593999997E+02  0.45594000000E+02  0.51100000000E-03 0.  1.
         11   -1    0    0    0    0 -0.00000000000E+00 -0.00000000000E+00 -0.45593999997E+02  0.45594000000E+02  0.51100000000E-03 0. -1.
    9900012    2    1    2    0    0  0.55100313441E+01 -0.43136156098E+02  0.11748407447E+02  0.46142317789E+02  0.10000000251E+02 0.  0.
         12    1    1    2    0    0 -0.55100313441E+01  0.43136156098E+02 -0.11748407447E+02  0.45045682211E+02  0.00000000000E+00 0. -1.
         11    1    3    3    0    0  0.14665316843E+01 -0.21446420576E+02  0.23720819220E+01  0.21626984154E+02  0.51100000000E-03 0. -1.
        -11    1    3    3    0    0  0.43820006085E+01 -0.19347336347E+02  0.97754722166E+01  0.22115180541E+02  0.51100000000E-03 0.  1.
         12    1    3    3    0    0 -0.33850094870E+00 -0.23423991755E+01 -0.39914669176E+00  0.24001530933E+01  0.00000000000E+00 0. -1.
</event>
<event>
 7    1  0.1381440E-008  0.4614232E+02  0.7816164E-02  0.1320468E+00
        -11   -1    0    0    0    0  0.00000000000E+00  0.00000000000E+00  0.45593999997E+02  0.45594000000E+02  0.51100000000E-03 0.  1.
         11   -1    0    0    0    0 -0.00000000000E+00 -0.00000000000E+00 -0.45593999997E+02  0.45594000000E+02  0.51100000000E-03 0. -1.
    9900012    2    1    2    0    0  0.16943610207E+02  0.16592979897E+02  0.38297528279E+02  0.46142316733E+02  0.99999906267E+01 0.  0.
         12    1    1    2    0    0 -0.16943610207E+02 -0.16592979897E+02 -0.38297528279E+02  0.45045683267E+02  0.00000000000E+00 0. -1.
         11    1    3    3    0    0  0.55997414391E+01  0.17845412664E+01  0.12791519167E+02  0.14077096810E+02  0.51100000000E-03 0. -1.
        -11    1    3    3    0    0  0.11902766947E+02  0.14592555883E+02  0.24636786588E+02  0.31009511473E+02  0.51100000000E-03 0.  1.
        -12    1    3    3    0    0 -0.55889817953E+00  0.21588274780E+00  0.86922252401E+00  0.10557084503E+01  0.00000000000E+00 0.  1.
</event>
<event>
 7    1  0.1381440E-008  0.4614232E+02  0.7816164E-02  0.1320468E+00
        -11   -1    0    0    0    0  0.00000000000E+00  0.00000000000E+00  0.45593999997E+02  0.45594000000E+02  0.51100000000E-03 0.  1.
         11   -1    0    0    0    0 -0.00000000000E+00 -0.00000000000E+00 -0.45593999997E+02  0.45594000000E+02  0.51100000000E-03 0. -1.
    9900012    2    1    2    0    0 -0.23302896878E+02  0.25756493300E+02  0.28682598403E+02  0.46142318729E+02  0.10000008822E+02 0.  0.
         12    1    1    2    0    0  0.23302896878E+02 -0.25756493300E+02 -0.28682598403E+02  0.45045681271E+02  0.00000000000E+00 0. -1.
         11    1    3    3    0    0  0.28779562628E+00  0.66052622850E+00  0.22528694505E+00  0.75490111258E+00  0.51100000000E-03 0. -1.
        -11    1    3    3    0    0 -0.51367718745E+01  0.16515965616E+01  0.58142351771E+01  0.79321830191E+01  0.51100000000E-03 0.  1.
        -12    1    3    3    0    0 -0.18453920630E+02  0.23444370510E+02  0.22643076281E+02  0.37455234597E+02  0.00000000000E+00 0.  1.
</event>
<event>
 7    1  0.1381440E-008  0.4614231E+02  0.7816164E-02  0.1320468E+00
        -11   -1    0    0    0    0  0.00000000000E+00  0.00000000000E+00  0.45593999997E+02  0.45594000000E+02  0.51100000000E-03 0.  1.
         11   -1    0    0    0    0 -0.00000000000E+00 -0.00000000000E+00 -0.45593999997E+02  0.45594000000E+02  0.51100000000E-03 0. -1.
    9900012    2    1    2    0    0  0.32042836317E+02  0.31622165753E+02 -0.15522124934E+01  0.46142311085E+02  0.99999391244E+01 0.  0.
         12    1    1    2    0    0 -0.32042836317E+02 -0.31622165753E+02  0.15522124934E+01  0.45045688915E+02  0.00000000000E+00 0. -1.
         11    1    3    3    0    0  0.17477471563E+02  0.15775782520E+02 -0.88949065093E+00  0.23561165511E+02  0.51100000000E-03 0.  1.
        -11    1    3    3    0    0  0.16111983743E+01  0.62375959232E+01 -0.23817014178E+00  0.64467269509E+01  0.51100000000E-03 0. -1.
         12    1    3    3    0    0  0.12954166380E+02  0.96087873101E+01 -0.42455170067E+00  0.16134418624E+02  0.00000000000E+00 0. -1.
</event>
<event>
 7    1  0.1381440E-008  0.4614232E+02  0.7816164E-02  0.1320468E+00
        -11   -1    0    0    0    0  0.00000000000E+00  0.00000000000E+00  0.45593999997E+02  0.45594000000E+02  0.51100000000E-03 0.  1.
         11   -1    0    0    0    0 -0.00000000000E+00 -0.00000000000E+00 -0.45593999997E+02  0.45594000000E+02  0.51100000000E-03 0. -1.
    9900012    2    1    2    0    0  0.68386979431E+01 -0.35860865809E+02  0.26388328703E+02  0.46142318988E+02  0.10000011186E+02 0.  0.
         12    1    1    2    0    0 -0.68386979431E+01  0.35860865809E+02 -0.26388328703E+02  0.45045681012E+02  0.00000000000E+00 0. -1.
         11    1    3    3    0    0 -0.15511562827E+01 -0.33274203348E+01  0.29817514432E+01  0.47295511233E+01  0.51100000000E-03 0. -1.
        -11    1    3    3    0    0  0.19849624131E+01 -0.16701115751E+02  0.14194216934E+02  0.22007797203E+02  0.51100000000E-03 0.  1.
        -12    1    3    3    0    0  0.64048918127E+01 -0.15832329723E+02  0.92123603264E+01  0.19404970662E+02  0.00000000000E+00 0.  1.
</event>
<event>
 7    1  0.1381440E-008  0.4614232E+02  0.7816164E-02  0.1320468E+00
        -11   -1    0    0    0    0  0.00000000000E+00  0.00000000000E+00  0.45593999997E+02  0.45594000000E+02  0.51100000000E-03 0.  1.
         11   -1    0    0    0    0 -0.00000000000E+00 -0.00000000000E+00 -0.45593999997E+02  0.45594000000E+02  0.51100000000E-03 0. -1.
    9900012    2    1    2    0    0 -0.34258328224E+02 -0.14785631037E+02  0.25236195854E+02  0.46142317421E+02  0.99999968971E+01 0.  0.
         12    1    1    2    0    0  0.34258328224E+02  0.14785631037E+02 -0.25236195854E+02  0.45045682579E+02  0.00000000000E+00 0. -1.
         11    1    3    3    0    0 -0.13815046636E+01 -0.99800015091E+00 -0.87478603279E+00  0.19156748944E+01  0.51100000000E-03 0. -1.
        -11    1    3    3    0    0 -0.72204450063E+01 -0.28411550583E+01  0.65941698399E+01  0.10182831841E+02  0.51100000000E-03 0.  1.
         12    1    3    3    0    0 -0.25656378554E+02 -0.10946475827E+02  0.19516812047E+02  0.34043810686E+02  0.00000000000E+00 0. -1.
</event>
<event>
 7    1  0.1381440E-008  0.4614232E+02  0.7816164E-02  0.1320468E+00
        -11   -1    0    0    0    0  0.00000000000E+00  0.00000000000E+00  0.45593999997E+02  0.45594000000E+02  0.51100000000E-03 0.  1.
         11   -1    0    0    0    0 -0.00000000000E+00 -0.00000000000E+00 -0.45593999997E+02  0.45594000000E+02  0.51100000000E-03 0. -1.
    9900012    2    1    2    0    0 -0.37175832929E+02  0.53993052136E+01  0.24857967495E+02  0.46142316536E+02  0.99999888239E+01 0.  0.
         12    1    1    2    0    0  0.37175832929E+02 -0.53993052136E+01 -0.24857967495E+02  0.45045683464E+02  0.00000000000E+00 0. -1.
         11    1    3    3    0    0 -0.18169970331E+02 -0.16193785953E+01  0.86577631885E+01  0.20192252785E+02  0.51100000000E-03 0. -1.
        -11    1    3    3    0    0 -0.97780387733E+01  0.35996035212E+01  0.87716669947E+01  0.13620180979E+02  0.51100000000E-03 0.  1.
         12    1    3    3    0    0 -0.92278238255E+01  0.34190802876E+01  0.74285373121E+01  0.12329882772E+02  0.00000000000E+00 0. -1.
</event>
<event>
 7    1  0.1381440E-008  0.4614232E+02  0.7816164E-02  0.1320468E+00
        -11   -1    0    0    0    0  0.00000000000E+00  0.00000000000E+00  0.45593999997E+02  0.45594000000E+02  0.51100000000E-03 0.  1.
         11   -1    0    0    0    0 -0.00000000000E+00 -0.00000000000E+00 -0.45593999997E+02  0.45594000000E+02  0.51100000000E-03 0. -1.
    9900012    2    1    2    0    0  0.31334642706E+01 -0.29597892600E+02  0.33812122344E+02  0.46142318053E+02  0.10000002661E+02 0.  0.
         12    1    1    2    0    0 -0.31334642706E+01  0.29597892600E+02 -0.33812122344E+02  0.45045681947E+02  0.00000000000E+00 0. -1.
         11    1    3    3    0    0  0.86649352776E+00 -0.35317223699E+00 -0.31243842774E+00  0.98648856804E+00  0.51100000000E-03 0. -1.
        -11    1    3    3    0    0  0.11820511423E+01 -0.23818148867E+02  0.25545198777E+02  0.34946511145E+02  0.51100000000E-03 0.  1.
         12    1    3    3    0    0  0.10849196006E+01 -0.54265714953E+01  0.85793619948E+01  0.10209318340E+02  0.00000000000E+00 0. -1.
</event>
<event>
 7    1  0.1381440E-008  0.4614232E+02  0.7816164E-02  0.1320468E+00
        -11   -1    0    0    0    0  0.00000000000E+00  0.00000000000E+00  0.45593999997E+02  0.45594000000E+02  0.51100000000E-03 0. -1.
         11   -1    0    0    0    0 -0.00000000000E+00 -0.00000000000E+00 -0.45593999997E+02  0.45594000000E+02  0.51100000000E-03 0.  1.
    9900012    2    1    2    0    0 -0.35409571165E+02  0.23226022272E+02 -0.15356684290E+02  0.46142316599E+02  0.99999894063E+01 0.  0.
         12    1    1    2    0    0  0.35409571165E+02 -0.23226022272E+02  0.15356684290E+02  0.45045683401E+02  0.00000000000E+00 0. -1.
         11    1    3    3    0    0 -0.17347243528E+01  0.41760280965E+01 -0.12700772787E+00  0.45237827608E+01  0.51100000000E-03 0. -1.
        -11    1    3    3    0    0 -0.18712257261E+02  0.10281689350E+02 -0.93244242886E+01  0.23298210151E+02  0.51100000000E-03 0.  1.
         12    1    3    3    0    0 -0.14962589551E+02  0.87683048252E+01 -0.59052522739E+01  0.18320323687E+02  0.00000000000E+00 0. -1.
</event>
<event>
 7    1  0.1381440E-008  0.4614231E+02  0.7816164E-02  0.1320468E+00
        -11   -1    0    0    0    0  0.00000000000E+00  0.00000000000E+00  0.45593999997E+02  0.45594000000E+02  0.51100000000E-03 0.  1.
         11   -1    0    0    0    0 -0.00000000000E+00 -0.00000000000E+00 -0.45593999997E+02  0.45594000000E+02  0.51100000000E-03 0. -1.
    9900012    2    1    2    0    0  0.15781678654E+02 -0.70368023036E+01  0.41599717279E+02  0.46142307138E+02  0.99999031274E+01 0.  0.
         12    1    1    2    0    0 -0.15781678654E+02  0.70368023036E+01 -0.41599717279E+02  0.45045692862E+02  0.00000000000E+00 0. -1.
         11    1    3    3    0    0  0.10204989933E+02 -0.37353458547E+01  0.14714247787E+02  0.18292176371E+02  0.51100000000E-03 0. -1.
        -11    1    3    3    0    0  0.51485118352E+01 -0.39349732088E+01  0.24649248906E+02  0.25486793839E+02  0.51100000000E-03 0.  1.
         12    1    3    3    0    0  0.42817688542E+00  0.63351675992E+00  0.22362205850E+01  0.23633369280E+01  0.00000000000E+00 0. -1.
</event>
<event>
 7    1  0.1381440E-008  0.4614232E+02  0.7816164E-02  0.1320468E+00
        -11   -1    0    0    0    0  0.00000000000E+00  0.00000000000E+00  0.45593999997E+02  0.45594000000E+02  0.51100000000E-03 0.  1.
         11   -1    0    0    0    0 -0.00000000000E+00 -0.00000000000E+00 -0.45593999997E+02  0.45594000000E+02  0.51100000000E-03 0. -1.
    9900012    2    1    2    0    0 -0.14501073766E+02 -0.84234819164E+01  0.41807621653E+02  0.46142318562E+02  0.10000007302E+02 0.  0.
         12    1    1    2    0    0  0.14501073766E+02  0.84234819164E+01 -0.41807621653E+02  0.45045681438E+02  0.00000000000E+00 0. -1.
         11    1    3    3    0    0 -0.55291444885E+01 -0.56300495709E+01  0.11215424543E+02  0.13713301750E+02  0.51100000000E-03 0. -1.
        -11    1    3    3    0    0 -0.27975111834E+01 -0.47603790510E+00  0.33047379440E+01  0.43559125390E+01  0.51100000000E-03 0.  1.
         12    1    3    3    0    0 -0.61744180945E+01 -0.23173944404E+01  0.27287459166E+02  0.28073104273E+02  0.00000000000E+00 0. -1.
</event>
<event>
 7    1  0.1381440E-008  0.4614232E+02  0.7816164E-02  0.1320468E+00
        -11   -1    0    0    0    0  0.00000000000E+00  0.00000000000E+00  0.45593999997E+02  0.45594000000E+02  0.51100000000E-03 0.  1.
         11   -1    0    0    0    0 -0.00000000000E+00 -0.00000000000E+00 -0.45593999997E+02  0.45594000000E+02  0.51100000000E-03 0. -1.
    9900012    2    1    2    0    0 -0.10232448255E+02 -0.34521056950E+02  0.27068563418E+02  0.46142317679E+02  0.99999992539E+01 0.  0.
         12    1    1    2    0    0  0.10232448255E+02  0.34521056950E+02 -0.27068563418E+02  0.45045682321E+02  0.00000000000E+00 0. -1.
         11    1    3    3    0    0 -0.72745291253E+01 -0.15363242041E+02  0.81245221367E+01  0.18840271766E+02  0.51100000000E-03 0. -1.
        -11    1    3    3    0    0 -0.27918176242E+01 -0.18784141715E+02  0.17581550371E+02  0.25879511960E+02  0.51100000000E-03 0.  1.
         12    1    3    3    0    0 -0.16610150573E+00 -0.37367319385E+00  0.13624909101E+01  0.14225339526E+01  0.00000000000E+00 0. -1.
</event>
<event>
 7    1  0.1381440E-008  0.4614232E+02  0.7816164E-02  0.1320468E+00
        -11   -1    0    0    0    0  0.00000000000E+00  0.00000000000E+00  0.45593999997E+02  0.45594000000E+02  0.51100000000E-03 0.  1.
         11   -1    0    0    0    0 -0.00000000000E+00 -0.00000000000E+00 -0.45593999997E+02  0.45594000000E+02  0.51100000000E-03 0. -1.
    9900012    2    1    2    0    0  0.87385532009E+01 -0.13944351434E+02  0.41932162105E+02  0.46142317990E+02  0.10000002088E+02 0.  0.
         12    1    1    2    0    0 -0.87385532009E+01  0.13944351434E+02 -0.41932162105E+02  0.45045682010E+02  0.00000000000E+00 0. -1.
         11    1    3    3    0    0 -0.88216954597E+00 -0.15737466656E+01  0.95047529956E+01  0.96744628504E+01  0.51100000000E-03 0.  1.
        -11    1    3    3    0    0  0.10238799240E+02 -0.10326965302E+02  0.27913683638E+02  0.31474639898E+02  0.51100000000E-03 0. -1.
         12    1    3    3    0    0 -0.61807649275E+00 -0.20436394661E+01  0.45137254716E+01  0.49932152418E+01  0.00000000000E+00 0. -1.
</event>
<event>
 7    1  0.1381440E-008  0.4614232E+02  0.7816164E-02  0.1320468E+00
        -11   -1    0    0    0    0  0.00000000000E+00  0.00000000000E+00  0.45593999997E+02  0.45594000000E+02  0.51100000000E-03 0.  1.
         11   -1    0    0    0    0 -0.00000000000E+00 -0.00000000000E+00 -0.45593999997E+02  0.45594000000E+02  0.51100000000E-03 0. -1.
    9900012    2    1    2    0    0  0.28494672037E+02  0.18307290309E+01  0.34839856367E+02  0.46142317688E+02  0.99999993308E+01 0.  0.
         12    1    1    2    0    0 -0.28494672037E+02 -0.18307290309E+01 -0.34839856367E+02  0.45045682312E+02  0.00000000000E+00 0. -1.
         11    1    3    3    0    0  0.44602859560E+01  0.12788067434E+00  0.10359255024E+02  0.11279391348E+02  0.51100000000E-03 0. -1.
        -11    1    3    3    0    0  0.11642369606E+02  0.45459028793E+00  0.16009522952E+02  0.19800410293E+02  0.51100000000E-03 0.  1.
         12    1    3    3    0    0  0.12392016475E+02  0.12482580687E+01  0.84710783914E+01  0.15062516046E+02  0.00000000000E+00 0. -1.
</event>
<event>
 7    1  0.1381440E-008  0.4614231E+02  0.7816164E-02  0.1320468E+00
        -11   -1    0    0    0    0  0.00000000000E+00  0.00000000000E+00  0.45593999997E+02  0.45594000000E+02  0.51100000000E-03 0. -1.
         11   -1    0    0    0    0 -0.00000000000E+00 -0.00000000000E+00 -0.45593999997E+02  0.45594000000E+02  0.51100000000E-03 0.  1.
    9900012    2    1    2    0    0  0.94091690304E+01 -0.40970097874E+02 -0.16187416128E+02  0.46142314052E+02  0.99999661739E+01 0.  0.
         12    1    1    2    0    0 -0.94091690304E+01  0.40970097874E+02  0.16187416128E+02  0.45045685948E+02  0.00000000000E+00 0. -1.
         11    1    3    3    0    0  0.67947078533E+01 -0.18971254069E+02 -0.73300727328E+01  0.21443099177E+02  0.51100000000E-03 0. -1.
        -11    1    3    3    0    0 -0.16421289891E+01 -0.23116004532E+01 -0.44184691018E+00  0.28697235451E+01  0.51100000000E-03 0.  1.
        -12    1    3    3    0    0  0.42565901662E+01 -0.19687243352E+02 -0.84154964845E+01  0.21829491330E+02  0.00000000000E+00 0.  1.
</event>
<event>
 7    1  0.1381440E-008  0.4614232E+02  0.7816164E-02  0.1320468E+00
        -11   -1    0    0    0    0  0.00000000000E+00  0.00000000000E+00  0.45593999997E+02  0.45594000000E+02  0.51100000000E-03 0. -1.
         11   -1    0    0    0    0 -0.00000000000E+00 -0.00000000000E+00 -0.45593999997E+02  0.45594000000E+02  0.51100000000E-03 0.  1.
    9900012    2    1    2    0    0  0.76356278124E+01  0.31687281968E+02 -0.31092231346E+02  0.46142317625E+02  0.99999987545E+01 0.  0.
         12    1    1    2    0    0 -0.76356278124E+01 -0.31687281968E+02  0.31092231346E+02  0.45045682375E+02  0.00000000000E+00 0. -1.
         11    1    3    3    0    0  0.29743781043E+01  0.87933794709E+01 -0.50865743783E+01  0.10585069050E+02  0.51100000000E-03 0. -1.
        -11    1    3    3    0    0  0.34981930191E+01  0.22298267456E+02 -0.25720494438E+02  0.34219788432E+02  0.51100000000E-03 0.  1.
        -12    1    3    3    0    0  0.11630566890E+01  0.59563504151E+00 -0.28516252908E+00  0.13374601424E+01  0.00000000000E+00 0.  1.
</event>
<event>
 7    1  0.1381440E-008  0.4614232E+02  0.7816164E-02  0.1320468E+00
        -11   -1    0    0    0    0  0.00000000000E+00  0.00000000000E+00  0.45593999997E+02  0.45594000000E+02  0.51100000000E-03 0.  1.
         11   -1    0    0    0    0 -0.00000000000E+00 -0.00000000000E+00 -0.45593999997E+02  0.45594000000E+02  0.51100000000E-03 0. -1.
    9900012    2    1    2    0    0  0.36478794459E+02 -0.83677560225E+01  0.25067742192E+02  0.46142317803E+02  0.10000000377E+02 0.  0.
         12    1    1    2    0    0 -0.36478794459E+02  0.83677560225E+01 -0.25067742192E+02  0.45045682197E+02  0.00000000000E+00 0. -1.
         11    1    3    3    0    0  0.15047094069E+02 -0.14593961287E+01  0.64204542364E+01  0.16424588575E+02  0.51100000000E-03 0. -1.
        -11    1    3    3    0    0  0.99688509571E+01 -0.13107709644E+01  0.57745629216E+01  0.11594899186E+02  0.51100000000E-03 0.  1.
         12    1    3    3    0    0  0.11462849433E+02 -0.55975889295E+01  0.12872725034E+02  0.18122830042E+02  0.00000000000E+00 0. -1.
</event>
<event>
 7    1  0.1381440E-008  0.4614232E+02  0.7816164E-02  0.1320468E+00
        -11   -1    0    0    0    0  0.00000000000E+00  0.00000000000E+00  0.45593999997E+02  0.45594000000E+02  0.51100000000E-03 0.  1.
         11   -1    0    0    0    0 -0.00000000000E+00 -0.00000000000E+00 -0.45593999997E+02  0.45594000000E+02  0.51100000000E-03 0. -1.
    9900012    2    1    2    0    0 -0.41119553864E+02 -0.13995358010E+02 -0.11934224141E+02  0.46142318057E+02  0.10000002702E+02 0.  0.
         12    1    1    2    0    0  0.41119553864E+02  0.13995358010E+02  0.11934224141E+02  0.45045681943E+02  0.00000000000E+00 0. -1.
         11    1    3    3    0    0 -0.15520566299E+02 -0.54803827879E+01 -0.57590123200E+01  0.17438142014E+02  0.51100000000E-03 0.  1.
        -11    1    3    3    0    0 -0.10199770715E+02 -0.42879333168E+01  0.11717441256E+01  0.11126305735E+02  0.51100000000E-03 0. -1.
         12    1    3    3    0    0 -0.15399216851E+02 -0.42270419053E+01 -0.73469559461E+01  0.17577870308E+02  0.00000000000E+00 0. -1.
</event>
<event>
 7    1  0.1381440E-008  0.4614233E+02  0.7816164E-02  0.1320468E+00
        -11   -1    0    0    0    0  0.00000000000E+00  0.00000000000E+00  0.45593999997E+02  0.45594000000E+02  0.51100000000E-03 0.  1.
         11   -1    0    0    0    0 -0.00000000000E+00 -0.00000000000E+00 -0.45593999997E+02  0.45594000000E+02  0.51100000000E-03 0. -1.
    9900012    2    1    2    0    0 -0.32638660934E+02 -0.21331135253E+02  0.22556885574E+02  0.46142327560E+02  0.10000089351E+02 0.  0.
         12    1    1    2    0    0  0.32638660934E+02  0.21331135253E+02 -0.22556885574E+02  0.45045672440E+02  0.00000000000E+00 0. -1.
         11    1    3    3    0    0 -0.77098423746E+01 -0.36628549100E+01  0.93130418621E+01  0.12632930164E+02  0.51100000000E-03 0. -1.
        -11    1    3    3    0    0 -0.15618927622E+02 -0.12736100102E+02  0.74544814624E+01  0.21487867274E+02  0.51100000000E-03 0.  1.
        -12    1    3    3    0    0 -0.93098909378E+01 -0.49321802417E+01  0.57893622498E+01  0.12021530122E+02  0.00000000000E+00 0.  1.
</event>
<event>
 7    1  0.1381440E-008  0.4614232E+02  0.7816164E-02  0.1320468E+00
        -11   -1    0    0    0    0  0.00000000000E+00  0.00000000000E+00  0.45593999997E+02  0.45594000000E+02  0.51100000000E-03 0. -1.
         11   -1    0    0    0    0 -0.00000000000E+00 -0.00000000000E+00 -0.45593999997E+02  0.45594000000E+02  0.51100000000E-03 0.  1.
    9900012    2    1    2    0    0 -0.54257716605E+01  0.44078954381E+02 -0.75312844969E+01  0.46142318036E+02  0.10000002504E+02 0.  0.
         12    1    1    2    0    0  0.54257716605E+01 -0.44078954381E+02  0.75312844969E+01  0.45045681964E+02  0.00000000000E+00 0. -1.
         11    1    3    3    0    0 -0.22368377855E+01  0.21723369545E+01 -0.18413374124E+01  0.36211897009E+01  0.51100000000E-03 0. -1.
        -11    1    3    3    0    0 -0.13155977524E+01  0.14606686691E+02 -0.34454688477E+01  0.15065103696E+02  0.51100000000E-03 0.  1.
         12    1    3    3    0    0 -0.18733361226E+01  0.27299930736E+02 -0.22444782367E+01  0.27456024639E+02  0.00000000000E+00 0. -1.
</event>
<event>
 7    1  0.1381440E-008  0.4614232E+02  0.7816164E-02  0.1320468E+00
        -11   -1    0    0    0    0  0.00000000000E+00  0.00000000000E+00  0.45593999997E+02  0.45594000000E+02  0.51100000000E-03 0.  1.
         11   -1    0    0    0    0 -0.00000000000E+00 -0.00000000000E+00 -0.45593999997E+02  0.45594000000E+02  0.51100000000E-03 0. -1.
    9900012    2    1    2    0    0 -0.23927839320E+02 -0.14729372797E+02  0.35208201868E+02  0.46142318783E+02  0.10000009316E+02 0.  0.
         12    1    1    2    0    0  0.23927839320E+02  0.14729372797E+02 -0.35208201868E+02  0.45045681217E+02  0.00000000000E+00 0. -1.
         11    1    3    3    0    0 -0.39983286066E+01 -0.22087890942E+01  0.17795001849E+01  0.49022445959E+01  0.51100000000E-03 0. -1.
        -11    1    3    3    0    0 -0.15889007900E+01 -0.10897582939E+01  0.76228159079E+00  0.20720164923E+01  0.51100000000E-03 0.  1.
        -12    1    3    3    0    0 -0.18340609924E+02 -0.11430825409E+02  0.32666420093E+02  0.39168057695E+02  0.00000000000E+00 0.  1.
</event>
<event>
 7    1  0.1381440E-008  0.4614232E+02  0.7816164E-02  0.1320468E+00
        -11   -1    0    0    0    0  0.00000000000E+00  0.00000000000E+00  0.45593999997E+02  0.45594000000E+02  0.51100000000E-03 0.  1.
         11   -1    0    0    0    0 -0.00000000000E+00 -0.00000000000E+00 -0.45593999997E+02  0.45594000000E+02  0.51100000000E-03 0. -1.
    9900012    2    1    2    0    0 -0.69148970551E+00 -0.41837981792E+02 -0.16679885379E+02  0.46142318135E+02  0.10000003410E+02 0.  0.
         12    1    1    2    0    0  0.69148970551E+00  0.41837981792E+02  0.16679885379E+02  0.45045681865E+02  0.00000000000E+00 0. -1.
         11    1    3    3    0    0  0.91478339959E+00 -0.11398876524E+02 -0.70751296171E+01  0.13447255260E+02  0.51100000000E-03 0. -1.
        -11    1    3    3    0    0 -0.12301253473E+01 -0.45728922713E+01  0.81755524146E+00  0.48055123482E+01  0.51100000000E-03 0.  1.
        -12    1    3    3    0    0 -0.37614775779E+00 -0.25866212996E+02 -0.10422311003E+02  0.27889550526E+02  0.00000000000E+00 0.  1.
</event>
<event>
 7    1  0.1381440E-008  0.4614232E+02  0.7816164E-02  0.1320468E+00
        -11   -1    0    0    0    0  0.00000000000E+00  0.00000000000E+00  0.45593999997E+02  0.45594000000E+02  0.51100000000E-03 0. -1.
         11   -1    0    0    0    0 -0.00000000000E+00 -0.00000000000E+00 -0.45593999997E+02  0.45594000000E+02  0.51100000000E-03 0.  1.
    9900012    2    1    2    0    0 -0.21031418932E+02  0.24045513285E+02 -0.31758558022E+02  0.46142319862E+02  0.10000019157E+02 0.  0.
         12    1    1    2    0    0  0.21031418932E+02 -0.24045513285E+02  0.31758558022E+02  0.45045680138E+02  0.00000000000E+00 0. -1.
         11    1    3    3    0    0 -0.56326171002E+01  0.60311045867E+01 -0.31788489226E+01  0.88433974618E+01  0.51100000000E-03 0. -1.
        -11    1    3    3    0    0 -0.65497259716E+01  0.94173108872E+01 -0.15914570503E+02  0.19617803373E+02  0.51100000000E-03 0.  1.
         12    1    3    3    0    0 -0.88490758603E+01  0.85970978116E+01 -0.12665138597E+02  0.17681119027E+02  0.00000000000E+00 0. -1.
</event>
<event>
 7    1  0.1381440E-008  0.4614232E+02  0.7816164E-02  0.1320468E+00
        -11   -1    0    0    0    0  0.00000000000E+00  0.00000000000E+00  0.45593999997E+02  0.45594000000E+02  0.51100000000E-03 0.  1.
         11   -1    0    0    0    0 -0.00000000000E+00 -0.00000000000E+00 -0.45593999997E+02  0.45594000000E+02  0.51100000000E-03 0. -1.
    9900012    2    1    2    0    0 -0.36102708370E+02  0.24628184310E+02  0.10916064454E+02  0.46142317885E+02  0.10000001129E+02 0.  0.
         12    1    1    2    0    0  0.36102708370E+02 -0.24628184310E+02 -0.10916064454E+02  0.45045682115E+02  0.00000000000E+00 0. -1.
         11    1    3    3    0    0 -0.99101688721E+00 -0.86866726567E+00 -0.20395631466E-01  0.13179960289E+01  0.51100000000E-03 0. -1.
        -11    1    3    3    0    0 -0.24657350985E+02  0.16439789944E+02  0.72367641361E+01  0.30506104413E+02  0.51100000000E-03 0.  1.
         12    1    3    3    0    0 -0.10454340497E+02  0.90570616313E+01  0.36996959496E+01  0.14318217443E+02  0.00000000000E+00 0. -1.
</event>
<event>
 7    1  0.1381440E-008  0.4614232E+02  0.7816164E-02  0.1320468E+00
        -11   -1    0    0    0    0  0.00000000000E+00  0.00000000000E+00  0.45593999997E+02  0.45594000000E+02  0.51100000000E-03 0.  1.
         11   -1    0    0    0    0 -0.00000000000E+00 -0.00000000000E+00 -0.45593999997E+02  0.45594000000E+02  0.51100000000E-03 0. -1.
    9900012    2    1    2    0    0 -0.33660517319E+02 -0.29643817725E+02  0.41625922502E+01  0.46142317302E+02  0.99999958161E+01 0.  0.
         12    1    1    2    0    0  0.33660517319E+02  0.29643817725E+02 -0.41625922502E+01  0.45045682698E+02  0.00000000000E+00 0. -1.
         11    1    3    3    0    0 -0.25756044527E+02 -0.24008429498E+02  0.44701471761E+01  0.35493108242E+02  0.51100000000E-03 0.  1.
        -11    1    3    3    0    0 -0.68235994399E+01 -0.33248790910E+01  0.12020768023E+01  0.76851362503E+01  0.51100000000E-03 0. -1.
         12    1    3    3    0    0 -0.10808733520E+01 -0.23105091355E+01 -0.15096317282E+01  0.29640728100E+01  0.00000000000E+00 0. -1.
</event>
<event>
 7    1  0.1381440E-008  0.4614232E+02  0.7816164E-02  0.1320468E+00
        -11   -1    0    0    0    0  0.00000000000E+00  0.00000000000E+00  0.45593999997E+02  0.45594000000E+02  0.51100000000E-03 0.  1.
         11   -1    0    0    0    0 -0.00000000000E+00 -0.00000000000E+00 -0.45593999997E+02  0.45594000000E+02  0.51100000000E-03 0. -1.
    9900012    2    1    2    0    0 -0.20450001422E+02  0.25390938766E+02  0.31083934101E+02  0.46142319977E+02  0.10000020206E+02 0.  0.
         12    1    1    2    0    0  0.20450001422E+02 -0.25390938766E+02 -0.31083934101E+02  0.45045680023E+02  0.00000000000E+00 0. -1.
         11    1    3    3    0    0 -0.47693738374E+00  0.17465126868E+01  0.26177296012E+00  0.18292898012E+01  0.51100000000E-03 0. -1.
        -11    1    3    3    0    0 -0.19840699834E+02  0.19952584755E+02  0.26982929413E+02  0.38985093154E+02  0.51100000000E-03 0.  1.
        -12    1    3    3    0    0 -0.13236420407E+00  0.36918413234E+01  0.38392317283E+01  0.53279370213E+01  0.00000000000E+00 0.  1.
</event>
<event>
 7    1  0.1381440E-008  0.4614232E+02  0.7816164E-02  0.1320468E+00
        -11   -1    0    0    0    0  0.00000000000E+00  0.00000000000E+00  0.45593999997E+02  0.45594000000E+02  0.51100000000E-03 0.  1.
         11   -1    0    0    0    0 -0.00000000000E+00 -0.00000000000E+00 -0.45593999997E+02  0.45594000000E+02  0.51100000000E-03 0. -1.
    9900012    2    1    2    0    0 -0.41217701959E+01  0.44575115718E+02  0.50183239558E+01  0.46142317564E+02  0.99999982028E+01 0.  0.
         12    1    1    2    0    0  0.41217701959E+01 -0.44575115718E+02 -0.50183239558E+01  0.45045682436E+02  0.00000000000E+00 0. -1.
         11    1    3    3    0    0 -0.85447399995E+00  0.28663539970E+01 -0.16242097354E+01  0.34035523470E+01  0.51100000000E-03 0. -1.
        -11    1    3    3    0    0 -0.81155268085E+00  0.20709024065E+02  0.53645878839E+00  0.20731861561E+02  0.51100000000E-03 0.  1.
         12    1    3    3    0    0 -0.24557435151E+01  0.20999737656E+02  0.61060749029E+01  0.22006903656E+02  0.00000000000E+00 0. -1.
</event>
<event>
 7    1  0.1381440E-008  0.4614232E+02  0.7816164E-02  0.1320468E+00
        -11   -1    0    0    0    0  0.00000000000E+00  0.00000000000E+00  0.45593999997E+02  0.45594000000E+02  0.51100000000E-03 0.  1.
         11   -1    0    0    0    0 -0.00000000000E+00 -0.00000000000E+00 -0.45593999997E+02  0.45594000000E+02  0.51100000000E-03 0. -1.
    9900012    2    1    2    0    0  0.15734037199E+02  0.10451831833E+01  0.42195510711E+02  0.46142318091E+02  0.10000003012E+02 0.  0.
         12    1    1    2    0    0 -0.15734037199E+02 -0.10451831833E+01 -0.42195510711E+02  0.45045681909E+02  0.00000000000E+00 0. -1.
         11    1    3    3    0    0  0.38999204155E+01 -0.89376903312E+00  0.67096087112E+01  0.78119812884E+01  0.51100000000E-03 0. -1.
        -11    1    3    3    0    0  0.43480172088E+01  0.26145717977E+01  0.24495543726E+02  0.25015453265E+02  0.51100000000E-03 0.  1.
        -12    1    3    3    0    0  0.74860995751E+01 -0.67561958129E+00  0.10990358273E+02  0.13314883538E+02  0.00000000000E+00 0.  1.
</event>
<event>
 7    1  0.1381440E-008  0.4614232E+02  0.7816164E-02  0.1320468E+00
        -11   -1    0    0    0    0  0.00000000000E+00  0.00000000000E+00  0.45593999997E+02  0.45594000000E+02  0.51100000000E-03 0.  1.
         11   -1    0    0    0    0 -0.00000000000E+00 -0.00000000000E+00 -0.45593999997E+02  0.45594000000E+02  0.51100000000E-03 0. -1.
    9900012    2    1    2    0    0 -0.74276576427E+01  0.94348665707E+01  0.43415742213E+02  0.46142317886E+02  0.10000001137E+02 0.  0.
         12    1    1    2    0    0  0.74276576427E+01 -0.94348665707E+01 -0.43415742213E+02  0.45045682114E+02  0.00000000000E+00 0. -1.
         11    1    3    3    0    0  0.64335969893E+00  0.25456420104E+01  0.11421919814E+02  0.11719831801E+02  0.51100000000E-03 0. -1.
        -11    1    3    3    0    0 -0.58323188080E+01  0.80406580306E+01  0.27911616304E+02  0.29626448474E+02  0.51100000000E-03 0.  1.
        -12    1    3    3    0    0 -0.22386985336E+01 -0.11514334702E+01  0.40822060952E+01  0.47960376108E+01  0.00000000000E+00 0.  1.
</event>
<event>
 7    1  0.1381440E-008  0.4614232E+02  0.7816164E-02  0.1320468E+00
        -11   -1    0    0    0    0  0.00000000000E+00  0.00000000000E+00  0.45593999997E+02  0.45594000000E+02  0.51100000000E-03 0.  1.
         11   -1    0    0    0    0 -0.00000000000E+00 -0.00000000000E+00 -0.45593999997E+02  0.45594000000E+02  0.51100000000E-03 0. -1.
    9900012    2    1    2    0    0  0.37400737029E+02 -0.24118754458E+02  0.69702270989E+01  0.46142317490E+02  0.99999975323E+01 0.  0.
         12    1    1    2    0    0 -0.37400737029E+02  0.24118754458E+02 -0.69702270989E+01  0.45045682510E+02  0.00000000000E+00 0. -1.
         11    1    3    3    0    0  0.26883767509E+02 -0.17413200646E+02  0.42420520932E+01  0.32310238601E+02  0.51100000000E-03 0. -1.
        -11    1    3    3    0    0  0.10727560745E+02 -0.72233711783E+01  0.23184073417E+01  0.13138974982E+02  0.51100000000E-03 0.  1.
         12    1    3    3    0    0 -0.21059122509E+00  0.51781736573E+00  0.40976766398E+00  0.69310390764E+00  0.00000000000E+00 0. -1.
</event>
<event>
 7    1  0.1381440E-008  0.4614232E+02  0.7816164E-02  0.1320468E+00
        -11   -1    0    0    0    0  0.00000000000E+00  0.00000000000E+00  0.45593999997E+02  0.45594000000E+02  0.51100000000E-03 0.  1.
         11   -1    0    0    0    0 -0.00000000000E+00 -0.00000000000E+00 -0.45593999997E+02  0.45594000000E+02  0.51100000000E-03 0. -1.
    9900012    2    1    2    0    0 -0.10624295137E+02  0.81065438458E+01  0.43017689296E+02  0.46142319933E+02  0.10000019807E+02 0.  0.
         12    1    1    2    0    0  0.10624295137E+02 -0.81065438458E+01 -0.43017689296E+02  0.45045680067E+02  0.00000000000E+00 0. -1.
         11    1    3    3    0    0 -0.48561007299E+01  0.82639376855E+00  0.61658933537E+01  0.78919504605E+01  0.51100000000E-03 0. -1.
        -11    1    3    3    0    0 -0.17207862658E+00  0.14965676423E+01  0.12790000686E+02  0.12878409978E+02  0.51100000000E-03 0.  1.
        -12    1    3    3    0    0 -0.55961157808E+01  0.57835824350E+01  0.24061795257E+02  0.25371959494E+02  0.00000000000E+00 0.  1.
</event>
<event>
 7    1  0.1381440E-008  0.4614232E+02  0.7816164E-02  0.1320468E+00
        -11   -1    0    0    0    0  0.00000000000E+00  0.00000000000E+00  0.45593999997E+02  0.45594000000E+02  0.51100000000E-03 0.  1.
         11   -1    0    0    0    0 -0.00000000000E+00 -0.00000000000E+00 -0.45593999997E+02  0.45594000000E+02  0.51100000000E-03 0. -1.
    9900012    2    1    2    0    0  0.78138236995E+01 -0.44188467003E+02  0.39290020528E+01  0.46142317476E+02  0.99999974015E+01 0.  0.
         12    1    1    2    0    0 -0.78138236995E+01  0.44188467003E+02 -0.39290020528E+01  0.45045682524E+02  0.00000000000E+00 0. -1.
         11    1    3    3    0    0  0.28851943549E+01 -0.12932545635E+02  0.36486168195E+00  0.13255497251E+02  0.51100000000E-03 0.  1.
        -11    1    3    3    0    0  0.71477391287E+01 -0.20860411706E+02  0.19803850406E+01  0.22139757821E+02  0.51100000000E-03 0. -1.
         12    1    3    3    0    0 -0.22191097841E+01 -0.10395509663E+02  0.15837553302E+01  0.10747062404E+02  0.00000000000E+00 0. -1.
</event>
<event>
 7    1  0.1381440E-008  0.4614232E+02  0.7816164E-02  0.1320468E+00
        -11   -1    0    0    0    0  0.00000000000E+00  0.00000000000E+00  0.45593999997E+02  0.45594000000E+02  0.51100000000E-03 0.  1.
         11   -1    0    0    0    0 -0.00000000000E+00 -0.00000000000E+00 -0.45593999997E+02  0.45594000000E+02  0.51100000000E-03 0. -1.
    9900012    2    1    2    0    0  0.24435728835E+02  0.59852253281E+01  0.37365568910E+02  0.46142317567E+02  0.99999982268E+01 0.  0.
         12    1    1    2    0    0 -0.24435728835E+02 -0.59852253281E+01 -0.37365568910E+02  0.45045682433E+02  0.00000000000E+00 0. -1.
         11    1    3    3    0    0  0.59199371701E+01  0.45861551118E+01  0.91312285062E+01  0.11809225593E+02  0.51100000000E-03 0. -1.
        -11    1    3    3    0    0  0.17611757957E+02  0.65125124978E+00  0.23038245059E+02  0.29006186965E+02  0.51100000000E-03 0.  1.
        -12    1    3    3    0    0  0.90403370726E+00  0.74781896650E+00  0.51960953444E+01  0.53269050094E+01  0.00000000000E+00 0.  1.
</event>
<event>
 7    1  0.1381440E-008  0.4614232E+02  0.7816164E-02  0.1320468E+00
        -11   -1    0    0    0    0  0.00000000000E+00  0.00000000000E+00  0.45593999997E+02  0.45594000000E+02  0.51100000000E-03 0.  1.
         11   -1    0    0    0    0 -0.00000000000E+00 -0.00000000000E+00 -0.45593999997E+02  0.45594000000E+02  0.51100000000E-03 0. -1.
    9900012    2    1    2    0    0  0.48374026090E+01 -0.17896759037E+02  0.41053854841E+02  0.46142318239E+02  0.10000004361E+02 0.  0.
         12    1    1    2    0    0 -0.48374026090E+01  0.17896759037E+02 -0.41053854841E+02  0.45045681761E+02  0.00000000000E+00 0. -1.
         11    1    3    3    0    0 -0.29643963662E+00 -0.54664573589E+01  0.60834076786E+01  0.81840015738E+01  0.51100000000E-03 0. -1.
        -11    1    3    3    0    0 -0.61971312786E+00 -0.26321587475E+01  0.12372486947E+02  0.12664546480E+02  0.51100000000E-03 0.  1.
        -12    1    3    3    0    0  0.57535553735E+01 -0.97981429302E+01  0.22597960215E+02  0.25293770185E+02  0.00000000000E+00 0.  1.
</event>
<event>
 7    1  0.1381440E-008  0.4614230E+02  0.7816164E-02  0.1320468E+00
        -11   -1    0    0    0    0  0.00000000000E+00  0.00000000000E+00  0.45593999997E+02  0.45594000000E+02  0.51100000000E-03 0.  1.
         11   -1    0    0    0    0 -0.00000000000E+00 -0.00000000000E+00 -0.45593999997E+02  0.45594000000E+02  0.51100000000E-03 0. -1.
    9900012    2    1    2    0    0  0.52222948439E+01 -0.21063328338E+02  0.39473770863E+02  0.46142303754E+02  0.99998722716E+01 0.  0.
         12    1    1    2    0    0 -0.52222948439E+01  0.21063328338E+02 -0.39473770863E+02  0.45045696246E+02  0.00000000000E+00 0. -1.
         11    1    3    3    0    0 -0.17072224649E+01 -0.43796272079E+01  0.12832111133E+02  0.13665973050E+02  0.51100000000E-03 0. -1.
        -11    1    3    3    0    0  0.28538225078E+01 -0.37356331398E+01  0.45172358738E+01  0.65195611863E+01  0.51100000000E-03 0.  1.
         12    1    3    3    0    0  0.40756948010E+01 -0.12948067990E+02  0.22124423857E+02  0.25956769518E+02  0.00000000000E+00 0. -1.
</event>
<event>
 7    1  0.1381440E-008  0.4614232E+02  0.7816164E-02  0.1320468E+00
        -11   -1    0    0    0    0  0.00000000000E+00  0.00000000000E+00  0.45593999997E+02  0.45594000000E+02  0.51100000000E-03 0. -1.
         11   -1    0    0    0    0 -0.00000000000E+00 -0.00000000000E+00 -0.45593999997E+02  0.45594000000E+02  0.51100000000E-03 0.  1.
    9900012    2    1    2    0    0  0.40414668061E+02  0.19841154409E+02 -0.14479902668E+01  0.46142317870E+02  0.10000000996E+02 0.  0.
         12    1    1    2    0    0 -0.40414668061E+02 -0.19841154409E+02  0.14479902668E+01  0.45045682130E+02  0.00000000000E+00 0. -1.
         11    1    3    3    0    0  0.63077814977E+01  0.39441770275E+01 -0.29482370180E+01  0.80022960220E+01  0.51100000000E-03 0. -1.
        -11    1    3    3    0    0  0.16384159703E+02  0.48917513181E+01 -0.10056111592E+01  0.17128373367E+02  0.51100000000E-03 0.  1.
         12    1    3    3    0    0  0.17722726860E+02  0.11005226063E+02  0.25058579104E+01  0.21011648482E+02  0.00000000000E+00 0. -1.
</event>
<event>
 7    1  0.1381440E-008  0.4614232E+02  0.7816164E-02  0.1320468E+00
        -11   -1    0    0    0    0  0.00000000000E+00  0.00000000000E+00  0.45593999997E+02  0.45594000000E+02  0.51100000000E-03 0.  1.
         11   -1    0    0    0    0 -0.00000000000E+00 -0.00000000000E+00 -0.45593999997E+02  0.45594000000E+02  0.51100000000E-03 0. -1.
    9900012    2    1    2    0    0  0.82397928406E+01 -0.41166969967E+02 -0.16324822470E+02  0.46142318398E+02  0.10000005808E+02 0.  0.
         12    1    1    2    0    0 -0.82397928406E+01  0.41166969967E+02  0.16324822470E+02  0.45045681602E+02  0.00000000000E+00 0. -1.
         11    1    3    3    0    0  0.11361061936E+01 -0.19096431988E+01 -0.16126567558E+00  0.22278871850E+01  0.51100000000E-03 0. -1.
        -11    1    3    3    0    0 -0.95818835400E+00 -0.18882206133E+02 -0.80391704054E+01  0.20544685309E+02  0.51100000000E-03 0.  1.
        -12    1    3    3    0    0  0.80618750010E+01 -0.20375120635E+02 -0.81243863885E+01  0.23369745904E+02  0.00000000000E+00 0.  1.
</event>
<event>
 7    1  0.1381440E-008  0.4614232E+02  0.7816164E-02  0.1320468E+00
        -11   -1    0    0    0    0  0.00000000000E+00  0.00000000000E+00  0.45593999997E+02  0.45594000000E+02  0.51100000000E-03 0.  1.
         11   -1    0    0    0    0 -0.00000000000E+00 -0.00000000000E+00 -0.45593999997E+02  0.45594000000E+02  0.51100000000E-03 0. -1.
    9900012    2    1    2    0    0  0.11303452542E+02 -0.31614178832E+02  0.30031465045E+02  0.46142320570E+02  0.10000025609E+02 0.  0.
         12    1    1    2    0    0 -0.11303452542E+02  0.31614178832E+02 -0.30031465045E+02  0.45045679430E+02  0.00000000000E+00 0. -1.
         11    1    3    3    0    0  0.24258874300E+01 -0.30279580319E+01  0.12141774874E+01  0.40654257954E+01  0.51100000000E-03 0. -1.
        -11    1    3    3    0    0  0.18571916576E+01 -0.21409976371E+01  0.52457237879E+01  0.59624365871E+01  0.51100000000E-03 0.  1.
        -12    1    3    3    0    0  0.70203734545E+01 -0.26445223163E+02  0.23571563770E+02  0.36114458187E+02  0.00000000000E+00 0.  1.
</event>
<event>
 7    1  0.1381440E-008  0.4614232E+02  0.7816164E-02  0.1320468E+00
        -11   -1    0    0    0    0  0.00000000000E+00  0.00000000000E+00  0.45593999997E+02  0.45594000000E+02  0.51100000000E-03 0.  1.
         11   -1    0    0    0    0 -0.00000000000E+00 -0.00000000000E+00 -0.45593999997E+02  0.45594000000E+02  0.51100000000E-03 0. -1.
    9900012    2    1    2    0    0  0.11030044122E+02 -0.14841218618E+02  0.41075416771E+02  0.46142317562E+02  0.99999981875E+01 0.  0.
         12    1    1    2    0    0 -0.11030044122E+02  0.14841218618E+02 -0.41075416771E+02  0.45045682438E+02  0.00000000000E+00 0. -1.
         11    1    3    3    0    0 -0.31164565964E+00 -0.22769161624E+01  0.52071806653E+01  0.56917660678E+01  0.51100000000E-03 0. -1.
        -11    1    3    3    0    0  0.36195369398E+01  0.36748110052E+00  0.71083446362E+01  0.79852773118E+01  0.51100000000E-03 0.  1.
        -12    1    3    3    0    0  0.77221528416E+01 -0.12931783556E+02  0.28759891469E+02  0.32465274183E+02  0.00000000000E+00 0.  1.
</event>
<event>
 7    1  0.1381440E-008  0.4614232E+02  0.7816164E-02  0.1320468E+00
        -11   -1    0    0    0    0  0.00000000000E+00  0.00000000000E+00  0.45593999997E+02  0.45594000000E+02  0.51100000000E-03 0.  1.
         11   -1    0    0    0    0 -0.00000000000E+00 -0.00000000000E+00 -0.45593999997E+02  0.45594000000E+02  0.51100000000E-03 0. -1.
    9900012    2    1    2    0    0  0.14884497364E+02 -0.28360593223E+02  0.31673996007E+02  0.46142317267E+02  0.99999954979E+01 0.  0.
         12    1    1    2    0    0 -0.14884497364E+02  0.28360593223E+02 -0.31673996007E+02  0.45045682733E+02  0.00000000000E+00 0. -1.
         11    1    3    3    0    0  0.43655650372E+01 -0.20923591753E+01  0.34081947916E+01  0.59204659455E+01  0.51100000000E-03 0. -1.
        -11    1    3    3    0    0  0.10457461724E+02 -0.26439702921E+02  0.28064672260E+02  0.39950497188E+02  0.51100000000E-03 0.  1.
        -12    1    3    3    0    0  0.61470603402E-01  0.17146887242E+00  0.20112895566E+00  0.27135413411E+00  0.00000000000E+00 0.  1.
</event>
<event>
 7    1  0.1381440E-008  0.4614232E+02  0.7816164E-02  0.1320468E+00
        -11   -1    0    0    0    0  0.00000000000E+00  0.00000000000E+00  0.45593999997E+02  0.45594000000E+02  0.51100000000E-03 0.  1.
         11   -1    0    0    0    0 -0.00000000000E+00 -0.00000000000E+00 -0.45593999997E+02  0.45594000000E+02  0.51100000000E-03 0. -1.
    9900012    2    1    2    0    0 -0.54024111414E+01 -0.42450349509E+02 -0.14067526396E+02  0.46142317426E+02  0.99999969487E+01 0.  0.
         12    1    1    2    0    0  0.54024111414E+01  0.42450349509E+02  0.14067526396E+02  0.45045682574E+02  0.00000000000E+00 0. -1.
         11    1    3    3    0    0  0.62301671220E+00 -0.22930624119E+01  0.23095192242E+00  0.23873885524E+01  0.51100000000E-03 0. -1.
        -11    1    3    3    0    0 -0.23946272448E+01 -0.16356150424E+02 -0.99347621280E+01  0.19286197010E+02  0.51100000000E-03 0.  1.
        -12    1    3    3    0    0 -0.36308006088E+01 -0.23801136674E+02 -0.43637161906E+01  0.24468731864E+02  0.00000000000E+00 0.  1.
</event>
<event>
 7    1  0.1381440E-008  0.4614232E+02  0.7816164E-02  0.1320468E+00
        -11   -1    0    0    0    0  0.00000000000E+00  0.00000000000E+00  0.45593999997E+02  0.45594000000E+02  0.51100000000E-03 0.  1.
         11   -1    0    0    0    0 -0.00000000000E+00 -0.00000000000E+00 -0.45593999997E+02  0.45594000000E+02  0.51100000000E-03 0. -1.
    9900012    2    1    2    0    0  0.89417094902E+01 -0.40939922129E+02  0.16525200318E+02  0.46142316099E+02  0.99999848439E+01 0.  0.
         12    1    1    2    0    0 -0.89417094902E+01  0.40939922129E+02 -0.16525200318E+02  0.45045683901E+02  0.00000000000E+00 0. -1.
         11    1    3    3    0    0  0.90856964295E+00 -0.26641745177E+01  0.63104149931E+00  0.28847076614E+01  0.51100000000E-03 0. -1.
        -11    1    3    3    0    0 -0.35428374504E+00 -0.35187445529E+01 -0.10528860911E+01  0.36899389673E+01  0.51100000000E-03 0.  1.
        -12    1    3    3    0    0  0.83874235923E+01 -0.34757003059E+02  0.16947044910E+02  0.39567669470E+02  0.00000000000E+00 0.  1.
</event>
<event>
 7    1  0.1381440E-008  0.4614232E+02  0.7816164E-02  0.1320468E+00
        -11   -1    0    0    0    0  0.00000000000E+00  0.00000000000E+00  0.45593999997E+02  0.45594000000E+02  0.51100000000E-03 0. -1.
         11   -1    0    0    0    0 -0.00000000000E+00 -0.00000000000E+00 -0.45593999997E+02  0.45594000000E+02  0.51100000000E-03 0.  1.
    9900012    2    1    2    0    0  0.28093578046E+02 -0.67630994991E+01 -0.34556111873E+02  0.46142317521E+02  0.99999978110E+01 0.  0.
         12    1    1    2    0    0 -0.28093578046E+02  0.67630994991E+01  0.34556111873E+02  0.45045682479E+02  0.00000000000E+00 0. -1.
         11    1    3    3    0    0  0.71192026462E+01 -0.21606335154E+01 -0.62143239578E+01  0.96937715064E+01  0.51100000000E-03 0. -1.
        -11    1    3    3    0    0  0.15488573075E+02 -0.50364238981E+01 -0.15527107166E+02  0.22502278080E+02  0.51100000000E-03 0.  1.
        -12    1    3    3    0    0  0.54858023245E+01  0.43395791442E+00 -0.12814680748E+02  0.13946267934E+02  0.00000000000E+00 0.  1.
</event>
<event>
 7    1  0.1381440E-008  0.4614232E+02  0.7816164E-02  0.1320468E+00
        -11   -1    0    0    0    0  0.00000000000E+00  0.00000000000E+00  0.45593999997E+02  0.45594000000E+02  0.51100000000E-03 0.  1.
         11   -1    0    0    0    0 -0.00000000000E+00 -0.00000000000E+00 -0.45593999997E+02  0.45594000000E+02  0.51100000000E-03 0. -1.
    9900012    2    1    2    0    0  0.44705724387E+02  0.29786685749E+01 -0.46517959063E+01  0.46142318025E+02  0.10000002406E+02 0.  0.
         12    1    1    2    0    0 -0.44705724387E+02 -0.29786685749E+01  0.46517959063E+01  0.45045681975E+02  0.00000000000E+00 0. -1.
         11    1    3    3    0    0  0.28112332934E+02  0.27823924356E+01 -0.70085076570E+01  0.29106084424E+02  0.51100000000E-03 0. -1.
        -11    1    3    3    0    0  0.52981076562E+01 -0.13612741261E+01  0.78840612872E+00  0.55267166082E+01  0.51100000000E-03 0.  1.
         12    1    3    3    0    0  0.11295283797E+02  0.15575502655E+01  0.15683056220E+01  0.11509516993E+02  0.00000000000E+00 0. -1.
</event>
<event>
 7    1  0.1381440E-008  0.4614232E+02  0.7816164E-02  0.1320468E+00
        -11   -1    0    0    0    0  0.00000000000E+00  0.00000000000E+00  0.45593999997E+02  0.45594000000E+02  0.51100000000E-03 0.  1.
         11   -1    0    0    0    0 -0.00000000000E+00 -0.00000000000E+00 -0.45593999997E+02  0.45594000000E+02  0.51100000000E-03 0. -1.
    9900012    2    1    2    0    0 -0.39139456918E+02 -0.14025415287E+02  0.17335053596E+02  0.46142318243E+02  0.10000004394E+02 0.  0.
         12    1    1    2    0    0  0.39139456918E+02  0.14025415287E+02 -0.17335053596E+02  0.45045681757E+02  0.00000000000E+00 0. -1.
         11    1    3    3    0    0 -0.66453624894E+01 -0.25506368307E+01  0.72997191575E+01  0.10195709436E+02  0.51100000000E-03 0. -1.
        -11    1    3    3    0    0 -0.14322066904E+02 -0.40729734273E+01  0.40038599885E+01  0.15418871814E+02  0.51100000000E-03 0.  1.
         12    1    3    3    0    0 -0.18172027525E+02 -0.74018050290E+01  0.60314744498E+01  0.20527736994E+02  0.00000000000E+00 0. -1.
</event>
<event>
 7    1  0.1381440E-008  0.4614231E+02  0.7816164E-02  0.1320468E+00
        -11   -1    0    0    0    0  0.00000000000E+00  0.00000000000E+00  0.45593999997E+02  0.45594000000E+02  0.51100000000E-03 0.  1.
         11   -1    0    0    0    0 -0.00000000000E+00 -0.00000000000E+00 -0.45593999997E+02  0.45594000000E+02  0.51100000000E-03 0. -1.
    9900012    2    1    2    0    0  0.32816143022E+02 -0.27433471408E+02 -0.14128664995E+02  0.46142314625E+02  0.99999714037E+01 0.  0.
         12    1    1    2    0    0 -0.32816143022E+02  0.27433471408E+02  0.14128664995E+02  0.45045685375E+02  0.00000000000E+00 0. -1.
         11    1    3    3    0    0  0.99553831557E+00 -0.27523517469E+00 -0.16922223489E+01  0.19825407130E+01  0.51100000000E-03 0. -1.
        -11    1    3    3    0    0  0.20430486268E+02 -0.19746905352E+02 -0.56490427405E+01  0.28969927930E+02  0.51100000000E-03 0.  1.
        -12    1    3    3    0    0  0.11390118439E+02 -0.74113308809E+01 -0.67873999060E+01  0.15189845982E+02  0.00000000000E+00 0.  1.
</event>
<event>
 7    1  0.1381440E-008  0.4614232E+02  0.7816164E-02  0.1320468E+00
        -11   -1    0    0    0    0  0.00000000000E+00  0.00000000000E+00  0.45593999997E+02  0.45594000000E+02  0.51100000000E-03 0.  1.
         11   -1    0    0    0    0 -0.00000000000E+00 -0.00000000000E+00 -0.45593999997E+02  0.45594000000E+02  0.51100000000E-03 0. -1.
    9900012    2    1    2    0    0 -0.50016223768E+01 -0.65795656098E+01  0.44280995725E+02  0.46142317716E+02  0.99999995916E+01 0.  0.
         12    1    1    2    0    0  0.50016223768E+01  0.65795656098E+01 -0.44280995725E+02  0.45045682284E+02  0.00000000000E+00 0. -1.
         11    1    3    3    0    0 -0.38857583424E+00 -0.14750829372E+00 -0.41142065656E+00  0.58482227509E+00  0.51100000000E-03 0. -1.
        -11    1    3    3    0    0 -0.39913675497E+01 -0.57720543790E+01  0.28928601425E+02  0.29767626834E+02  0.51100000000E-03 0.  1.
         12    1    3    3    0    0 -0.62167899285E+00 -0.66000293704E+00  0.15763814956E+02  0.15789868607E+02  0.00000000000E+00 0. -1.
</event>
<event>
 7    1  0.1381440E-008  0.4614231E+02  0.7816164E-02  0.1320468E+00
        -11   -1    0    0    0    0  0.00000000000E+00  0.00000000000E+00  0.45593999997E+02  0.45594000000E+02  0.51100000000E-03 0.  1.
         11   -1    0    0    0    0 -0.00000000000E+00 -0.00000000000E+00 -0.45593999997E+02  0.45594000000E+02  0.51100000000E-03 0. -1.
    9900012    2    1    2    0    0 -0.33254725349E+02  0.12336383476E+02  0.27767810074E+02  0.46142307735E+02  0.99999085740E+01 0.  0.
         12    1    1    2    0    0  0.33254725349E+02 -0.12336383476E+02 -0.27767810074E+02  0.45045692265E+02  0.00000000000E+00 0. -1.
         11    1    3    3    0    0 -0.24799846474E+00 -0.83201838545E+00  0.81586000691E+00  0.11913797229E+01  0.51100000000E-03 0. -1.
        -11    1    3    3    0    0 -0.13028443583E+02  0.69557314415E+01  0.13965021540E+02  0.20325953089E+02  0.51100000000E-03 0.  1.
         12    1    3    3    0    0 -0.19978283301E+02  0.62126704204E+01  0.12986928527E+02  0.24624974923E+02  0.00000000000E+00 0. -1.
</event>
<event>
 7    1  0.1381440E-008  0.4614232E+02  0.7816164E-02  0.1320468E+00
        -11   -1    0    0    0    0  0.00000000000E+00  0.00000000000E+00  0.45593999997E+02  0.45594000000E+02  0.51100000000E-03 0. -1.
         11   -1    0    0    0    0 -0.00000000000E+00 -0.00000000000E+00 -0.45593999997E+02  0.45594000000E+02  0.51100000000E-03 0.  1.
    9900012    2    1    2    0    0  0.66259968158E+01  0.22289867951E+02 -0.38579417426E+02  0.46142317677E+02  0.99999992293E+01 0.  0.
         12    1    1    2    0    0 -0.66259968158E+01 -0.22289867951E+02  0.38579417426E+02  0.45045682323E+02  0.00000000000E+00 0. -1.
         11    1    3    3    0    0  0.43065033352E+00  0.14228939142E+01 -0.47111109186E+00  0.15594975866E+01  0.51100000000E-03 0. -1.
        -11    1    3    3    0    0 -0.66209005797E+00  0.11344260512E+02 -0.17439300540E+02  0.20814894028E+02  0.51100000000E-03 0.  1.
        -12    1    3    3    0    0  0.68574365403E+01  0.95227135243E+01 -0.20669005794E+02  0.23767926062E+02  0.00000000000E+00 0.  1.
</event>
<event>
 7    1  0.1381440E-008  0.4614232E+02  0.7816164E-02  0.1320468E+00
        -11   -1    0    0    0    0  0.00000000000E+00  0.00000000000E+00  0.45593999997E+02  0.45594000000E+02  0.51100000000E-03 0.  1.
         11   -1    0    0    0    0 -0.00000000000E+00 -0.00000000000E+00 -0.45593999997E+02  0.45594000000E+02  0.51100000000E-03 0. -1.
    9900012    2    1    2    0    0 -0.18122292265E+01 -0.44077512934E+02  0.91105507312E+01  0.46142318122E+02  0.10000003295E+02 0.  0.
         12    1    1    2    0    0  0.18122292265E+01  0.44077512934E+02 -0.91105507312E+01  0.45045681878E+02  0.00000000000E+00 0. -1.
         11    1    3    3    0    0 -0.33116938298E+00 -0.17682579557E+01 -0.10337345882E+01  0.20748534450E+01  0.51100000000E-03 0. -1.
        -11    1    3    3    0    0  0.25406998134E+01 -0.22267939375E+02  0.44725480261E+01  0.22854320503E+02  0.51100000000E-03 0.  1.
        -12    1    3    3    0    0 -0.40217596570E+01 -0.20041315603E+02  0.56717372933E+01  0.21213144174E+02  0.00000000000E+00 0.  1.
</event>
<event>
 7    1  0.1381440E-008  0.4614232E+02  0.7816164E-02  0.1320468E+00
        -11   -1    0    0    0    0  0.00000000000E+00  0.00000000000E+00  0.45593999997E+02  0.45594000000E+02  0.51100000000E-03 0.  1.
         11   -1    0    0    0    0 -0.00000000000E+00 -0.00000000000E+00 -0.45593999997E+02  0.45594000000E+02  0.51100000000E-03 0. -1.
    9900012    2    1    2    0    0 -0.86206339584E+01  0.54024303085E-01  0.44213068045E+02  0.46142316140E+02  0.99999852148E+01 0.  0.
         12    1    1    2    0    0  0.86206339584E+01 -0.54024303085E-01 -0.44213068045E+02  0.45045683860E+02  0.00000000000E+00 0. -1.
         11    1    3    3    0    0 -0.60289222686E+01 -0.60891256114E+00  0.14028988081E+02  0.15281727162E+02  0.51100000000E-03 0. -1.
        -11    1    3    3    0    0 -0.23567777446E+01  0.87138822770E+00  0.30384363985E+02  0.30488084456E+02  0.51100000000E-03 0.  1.
         12    1    3    3    0    0 -0.23493394514E+00 -0.20845136347E+00 -0.20028402051E+00  0.37250452129E+00  0.00000000000E+00 0. -1.
</event>
<event>
 7    1  0.1381440E-008  0.4614232E+02  0.7816164E-02  0.1320468E+00
        -11   -1    0    0    0    0  0.00000000000E+00  0.00000000000E+00  0.45593999997E+02  0.45594000000E+02  0.51100000000E-03 0. -1.
         11   -1    0    0    0    0 -0.00000000000E+00 -0.00000000000E+00 -0.45593999997E+02  0.45594000000E+02  0.51100000000E-03 0.  1.
    9900012    2    1    2    0    0  0.18068424813E+02  0.40720566861E+02  0.66694031230E+01  0.46142317868E+02  0.10000000974E+02 0.  0.
         12    1    1    2    0    0 -0.18068424813E+02 -0.40720566861E+02 -0.66694031230E+01  0.45045682132E+02  0.00000000000E+00 0. -1.
         11    1    3    3    0    0  0.46525558256E+01  0.15426529817E+02  0.36501728056E+01  0.16521133729E+02  0.51100000000E-03 0. -1.
        -11    1    3    3    0    0  0.17792883302E+01  0.44125170558E+01  0.31675853198E+01  0.57157476107E+01  0.51100000000E-03 0.  1.
        -12    1    3    3    0    0  0.11636580657E+02  0.20881519988E+02 -0.14835500244E+00  0.23905436529E+02  0.00000000000E+00 0.  1.
</event>
<event>
 7    1  0.1381440E-008  0.4614232E+02  0.7816164E-02  0.1320468E+00
        -11   -1    0    0    0    0  0.00000000000E+00  0.00000000000E+00  0.45593999997E+02  0.45594000000E+02  0.51100000000E-03 0.  1.
         11   -1    0    0    0    0 -0.00000000000E+00 -0.00000000000E+00 -0.45593999997E+02  0.45594000000E+02  0.51100000000E-03 0. -1.
    9900012    2    1    2    0    0 -0.13108118960E+02  0.39906977827E+02  0.16270334233E+02  0.46142318320E+02  0.10000005093E+02 0.  0.
         12    1    1    2    0    0  0.13108118960E+02 -0.39906977827E+02 -0.16270334233E+02  0.45045681680E+02  0.00000000000E+00 0. -1.
         11    1    3    3    0    0 -0.67013466482E+01  0.22928639312E+02  0.13336534098E+02  0.27358612714E+02  0.51100000000E-03 0. -1.
        -11    1    3    3    0    0 -0.67698075690E+01  0.16067827600E+02  0.22317256721E+01  0.17577996986E+02  0.51100000000E-03 0.  1.
        -12    1    3    3    0    0  0.36303525698E+00  0.91051091509E+00  0.70207446328E+00  0.12057086200E+01  0.00000000000E+00 0.  1.
</event>
<event>
 7    1  0.1381440E-008  0.4614232E+02  0.7816164E-02  0.1320468E+00
        -11   -1    0    0    0    0  0.00000000000E+00  0.00000000000E+00  0.45593999997E+02  0.45594000000E+02  0.51100000000E-03 0.  1.
         11   -1    0    0    0    0 -0.00000000000E+00 -0.00000000000E+00 -0.45593999997E+02  0.45594000000E+02  0.51100000000E-03 0. -1.
    9900012    2    1    2    0    0 -0.23458778495E+02 -0.32254073534E+02  0.20939769514E+02  0.46142317684E+02  0.99999992979E+01 0.  0.
         12    1    1    2    0    0  0.23458778495E+02  0.32254073534E+02 -0.20939769514E+02  0.45045682316E+02  0.00000000000E+00 0. -1.
         11    1    3    3    0    0 -0.85491960435E+01 -0.90187581037E+01  0.10503499775E+02  0.16271148039E+02  0.51100000000E-03 0. -1.
        -11    1    3    3    0    0 -0.12122456451E+02 -0.16408387224E+02  0.59962343879E+01  0.21263676746E+02  0.51100000000E-03 0.  1.
        -12    1    3    3    0    0 -0.27871260007E+01 -0.68269282065E+01  0.44400353510E+01  0.86074928985E+01  0.00000000000E+00 0.  1.
</event>
<event>
 7    1  0.1381440E-008  0.4614232E+02  0.7816164E-02  0.1320468E+00
        -11   -1    0    0    0    0  0.00000000000E+00  0.00000000000E+00  0.45593999997E+02  0.45594000000E+02  0.51100000000E-03 0.  1.
         11   -1    0    0    0    0 -0.00000000000E+00 -0.00000000000E+00 -0.45593999997E+02  0.45594000000E+02  0.51100000000E-03 0. -1.
    9900012    2    1    2    0    0 -0.11652546473E+02  0.17393577343E+02  0.39884774728E+02  0.46142316220E+02  0.99999859487E+01 0.  0.
         12    1    1    2    0    0  0.11652546473E+02 -0.17393577343E+02 -0.39884774728E+02  0.45045683780E+02  0.00000000000E+00 0. -1.
         11    1    3    3    0    0  0.61788303073E-01  0.77721131768E-01  0.36097210284E-01  0.10564865561E+00  0.51100000000E-03 0. -1.
        -11    1    3    3    0    0 -0.80117988108E+00  0.83109943791E+01  0.19892793516E+02  0.21574006371E+02  0.51100000000E-03 0.  1.
        -12    1    3    3    0    0 -0.10913154895E+02  0.90048618325E+01  0.19955884002E+02  0.24462661194E+02  0.00000000000E+00 0.  1.
</event>
<event>
 7    1  0.1381440E-008  0.4614232E+02  0.7816164E-02  0.1320468E+00
        -11   -1    0    0    0    0  0.00000000000E+00  0.00000000000E+00  0.45593999997E+02  0.45594000000E+02  0.51100000000E-03 0.  1.
         11   -1    0    0    0    0 -0.00000000000E+00 -0.00000000000E+00 -0.45593999997E+02  0.45594000000E+02  0.51100000000E-03 0. -1.
    9900012    2    1    2    0    0  0.79328122076E+01 -0.35845068294E+02  0.26102014832E+02  0.46142316424E+02  0.99999878101E+01 0.  0.
         12    1    1    2    0    0 -0.79328122076E+01  0.35845068294E+02 -0.26102014832E+02  0.45045683576E+02  0.00000000000E+00 0. -1.
         11    1    3    3    0    0  0.31156666070E+01 -0.18645319381E+02  0.15225758496E+02  0.24273010429E+02  0.51100000000E-03 0. -1.
        -11    1    3    3    0    0  0.24528860752E+01 -0.14690143805E+02  0.10840916851E+02  0.18421250054E+02  0.51100000000E-03 0.  1.
         12    1    3    3    0    0  0.23642595254E+01 -0.25096051073E+01  0.35339485132E-01  0.34480559417E+01  0.00000000000E+00 0. -1.
</event>
<event>
 7    1  0.1381440E-008  0.4614232E+02  0.7816164E-02  0.1320468E+00
        -11   -1    0    0    0    0  0.00000000000E+00  0.00000000000E+00  0.45593999997E+02  0.45594000000E+02  0.51100000000E-03 0.  1.
         11   -1    0    0    0    0 -0.00000000000E+00 -0.00000000000E+00 -0.45593999997E+02  0.45594000000E+02  0.51100000000E-03 0. -1.
    9900012    2    1    2    0    0  0.29016731105E+02  0.32109437742E+02  0.12495066506E+02  0.46142319152E+02  0.10000012680E+02 0.  0.
         12    1    1    2    0    0 -0.29016731105E+02 -0.32109437742E+02 -0.12495066506E+02  0.45045680848E+02  0.00000000000E+00 0. -1.
         11    1    3    3    0    0  0.16883603299E+02  0.12973291764E+02  0.78768061583E+01  0.22702564504E+02  0.51100000000E-03 0. -1.
        -11    1    3    3    0    0  0.75972358055E+01  0.14954062437E+02  0.39660463557E+01  0.17235762218E+02  0.51100000000E-03 0.  1.
         12    1    3    3    0    0  0.45358919998E+01  0.41820835407E+01  0.65221399201E+00  0.62039924296E+01  0.00000000000E+00 0. -1.
</event>
<event>
 7    1  0.1381440E-008  0.4614232E+02  0.7816164E-02  0.1320468E+00
        -11   -1    0    0    0    0  0.00000000000E+00  0.00000000000E+00  0.45593999997E+02  0.45594000000E+02  0.51100000000E-03 0.  1.
         11   -1    0    0    0    0 -0.00000000000E+00 -0.00000000000E+00 -0.45593999997E+02  0.45594000000E+02  0.51100000000E-03 0. -1.
    9900012    2    1    2    0    0  0.14116249413E+02  0.12399717304E+02  0.40940103290E+02  0.46142317143E+02  0.99999943611E+01 0.  0.
         12    1    1    2    0    0 -0.14116249413E+02 -0.12399717304E+02 -0.40940103290E+02  0.45045682857E+02  0.00000000000E+00 0. -1.
         11    1    3    3    0    0  0.52593957269E+01  0.28105693328E+01  0.17644122860E+02  0.18624597046E+02  0.51100000000E-03 0. -1.
        -11    1    3    3    0    0  0.29181804265E+01  0.27398596149E+01  0.13885971006E+02  0.14451394353E+02  0.51100000000E-03 0.  1.
         12    1    3    3    0    0  0.59386732597E+01  0.68492883563E+01  0.94100094244E+01  0.13066325744E+02  0.00000000000E+00 0. -1.
</event>
<event>
 7    1  0.1381440E-008  0.4614232E+02  0.7816164E-02  0.1320468E+00
        -11   -1    0    0    0    0  0.00000000000E+00  0.00000000000E+00  0.45593999997E+02  0.45594000000E+02  0.51100000000E-03 0. -1.
         11   -1    0    0    0    0 -0.00000000000E+00 -0.00000000000E+00 -0.45593999997E+02  0.45594000000E+02  0.51100000000E-03 0.  1.
    9900012    2    1    2    0    0 -0.13212136739E+02 -0.36688140930E+02 -0.22550681517E+02  0.46142317865E+02  0.10000000950E+02 0.  0.
         12    1    1    2    0    0  0.13212136739E+02  0.36688140930E+02  0.22550681517E+02  0.45045682135E+02  0.00000000000E+00 0. -1.
         11    1    3    3    0    0 -0.89665411500E+01 -0.22491317596E+02 -0.11042865071E+02  0.26612085537E+02  0.51100000000E-03 0. -1.
        -11    1    3    3    0    0 -0.88303664468E+00 -0.29446334591E+01 -0.55901058642E+01  0.63796476202E+01  0.51100000000E-03 0.  1.
         12    1    3    3    0    0 -0.33625589438E+01 -0.11252189875E+02 -0.59177105821E+01  0.13150584708E+02  0.00000000000E+00 0. -1.
</event>
<event>
 7    1  0.1381440E-008  0.4614232E+02  0.7816164E-02  0.1320468E+00
        -11   -1    0    0    0    0  0.00000000000E+00  0.00000000000E+00  0.45593999997E+02  0.45594000000E+02  0.51100000000E-03 0.  1.
         11   -1    0    0    0    0 -0.00000000000E+00 -0.00000000000E+00 -0.45593999997E+02  0.45594000000E+02  0.51100000000E-03 0. -1.
    9900012    2    1    2    0    0  0.47017273006E+01 -0.51731598305E+01  0.44499951357E+02  0.46142317710E+02  0.99999995312E+01 0.  0.
         12    1    1    2    0    0 -0.47017273006E+01  0.51731598305E+01 -0.44499951357E+02  0.45045682290E+02  0.00000000000E+00 0. -1.
         11    1    3    3    0    0  0.30589309035E+01 -0.30277130266E+01  0.15462204685E+02  0.16050042942E+02  0.51100000000E-03 0.  1.
        -11    1    3    3    0    0 -0.15331409881E+01  0.19522353736E+01  0.13081385707E+02  0.13314818681E+02  0.51100000000E-03 0. -1.
         12    1    3    3    0    0  0.31759373851E+01 -0.40976821775E+01  0.15956360965E+02  0.16777456087E+02  0.00000000000E+00 0. -1.
</event>
<event>
 7    1  0.1381440E-008  0.4614232E+02  0.7816164E-02  0.1320468E+00
        -11   -1    0    0    0    0  0.00000000000E+00  0.00000000000E+00  0.45593999997E+02  0.45594000000E+02  0.51100000000E-03 0.  1.
         11   -1    0    0    0    0 -0.00000000000E+00 -0.00000000000E+00 -0.45593999997E+02  0.45594000000E+02  0.51100000000E-03 0. -1.
    9900012    2    1    2    0    0 -0.32558173854E+02  0.23250794671E+02  0.20699743456E+02  0.46142317447E+02  0.99999971387E+01 0.  0.
         12    1    1    2    0    0  0.32558173854E+02 -0.23250794671E+02 -0.20699743456E+02  0.45045682553E+02  0.00000000000E+00 0. -1.
         11    1    3    3    0    0 -0.12101639034E+02  0.11488450186E+02  0.12535449742E+02  0.20870353506E+02  0.51100000000E-03 0. -1.
        -11    1    3    3    0    0 -0.11818690913E+02  0.79340021849E+01  0.31641066560E+01  0.14582229485E+02  0.51100000000E-03 0.  1.
         12    1    3    3    0    0 -0.86378439069E+01  0.38283422997E+01  0.50001870578E+01  0.10689734456E+02  0.00000000000E+00 0. -1.
</event>
<event>
 7    1  0.1381440E-008  0.4614232E+02  0.7816164E-02  0.1320468E+00
        -11   -1    0    0    0    0  0.00000000000E+00  0.00000000000E+00  0.45593999997E+02  0.45594000000E+02  0.51100000000E-03 0.  1.
         11   -1    0    0    0    0 -0.00000000000E+00 -0.00000000000E+00 -0.45593999997E+02  0.45594000000E+02  0.51100000000E-03 0. -1.
    9900012    2    1    2    0    0  0.20901082141E+02  0.12613150135E+01  0.39883169911E+02  0.46142318827E+02  0.10000009718E+02 0.  0.
         12    1    1    2    0    0 -0.20901082141E+02 -0.12613150135E+01 -0.39883169911E+02  0.45045681173E+02  0.00000000000E+00 0. -1.
         11    1    3    3    0    0  0.17464569482E+01  0.28219418800E+01  0.45855249202E+01  0.56604334552E+01  0.51100000000E-03 0. -1.
        -11    1    3    3    0    0  0.15936690201E+02 -0.23836454363E+00  0.25358350028E+02  0.29951307628E+02  0.51100000000E-03 0.  1.
        -12    1    3    3    0    0  0.32179349915E+01 -0.13222623228E+01  0.99392949621E+01  0.10530577743E+02  0.00000000000E+00 0.  1.
</event>
<event>
 7    1  0.1381440E-008  0.4614232E+02  0.7816164E-02  0.1320468E+00
        -11   -1    0    0    0    0  0.00000000000E+00  0.00000000000E+00  0.45593999997E+02  0.45594000000E+02  0.51100000000E-03 0.  1.
         11   -1    0    0    0    0 -0.00000000000E+00 -0.00000000000E+00 -0.45593999997E+02  0.45594000000E+02  0.51100000000E-03 0. -1.
    9900012    2    1    2    0    0 -0.43717743164E+02 -0.11487062369E+01  0.10795966295E+02  0.46142317836E+02  0.10000000687E+02 0.  0.
         12    1    1    2    0    0  0.43717743164E+02  0.11487062369E+01 -0.10795966295E+02  0.45045682164E+02  0.00000000000E+00 0. -1.
         11    1    3    3    0    0 -0.30919661766E+02  0.57383261622E+00  0.10161153765E+02  0.32551556241E+02  0.51100000000E-03 0. -1.
        -11    1    3    3    0    0 -0.11105905414E+02 -0.28463407520E+01  0.10654962479E+01  0.11514255220E+02  0.51100000000E-03 0.  1.
         12    1    3    3    0    0 -0.16921759832E+01  0.11238018988E+01 -0.43068371738E+00  0.20765063762E+01  0.00000000000E+00 0. -1.
</event>
<event>
 7    1  0.1381440E-008  0.4614232E+02  0.7816164E-02  0.1320468E+00
        -11   -1    0    0    0    0  0.00000000000E+00  0.00000000000E+00  0.45593999997E+02  0.45594000000E+02  0.51100000000E-03 0.  1.
         11   -1    0    0    0    0 -0.00000000000E+00 -0.00000000000E+00 -0.45593999997E+02  0.45594000000E+02  0.51100000000E-03 0. -1.
    9900012    2    1    2    0    0  0.90814262411E+01  0.14083353273E+01  0.44098274366E+02  0.46142317488E+02  0.99999975065E+01 0.  0.
         12    1    1    2    0    0 -0.90814262411E+01 -0.14083353273E+01 -0.44098274366E+02  0.45045682512E+02  0.00000000000E+00 0. -1.
         11    1    3    3    0    0  0.26224483881E+00  0.57774681263E+00  0.16884500512E+00  0.65656121715E+00  0.51100000000E-03 0. -1.
        -11    1    3    3    0    0  0.85562466778E+01  0.29746579742E+01  0.39883505981E+02  0.40899290910E+02  0.51100000000E-03 0.  1.
        -12    1    3    3    0    0  0.26293472453E+00 -0.21440694596E+01  0.40459233791E+01  0.45864653609E+01  0.00000000000E+00 0.  1.
</event>
<event>
 7    1  0.1381440E-008  0.4614232E+02  0.7816164E-02  0.1320468E+00
        -11   -1    0    0    0    0  0.00000000000E+00  0.00000000000E+00  0.45593999997E+02  0.45594000000E+02  0.51100000000E-03 0.  1.
         11   -1    0    0    0    0 -0.00000000000E+00 -0.00000000000E+00 -0.45593999997E+02  0.45594000000E+02  0.51100000000E-03 0. -1.
    9900012    2    1    2    0    0  0.46780950382E+01  0.44800849665E+02 -0.33582158870E+00  0.46142317854E+02  0.10000000843E+02 0.  0.
         12    1    1    2    0    0 -0.46780950382E+01 -0.44800849665E+02  0.33582158870E+00  0.45045682146E+02  0.00000000000E+00 0. -1.
         11    1    3    3    0    0  0.22556015188E+01  0.27154338456E+02  0.20412015104E+01  0.27324207931E+02  0.51100000000E-03 0. -1.
        -11    1    3    3    0    0  0.84134801248E-01  0.99336257242E+01  0.11889883206E+01  0.10004883417E+02  0.51100000000E-03 0.  1.
         12    1    3    3    0    0  0.23383587181E+01  0.77128854848E+01 -0.35660114197E+01  0.88132265058E+01  0.00000000000E+00 0. -1.
</event>
<event>
 7    1  0.1381440E-008  0.4614232E+02  0.7816164E-02  0.1320468E+00
        -11   -1    0    0    0    0  0.00000000000E+00  0.00000000000E+00  0.45593999997E+02  0.45594000000E+02  0.51100000000E-03 0.  1.
         11   -1    0    0    0    0 -0.00000000000E+00 -0.00000000000E+00 -0.45593999997E+02  0.45594000000E+02  0.51100000000E-03 0. -1.
    9900012    2    1    2    0    0  0.12013314793E+02 -0.23289374347E+01  0.43351698918E+02  0.46142317843E+02  0.10000000750E+02 0.  0.
         12    1    1    2    0    0 -0.12013314793E+02  0.23289374347E+01 -0.43351698918E+02  0.45045682157E+02  0.00000000000E+00 0. -1.
         11    1    3    3    0    0 -0.36520476089E+00  0.19398685419E+01  0.57191312651E+01  0.60502005889E+01  0.51100000000E-03 0. -1.
        -11    1    3    3    0    0  0.12212435142E+02 -0.37203330315E+01  0.32340781234E+02  0.34769391439E+02  0.51100000000E-03 0.  1.
         12    1    3    3    0    0  0.16608441206E+00 -0.54847294510E+00  0.52917864190E+01  0.53227258155E+01  0.00000000000E+00 0. -1.
</event>
<event>
 7    1  0.1381440E-008  0.4614232E+02  0.7816164E-02  0.1320468E+00
        -11   -1    0    0    0    0  0.00000000000E+00  0.00000000000E+00  0.45593999997E+02  0.45594000000E+02  0.51100000000E-03 0.  1.
         11   -1    0    0    0    0 -0.00000000000E+00 -0.00000000000E+00 -0.45593999997E+02  0.45594000000E+02  0.51100000000E-03 0. -1.
    9900012    2    1    2    0    0 -0.44762167734E+02  0.27540031273E+01 -0.42281604628E+01  0.46142317250E+02  0.99999953423E+01 0.  0.
         12    1    1    2    0    0  0.44762167734E+02 -0.27540031273E+01  0.42281604628E+01  0.45045682750E+02  0.00000000000E+00 0. -1.
         11    1    3    3    0    0 -0.18383809570E+02  0.50866292995E+01 -0.37444087275E+01  0.19438591742E+02  0.51100000000E-03 0.  1.
        -11    1    3    3    0    0 -0.10268845175E+02 -0.12583141068E+01  0.14354505918E+01  0.10444762050E+02  0.51100000000E-03 0. -1.
         12    1    3    3    0    0 -0.16109512990E+02 -0.10743120655E+01 -0.19192023270E+01  0.16258963459E+02  0.00000000000E+00 0. -1.
</event>
<event>
 7    1  0.1381440E-008  0.4614232E+02  0.7816164E-02  0.1320468E+00
        -11   -1    0    0    0    0  0.00000000000E+00  0.00000000000E+00  0.45593999997E+02  0.45594000000E+02  0.51100000000E-03 0.  1.
         11   -1    0    0    0    0 -0.00000000000E+00 -0.00000000000E+00 -0.45593999997E+02  0.45594000000E+02  0.51100000000E-03 0. -1.
    9900012    2    1    2    0    0 -0.29204690635E+01  0.44817234499E+01  0.44726932906E+02  0.46142317501E+02  0.99999976315E+01 0.  0.
         12    1    1    2    0    0  0.29204690635E+01 -0.44817234499E+01 -0.44726932906E+02  0.45045682499E+02  0.00000000000E+00 0. -1.
         11    1    3    3    0    0  0.15108578763E+01  0.25719720800E+00  0.13914305997E+01  0.20700051452E+01  0.51100000000E-03 0. -1.
        -11    1    3    3    0    0 -0.40358343163E+00  0.18027793067E+01  0.27296121092E+02  0.27358565747E+02  0.51100000000E-03 0.  1.
         12    1    3    3    0    0 -0.40277435082E+01  0.24217469352E+01  0.16039381214E+02  0.16713746609E+02  0.00000000000E+00 0. -1.
</event>
<event>
 7    1  0.1381440E-008  0.4614232E+02  0.7816164E-02  0.1320468E+00
        -11   -1    0    0    0    0  0.00000000000E+00  0.00000000000E+00  0.45593999997E+02  0.45594000000E+02  0.51100000000E-03 0.  1.
         11   -1    0    0    0    0 -0.00000000000E+00 -0.00000000000E+00 -0.45593999997E+02  0.45594000000E+02  0.51100000000E-03 0. -1.
    9900012    2    1    2    0    0 -0.37511398100E+02 -0.20998638387E+02  0.13456068408E+02  0.46142316760E+02  0.99999908746E+01 0.  0.
         12    1    1    2    0    0  0.37511398100E+02  0.20998638387E+02 -0.13456068408E+02  0.45045683240E+02  0.00000000000E+00 0. -1.
         11    1    3    3    0    0 -0.90547327749E+01 -0.88774353053E+01  0.69972249529E+01  0.14483031469E+02  0.51100000000E-03 0. -1.
        -11    1    3    3    0    0 -0.25010507132E+02 -0.11226338660E+02  0.53645611269E+01  0.27934470875E+02  0.51100000000E-03 0.  1.
         12    1    3    3    0    0 -0.34461581935E+01 -0.89486442137E+00  0.10942823279E+01  0.37248144169E+01  0.00000000000E+00 0. -1.
</event>
<event>
 7    1  0.1381440E-008  0.4614232E+02  0.7816164E-02  0.1320468E+00
        -11   -1    0    0    0    0  0.00000000000E+00  0.00000000000E+00  0.45593999997E+02  0.45594000000E+02  0.51100000000E-03 0.  1.
         11   -1    0    0    0    0 -0.00000000000E+00 -0.00000000000E+00 -0.45593999997E+02  0.45594000000E+02  0.51100000000E-03 0. -1.
    9900012    2    1    2    0    0  0.40768728627E+02 -0.13194155220E+02  0.13890229163E+02  0.46142318387E+02  0.10000005703E+02 0.  0.
         12    1    1    2    0    0 -0.40768728627E+02  0.13194155220E+02 -0.13890229163E+02  0.45045681613E+02  0.00000000000E+00 0. -1.
         11    1    3    3    0    0  0.61255255875E+01 -0.17547495542E+01 -0.14855231957E+01  0.65427814535E+01  0.51100000000E-03 0. -1.
        -11    1    3    3    0    0  0.11263929902E+02 -0.33131749985E+01  0.48827656409E+01  0.12715920964E+02  0.51100000000E-03 0.  1.
         12    1    3    3    0    0  0.23379273138E+02 -0.81262306676E+01  0.10492986717E+02  0.26883615969E+02  0.00000000000E+00 0. -1.
</event>
<event>
 7    1  0.1381440E-008  0.4614232E+02  0.7816164E-02  0.1320468E+00
        -11   -1    0    0    0    0  0.00000000000E+00  0.00000000000E+00  0.45593999997E+02  0.45594000000E+02  0.51100000000E-03 0.  1.
         11   -1    0    0    0    0 -0.00000000000E+00 -0.00000000000E+00 -0.45593999997E+02  0.45594000000E+02  0.51100000000E-03 0. -1.
    9900012    2    1    2    0    0 -0.10545171588E+02  0.39422678488E+02  0.19072631374E+02  0.46142317737E+02  0.99999997838E+01 0.  0.
         12    1    1    2    0    0  0.10545171588E+02 -0.39422678488E+02 -0.19072631374E+02  0.45045682263E+02  0.00000000000E+00 0. -1.
         11    1    3    3    0    0 -0.16916141838E+01  0.19034717609E+01  0.26053244527E+01  0.36431413720E+01  0.51100000000E-03 0. -1.
        -11    1    3    3    0    0 -0.71146019295E+01  0.24390873688E+02  0.14063186909E+02  0.29039722902E+02  0.51100000000E-03 0.  1.
         12    1    3    3    0    0 -0.17389554746E+01  0.13128333038E+02  0.24041200124E+01  0.13459453464E+02  0.00000000000E+00 0. -1.
</event>
<event>
 7    1  0.1381440E-008  0.4614232E+02  0.7816164E-02  0.1320468E+00
        -11   -1    0    0    0    0  0.00000000000E+00  0.00000000000E+00  0.45593999997E+02  0.45594000000E+02  0.51100000000E-03 0. -1.
         11   -1    0    0    0    0 -0.00000000000E+00 -0.00000000000E+00 -0.45593999997E+02  0.45594000000E+02  0.51100000000E-03 0.  1.
    9900012    2    1    2    0    0  0.42173372295E+02  0.13628870557E+02 -0.80482295531E+01  0.46142318272E+02  0.10000004655E+02 0.  0.
         12    1    1    2    0    0 -0.42173372295E+02 -0.13628870557E+02  0.80482295531E+01  0.45045681728E+02  0.00000000000E+00 0. -1.
         11    1    3    3    0    0  0.36735154358E+01  0.17979411831E+01  0.15109726310E+01  0.43600856307E+01  0.51100000000E-03 0. -1.
        -11    1    3    3    0    0  0.37571450701E+02  0.12007724700E+02 -0.10068843092E+02  0.40708487588E+02  0.51100000000E-03 0.  1.
        -12    1    3    3    0    0  0.92840615879E+00 -0.17679532584E+00  0.50964090824E+00  0.10737450527E+01  0.00000000000E+00 0.  1.
</event>
<event>
 7    1  0.1381440E-008  0.4614232E+02  0.7816164E-02  0.1320468E+00
        -11   -1    0    0    0    0  0.00000000000E+00  0.00000000000E+00  0.45593999997E+02  0.45594000000E+02  0.51100000000E-03 0. -1.
         11   -1    0    0    0    0 -0.00000000000E+00 -0.00000000000E+00 -0.45593999997E+02  0.45594000000E+02  0.51100000000E-03 0.  1.
    9900012    2    1    2    0    0  0.24299570901E+02 -0.31049410730E+02 -0.21784825233E+02  0.46142315822E+02  0.99999823161E+01 0.  0.
         12    1    1    2    0    0 -0.24299570901E+02  0.31049410730E+02  0.21784825233E+02  0.45045684178E+02  0.00000000000E+00 0. -1.
         11    1    3    3    0    0  0.18841403421E+02 -0.19333317548E+02 -0.12025773118E+02  0.29553254806E+02  0.51100000000E-03 0. -1.
        -11    1    3    3    0    0  0.25489247392E+00 -0.79115098848E-01  0.26231545129E+00  0.37421789005E+00  0.51100000000E-03 0.  1.
        -12    1    3    3    0    0  0.52032750064E+01 -0.11636978083E+02 -0.10021367567E+02  0.16214843126E+02  0.00000000000E+00 0.  1.
</event>
<event>
 7    1  0.1381440E-008  0.4614232E+02  0.7816164E-02  0.1320468E+00
        -11   -1    0    0    0    0  0.00000000000E+00  0.00000000000E+00  0.45593999997E+02  0.45594000000E+02  0.51100000000E-03 0.  1.
         11   -1    0    0    0    0 -0.00000000000E+00 -0.00000000000E+00 -0.45593999997E+02  0.45594000000E+02  0.51100000000E-03 0. -1.
    9900012    2    1    2    0    0  0.42953605115E+02  0.11891356150E+02  0.65342882672E+01  0.46142318002E+02  0.10000002198E+02 0.  0.
         12    1    1    2    0    0 -0.42953605115E+02 -0.11891356150E+02 -0.65342882672E+01  0.45045681998E+02  0.00000000000E+00 0. -1.
         11    1    3    3    0    0 -0.21489833644E+00  0.74663243546E+00 -0.34717546192E+00  0.85098316738E+00  0.51100000000E-03 0. -1.
        -11    1    3    3    0    0  0.25031841807E+02  0.44032709841E+01  0.39868056379E+01  0.25726960937E+02  0.51100000000E-03 0.  1.
        -12    1    3    3    0    0  0.18136661645E+02  0.67414527307E+01  0.28946580912E+01  0.19564373897E+02  0.00000000000E+00 0.  1.
</event>
<event>
 7    1  0.1381440E-008  0.4614232E+02  0.7816164E-02  0.1320468E+00
        -11   -1    0    0    0    0  0.00000000000E+00  0.00000000000E+00  0.45593999997E+02  0.45594000000E+02  0.51100000000E-03 0.  1.
         11   -1    0    0    0    0 -0.00000000000E+00 -0.00000000000E+00 -0.45593999997E+02  0.45594000000E+02  0.51100000000E-03 0. -1.
    9900012    2    1    2    0    0 -0.23433219193E+02  0.28772596436E+02  0.25536930828E+02  0.46142324253E+02  0.10000059195E+02 0.  0.
         12    1    1    2    0    0  0.23433219193E+02 -0.28772596436E+02 -0.25536930828E+02  0.45045675747E+02  0.00000000000E+00 0. -1.
         11    1    3    3    0    0 -0.34173951113E+01  0.78634871521E+01  0.92201839993E+01  0.12590663715E+02  0.51100000000E-03 0. -1.
        -11    1    3    3    0    0 -0.10317315212E+02  0.85937825788E+01  0.95524528221E+01  0.16478757458E+02  0.51100000000E-03 0.  1.
         12    1    3    3    0    0 -0.96985088706E+01  0.12315326705E+02  0.67642940069E+01  0.17072903080E+02  0.00000000000E+00 0. -1.
</event>
<event>
 7    1  0.1381440E-008  0.4614232E+02  0.7816164E-02  0.1320468E+00
        -11   -1    0    0    0    0  0.00000000000E+00  0.00000000000E+00  0.45593999997E+02  0.45594000000E+02  0.51100000000E-03 0. -1.
         11   -1    0    0    0    0 -0.00000000000E+00 -0.00000000000E+00 -0.45593999997E+02  0.45594000000E+02  0.51100000000E-03 0.  1.
    9900012    2    1    2    0    0 -0.20480759370E+02  0.51222287752E+01 -0.39792140680E+02  0.46142321052E+02  0.10000030005E+02 0.  0.
         12    1    1    2    0    0  0.20480759370E+02 -0.51222287752E+01  0.39792140680E+02  0.45045678948E+02  0.00000000000E+00 0. -1.
         11    1    3    3    0    0 -0.86747357369E+01 -0.97153206202E+00 -0.95042814607E+01  0.12904506228E+02  0.51100000000E-03 0. -1.
        -11    1    3    3    0    0 -0.10472050288E+02  0.40550689979E+01 -0.25597061008E+02  0.27952047408E+02  0.51100000000E-03 0.  1.
         12    1    3    3    0    0 -0.13339733454E+01  0.20386918393E+01 -0.46907982120E+01  0.52857674152E+01  0.00000000000E+00 0. -1.
</event>
<event>
 7    1  0.1381440E-008  0.4614232E+02  0.7816164E-02  0.1320468E+00
        -11   -1    0    0    0    0  0.00000000000E+00  0.00000000000E+00  0.45593999997E+02  0.45594000000E+02  0.51100000000E-03 0.  1.
         11   -1    0    0    0    0 -0.00000000000E+00 -0.00000000000E+00 -0.45593999997E+02  0.45594000000E+02  0.51100000000E-03 0. -1.
    9900012    2    1    2    0    0  0.33168132680E+02  0.26127985454E+01  0.30367116356E+02  0.46142317659E+02  0.99999990710E+01 0.  0.
         12    1    1    2    0    0 -0.33168132680E+02 -0.26127985454E+01 -0.30367116356E+02  0.45045682341E+02  0.00000000000E+00 0. -1.
         11    1    3    3    0    0  0.42917526392E+01  0.99732360052E+00  0.53956388559E+01  0.69661118283E+01  0.51100000000E-03 0. -1.
        -11    1    3    3    0    0  0.92363037455E+01  0.22416024689E+01  0.36508684270E+01  0.10181499351E+02  0.51100000000E-03 0.  1.
        -12    1    3    3    0    0  0.19640076296E+02 -0.62612752403E+00  0.21320609073E+02  0.28994706480E+02  0.00000000000E+00 0.  1.
</event>
<event>
 7    1  0.1381440E-008  0.4614232E+02  0.7816164E-02  0.1320468E+00
        -11   -1    0    0    0    0  0.00000000000E+00  0.00000000000E+00  0.45593999997E+02  0.45594000000E+02  0.51100000000E-03 0.  1.
         11   -1    0    0    0    0 -0.00000000000E+00 -0.00000000000E+00 -0.45593999997E+02  0.45594000000E+02  0.51100000000E-03 0. -1.
    9900012    2    1    2    0    0 -0.38619175369E+02 -0.46126444569E+01  0.22724354520E+02  0.46142317816E+02  0.10000000500E+02 0.  0.
         12    1    1    2    0    0  0.38619175369E+02  0.46126444569E+01 -0.22724354520E+02  0.45045682184E+02  0.00000000000E+00 0. -1.
         11    1    3    3    0    0 -0.27022371339E+02 -0.50554028266E+01  0.18074413333E+02  0.32900608932E+02  0.51100000000E-03 0. -1.
        -11    1    3    3    0    0 -0.11203581012E+02  0.14551783450E+01  0.40552283819E+01  0.12003443214E+02  0.51100000000E-03 0.  1.
         12    1    3    3    0    0 -0.39322301856E+00 -0.10124199753E+01  0.59471280524E+00  0.12382656699E+01  0.00000000000E+00 0. -1.
</event>
<event>
 7    1  0.1381440E-008  0.4614232E+02  0.7816164E-02  0.1320468E+00
        -11   -1    0    0    0    0  0.00000000000E+00  0.00000000000E+00  0.45593999997E+02  0.45594000000E+02  0.51100000000E-03 0.  1.
         11   -1    0    0    0    0 -0.00000000000E+00 -0.00000000000E+00 -0.45593999997E+02  0.45594000000E+02  0.51100000000E-03 0. -1.
    9900012    2    1    2    0    0 -0.11033470470E+01  0.49097930946E+01  0.44763713745E+02  0.46142317508E+02  0.99999976907E+01 0.  0.
         12    1    1    2    0    0  0.11033470470E+01 -0.49097930946E+01 -0.44763713745E+02  0.45045682492E+02  0.00000000000E+00 0. -1.
         11    1    3    3    0    0 -0.32609283798E+01  0.60643768149E+01  0.19066415376E+02  0.20271618475E+02  0.51100000000E-03 0. -1.
        -11    1    3    3    0    0  0.19207005206E+01 -0.11824923214E+00  0.15999818342E+02  0.16115125212E+02  0.51100000000E-03 0.  1.
         12    1    3    3    0    0  0.23688081220E+00 -0.10363344881E+01  0.96974800276E+01  0.97555738209E+01  0.00000000000E+00 0. -1.
</event>
<event>
 7    1  0.1381440E-008  0.4614232E+02  0.7816164E-02  0.1320468E+00
        -11   -1    0    0    0    0  0.00000000000E+00  0.00000000000E+00  0.45593999997E+02  0.45594000000E+02  0.51100000000E-03 0. -1.
         11   -1    0    0    0    0 -0.00000000000E+00 -0.00000000000E+00 -0.45593999997E+02  0.45594000000E+02  0.51100000000E-03 0.  1.
    9900012    2    1    2    0    0  0.36221670130E+01  0.34759942132E+02 -0.28420767419E+02  0.46142315506E+02  0.99999794342E+01 0.  0.
         12    1    1    2    0    0 -0.36221670130E+01 -0.34759942132E+02  0.28420767419E+02  0.45045684494E+02  0.00000000000E+00 0. -1.
         11    1    3    3    0    0  0.22997513540E+01  0.62973314301E+01 -0.47894727201E+01  0.82391922316E+01  0.51100000000E-03 0. -1.
        -11    1    3    3    0    0  0.11442120822E+01  0.21770395742E+02 -0.22084856132E+02  0.31032244886E+02  0.51100000000E-03 0.  1.
        -12    1    3    3    0    0  0.17820357681E+00  0.66922149599E+01 -0.15464385670E+01  0.68708783882E+01  0.00000000000E+00 0.  1.
</event>
<event>
 7    1  0.1381440E-008  0.4614232E+02  0.7816164E-02  0.1320468E+00
        -11   -1    0    0    0    0  0.00000000000E+00  0.00000000000E+00  0.45593999997E+02  0.45594000000E+02  0.51100000000E-03 0.  1.
         11   -1    0    0    0    0 -0.00000000000E+00 -0.00000000000E+00 -0.45593999997E+02  0.45594000000E+02  0.51100000000E-03 0. -1.
    9900012    2    1    2    0    0  0.37520643723E+02 -0.21909706434E+02  0.11886101043E+02  0.46142319415E+02  0.10000015080E+02 0.  0.
         12    1    1    2    0    0 -0.37520643723E+02  0.21909706434E+02 -0.11886101043E+02  0.45045680585E+02  0.00000000000E+00 0. -1.
         11    1    3    3    0    0  0.33150975552E+00  0.61749732212E+00 -0.41351871584E+00  0.81375650553E+00  0.51100000000E-03 0. -1.
        -11    1    3    3    0    0  0.35400953743E+02 -0.20519520318E+02  0.11878305466E+02  0.42607186964E+02  0.51100000000E-03 0.  1.
        -12    1    3    3    0    0  0.17881802241E+01 -0.20076834384E+01  0.42131429295E+00  0.27213759454E+01  0.00000000000E+00 0.  1.
</event>
<event>
 7    1  0.1381440E-008  0.4614232E+02  0.7816164E-02  0.1320468E+00
        -11   -1    0    0    0    0  0.00000000000E+00  0.00000000000E+00  0.45593999997E+02  0.45594000000E+02  0.51100000000E-03 0.  1.
         11   -1    0    0    0    0 -0.00000000000E+00 -0.00000000000E+00 -0.45593999997E+02  0.45594000000E+02  0.51100000000E-03 0. -1.
    9900012    2    1    2    0    0 -0.36980345395E+02  0.25137217118E+02 -0.54486604830E+01  0.46142317287E+02  0.99999956806E+01 0.  0.
         12    1    1    2    0    0  0.36980345395E+02 -0.25137217118E+02  0.54486604830E+01  0.45045682713E+02  0.00000000000E+00 0. -1.
         11    1    3    3    0    0 -0.63073436223E+01  0.63759294778E+01 -0.16310751939E+01  0.91156714961E+01  0.51100000000E-03 0. -1.
        -11    1    3    3    0    0 -0.23744423307E+02  0.17187376280E+02 -0.52499465261E+01  0.29778607764E+02  0.51100000000E-03 0.  1.
        -12    1    3    3    0    0 -0.69285784663E+01  0.15739113593E+01  0.14323612370E+01  0.72480380272E+01  0.00000000000E+00 0.  1.
</event>
<event>
 7    1  0.1381440E-008  0.4614232E+02  0.7816164E-02  0.1320468E+00
        -11   -1    0    0    0    0  0.00000000000E+00  0.00000000000E+00  0.45593999997E+02  0.45594000000E+02  0.51100000000E-03 0. -1.
         11   -1    0    0    0    0 -0.00000000000E+00 -0.00000000000E+00 -0.45593999997E+02  0.45594000000E+02  0.51100000000E-03 0.  1.
    9900012    2    1    2    0    0 -0.22959709401E+02  0.79840826706E+01 -0.37923867352E+02  0.46142317112E+02  0.99999940805E+01 0.  0.
         12    1    1    2    0    0  0.22959709401E+02 -0.79840826706E+01  0.37923867352E+02  0.45045682888E+02  0.00000000000E+00 0. -1.
         11    1    3    3    0    0 -0.31804736509E+00 -0.55760102554E+00 -0.10014189015E+01  0.11895012011E+01  0.51100000000E-03 0. -1.
        -11    1    3    3    0    0 -0.49997329360E+01  0.56277666133E+01 -0.83109707549E+01  0.11213443790E+02  0.51100000000E-03 0.  1.
        -12    1    3    3    0    0 -0.17641929100E+02  0.29139170828E+01 -0.28611477696E+02  0.33739372121E+02  0.00000000000E+00 0.  1.
</event>
<event>
 7    1  0.1381440E-008  0.4614232E+02  0.7816164E-02  0.1320468E+00
        -11   -1    0    0    0    0  0.00000000000E+00  0.00000000000E+00  0.45593999997E+02  0.45594000000E+02  0.51100000000E-03 0.  1.
         11   -1    0    0    0    0 -0.00000000000E+00 -0.00000000000E+00 -0.45593999997E+02  0.45594000000E+02  0.51100000000E-03 0. -1.
    9900012    2    1    2    0    0  0.21675906761E+02  0.39431889082E+02 -0.20963522220E+01  0.46142317598E+02  0.99999985114E+01 0.  0.
         12    1    1    2    0    0 -0.21675906761E+02 -0.39431889082E+02  0.20963522220E+01  0.45045682402E+02  0.00000000000E+00 0. -1.
         11    1    3    3    0    0  0.77569817795E+01  0.19411547827E+02  0.27546281540E+01  0.21084755912E+02  0.51100000000E-03 0. -1.
        -11    1    3    3    0    0  0.71503062690E+01  0.10889175874E+02 -0.10357258032E+01  0.13068043433E+02  0.51100000000E-03 0.  1.
         12    1    3    3    0    0  0.67686187120E+01  0.91311653809E+01 -0.38152545728E+01  0.11989518253E+02  0.00000000000E+00 0. -1.
</event>
<event>
 7    1  0.1381440E-008  0.4614232E+02  0.7816164E-02  0.1320468E+00
        -11   -1    0    0    0    0  0.00000000000E+00  0.00000000000E+00  0.45593999997E+02  0.45594000000E+02  0.51100000000E-03 0.  1.
         11   -1    0    0    0    0 -0.00000000000E+00 -0.00000000000E+00 -0.45593999997E+02  0.45594000000E+02  0.51100000000E-03 0. -1.
    9900012    2    1    2    0    0 -0.28010090139E+02 -0.16020493883E+02  0.31430750448E+02  0.46142318214E+02  0.10000004132E+02 0.  0.
         12    1    1    2    0    0  0.28010090139E+02  0.16020493883E+02 -0.31430750448E+02  0.45045681786E+02  0.00000000000E+00 0. -1.
         11    1    3    3    0    0 -0.46950381494E+01 -0.50193769036E+01  0.78525781971E+01  0.10435540826E+02  0.51100000000E-03 0. -1.
        -11    1    3    3    0    0 -0.16871796312E+02 -0.10787889282E+02  0.15230794521E+02  0.25159752939E+02  0.51100000000E-03 0.  1.
        -12    1    3    3    0    0 -0.64432556771E+01 -0.21322769781E+00  0.83473777297E+01  0.10547024449E+02  0.00000000000E+00 0.  1.
</event>
<event>
 7    1  0.1381440E-008  0.4614232E+02  0.7816164E-02  0.1320468E+00
        -11   -1    0    0    0    0  0.00000000000E+00  0.00000000000E+00  0.45593999997E+02  0.45594000000E+02  0.51100000000E-03 0.  1.
         11   -1    0    0    0    0 -0.00000000000E+00 -0.00000000000E+00 -0.45593999997E+02  0.45594000000E+02  0.51100000000E-03 0. -1.
    9900012    2    1    2    0    0  0.41484645464E+02 -0.13752860688E+02 -0.10908550269E+02  0.46142318128E+02  0.10000003343E+02 0.  0.
         12    1    1    2    0    0 -0.41484645464E+02  0.13752860688E+02  0.10908550269E+02  0.45045681872E+02  0.00000000000E+00 0. -1.
         11    1    3    3    0    0  0.10441866658E+02 -0.48747729908E+01 -0.44807226988E+01  0.12364176769E+02  0.51100000000E-03 0. -1.
        -11    1    3    3    0    0  0.78577186301E+01 -0.46867141826E+01  0.66333745171E+00  0.91732790613E+01  0.51100000000E-03 0.  1.
        -12    1    3    3    0    0  0.23185060176E+02 -0.41913735141E+01 -0.70911650221E+01  0.24604862297E+02  0.00000000000E+00 0.  1.
</event>
<event>
 7    1  0.1381440E-008  0.4614232E+02  0.7816164E-02  0.1320468E+00
        -11   -1    0    0    0    0  0.00000000000E+00  0.00000000000E+00  0.45593999997E+02  0.45594000000E+02  0.51100000000E-03 0.  1.
         11   -1    0    0    0    0 -0.00000000000E+00 -0.00000000000E+00 -0.45593999997E+02  0.45594000000E+02  0.51100000000E-03 0. -1.
    9900012    2    1    2    0    0  0.40125310445E+02  0.19391477089E+02  0.65607645899E+01  0.46142317032E+02  0.99999933530E+01 0.  0.
         12    1    1    2    0    0 -0.40125310445E+02 -0.19391477089E+02 -0.65607645899E+01  0.45045682968E+02  0.00000000000E+00 0. -1.
         11    1    3    3    0    0  0.17942544554E+01  0.74103134347E-01  0.15378594238E+01  0.23642868256E+01  0.51100000000E-03 0. -1.
        -11    1    3    3    0    0  0.18424223830E+02  0.84474436368E+01 -0.10571391338E+01  0.20296030921E+02  0.51100000000E-03 0.  1.
        -12    1    3    3    0    0  0.19906832160E+02  0.10869930318E+02  0.60800442999E+01  0.23481999286E+02  0.00000000000E+00 0.  1.
</event>
<event>
 7    1  0.1381440E-008  0.4614232E+02  0.7816164E-02  0.1320468E+00
        -11   -1    0    0    0    0  0.00000000000E+00  0.00000000000E+00  0.45593999997E+02  0.45594000000E+02  0.51100000000E-03 0.  1.
         11   -1    0    0    0    0 -0.00000000000E+00 -0.00000000000E+00 -0.45593999997E+02  0.45594000000E+02  0.51100000000E-03 0. -1.
    9900012    2    1    2    0    0  0.24550183552E+02  0.30453886907E+02  0.22337473924E+02  0.46142317838E+02  0.10000000698E+02 0.  0.
         12    1    1    2    0    0 -0.24550183552E+02 -0.30453886907E+02 -0.22337473924E+02  0.45045682162E+02  0.00000000000E+00 0. -1.
         11    1    3    3    0    0  0.12984629286E+01  0.27644507335E+01  0.13343412019E+00  0.30571226277E+01  0.51100000000E-03 0. -1.
        -11    1    3    3    0    0  0.20938895595E+02  0.27534812827E+02  0.21081948305E+02  0.40509897689E+02  0.51100000000E-03 0.  1.
        -12    1    3    3    0    0  0.23128250284E+01  0.15462334625E+00  0.11220914990E+01  0.25752975213E+01  0.00000000000E+00 0.  1.
</event>
<event>
 7    1  0.1381440E-008  0.4614232E+02  0.7816164E-02  0.1320468E+00
        -11   -1    0    0    0    0  0.00000000000E+00  0.00000000000E+00  0.45593999997E+02  0.45594000000E+02  0.51100000000E-03 0. -1.
         11   -1    0    0    0    0 -0.00000000000E+00 -0.00000000000E+00 -0.45593999997E+02  0.45594000000E+02  0.51100000000E-03 0.  1.
    9900012    2    1    2    0    0 -0.42757517272E+02  0.10334922974E+00 -0.14173832304E+02  0.46142317782E+02  0.10000000186E+02 0.  0.
         12    1    1    2    0    0  0.42757517272E+02 -0.10334922974E+00  0.14173832304E+02  0.45045682218E+02  0.00000000000E+00 0. -1.
         11    1    3    3    0    0 -0.15053935277E+02  0.12699962141E+00 -0.26095289674E+01  0.15278963902E+02  0.51100000000E-03 0.  1.
        -11    1    3    3    0    0 -0.20651854626E+02  0.84581379413E+00 -0.11711794204E+02  0.23756696408E+02  0.51100000000E-03 0. -1.
         12    1    3    3    0    0 -0.70517273696E+01 -0.86946418581E+00  0.14749086805E+00  0.71066574718E+01  0.00000000000E+00 0. -1.
</event>
<event>
 7    1  0.1381440E-008  0.4614232E+02  0.7816164E-02  0.1320468E+00
        -11   -1    0    0    0    0  0.00000000000E+00  0.00000000000E+00  0.45593999997E+02  0.45594000000E+02  0.51100000000E-03 0. -1.
         11   -1    0    0    0    0 -0.00000000000E+00 -0.00000000000E+00 -0.45593999997E+02  0.45594000000E+02  0.51100000000E-03 0.  1.
    9900012    2    1    2    0    0  0.33425123089E+02 -0.28354944227E+02  0.10386138271E+02  0.46142316702E+02  0.99999903381E+01 0.  0.
         12    1    1    2    0    0 -0.33425123089E+02  0.28354944227E+02 -0.10386138271E+02  0.45045683298E+02  0.00000000000E+00 0. -1.
         11    1    3    3    0    0  0.31369696904E+01 -0.41940055994E+01  0.28405983957E+01  0.59581256544E+01  0.51100000000E-03 0. -1.
        -11    1    3    3    0    0  0.99956417561E+01 -0.97047382655E+01  0.61531485985E+01  0.15230102982E+02  0.51100000000E-03 0.  1.
        -12    1    3    3    0    0  0.20292511643E+02 -0.14456200362E+02  0.13923912767E+01  0.24954088065E+02  0.00000000000E+00 0.  1.
</event>
<event>
 7    1  0.1381440E-008  0.4614231E+02  0.7816164E-02  0.1320468E+00
        -11   -1    0    0    0    0  0.00000000000E+00  0.00000000000E+00  0.45593999997E+02  0.45594000000E+02  0.51100000000E-03 0.  1.
         11   -1    0    0    0    0 -0.00000000000E+00 -0.00000000000E+00 -0.45593999997E+02  0.45594000000E+02  0.51100000000E-03 0. -1.
    9900012    2    1    2    0    0  0.26346512572E+02 -0.21309916638E+02  0.29679328453E+02  0.46142314199E+02  0.99999675191E+01 0.  0.
         12    1    1    2    0    0 -0.26346512572E+02  0.21309916638E+02 -0.29679328453E+02  0.45045685801E+02  0.00000000000E+00 0. -1.
         11    1    3    3    0    0  0.13138389953E+02 -0.16604133733E+02  0.17300555626E+02  0.27342709683E+02  0.51100000000E-03 0. -1.
        -11    1    3    3    0    0  0.16438473120E+01 -0.10575976366E+01  0.24018724019E+01  0.30967302179E+01  0.51100000000E-03 0.  1.
         12    1    3    3    0    0  0.11564275307E+02 -0.36481852689E+01  0.99769004253E+01  0.15702874298E+02  0.00000000000E+00 0. -1.
</event>
<event>
 7    1  0.1381440E-008  0.4614232E+02  0.7816164E-02  0.1320468E+00
        -11   -1    0    0    0    0  0.00000000000E+00  0.00000000000E+00  0.45593999997E+02  0.45594000000E+02  0.51100000000E-03 0.  1.
         11   -1    0    0    0    0 -0.00000000000E+00 -0.00000000000E+00 -0.45593999997E+02  0.45594000000E+02  0.51100000000E-03 0. -1.
    9900012    2    1    2    0    0  0.39500337420E+01  0.34202337267E+02  0.29046701359E+02  0.46142317621E+02  0.99999987269E+01 0.  0.
         12    1    1    2    0    0 -0.39500337420E+01 -0.34202337267E+02 -0.29046701359E+02  0.45045682379E+02  0.00000000000E+00 0. -1.
         11    1    3    3    0    0 -0.31540193800E+00  0.17379478429E+01  0.25606002718E+01  0.31107258156E+01  0.51100000000E-03 0. -1.
        -11    1    3    3    0    0 -0.22036629084E+01  0.16968202350E+02  0.13931755392E+02  0.22065127005E+02  0.51100000000E-03 0.  1.
        -12    1    3    3    0    0  0.64690985884E+01  0.15496187074E+02  0.12554345695E+02  0.20966464801E+02  0.00000000000E+00 0.  1.
</event>
<event>
 7    1  0.1381440E-008  0.4614232E+02  0.7816164E-02  0.1320468E+00
        -11   -1    0    0    0    0  0.00000000000E+00  0.00000000000E+00  0.45593999997E+02  0.45594000000E+02  0.51100000000E-03 0.  1.
         11   -1    0    0    0    0 -0.00000000000E+00 -0.00000000000E+00 -0.45593999997E+02  0.45594000000E+02  0.51100000000E-03 0. -1.
    9900012    2    1    2    0    0  0.32195175155E+02  0.29742862767E+02  0.10389722027E+02  0.46142317492E+02  0.99999975445E+01 0.  0.
         12    1    1    2    0    0 -0.32195175155E+02 -0.29742862767E+02 -0.10389722027E+02  0.45045682508E+02  0.00000000000E+00 0. -1.
         11    1    3    3    0    0  0.73403929274E+01  0.85831854485E+01  0.31100312126E+01  0.11714296188E+02  0.51100000000E-03 0. -1.
        -11    1    3    3    0    0  0.14191721665E+02  0.67882159011E+01  0.40367481019E+01  0.16241310736E+02  0.51100000000E-03 0.  1.
        -12    1    3    3    0    0  0.10663060562E+02  0.14371461418E+02  0.32429427125E+01  0.18186710568E+02  0.00000000000E+00 0.  1.
</event>
<event>
 7    1  0.1381440E-008  0.4614232E+02  0.7816164E-02  0.1320468E+00
        -11   -1    0    0    0    0  0.00000000000E+00  0.00000000000E+00  0.45593999997E+02  0.45594000000E+02  0.51100000000E-03 0.  1.
         11   -1    0    0    0    0 -0.00000000000E+00 -0.00000000000E+00 -0.45593999997E+02  0.45594000000E+02  0.51100000000E-03 0. -1.
    9900012    2    1    2    0    0 -0.24646413605E+02 -0.31048459181E+02  0.21393005470E+02  0.46142320916E+02  0.10000028769E+02 0.  0.
         12    1    1    2    0    0  0.24646413605E+02  0.31048459181E+02 -0.21393005470E+02  0.45045679084E+02  0.00000000000E+00 0. -1.
         11    1    3    3    0    0 -0.37113301018E+01 -0.57783092938E+01  0.73783001978E+01  0.10079788861E+02  0.51100000000E-03 0. -1.
        -11    1    3    3    0    0 -0.18088099409E+02 -0.21335999496E+02  0.98190299118E+01  0.29644857284E+02  0.51100000000E-03 0.  1.
        -12    1    3    3    0    0 -0.28469840948E+01 -0.39341503912E+01  0.41956753603E+01  0.64176747710E+01  0.00000000000E+00 0.  1.
</event>
<event>
 7    1  0.1381440E-008  0.4614232E+02  0.7816164E-02  0.1320468E+00
        -11   -1    0    0    0    0  0.00000000000E+00  0.00000000000E+00  0.45593999997E+02  0.45594000000E+02  0.51100000000E-03 0.  1.
         11   -1    0    0    0    0 -0.00000000000E+00 -0.00000000000E+00 -0.45593999997E+02  0.45594000000E+02  0.51100000000E-03 0. -1.
    9900012    2    1    2    0    0  0.48195553702E+01  0.11055595439E+01  0.44773464530E+02  0.46142317611E+02  0.99999986310E+01 0.  0.
         12    1    1    2    0    0 -0.48195553702E+01 -0.11055595439E+01 -0.44773464530E+02  0.45045682389E+02  0.00000000000E+00 0. -1.
         11    1    3    3    0    0  0.28576083235E+01 -0.42056300893E+00  0.62980226640E+01  0.69287724968E+01  0.51100000000E-03 0. -1.
        -11    1    3    3    0    0  0.36131013499E+01  0.33052945803E+01  0.30013373134E+02  0.30410229213E+02  0.51100000000E-03 0.  1.
         12    1    3    3    0    0 -0.16511543032E+01 -0.17791720274E+01  0.84620687319E+01  0.88033159014E+01  0.00000000000E+00 0. -1.
</event>
<event>
 7    1  0.1381440E-008  0.4614232E+02  0.7816164E-02  0.1320468E+00
        -11   -1    0    0    0    0  0.00000000000E+00  0.00000000000E+00  0.45593999997E+02  0.45594000000E+02  0.51100000000E-03 0.  1.
         11   -1    0    0    0    0 -0.00000000000E+00 -0.00000000000E+00 -0.45593999997E+02  0.45594000000E+02  0.51100000000E-03 0. -1.
    9900012    2    1    2    0    0 -0.13248029526E+02 -0.19486075027E+02  0.38391354030E+02  0.46142317959E+02  0.10000001802E+02 0.  0.
         12    1    1    2    0    0  0.13248029526E+02  0.19486075027E+02 -0.38391354030E+02  0.45045682041E+02  0.00000000000E+00 0. -1.
         11    1    3    3    0    0 -0.59413823077E+01 -0.67564147525E+01  0.17059060657E+02  0.19286283074E+02  0.51100000000E-03 0. -1.
        -11    1    3    3    0    0 -0.39626866510E+01 -0.95428734385E+01  0.19121905865E+02  0.21735146725E+02  0.51100000000E-03 0.  1.
         12    1    3    3    0    0 -0.33439605678E+01 -0.31867868360E+01  0.22103875080E+01  0.51208881605E+01  0.00000000000E+00 0. -1.
</event>
<event>
 7    1  0.1381440E-008  0.4614232E+02  0.7816164E-02  0.1320468E+00
        -11   -1    0    0    0    0  0.00000000000E+00  0.00000000000E+00  0.45593999997E+02  0.45594000000E+02  0.51100000000E-03 0.  1.
         11   -1    0    0    0    0 -0.00000000000E+00 -0.00000000000E+00 -0.45593999997E+02  0.45594000000E+02  0.51100000000E-03 0. -1.
    9900012    2    1    2    0    0  0.34159613011E+02  0.29349272831E+02  0.92442486386E+00  0.46142317209E+02  0.99999949679E+01 0.  0.
         12    1    1    2    0    0 -0.34159613011E+02 -0.29349272831E+02 -0.92442486386E+00  0.45045682791E+02  0.00000000000E+00 0. -1.
         11    1    3    3    0    0  0.33482069550E+01  0.64843232110E+00 -0.10552920638E+01  0.35699574073E+01  0.51100000000E-03 0. -1.
        -11    1    3    3    0    0  0.17555645323E+02  0.12876485588E+02  0.25583658716E+01  0.21921446120E+02  0.51100000000E-03 0.  1.
         12    1    3    3    0    0  0.13255760733E+02  0.15824354922E+02 -0.57864894390E+00  0.20650913682E+02  0.00000000000E+00 0. -1.
</event>
<event>
 7    1  0.1381440E-008  0.4614232E+02  0.7816164E-02  0.1320468E+00
        -11   -1    0    0    0    0  0.00000000000E+00  0.00000000000E+00  0.45593999997E+02  0.45594000000E+02  0.51100000000E-03 0.  1.
         11   -1    0    0    0    0 -0.00000000000E+00 -0.00000000000E+00 -0.45593999997E+02  0.45594000000E+02  0.51100000000E-03 0. -1.
    9900012    2    1    2    0    0  0.26484321819E+01 -0.25018474608E+02  0.37365428997E+02  0.46142317089E+02  0.99999938717E+01 0.  0.
         12    1    1    2    0    0 -0.26484321819E+01  0.25018474608E+02 -0.37365428997E+02  0.45045682911E+02  0.00000000000E+00 0. -1.
         11    1    3    3    0    0  0.64368420527E+00 -0.10797984426E+01  0.67547076810E+01  0.68706892048E+01  0.51100000000E-03 0. -1.
        -11    1    3    3    0    0 -0.32118533436E+00 -0.53338174194E+01  0.38070976205E+01  0.65610030358E+01  0.51100000000E-03 0.  1.
        -12    1    3    3    0    0  0.23259333110E+01 -0.18604858746E+02  0.26803623696E+02  0.32710624848E+02  0.00000000000E+00 0.  1.
</event>
<event>
 7    1  0.1381440E-008  0.4614232E+02  0.7816164E-02  0.1320468E+00
        -11   -1    0    0    0    0  0.00000000000E+00  0.00000000000E+00  0.45593999997E+02  0.45594000000E+02  0.51100000000E-03 0. -1.
         11   -1    0    0    0    0 -0.00000000000E+00 -0.00000000000E+00 -0.45593999997E+02  0.45594000000E+02  0.51100000000E-03 0.  1.
    9900012    2    1    2    0    0 -0.38489634837E+02 -0.85208270604E+00 -0.23386651663E+02  0.46142317511E+02  0.99999977232E+01 0.  0.
         12    1    1    2    0    0  0.38489634837E+02  0.85208270604E+00  0.23386651663E+02  0.45045682489E+02  0.00000000000E+00 0. -1.
         11    1    3    3    0    0 -0.34648978080E+01 -0.82961457353E+00 -0.39117596951E+01  0.52910907509E+01  0.51100000000E-03 0. -1.
        -11    1    3    3    0    0 -0.19741037355E+02  0.35693018325E+01 -0.90692622054E+01  0.22015903085E+02  0.51100000000E-03 0.  1.
        -12    1    3    3    0    0 -0.15283699674E+02 -0.35917699650E+01 -0.10405629763E+02  0.18835323676E+02  0.00000000000E+00 0.  1.
</event>
<event>
 7    1  0.1381440E-008  0.4614232E+02  0.7816164E-02  0.1320468E+00
        -11   -1    0    0    0    0  0.00000000000E+00  0.00000000000E+00  0.45593999997E+02  0.45594000000E+02  0.51100000000E-03 0.  1.
         11   -1    0    0    0    0 -0.00000000000E+00 -0.00000000000E+00 -0.45593999997E+02  0.45594000000E+02  0.51100000000E-03 0. -1.
    9900012    2    1    2    0    0 -0.16269939073E+02  0.71126510611E+01  0.41398222521E+02  0.46142317072E+02  0.99999937149E+01 0.  0.
         12    1    1    2    0    0  0.16269939073E+02 -0.71126510611E+01 -0.41398222521E+02  0.45045682928E+02  0.00000000000E+00 0. -1.
         11    1    3    3    0    0 -0.64513064614E+00  0.18968586720E+01  0.10134700999E+01  0.22453036046E+01  0.51100000000E-03 0. -1.
        -11    1    3    3    0    0 -0.14164878630E+02  0.59673981104E+01  0.34149888932E+02  0.37449546608E+02  0.51100000000E-03 0.  1.
         12    1    3    3    0    0 -0.14599297962E+01 -0.75160572132E+00  0.62348634897E+01  0.64474668596E+01  0.00000000000E+00 0. -1.
</event>
<event>
 7    1  0.1381440E-008  0.4614232E+02  0.7816164E-02  0.1320468E+00
        -11   -1    0    0    0    0  0.00000000000E+00  0.00000000000E+00  0.45593999997E+02  0.45594000000E+02  0.51100000000E-03 0.  1.
         11   -1    0    0    0    0 -0.00000000000E+00 -0.00000000000E+00 -0.45593999997E+02  0.45594000000E+02  0.51100000000E-03 0. -1.
    9900012    2    1    2    0    0  0.25494511825E-01  0.36172100141E+02  0.26845705962E+02  0.46142318662E+02  0.10000008216E+02 0.  0.
         12    1    1    2    0    0 -0.25494511825E-01 -0.36172100141E+02 -0.26845705962E+02  0.45045681338E+02  0.00000000000E+00 0. -1.
         11    1    3    3    0    0 -0.35343235972E+01  0.12928481618E+02  0.12921182816E+02  0.18617036442E+02  0.51100000000E-03 0. -1.
        -11    1    3    3    0    0  0.15332574529E+01  0.17285445747E+02  0.90942056449E+01  0.19591888364E+02  0.51100000000E-03 0.  1.
         12    1    3    3    0    0  0.20265606561E+01  0.59581727765E+01  0.48303175005E+01  0.79333938566E+01  0.00000000000E+00 0. -1.
</event>
<event>
 7    1  0.1381440E-008  0.4614232E+02  0.7816164E-02  0.1320468E+00
        -11   -1    0    0    0    0  0.00000000000E+00  0.00000000000E+00  0.45593999997E+02  0.45594000000E+02  0.51100000000E-03 0. -1.
         11   -1    0    0    0    0 -0.00000000000E+00 -0.00000000000E+00 -0.45593999997E+02  0.45594000000E+02  0.51100000000E-03 0.  1.
    9900012    2    1    2    0    0 -0.44294110755E+02  0.33347877800E+01 -0.74849314146E+01  0.46142320347E+02  0.10000023582E+02 0.  0.
         12    1    1    2    0    0  0.44294110755E+02 -0.33347877800E+01  0.74849314146E+01  0.45045679653E+02  0.00000000000E+00 0. -1.
         11    1    3    3    0    0 -0.13406966269E+01 -0.15397673525E+01 -0.10678502256E+01  0.23040519331E+01  0.51100000000E-03 0. -1.
        -11    1    3    3    0    0 -0.41022215304E+02  0.42532805838E+01 -0.54834069536E+01  0.41605051331E+02  0.51100000000E-03 0.  1.
        -12    1    3    3    0    0 -0.19311988235E+01  0.62127454868E+00 -0.93367423544E+00  0.22332170828E+01  0.00000000000E+00 0.  1.
</event>
<event>
 7    1  0.1381440E-008  0.4614232E+02  0.7816164E-02  0.1320468E+00
        -11   -1    0    0    0    0  0.00000000000E+00  0.00000000000E+00  0.45593999997E+02  0.45594000000E+02  0.51100000000E-03 0.  1.
         11   -1    0    0    0    0 -0.00000000000E+00 -0.00000000000E+00 -0.45593999997E+02  0.45594000000E+02  0.51100000000E-03 0. -1.
    9900012    2    1    2    0    0 -0.21408941824E+02  0.12021113536E+02  0.37765904390E+02  0.46142317686E+02  0.99999993184E+01 0.  0.
         12    1    1    2    0    0  0.21408941824E+02 -0.12021113536E+02 -0.37765904390E+02  0.45045682314E+02  0.00000000000E+00 0. -1.
         11    1    3    3    0    0 -0.11569712725E+02  0.92768050211E+01  0.21871320940E+02  0.26424837631E+02  0.51100000000E-03 0. -1.
        -11    1    3    3    0    0 -0.48409167163E+01 -0.15438101225E+01  0.70604907028E+01  0.86987558635E+01  0.51100000000E-03 0.  1.
        -12    1    3    3    0    0 -0.49983123824E+01  0.42881186379E+01  0.88340927481E+01  0.11018724191E+02  0.00000000000E+00 0.  1.
</event>
<event>
 7    1  0.1381440E-008  0.4614232E+02  0.7816164E-02  0.1320468E+00
        -11   -1    0    0    0    0  0.00000000000E+00  0.00000000000E+00  0.45593999997E+02  0.45594000000E+02  0.51100000000E-03 0.  1.
         11   -1    0    0    0    0 -0.00000000000E+00 -0.00000000000E+00 -0.45593999997E+02  0.45594000000E+02  0.51100000000E-03 0. -1.
    9900012    2    1    2    0    0  0.41156555407E+02 -0.17043130473E+02  0.66920143011E+01  0.46142318690E+02  0.10000008466E+02 0.  0.
         12    1    1    2    0    0 -0.41156555407E+02  0.17043130473E+02 -0.66920143011E+01  0.45045681310E+02  0.00000000000E+00 0. -1.
         11    1    3    3    0    0  0.85997516402E+01 -0.68866295326E+01  0.29780342497E+01  0.11412715840E+02  0.51100000000E-03 0. -1.
        -11    1    3    3    0    0  0.21883519749E+02 -0.45760996607E+01  0.38434658114E+01  0.22684826524E+02  0.51100000000E-03 0.  1.
         12    1    3    3    0    0  0.10673284018E+02 -0.55804012796E+01 -0.12948575994E+00  0.12044776325E+02  0.00000000000E+00 0. -1.
</event>
<event>
 7    1  0.1381440E-008  0.4614232E+02  0.7816164E-02  0.1320468E+00
        -11   -1    0    0    0    0  0.00000000000E+00  0.00000000000E+00  0.45593999997E+02  0.45594000000E+02  0.51100000000E-03 0. -1.
         11   -1    0    0    0    0 -0.00000000000E+00 -0.00000000000E+00 -0.45593999997E+02  0.45594000000E+02  0.51100000000E-03 0.  1.
    9900012    2    1    2    0    0  0.18178018669E+02 -0.41179714773E+02  0.17041593908E+01  0.46142318400E+02  0.10000005829E+02 0.  0.
         12    1    1    2    0    0 -0.18178018669E+02  0.41179714773E+02 -0.17041593908E+01  0.45045681600E+02  0.00000000000E+00 0. -1.
         11    1    3    3    0    0  0.43084945215E+01 -0.12225719668E+02  0.41727991225E+01  0.13617767777E+02  0.51100000000E-03 0. -1.
        -11    1    3    3    0    0  0.11551796463E+02 -0.23366498418E+02 -0.20812158002E+00  0.26066848001E+02  0.51100000000E-03 0.  1.
         12    1    3    3    0    0  0.23177276851E+01 -0.55874966873E+01 -0.22605181517E+01  0.64577026230E+01  0.00000000000E+00 0. -1.
</event>
<event>
 7    1  0.1381440E-008  0.4614232E+02  0.7816164E-02  0.1320468E+00
        -11   -1    0    0    0    0  0.00000000000E+00  0.00000000000E+00  0.45593999997E+02  0.45594000000E+02  0.51100000000E-03 0.  1.
         11   -1    0    0    0    0 -0.00000000000E+00 -0.00000000000E+00 -0.45593999997E+02  0.45594000000E+02  0.51100000000E-03 0. -1.
    9900012    2    1    2    0    0  0.43712009571E+01 -0.27755212222E+02  0.35208723515E+02  0.46142318577E+02  0.10000007438E+02 0.  0.
         12    1    1    2    0    0 -0.43712009571E+01  0.27755212222E+02 -0.35208723515E+02  0.45045681423E+02  0.00000000000E+00 0. -1.
         11    1    3    3    0    0  0.40723163527E+01 -0.32275464139E+01  0.51221330766E+01  0.72963733351E+01  0.51100000000E-03 0. -1.
        -11    1    3    3    0    0  0.49930874309E+00 -0.69809697641E+01  0.93954335166E+01  0.11715691157E+02  0.51100000000E-03 0.  1.
         12    1    3    3    0    0 -0.20042413872E+00 -0.17546696044E+02  0.20691156922E+02  0.27130254084E+02  0.00000000000E+00 0. -1.
</event>
<event>
 7    1  0.1381440E-008  0.4614232E+02  0.7816164E-02  0.1320468E+00
        -11   -1    0    0    0    0  0.00000000000E+00  0.00000000000E+00  0.45593999997E+02  0.45594000000E+02  0.51100000000E-03 0.  1.
         11   -1    0    0    0    0 -0.00000000000E+00 -0.00000000000E+00 -0.45593999997E+02  0.45594000000E+02  0.51100000000E-03 0. -1.
    9900012    2    1    2    0    0 -0.34036134427E+02 -0.17804485203E+02  0.23529880534E+02  0.46142318542E+02  0.10000007124E+02 0.  0.
         12    1    1    2    0    0  0.34036134427E+02  0.17804485203E+02 -0.23529880534E+02  0.45045681458E+02  0.00000000000E+00 0. -1.
         11    1    3    3    0    0 -0.64963774581E+01 -0.54794538739E+01  0.19638348018E+01  0.87226132681E+01  0.51100000000E-03 0. -1.
        -11    1    3    3    0    0 -0.13051940219E+02 -0.85592749846E+01  0.10760531539E+02  0.18957936887E+02  0.51100000000E-03 0.  1.
         12    1    3    3    0    0 -0.14487816749E+02 -0.37657563441E+01  0.10805514193E+02  0.18461768387E+02  0.00000000000E+00 0. -1.
</event>
<event>
 7    1  0.1381440E-008  0.4614231E+02  0.7816164E-02  0.1320468E+00
        -11   -1    0    0    0    0  0.00000000000E+00  0.00000000000E+00  0.45593999997E+02  0.45594000000E+02  0.51100000000E-03 0. -1.
         11   -1    0    0    0    0 -0.00000000000E+00 -0.00000000000E+00 -0.45593999997E+02  0.45594000000E+02  0.51100000000E-03 0.  1.
    9900012    2    1    2    0    0  0.10372925877E+02  0.34605136551E+02 -0.26907261041E+02  0.46142314705E+02  0.99999721311E+01 0.  0.
         12    1    1    2    0    0 -0.10372925877E+02 -0.34605136551E+02  0.26907261041E+02  0.45045685295E+02  0.00000000000E+00 0. -1.
         11    1    3    3    0    0  0.80229367809E+01  0.10942488572E+02 -0.10689660422E+02  0.17273517619E+02  0.51100000000E-03 0. -1.
        -11    1    3    3    0    0  0.17860624420E+01  0.17973821624E+02 -0.13433657531E+02  0.22510251836E+02  0.51100000000E-03 0.  1.
         12    1    3    3    0    0  0.56392665372E+00  0.56888263551E+01 -0.27839430880E+01  0.63585452492E+01  0.00000000000E+00 0. -1.
</event>
<event>
 7    1  0.1381440E-008  0.4614232E+02  0.7816164E-02  0.1320468E+00
        -11   -1    0    0    0    0  0.00000000000E+00  0.00000000000E+00  0.45593999997E+02  0.45594000000E+02  0.51100000000E-03 0.  1.
         11   -1    0    0    0    0 -0.00000000000E+00 -0.00000000000E+00 -0.45593999997E+02  0.45594000000E+02  0.51100000000E-03 0. -1.
    9900012    2    1    2    0    0 -0.71014512894E+01  0.20072730086E+02  0.39695949754E+02  0.46142317295E+02  0.99999957474E+01 0.  0.
         12    1    1    2    0    0  0.71014512894E+01 -0.20072730086E+02 -0.39695949754E+02  0.45045682705E+02  0.00000000000E+00 0. -1.
         11    1    3    3    0    0  0.63282056939E+00 -0.64102692726E+00  0.28275491925E+01  0.29675599558E+01  0.51100000000E-03 0. -1.
        -11    1    3    3    0    0 -0.77694778512E+01  0.20494178761E+02  0.36929856956E+02  0.42944038984E+02  0.51100000000E-03 0.  1.
        -12    1    3    3    0    0  0.35205992381E-01  0.21957825240E+00 -0.61456395124E-01  0.23071835499E+00  0.00000000000E+00 0.  1.
</event>
<event>
 7    1  0.1381440E-008  0.4614232E+02  0.7816164E-02  0.1320468E+00
        -11   -1    0    0    0    0  0.00000000000E+00  0.00000000000E+00  0.45593999997E+02  0.45594000000E+02  0.51100000000E-03 0.  1.
         11   -1    0    0    0    0 -0.00000000000E+00 -0.00000000000E+00 -0.45593999997E+02  0.45594000000E+02  0.51100000000E-03 0. -1.
    9900012    2    1    2    0    0  0.12860994155E+02 -0.27536936256E+02  0.33247937299E+02  0.46142319146E+02  0.10000012625E+02 0.  0.
         12    1    1    2    0    0 -0.12860994155E+02  0.27536936256E+02 -0.33247937299E+02  0.45045680854E+02  0.00000000000E+00 0. -1.
         11    1    3    3    0    0 -0.43820247076E-01 -0.95448422157E+01  0.86463713371E+01  0.12878884684E+02  0.51100000000E-03 0. -1.
        -11    1    3    3    0    0  0.97526497905E+01 -0.13167724784E+02  0.15941852569E+02  0.22861448281E+02  0.51100000000E-03 0.  1.
         12    1    3    3    0    0  0.31521646119E+01 -0.48243692560E+01  0.86597133928E+01  0.10401986181E+02  0.00000000000E+00 0. -1.
</event>
<event>
 7    1  0.1381440E-008  0.4614232E+02  0.7816164E-02  0.1320468E+00
        -11   -1    0    0    0    0  0.00000000000E+00  0.00000000000E+00  0.45593999997E+02  0.45594000000E+02  0.51100000000E-03 0.  1.
         11   -1    0    0    0    0 -0.00000000000E+00 -0.00000000000E+00 -0.45593999997E+02  0.45594000000E+02  0.51100000000E-03 0. -1.
    9900012    2    1    2    0    0  0.11454434726E+02  0.37168175153E+02  0.22725231168E+02  0.46142318179E+02  0.10000003812E+02 0.  0.
         12    1    1    2    0    0 -0.11454434726E+02 -0.37168175153E+02 -0.22725231168E+02  0.45045681821E+02  0.00000000000E+00 0. -1.
         11    1    3    3    0    0  0.32710149469E+01  0.20057059550E+02  0.11026439859E+02  0.23120716961E+02  0.51100000000E-03 0. -1.
        -11    1    3    3    0    0  0.87875872201E+01  0.14942709225E+02  0.90828715189E+01  0.19570508512E+02  0.51100000000E-03 0.  1.
         12    1    3    3    0    0 -0.60416744108E+00  0.21684063784E+01  0.26159197905E+01  0.34510927065E+01  0.00000000000E+00 0. -1.
</event>
<event>
 7    1  0.1381440E-008  0.4614232E+02  0.7816164E-02  0.1320468E+00
        -11   -1    0    0    0    0  0.00000000000E+00  0.00000000000E+00  0.45593999997E+02  0.45594000000E+02  0.51100000000E-03 0.  1.
         11   -1    0    0    0    0 -0.00000000000E+00 -0.00000000000E+00 -0.45593999997E+02  0.45594000000E+02  0.51100000000E-03 0. -1.
    9900012    2    1    2    0    0  0.26182695595E+02 -0.35398741224E+02 -0.95136240262E+01  0.46142317954E+02  0.10000001759E+02 0.  0.
         12    1    1    2    0    0 -0.26182695595E+02  0.35398741224E+02  0.95136240262E+01  0.45045682046E+02  0.00000000000E+00 0. -1.
         11    1    3    3    0    0  0.76271687252E+01 -0.13330378643E+02 -0.22333175521E+01  0.15519677996E+02  0.51100000000E-03 0. -1.
        -11    1    3    3    0    0  0.52413775086E+01 -0.67696290650E+01 -0.56890082681E+01  0.10279335154E+02  0.51100000000E-03 0.  1.
        -12    1    3    3    0    0  0.13314149361E+02 -0.15298733515E+02 -0.15912982059E+01  0.20343304805E+02  0.00000000000E+00 0.  1.
</event>
<event>
 7    1  0.1381440E-008  0.4614232E+02  0.7816164E-02  0.1320468E+00
        -11   -1    0    0    0    0  0.00000000000E+00  0.00000000000E+00  0.45593999997E+02  0.45594000000E+02  0.51100000000E-03 0.  1.
         11   -1    0    0    0    0 -0.00000000000E+00 -0.00000000000E+00 -0.45593999997E+02  0.45594000000E+02  0.51100000000E-03 0. -1.
    9900012    2    1    2    0    0  0.79073264387E+00  0.49740893281E+01  0.44763229614E+02  0.46142317096E+02  0.99999939385E+01 0.  0.
         12    1    1    2    0    0 -0.79073264387E+00 -0.49740893281E+01 -0.44763229614E+02  0.45045682904E+02  0.00000000000E+00 0. -1.
         11    1    3    3    0    0 -0.20838614054E+01 -0.39116671954E+00  0.28120645687E+02  0.28200464603E+02  0.51100000000E-03 0. -1.
        -11    1    3    3    0    0  0.12861982349E+01  0.34282198702E+01  0.13106653760E+02  0.13608503607E+02  0.51100000000E-03 0.  1.
         12    1    3    3    0    0  0.15883958144E+01  0.19370361774E+01  0.35359301673E+01  0.43333488855E+01  0.00000000000E+00 0. -1.
</event>
<event>
 7    1  0.1381440E-008  0.4614232E+02  0.7816164E-02  0.1320468E+00
        -11   -1    0    0    0    0  0.00000000000E+00  0.00000000000E+00  0.45593999997E+02  0.45594000000E+02  0.51100000000E-03 0. -1.
         11   -1    0    0    0    0 -0.00000000000E+00 -0.00000000000E+00 -0.45593999997E+02  0.45594000000E+02  0.51100000000E-03 0.  1.
    9900012    2    1    2    0    0 -0.25871891092E+02 -0.38128338963E+01 -0.36677254522E+02  0.46142318184E+02  0.10000003856E+02 0.  0.
         12    1    1    2    0    0  0.25871891092E+02  0.38128338963E+01  0.36677254522E+02  0.45045681816E+02  0.00000000000E+00 0. -1.
         11    1    3    3    0    0 -0.51297338411E+01 -0.34104127766E+01 -0.11603876670E+02  0.13137543096E+02  0.51100000000E-03 0. -1.
        -11    1    3    3    0    0 -0.87246439387E+01  0.25423293627E+01 -0.10395473930E+02  0.13807560571E+02  0.51100000000E-03 0.  1.
        -12    1    3    3    0    0 -0.12017513312E+02 -0.29447504825E+01 -0.14677903923E+02  0.19197214516E+02  0.00000000000E+00 0.  1.
</event>
<event>
 7    1  0.1381440E-008  0.4614232E+02  0.7816164E-02  0.1320468E+00
        -11   -1    0    0    0    0  0.00000000000E+00  0.00000000000E+00  0.45593999997E+02  0.45594000000E+02  0.51100000000E-03 0.  1.
         11   -1    0    0    0    0 -0.00000000000E+00 -0.00000000000E+00 -0.45593999997E+02  0.45594000000E+02  0.51100000000E-03 0. -1.
    9900012    2    1    2    0    0  0.14163223554E+01  0.44896879282E+02 -0.33731058645E+01  0.46142316728E+02  0.99999905786E+01 0.  0.
         12    1    1    2    0    0 -0.14163223554E+01 -0.44896879282E+02  0.33731058645E+01  0.45045683272E+02  0.00000000000E+00 0. -1.
         11    1    3    3    0    0 -0.37659863686E+01  0.11501821671E+02  0.42189891314E+00  0.12110018746E+02  0.51100000000E-03 0. -1.
        -11    1    3    3    0    0  0.20179484649E+01  0.91854144514E+01 -0.10662109875E+01  0.94647113417E+01  0.51100000000E-03 0.  1.
         12    1    3    3    0    0  0.31643602591E+01  0.24209643159E+02 -0.27287937901E+01  0.24567586640E+02  0.00000000000E+00 0. -1.
</event>
<event>
 7    1  0.1381440E-008  0.4614232E+02  0.7816164E-02  0.1320468E+00
        -11   -1    0    0    0    0  0.00000000000E+00  0.00000000000E+00  0.45593999997E+02  0.45594000000E+02  0.51100000000E-03 0. -1.
         11   -1    0    0    0    0 -0.00000000000E+00 -0.00000000000E+00 -0.45593999997E+02  0.45594000000E+02  0.51100000000E-03 0.  1.
    9900012    2    1    2    0    0 -0.37123564644E+02  0.25071016886E+02 -0.47327076927E+01  0.46142318057E+02  0.10000002702E+02 0.  0.
         12    1    1    2    0    0  0.37123564644E+02 -0.25071016886E+02  0.47327076927E+01  0.45045681943E+02  0.00000000000E+00 0. -1.
         11    1    3    3    0    0 -0.22962897841E+01  0.27815532102E+01 -0.22884234879E+01  0.42716352086E+01  0.51100000000E-03 0. -1.
        -11    1    3    3    0    0 -0.27563942106E+02  0.14578501955E+02 -0.24454282001E+01  0.31277527764E+02  0.51100000000E-03 0.  1.
        -12    1    3    3    0    0 -0.72633327541E+01  0.77109617203E+01  0.11439954108E-02  0.10593155085E+02  0.00000000000E+00 0.  1.
</event>
<event>
 7    1  0.1381440E-008  0.4614232E+02  0.7816164E-02  0.1320468E+00
        -11   -1    0    0    0    0  0.00000000000E+00  0.00000000000E+00  0.45593999997E+02  0.45594000000E+02  0.51100000000E-03 0.  1.
         11   -1    0    0    0    0 -0.00000000000E+00 -0.00000000000E+00 -0.45593999997E+02  0.45594000000E+02  0.51100000000E-03 0. -1.
    9900012    2    1    2    0    0 -0.41787160229E+01 -0.41465450454E+02  0.17095854021E+02  0.46142317924E+02  0.10000001487E+02 0.  0.
         12    1    1    2    0    0  0.41787160229E+01  0.41465450454E+02 -0.17095854021E+02  0.45045682076E+02  0.00000000000E+00 0. -1.
         11    1    3    3    0    0 -0.67790556134E+00 -0.10453483769E+02  0.38788670040E+00  0.10482620627E+02  0.51100000000E-03 0. -1.
        -11    1    3    3    0    0 -0.24638138107E+01 -0.23607528481E+02  0.14696114835E+02  0.27917048035E+02  0.51100000000E-03 0.  1.
        -12    1    3    3    0    0 -0.10369966508E+01 -0.74044382042E+01  0.20118524856E+01  0.77426492622E+01  0.00000000000E+00 0.  1.
</event>
<event>
 7    1  0.1381440E-008  0.4614232E+02  0.7816164E-02  0.1320468E+00
        -11   -1    0    0    0    0  0.00000000000E+00  0.00000000000E+00  0.45593999997E+02  0.45594000000E+02  0.51100000000E-03 0.  1.
         11   -1    0    0    0    0 -0.00000000000E+00 -0.00000000000E+00 -0.45593999997E+02  0.45594000000E+02  0.51100000000E-03 0. -1.
    9900012    2    1    2    0    0 -0.91999742450E+01  0.33289868570E+02  0.28918134696E+02  0.46142318854E+02  0.10000009970E+02 0.  0.
         12    1    1    2    0    0  0.91999742450E+01 -0.33289868570E+02 -0.28918134696E+02  0.45045681146E+02  0.00000000000E+00 0. -1.
         11    1    3    3    0    0 -0.69069676114E+01  0.14823792778E+02  0.11236308898E+02  0.19842017836E+02  0.51100000000E-03 0. -1.
        -11    1    3    3    0    0 -0.11867572716E+01  0.86910058709E+01  0.12238373759E+02  0.15057216489E+02  0.51100000000E-03 0.  1.
         12    1    3    3    0    0 -0.11062493620E+01  0.97750699216E+01  0.54434520396E+01  0.11243084529E+02  0.00000000000E+00 0. -1.
</event>
<event>
 7    1  0.1381440E-008  0.4614232E+02  0.7816164E-02  0.1320468E+00
        -11   -1    0    0    0    0  0.00000000000E+00  0.00000000000E+00  0.45593999997E+02  0.45594000000E+02  0.51100000000E-03 0.  1.
         11   -1    0    0    0    0 -0.00000000000E+00 -0.00000000000E+00 -0.45593999997E+02  0.45594000000E+02  0.51100000000E-03 0. -1.
    9900012    2    1    2    0    0 -0.15083562785E+02 -0.78196766415E+01  0.41718728444E+02  0.46142317499E+02  0.99999976065E+01 0.  0.
         12    1    1    2    0    0  0.15083562785E+02  0.78196766415E+01 -0.41718728444E+02  0.45045682501E+02  0.00000000000E+00 0. -1.
         11    1    3    3    0    0 -0.69863659808E+00  0.69951701404E+00  0.82828807549E+00  0.12897591040E+01  0.51100000000E-03 0. -1.
        -11    1    3    3    0    0  0.14478937959E+00 -0.13513264059E+01  0.72010954681E+00  0.15380523529E+01  0.51100000000E-03 0.  1.
        -12    1    3    3    0    0 -0.14529715566E+02 -0.71678672497E+01  0.40170330821E+02  0.43314506042E+02  0.00000000000E+00 0.  1.
</event>
<event>
 7    1  0.1381440E-008  0.4614232E+02  0.7816164E-02  0.1320468E+00
        -11   -1    0    0    0    0  0.00000000000E+00  0.00000000000E+00  0.45593999997E+02  0.45594000000E+02  0.51100000000E-03 0.  1.
         11   -1    0    0    0    0 -0.00000000000E+00 -0.00000000000E+00 -0.45593999997E+02  0.45594000000E+02  0.51100000000E-03 0. -1.
    9900012    2    1    2    0    0  0.22828318134E+02  0.38786619225E+02  0.18919604988E+01  0.46142318140E+02  0.10000003453E+02 0.  0.
         12    1    1    2    0    0 -0.22828318134E+02 -0.38786619225E+02 -0.18919604988E+01  0.45045681860E+02  0.00000000000E+00 0. -1.
         11    1    3    3    0    0  0.12654436945E+02  0.13806812525E+02  0.38411982335E+00  0.18732602457E+02  0.51100000000E-03 0. -1.
        -11    1    3    3    0    0  0.10459477471E+02  0.24681970050E+02  0.10996114550E+01  0.26829264994E+02  0.51100000000E-03 0.  1.
        -12    1    3    3    0    0 -0.28559628190E+00  0.29783665030E+00  0.40822922044E+00  0.58045068948E+00  0.00000000000E+00 0.  1.
</event>
<event>
 7    1  0.1381440E-008  0.4614232E+02  0.7816164E-02  0.1320468E+00
        -11   -1    0    0    0    0  0.00000000000E+00  0.00000000000E+00  0.45593999997E+02  0.45594000000E+02  0.51100000000E-03 0.  1.
         11   -1    0    0    0    0 -0.00000000000E+00 -0.00000000000E+00 -0.45593999997E+02  0.45594000000E+02  0.51100000000E-03 0. -1.
    9900012    2    1    2    0    0  0.23266975391E+02 -0.11736000375E+02  0.36742721734E+02  0.46142318197E+02  0.10000003978E+02 0.  0.
         12    1    1    2    0    0 -0.23266975391E+02  0.11736000375E+02 -0.36742721734E+02  0.45045681803E+02  0.00000000000E+00 0. -1.
         11    1    3    3    0    0 -0.17229772365E+00 -0.81276076637E-01  0.92538245253E+00  0.94478846880E+00  0.51100000000E-03 0. -1.
        -11    1    3    3    0    0  0.22768428331E+02 -0.95956327090E+01  0.35083988706E+02  0.42911114639E+02  0.51100000000E-03 0.  1.
        -12    1    3    3    0    0  0.67084478396E+00 -0.20590915892E+01  0.73335057516E+00  0.22864150898E+01  0.00000000000E+00 0.  1.
</event>
<event>
 7    1  0.1381440E-008  0.4614232E+02  0.7816164E-02  0.1320468E+00
        -11   -1    0    0    0    0  0.00000000000E+00  0.00000000000E+00  0.45593999997E+02  0.45594000000E+02  0.51100000000E-03 0.  1.
         11   -1    0    0    0    0 -0.00000000000E+00 -0.00000000000E+00 -0.45593999997E+02  0.45594000000E+02  0.51100000000E-03 0. -1.
    9900012    2    1    2    0    0 -0.73723518899E+01  0.22844770348E+02  0.38116642068E+02  0.46142317552E+02  0.99999980970E+01 0.  0.
         12    1    1    2    0    0  0.73723518899E+01 -0.22844770348E+02 -0.38116642068E+02  0.45045682448E+02  0.00000000000E+00 0. -1.
         11    1    3    3    0    0 -0.71356303576E+01  0.14207402719E+02  0.17340395644E+02  0.23525663305E+02  0.51100000000E-03 0. -1.
        -11    1    3    3    0    0  0.97687638101E+00  0.26525584734E+01  0.62979454984E+01  0.69032218334E+01  0.51100000000E-03 0.  1.
         12    1    3    3    0    0 -0.12135979133E+01  0.59848091560E+01  0.14478300926E+02  0.15713432414E+02  0.00000000000E+00 0. -1.
</event>
<event>
 7    1  0.1381440E-008  0.4614232E+02  0.7816164E-02  0.1320468E+00
        -11   -1    0    0    0    0  0.00000000000E+00  0.00000000000E+00  0.45593999997E+02  0.45594000000E+02  0.51100000000E-03 0.  1.
         11   -1    0    0    0    0 -0.00000000000E+00 -0.00000000000E+00 -0.45593999997E+02  0.45594000000E+02  0.51100000000E-03 0. -1.
    9900012    2    1    2    0    0  0.10852698713E+02 -0.25158501924E+02  0.35754470723E+02  0.46142318019E+02  0.10000002355E+02 0.  0.
         12    1    1    2    0    0 -0.10852698713E+02  0.25158501924E+02 -0.35754470723E+02  0.45045681981E+02  0.00000000000E+00 0. -1.
         11    1    3    3    0    0  0.89550693090E+01 -0.15004224352E+02  0.22090774932E+02  0.28165978628E+02  0.51100000000E-03 0. -1.
        -11    1    3    3    0    0  0.30887282467E+01 -0.29474365707E+01  0.38993448131E+01  0.57820856750E+01  0.51100000000E-03 0.  1.
         12    1    3    3    0    0 -0.11910988425E+01 -0.72068410012E+01  0.97643509784E+01  0.12194253716E+02  0.00000000000E+00 0. -1.
</event>
<event>
 7    1  0.1381440E-008  0.4614232E+02  0.7816164E-02  0.1320468E+00
        -11   -1    0    0    0    0  0.00000000000E+00  0.00000000000E+00  0.45593999997E+02  0.45594000000E+02  0.51100000000E-03 0.  1.
         11   -1    0    0    0    0 -0.00000000000E+00 -0.00000000000E+00 -0.45593999997E+02  0.45594000000E+02  0.51100000000E-03 0. -1.
    9900012    2    1    2    0    0  0.37661281494E+02  0.17832092192E+01  0.24648763681E+02  0.46142317522E+02  0.99999978220E+01 0.  0.
         12    1    1    2    0    0 -0.37661281494E+02 -0.17832092192E+01 -0.24648763681E+02  0.45045682478E+02  0.00000000000E+00 0. -1.
         11    1    3    3    0    0  0.10821811322E+02  0.24460936328E+01  0.34848078571E+01  0.11629224412E+02  0.51100000000E-03 0. -1.
        -11    1    3    3    0    0  0.17726623882E+02  0.13955257573E+01  0.15493097489E+02  0.23584248058E+02  0.51100000000E-03 0.  1.
        -12    1    3    3    0    0  0.91128462899E+01 -0.20584101709E+01  0.56708583346E+01  0.10928845053E+02  0.00000000000E+00 0.  1.
</event>
<event>
 7    1  0.1381440E-008  0.4614232E+02  0.7816164E-02  0.1320468E+00
        -11   -1    0    0    0    0  0.00000000000E+00  0.00000000000E+00  0.45593999997E+02  0.45594000000E+02  0.51100000000E-03 0.  1.
         11   -1    0    0    0    0 -0.00000000000E+00 -0.00000000000E+00 -0.45593999997E+02  0.45594000000E+02  0.51100000000E-03 0. -1.
    9900012    2    1    2    0    0 -0.23382455426E+02  0.35628472773E+02 -0.14594045167E+02  0.46142318206E+02  0.10000004059E+02 0.  0.
         12    1    1    2    0    0  0.23382455426E+02 -0.35628472773E+02  0.14594045167E+02  0.45045681794E+02  0.00000000000E+00 0. -1.
         11    1    3    3    0    0 -0.10311475767E+00  0.26267641028E+00 -0.81145759992E+00  0.85912469837E+00  0.51100000000E-03 0. -1.
        -11    1    3    3    0    0 -0.23449413811E+02  0.34447336529E+02 -0.14482298589E+02  0.44116107883E+02  0.51100000000E-03 0.  1.
        -12    1    3    3    0    0  0.17007314264E+00  0.91845983405E+00  0.69971102268E+00  0.11670856249E+01  0.00000000000E+00 0.  1.
</event>
<event>
 7    1  0.1381440E-008  0.4614232E+02  0.7816164E-02  0.1320468E+00
        -11   -1    0    0    0    0  0.00000000000E+00  0.00000000000E+00  0.45593999997E+02  0.45594000000E+02  0.51100000000E-03 0. -1.
         11   -1    0    0    0    0 -0.00000000000E+00 -0.00000000000E+00 -0.45593999997E+02  0.45594000000E+02  0.51100000000E-03 0.  1.
    9900012    2    1    2    0    0 -0.17798052866E+02  0.29754501649E+02 -0.28757821828E+02  0.46142319070E+02  0.10000011933E+02 0.  0.
         12    1    1    2    0    0  0.17798052866E+02 -0.29754501649E+02  0.28757821828E+02  0.45045680930E+02  0.00000000000E+00 0. -1.
         11    1    3    3    0    0 -0.16706327987E+01  0.10003313570E+02 -0.98957140065E+01  0.14169772486E+02  0.51100000000E-03 0. -1.
        -11    1    3    3    0    0 -0.10675464315E+02  0.15849773731E+02 -0.14144762091E+02  0.23775095385E+02  0.51100000000E-03 0.  1.
         12    1    3    3    0    0 -0.54519557517E+01  0.39014143473E+01 -0.47173457302E+01  0.81974511994E+01  0.00000000000E+00 0. -1.
</event>
<event>
 7    1  0.1381440E-008  0.4614232E+02  0.7816164E-02  0.1320468E+00
        -11   -1    0    0    0    0  0.00000000000E+00  0.00000000000E+00  0.45593999997E+02  0.45594000000E+02  0.51100000000E-03 0.  1.
         11   -1    0    0    0    0 -0.00000000000E+00 -0.00000000000E+00 -0.45593999997E+02  0.45594000000E+02  0.51100000000E-03 0. -1.
    9900012    2    1    2    0    0  0.14839943542E+02 -0.36642066061E+01  0.42372903367E+02  0.46142320139E+02  0.10000021685E+02 0.  0.
         12    1    1    2    0    0 -0.14839943542E+02  0.36642066061E+01 -0.42372903367E+02  0.45045679861E+02  0.00000000000E+00 0. -1.
         11    1    3    3    0    0 -0.12571889672E+01 -0.14203152217E+01  0.44216153936E+01  0.48112890558E+01  0.51100000000E-03 0. -1.
        -11    1    3    3    0    0  0.15031553503E+02 -0.25171893654E+01  0.34726967198E+02  0.37924215140E+02  0.51100000000E-03 0.  1.
         12    1    3    3    0    0  0.10655790063E+01  0.27329798105E+00  0.32243207759E+01  0.34068159432E+01  0.00000000000E+00 0. -1.
</event>
<event>
 7    1  0.1381440E-008  0.4614232E+02  0.7816164E-02  0.1320468E+00
        -11   -1    0    0    0    0  0.00000000000E+00  0.00000000000E+00  0.45593999997E+02  0.45594000000E+02  0.51100000000E-03 0.  1.
         11   -1    0    0    0    0 -0.00000000000E+00 -0.00000000000E+00 -0.45593999997E+02  0.45594000000E+02  0.51100000000E-03 0. -1.
    9900012    2    1    2    0    0 -0.85836500469E+01  0.13371196465E+02  0.42150273499E+02  0.46142317642E+02  0.99999989136E+01 0.  0.
         12    1    1    2    0    0  0.85836500469E+01 -0.13371196465E+02 -0.42150273499E+02  0.45045682358E+02  0.00000000000E+00 0. -1.
         11    1    3    3    0    0  0.27401406562E+00 -0.44758271362E+00 -0.19646092424E-01  0.52516685326E+00  0.51100000000E-03 0. -1.
        -11    1    3    3    0    0 -0.15687929619E+01  0.36933398613E+01  0.17713280436E+02  0.18162108213E+02  0.51100000000E-03 0.  1.
         12    1    3    3    0    0 -0.72888711506E+01  0.10125439318E+02  0.24456639156E+02  0.27455042576E+02  0.00000000000E+00 0. -1.
</event>
<event>
 7    1  0.1381440E-008  0.4614232E+02  0.7816164E-02  0.1320468E+00
        -11   -1    0    0    0    0  0.00000000000E+00  0.00000000000E+00  0.45593999997E+02  0.45594000000E+02  0.51100000000E-03 0.  1.
         11   -1    0    0    0    0 -0.00000000000E+00 -0.00000000000E+00 -0.45593999997E+02  0.45594000000E+02  0.51100000000E-03 0. -1.
    9900012    2    1    2    0    0  0.16526068308E+02 -0.16947877777E+02  0.38324563456E+02  0.46142315868E+02  0.99999827380E+01 0.  0.
         12    1    1    2    0    0 -0.16526068308E+02  0.16947877777E+02 -0.38324563456E+02  0.45045684132E+02  0.00000000000E+00 0. -1.
         11    1    3    3    0    0  0.32826273644E+01 -0.31726129600E+01  0.14792787202E+02  0.15481203728E+02  0.51100000000E-03 0. -1.
        -11    1    3    3    0    0  0.95954237133E+00 -0.11913509061E+01  0.35924992760E+00  0.15713367925E+01  0.51100000000E-03 0.  1.
         12    1    3    3    0    0  0.12283898572E+02 -0.12583913911E+02  0.23172526326E+02  0.29089775348E+02  0.00000000000E+00 0. -1.
</event>
<event>
 7    1  0.1381440E-008  0.4614232E+02  0.7816164E-02  0.1320468E+00
        -11   -1    0    0    0    0  0.00000000000E+00  0.00000000000E+00  0.45593999997E+02  0.45594000000E+02  0.51100000000E-03 0.  1.
         11   -1    0    0    0    0 -0.00000000000E+00 -0.00000000000E+00 -0.45593999997E+02  0.45594000000E+02  0.51100000000E-03 0. -1.
    9900012    2    1    2    0    0 -0.24364488328E+02  0.17708283285E+02  0.33494804090E+02  0.46142317750E+02  0.99999998968E+01 0.  0.
         12    1    1    2    0    0  0.24364488328E+02 -0.17708283285E+02 -0.33494804090E+02  0.45045682250E+02  0.00000000000E+00 0. -1.
         11    1    3    3    0    0 -0.48688284415E+01  0.31475651474E-01  0.53035507114E+01  0.71995924551E+01  0.51100000000E-03 0.  1.
        -11    1    3    3    0    0 -0.13248645829E+02  0.13654909958E+02  0.17027848026E+02  0.25532935415E+02  0.51100000000E-03 0. -1.
        -12    1    3    3    0    0 -0.62470140575E+01  0.40218976748E+01  0.11163405353E+02  0.13409789880E+02  0.00000000000E+00 0.  1.
</event>
<event>
 7    1  0.1381440E-008  0.4614232E+02  0.7816164E-02  0.1320468E+00
        -11   -1    0    0    0    0  0.00000000000E+00  0.00000000000E+00  0.45593999997E+02  0.45594000000E+02  0.51100000000E-03 0. -1.
         11   -1    0    0    0    0 -0.00000000000E+00 -0.00000000000E+00 -0.45593999997E+02  0.45594000000E+02  0.51100000000E-03 0.  1.
    9900012    2    1    2    0    0  0.16399523598E+02  0.22600979495E+02 -0.35346353566E+02  0.46142319200E+02  0.10000013117E+02 0.  0.
         12    1    1    2    0    0 -0.16399523598E+02 -0.22600979495E+02  0.35346353566E+02  0.45045680800E+02  0.00000000000E+00 0. -1.
         11    1    3    3    0    0  0.91854808488E+01  0.13297453151E+02 -0.14849968929E+02  0.21948049940E+02  0.51100000000E-03 0. -1.
        -11    1    3    3    0    0  0.77026848152E+01  0.72778025977E+01 -0.15454339191E+02  0.18738579564E+02  0.51100000000E-03 0.  1.
         12    1    3    3    0    0 -0.48864206589E+00  0.20257237462E+01 -0.50420454464E+01  0.54556896950E+01  0.00000000000E+00 0. -1.
</event>
<event>
 7    1  0.1381440E-008  0.4614232E+02  0.7816164E-02  0.1320468E+00
        -11   -1    0    0    0    0  0.00000000000E+00  0.00000000000E+00  0.45593999997E+02  0.45594000000E+02  0.51100000000E-03 0.  1.
         11   -1    0    0    0    0 -0.00000000000E+00 -0.00000000000E+00 -0.45593999997E+02  0.45594000000E+02  0.51100000000E-03 0. -1.
    9900012    2    1    2    0    0 -0.23108963805E+02 -0.15797265575E+02  0.35292149753E+02  0.46142316056E+02  0.99999844524E+01 0.  0.
         12    1    1    2    0    0  0.23108963805E+02  0.15797265575E+02 -0.35292149753E+02  0.45045683944E+02  0.00000000000E+00 0. -1.
         11    1    3    3    0    0 -0.12779934677E+02 -0.64069076209E+01  0.13400824348E+02  0.19594828121E+02  0.51100000000E-03 0. -1.
        -11    1    3    3    0    0 -0.45789271962E+01 -0.65261124709E+01  0.82677966386E+01  0.11485346306E+02  0.51100000000E-03 0.  1.
         12    1    3    3    0    0 -0.57501019312E+01 -0.28642454830E+01  0.13623528766E+02  0.15062141629E+02  0.00000000000E+00 0. -1.
</event>
<event>
 7    1  0.1381440E-008  0.4614232E+02  0.7816164E-02  0.1320468E+00
        -11   -1    0    0    0    0  0.00000000000E+00  0.00000000000E+00  0.45593999997E+02  0.45594000000E+02  0.51100000000E-03 0.  1.
         11   -1    0    0    0    0 -0.00000000000E+00 -0.00000000000E+00 -0.45593999997E+02  0.45594000000E+02  0.51100000000E-03 0. -1.
    9900012    2    1    2    0    0 -0.12490864257E+02 -0.43276528237E+02 -0.48358127242E+00  0.46142318332E+02  0.10000005204E+02 0.  0.
         12    1    1    2    0    0  0.12490864257E+02  0.43276528237E+02  0.48358127242E+00  0.45045681668E+02  0.00000000000E+00 0. -1.
         11    1    3    3    0    0 -0.26048676296E+01 -0.15230612519E+02  0.25789604573E+01  0.15665501280E+02  0.51100000000E-03 0. -1.
        -11    1    3    3    0    0 -0.83344426302E+01 -0.24826368704E+02 -0.70905700512E+00  0.26197600636E+02  0.51100000000E-03 0.  1.
         12    1    3    3    0    0 -0.15515539976E+01 -0.32195470142E+01 -0.23534847246E+01  0.42792164158E+01  0.00000000000E+00 0. -1.
</event>
<event>
 7    1  0.1381440E-008  0.4614232E+02  0.7816164E-02  0.1320468E+00
        -11   -1    0    0    0    0  0.00000000000E+00  0.00000000000E+00  0.45593999997E+02  0.45594000000E+02  0.51100000000E-03 0.  1.
         11   -1    0    0    0    0 -0.00000000000E+00 -0.00000000000E+00 -0.45593999997E+02  0.45594000000E+02  0.51100000000E-03 0. -1.
    9900012    2    1    2    0    0 -0.21185966814E+01  0.10728051129E+02  0.43698214857E+02  0.46142317470E+02  0.99999973461E+01 0.  0.
         12    1    1    2    0    0  0.21185966814E+01 -0.10728051129E+02 -0.43698214857E+02  0.45045682530E+02  0.00000000000E+00 0. -1.
         11    1    3    3    0    0  0.16040598461E+00 -0.18143912618E+01  0.68556746857E+01  0.70935196756E+01  0.51100000000E-03 0. -1.
        -11    1    3    3    0    0 -0.17244479154E+01  0.48814948189E+01  0.17026691353E+02  0.17796374096E+02  0.51100000000E-03 0.  1.
         12    1    3    3    0    0 -0.55455475055E+00  0.76609475722E+01  0.19815848818E+02  0.21252423698E+02  0.00000000000E+00 0. -1.
</event>
<event>
 7    1  0.1381440E-008  0.4614232E+02  0.7816164E-02  0.1320468E+00
        -11   -1    0    0    0    0  0.00000000000E+00  0.00000000000E+00  0.45593999997E+02  0.45594000000E+02  0.51100000000E-03 0.  1.
         11   -1    0    0    0    0 -0.00000000000E+00 -0.00000000000E+00 -0.45593999997E+02  0.45594000000E+02  0.51100000000E-03 0. -1.
    9900012    2    1    2    0    0 -0.43069966825E+02 -0.85582860241E+00  0.13166585766E+02  0.46142318013E+02  0.10000002297E+02 0.  0.
         12    1    1    2    0    0  0.43069966825E+02  0.85582860241E+00 -0.13166585766E+02  0.45045681987E+02  0.00000000000E+00 0. -1.
         11    1    3    3    0    0 -0.61591573799E+01 -0.78407510251E+00  0.51359235129E+01  0.80577728925E+01  0.51100000000E-03 0. -1.
        -11    1    3    3    0    0 -0.33729739850E+02  0.32277940937E+00  0.86433543269E+01  0.34821072803E+02  0.51100000000E-03 0.  1.
         12    1    3    3    0    0 -0.31810695955E+01 -0.39453290927E+00 -0.61269207340E+00  0.32634723172E+01  0.00000000000E+00 0. -1.
</event>
<event>
 7    1  0.1381440E-008  0.4614232E+02  0.7816164E-02  0.1320468E+00
        -11   -1    0    0    0    0  0.00000000000E+00  0.00000000000E+00  0.45593999997E+02  0.45594000000E+02  0.51100000000E-03 0.  1.
         11   -1    0    0    0    0 -0.00000000000E+00 -0.00000000000E+00 -0.45593999997E+02  0.45594000000E+02  0.51100000000E-03 0. -1.
    9900012    2    1    2    0    0  0.69565105600E+01  0.30937683176E+02  0.31993439752E+02  0.46142318003E+02  0.10000002203E+02 0.  0.
         12    1    1    2    0    0 -0.69565105600E+01 -0.30937683176E+02 -0.31993439752E+02  0.45045681997E+02  0.00000000000E+00 0. -1.
         11    1    3    3    0    0  0.35628585245E+01  0.89764875215E+01  0.45955421163E+01  0.10695339952E+02  0.51100000000E-03 0. -1.
        -11    1    3    3    0    0  0.25835210839E+01  0.66503713474E+01  0.79464870092E+01  0.10679357485E+02  0.51100000000E-03 0.  1.
         12    1    3    3    0    0  0.81013095154E+00  0.15310824307E+02  0.19451410626E+02  0.24767620565E+02  0.00000000000E+00 0. -1.
</event>
<event>
 7    1  0.1381440E-008  0.4614232E+02  0.7816164E-02  0.1320468E+00
        -11   -1    0    0    0    0  0.00000000000E+00  0.00000000000E+00  0.45593999997E+02  0.45594000000E+02  0.51100000000E-03 0.  1.
         11   -1    0    0    0    0 -0.00000000000E+00 -0.00000000000E+00 -0.45593999997E+02  0.45594000000E+02  0.51100000000E-03 0. -1.
    9900012    2    1    2    0    0 -0.26523910135E+02  0.93909580165E+01  0.35176775454E+02  0.46142318380E+02  0.10000005642E+02 0.  0.
         12    1    1    2    0    0  0.26523910135E+02 -0.93909580165E+01 -0.35176775454E+02  0.45045681620E+02  0.00000000000E+00 0. -1.
         11    1    3    3    0    0 -0.21062682024E+01 -0.12647767707E+01  0.96811857605E+00  0.26406968510E+01  0.51100000000E-03 0. -1.
        -11    1    3    3    0    0 -0.19030993682E+02  0.88387319639E+01  0.28970908949E+02  0.35771713250E+02  0.51100000000E-03 0.  1.
         12    1    3    3    0    0 -0.53866482501E+01  0.18170028233E+01  0.52377479284E+01  0.77299082783E+01  0.00000000000E+00 0. -1.
</event>
<event>
 7    1  0.1381440E-008  0.4614231E+02  0.7816164E-02  0.1320468E+00
        -11   -1    0    0    0    0  0.00000000000E+00  0.00000000000E+00  0.45593999997E+02  0.45594000000E+02  0.51100000000E-03 0.  1.
         11   -1    0    0    0    0 -0.00000000000E+00 -0.00000000000E+00 -0.45593999997E+02  0.45594000000E+02  0.51100000000E-03 0. -1.
    9900012    2    1    2    0    0 -0.41444925550E+02  0.42308903082E+01  0.17132761490E+02  0.46142314269E+02  0.99999681604E+01 0.  0.
         12    1    1    2    0    0  0.41444925550E+02 -0.42308903082E+01 -0.17132761490E+02  0.45045685731E+02  0.00000000000E+00 0. -1.
         11    1    3    3    0    0 -0.16006045601E+02  0.34344439914E+01  0.46781075945E+01  0.17025674502E+02  0.51100000000E-03 0.  1.
        -11    1    3    3    0    0 -0.42199029801E+01  0.25710786290E+01  0.32809071185E+01  0.59314735319E+01  0.51100000000E-03 0. -1.
        -12    1    3    3    0    0 -0.21218976969E+02 -0.17746323122E+01  0.91737467766E+01  0.23185166236E+02  0.00000000000E+00 0.  1.
</event>
<event>
 7    1  0.1381440E-008  0.4614232E+02  0.7816164E-02  0.1320468E+00
        -11   -1    0    0    0    0  0.00000000000E+00  0.00000000000E+00  0.45593999997E+02  0.45594000000E+02  0.51100000000E-03 0. -1.
         11   -1    0    0    0    0 -0.00000000000E+00 -0.00000000000E+00 -0.45593999997E+02  0.45594000000E+02  0.51100000000E-03 0.  1.
    9900012    2    1    2    0    0 -0.40888116450E+01  0.44319041817E+02 -0.69438927879E+01  0.46142317684E+02  0.99999992961E+01 0.  0.
         12    1    1    2    0    0  0.40888116450E+01 -0.44319041817E+02  0.69438927879E+01  0.45045682316E+02  0.00000000000E+00 0. -1.
         11    1    3    3    0    0 -0.16454594724E+01  0.11944758340E+02  0.18337522209E+01  0.12196205810E+02  0.51100000000E-03 0. -1.
        -11    1    3    3    0    0 -0.10811576048E+01  0.29612583551E+02 -0.86290252683E+01  0.30863150903E+02  0.51100000000E-03 0.  1.
         12    1    3    3    0    0 -0.13621945678E+01  0.27616999263E+01 -0.14861974055E+00  0.30829609713E+01  0.00000000000E+00 0. -1.
</event>
<event>
 7    1  0.1381440E-008  0.4614232E+02  0.7816164E-02  0.1320468E+00
        -11   -1    0    0    0    0  0.00000000000E+00  0.00000000000E+00  0.45593999997E+02  0.45594000000E+02  0.51100000000E-03 0. -1.
         11   -1    0    0    0    0 -0.00000000000E+00 -0.00000000000E+00 -0.45593999997E+02  0.45594000000E+02  0.51100000000E-03 0.  1.
    9900012    2    1    2    0    0 -0.35032789520E+02  0.25379916916E+02  0.12556947707E+02  0.46142318076E+02  0.10000002876E+02 0.  0.
         12    1    1    2    0    0  0.35032789520E+02 -0.25379916916E+02 -0.12556947707E+02  0.45045681924E+02  0.00000000000E+00 0. -1.
         11    1    3    3    0    0 -0.53898203818E+01  0.73108016869E+01  0.23932519015E+01  0.93928504714E+01  0.51100000000E-03 0. -1.
        -11    1    3    3    0    0 -0.19913230394E+02  0.15248508447E+02  0.85080910125E+01  0.26484738389E+02  0.51100000000E-03 0.  1.
        -12    1    3    3    0    0 -0.97297387441E+01  0.28206067821E+01  0.16556047934E+01  0.10264729216E+02  0.00000000000E+00 0.  1.
</event>
<event>
 7    1  0.1381440E-008  0.4614232E+02  0.7816164E-02  0.1320468E+00
        -11   -1    0    0    0    0  0.00000000000E+00  0.00000000000E+00  0.45593999997E+02  0.45594000000E+02  0.51100000000E-03 0.  1.
         11   -1    0    0    0    0 -0.00000000000E+00 -0.00000000000E+00 -0.45593999997E+02  0.45594000000E+02  0.51100000000E-03 0. -1.
    9900012    2    1    2    0    0  0.23926767484E+02  0.60416176997E+01  0.37684507378E+02  0.46142318265E+02  0.10000004598E+02 0.  0.
         12    1    1    2    0    0 -0.23926767484E+02 -0.60416176997E+01 -0.37684507378E+02  0.45045681735E+02  0.00000000000E+00 0. -1.
         11    1    3    3    0    0  0.67820465259E+01  0.82886526995E+00  0.62700556960E+01  0.92734444198E+01  0.51100000000E-03 0. -1.
        -11    1    3    3    0    0  0.14379576514E+02  0.12768832859E+01  0.22341597036E+02  0.26599804699E+02  0.51100000000E-03 0.  1.
         12    1    3    3    0    0  0.27651444435E+01  0.39358691438E+01  0.90728546454E+01  0.10269069146E+02  0.00000000000E+00 0. -1.
</event>
<event>
 7    1  0.1381440E-008  0.4614232E+02  0.7816164E-02  0.1320468E+00
        -11   -1    0    0    0    0  0.00000000000E+00  0.00000000000E+00  0.45593999997E+02  0.45594000000E+02  0.51100000000E-03 0.  1.
         11   -1    0    0    0    0 -0.00000000000E+00 -0.00000000000E+00 -0.45593999997E+02  0.45594000000E+02  0.51100000000E-03 0. -1.
    9900012    2    1    2    0    0 -0.33667778291E+02 -0.26333233075E+02  0.14218128339E+02  0.46142316159E+02  0.99999853926E+01 0.  0.
         12    1    1    2    0    0  0.33667778291E+02  0.26333233075E+02 -0.14218128339E+02  0.45045683841E+02  0.00000000000E+00 0. -1.
         11    1    3    3    0    0 -0.12195022293E+02 -0.89422060574E+01  0.91882128538E+01  0.17694769668E+02  0.51100000000E-03 0. -1.
        -11    1    3    3    0    0 -0.15909747836E+02 -0.14969210639E+02  0.48542606078E+01  0.22377694021E+02  0.51100000000E-03 0.  1.
         12    1    3    3    0    0 -0.55630081613E+01 -0.24218163781E+01  0.17565487725E+00  0.60698524700E+01  0.00000000000E+00 0. -1.
</event>
<event>
 7    1  0.1381440E-008  0.4614232E+02  0.7816164E-02  0.1320468E+00
        -11   -1    0    0    0    0  0.00000000000E+00  0.00000000000E+00  0.45593999997E+02  0.45594000000E+02  0.51100000000E-03 0. -1.
         11   -1    0    0    0    0 -0.00000000000E+00 -0.00000000000E+00 -0.45593999997E+02  0.45594000000E+02  0.51100000000E-03 0.  1.
    9900012    2    1    2    0    0 -0.19514361517E+02  0.33127198690E+02 -0.23471087579E+02  0.46142317071E+02  0.99999937062E+01 0.  0.
         12    1    1    2    0    0  0.19514361517E+02 -0.33127198690E+02  0.23471087579E+02  0.45045682929E+02  0.00000000000E+00 0. -1.
         11    1    3    3    0    0 -0.49671836979E+01  0.10419742765E+02 -0.26666754117E+01  0.11847156249E+02  0.51100000000E-03 0. -1.
        -11    1    3    3    0    0 -0.63448509041E+01  0.13459399910E+02 -0.12060471167E+02  0.19153786674E+02  0.51100000000E-03 0.  1.
         12    1    3    3    0    0 -0.82023269146E+01  0.92480560139E+01 -0.87439410004E+01  0.15141374147E+02  0.00000000000E+00 0. -1.
</event>
<event>
 7    1  0.1381440E-008  0.4614232E+02  0.7816164E-02  0.1320468E+00
        -11   -1    0    0    0    0  0.00000000000E+00  0.00000000000E+00  0.45593999997E+02  0.45594000000E+02  0.51100000000E-03 0. -1.
         11   -1    0    0    0    0 -0.00000000000E+00 -0.00000000000E+00 -0.45593999997E+02  0.45594000000E+02  0.51100000000E-03 0.  1.
    9900012    2    1    2    0    0 -0.23676765047E+02 -0.19326950928E+02 -0.33090680697E+02  0.46142318917E+02  0.10000010536E+02 0.  0.
         12    1    1    2    0    0  0.23676765047E+02  0.19326950928E+02  0.33090680697E+02  0.45045681083E+02  0.00000000000E+00 0. -1.
         11    1    3    3    0    0 -0.66311032020E+01 -0.46328030866E+01 -0.31955990326E+01  0.86974851280E+01  0.51100000000E-03 0. -1.
        -11    1    3    3    0    0 -0.16251096813E+02 -0.14008406290E+02 -0.27959145404E+02  0.35242692950E+02  0.51100000000E-03 0.  1.
         12    1    3    3    0    0 -0.79456503216E+00 -0.68574155169E+00 -0.19359362610E+01  0.22021408385E+01  0.00000000000E+00 0. -1.
</event>
<event>
 7    1  0.1381440E-008  0.4614232E+02  0.7816164E-02  0.1320468E+00
        -11   -1    0    0    0    0  0.00000000000E+00  0.00000000000E+00  0.45593999997E+02  0.45594000000E+02  0.51100000000E-03 0.  1.
         11   -1    0    0    0    0 -0.00000000000E+00 -0.00000000000E+00 -0.45593999997E+02  0.45594000000E+02  0.51100000000E-03 0. -1.
    9900012    2    1    2    0    0 -0.36427006470E+01 -0.39860851304E+02  0.20662936171E+02  0.46142315790E+02  0.99999820283E+01 0.  0.
         12    1    1    2    0    0  0.36427006470E+01  0.39860851304E+02 -0.20662936171E+02  0.45045684210E+02  0.00000000000E+00 0. -1.
         11    1    3    3    0    0 -0.53516632227E+01 -0.15361786622E+02  0.56893580555E+01  0.17233501758E+02  0.51100000000E-03 0. -1.
        -11    1    3    3    0    0  0.98492934192E+00 -0.99927147878E+01  0.77688961429E+01  0.12695675728E+02  0.51100000000E-03 0.  1.
        -12    1    3    3    0    0  0.72403323383E+00 -0.14506349894E+02  0.72046819728E+01  0.16213138305E+02  0.00000000000E+00 0.  1.
</event>
<event>
 7    1  0.1381440E-008  0.4614232E+02  0.7816164E-02  0.1320468E+00
        -11   -1    0    0    0    0  0.00000000000E+00  0.00000000000E+00  0.45593999997E+02  0.45594000000E+02  0.51100000000E-03 0.  1.
         11   -1    0    0    0    0 -0.00000000000E+00 -0.00000000000E+00 -0.45593999997E+02  0.45594000000E+02  0.51100000000E-03 0. -1.
    9900012    2    1    2    0    0 -0.13714141300E+02 -0.14755347203E+02  0.40290389428E+02  0.46142318487E+02  0.10000006621E+02 0.  0.
         12    1    1    2    0    0  0.13714141300E+02  0.14755347203E+02 -0.40290389428E+02  0.45045681513E+02  0.00000000000E+00 0. -1.
         11    1    3    3    0    0 -0.12641461804E+01 -0.85203586193E-01  0.66383370113E+00  0.14303847945E+01  0.51100000000E-03 0. -1.
        -11    1    3    3    0    0 -0.12448309199E+02 -0.13712405457E+02  0.31590338292E+02  0.36618846773E+02  0.51100000000E-03 0.  1.
        -12    1    3    3    0    0 -0.16859207251E-02 -0.95773816012E+00  0.80362174347E+01  0.80930869193E+01  0.00000000000E+00 0.  1.
</event>
<event>
 7    1  0.1381440E-008  0.4614232E+02  0.7816164E-02  0.1320468E+00
        -11   -1    0    0    0    0  0.00000000000E+00  0.00000000000E+00  0.45593999997E+02  0.45594000000E+02  0.51100000000E-03 0. -1.
         11   -1    0    0    0    0 -0.00000000000E+00 -0.00000000000E+00 -0.45593999997E+02  0.45594000000E+02  0.51100000000E-03 0.  1.
    9900012    2    1    2    0    0 -0.42596453341E+02  0.13073195709E+02  0.66141822031E+01  0.46142315528E+02  0.99999796398E+01 0.  0.
         12    1    1    2    0    0  0.42596453341E+02 -0.13073195709E+02 -0.66141822031E+01  0.45045684472E+02  0.00000000000E+00 0. -1.
         11    1    3    3    0    0 -0.22300822796E+02  0.10665566363E+02  0.50716050245E+01  0.25234939687E+02  0.51100000000E-03 0. -1.
        -11    1    3    3    0    0 -0.78815449759E+01  0.20722821347E+01  0.22937227019E+01  0.84660657065E+01  0.51100000000E-03 0.  1.
         12    1    3    3    0    0 -0.12414085569E+02  0.33534721171E+00 -0.75114552335E+00  0.12441310134E+02  0.00000000000E+00 0. -1.
</event>
<event>
 7    1  0.1381440E-008  0.4614232E+02  0.7816164E-02  0.1320468E+00
        -11   -1    0    0    0    0  0.00000000000E+00  0.00000000000E+00  0.45593999997E+02  0.45594000000E+02  0.51100000000E-03 0. -1.
         11   -1    0    0    0    0 -0.00000000000E+00 -0.00000000000E+00 -0.45593999997E+02  0.45594000000E+02  0.51100000000E-03 0.  1.
    9900012    2    1    2    0    0  0.26755972590E+02  0.24036819991E+02 -0.27119415501E+02  0.46142317836E+02  0.10000000683E+02 0.  0.
         12    1    1    2    0    0 -0.26755972590E+02 -0.24036819991E+02  0.27119415501E+02  0.45045682164E+02  0.00000000000E+00 0. -1.
         11    1    3    3    0    0  0.72342650235E+01  0.29622909281E+01 -0.89466602658E+01  0.11880761261E+02  0.51100000000E-03 0. -1.
        -11    1    3    3    0    0  0.16747094332E+02  0.16798292427E+02 -0.16507689654E+02  0.28898989861E+02  0.51100000000E-03 0.  1.
         12    1    3    3    0    0  0.27746132341E+01  0.42762366365E+01 -0.16650655814E+01  0.53625667139E+01  0.00000000000E+00 0. -1.
</event>
<event>
 7    1  0.1381440E-008  0.4614232E+02  0.7816164E-02  0.1320468E+00
        -11   -1    0    0    0    0  0.00000000000E+00  0.00000000000E+00  0.45593999997E+02  0.45594000000E+02  0.51100000000E-03 0. -1.
         11   -1    0    0    0    0 -0.00000000000E+00 -0.00000000000E+00 -0.45593999997E+02  0.45594000000E+02  0.51100000000E-03 0.  1.
    9900012    2    1    2    0    0  0.10598507837E+02 -0.43157044463E+02 -0.73657738157E+01  0.46142317865E+02  0.10000000945E+02 0.  0.
         12    1    1    2    0    0 -0.10598507837E+02  0.43157044463E+02  0.73657738157E+01  0.45045682135E+02  0.00000000000E+00 0. -1.
         11    1    3    3    0    0  0.34077234641E+01 -0.29157614330E+02 -0.71396122761E+01  0.30211804255E+02  0.51100000000E-03 0. -1.
        -11    1    3    3    0    0  0.70845774009E+01 -0.13252986691E+02 -0.69302834084E+00  0.15043709041E+02  0.51100000000E-03 0.  1.
         12    1    3    3    0    0  0.10620697170E+00 -0.74644344241E+00  0.46686680122E+00  0.88680456902E+00  0.00000000000E+00 0. -1.
</event>
<event>
 7    1  0.1381440E-008  0.4614232E+02  0.7816164E-02  0.1320468E+00
        -11   -1    0    0    0    0  0.00000000000E+00  0.00000000000E+00  0.45593999997E+02  0.45594000000E+02  0.51100000000E-03 0.  1.
         11   -1    0    0    0    0 -0.00000000000E+00 -0.00000000000E+00 -0.45593999997E+02  0.45594000000E+02  0.51100000000E-03 0. -1.
    9900012    2    1    2    0    0 -0.36957088380E+02 -0.17943801857E+02  0.18474499618E+02  0.46142317157E+02  0.99999944908E+01 0.  0.
         12    1    1    2    0    0  0.36957088380E+02  0.17943801857E+02 -0.18474499618E+02  0.45045682843E+02  0.00000000000E+00 0. -1.
         11    1    3    3    0    0 -0.14649045954E+02 -0.66659770152E+01  0.11164679055E+02  0.19587747589E+02  0.51100000000E-03 0.  1.
        -11    1    3    3    0    0 -0.51058537839E+01 -0.35576832586E+01  0.40361257431E+01  0.74173556142E+01  0.51100000000E-03 0. -1.
         12    1    3    3    0    0 -0.17202188642E+02 -0.77201415834E+01  0.32736948205E+01  0.19137213954E+02  0.00000000000E+00 0. -1.
</event>
<event>
 7    1  0.1381440E-008  0.4614232E+02  0.7816164E-02  0.1320468E+00
        -11   -1    0    0    0    0  0.00000000000E+00  0.00000000000E+00  0.45593999997E+02  0.45594000000E+02  0.51100000000E-03 0.  1.
         11   -1    0    0    0    0 -0.00000000000E+00 -0.00000000000E+00 -0.45593999997E+02  0.45594000000E+02  0.51100000000E-03 0. -1.
    9900012    2    1    2    0    0 -0.10829061185E+02 -0.57050796349E+01  0.43350859071E+02  0.46142317832E+02  0.10000000648E+02 0.  0.
         12    1    1    2    0    0  0.10829061185E+02  0.57050796349E+01 -0.43350859071E+02  0.45045682168E+02  0.00000000000E+00 0. -1.
         11    1    3    3    0    0 -0.81667916870E+00  0.19383973671E+01  0.52775442345E+01  0.56812694554E+01  0.51100000000E-03 0. -1.
        -11    1    3    3    0    0 -0.58524471481E+01 -0.74996719785E+01  0.27429677109E+02  0.29032454323E+02  0.51100000000E-03 0.  1.
         12    1    3    3    0    0 -0.41599348677E+01 -0.14380502355E+00  0.10643637727E+02  0.11428594054E+02  0.00000000000E+00 0. -1.
</event>
<event>
 7    1  0.1381440E-008  0.4614232E+02  0.7816164E-02  0.1320468E+00
        -11   -1    0    0    0    0  0.00000000000E+00  0.00000000000E+00  0.45593999997E+02  0.45594000000E+02  0.51100000000E-03 0.  1.
         11   -1    0    0    0    0 -0.00000000000E+00 -0.00000000000E+00 -0.45593999997E+02  0.45594000000E+02  0.51100000000E-03 0. -1.
    9900012    2    1    2    0    0 -0.26624710326E+02 -0.36008028510E+02 -0.48641965687E+01  0.46142315130E+02  0.99999760078E+01 0.  0.
         12    1    1    2    0    0  0.26624710326E+02  0.36008028510E+02  0.48641965687E+01  0.45045684870E+02  0.00000000000E+00 0. -1.
         11    1    3    3    0    0 -0.14019390527E+01 -0.30150169151E+01 -0.30147514369E+01  0.44882609765E+01  0.51100000000E-03 0. -1.
        -11    1    3    3    0    0 -0.18390626949E+02 -0.25468215875E+02 -0.66032342991E+00  0.31421031281E+02  0.51100000000E-03 0.  1.
         12    1    3    3    0    0 -0.68321443242E+01 -0.75247957202E+01 -0.11891217018E+01  0.10233022873E+02  0.00000000000E+00 0. -1.
</event>
<event>
 7    1  0.1381440E-008  0.4614232E+02  0.7816164E-02  0.1320468E+00
        -11   -1    0    0    0    0  0.00000000000E+00  0.00000000000E+00  0.45593999997E+02  0.45594000000E+02  0.51100000000E-03 0. -1.
         11   -1    0    0    0    0 -0.00000000000E+00 -0.00000000000E+00 -0.45593999997E+02  0.45594000000E+02  0.51100000000E-03 0.  1.
    9900012    2    1    2    0    0  0.34687450185E+02 -0.19130783682E+02 -0.21445452689E+02  0.46142317347E+02  0.99999962271E+01 0.  0.
         12    1    1    2    0    0 -0.34687450185E+02  0.19130783682E+02  0.21445452689E+02  0.45045682653E+02  0.00000000000E+00 0. -1.
         11    1    3    3    0    0  0.18460137158E+02 -0.75911178137E+01 -0.13146966869E+02  0.23900721154E+02  0.51100000000E-03 0. -1.
        -11    1    3    3    0    0  0.64650503274E+01 -0.19445743348E+01 -0.42081362315E+01  0.79552910621E+01  0.51100000000E-03 0.  1.
         12    1    3    3    0    0  0.97622626989E+01 -0.95950915338E+01 -0.40903495881E+01  0.14286305131E+02  0.00000000000E+00 0. -1.
</event>
<event>
 7    1  0.1381440E-008  0.4614232E+02  0.7816164E-02  0.1320468E+00
        -11   -1    0    0    0    0  0.00000000000E+00  0.00000000000E+00  0.45593999997E+02  0.45594000000E+02  0.51100000000E-03 0.  1.
         11   -1    0    0    0    0 -0.00000000000E+00 -0.00000000000E+00 -0.45593999997E+02  0.45594000000E+02  0.51100000000E-03 0. -1.
    9900012    2    1    2    0    0 -0.10785731108E+02 -0.13095131714E+02  0.41728874787E+02  0.46142318063E+02  0.10000002753E+02 0.  0.
         12    1    1    2    0    0  0.10785731108E+02  0.13095131714E+02 -0.41728874787E+02  0.45045681937E+02  0.00000000000E+00 0. -1.
         11    1    3    3    0    0 -0.30093599068E+01 -0.54514844839E+01  0.79193778993E+01  0.10074297827E+02  0.51100000000E-03 0. -1.
        -11    1    3    3    0    0 -0.41937842218E+01 -0.24204883182E+00  0.90191410975E+01  0.99494381818E+01  0.51100000000E-03 0.  1.
        -12    1    3    3    0    0 -0.35825869794E+01 -0.74015983985E+01  0.24790355791E+02  0.26118582055E+02  0.00000000000E+00 0.  1.
</event>
<event>
 7    1  0.1381440E-008  0.4614232E+02  0.7816164E-02  0.1320468E+00
        -11   -1    0    0    0    0  0.00000000000E+00  0.00000000000E+00  0.45593999997E+02  0.45594000000E+02  0.51100000000E-03 0.  1.
         11   -1    0    0    0    0 -0.00000000000E+00 -0.00000000000E+00 -0.45593999997E+02  0.45594000000E+02  0.51100000000E-03 0. -1.
    9900012    2    1    2    0    0 -0.11580485583E+02  0.24428312857E+02  0.36031422333E+02  0.46142317513E+02  0.99999977365E+01 0.  0.
         12    1    1    2    0    0  0.11580485583E+02 -0.24428312857E+02 -0.36031422333E+02  0.45045682487E+02  0.00000000000E+00 0. -1.
         11    1    3    3    0    0  0.86992266437E+00  0.72704738981E+01  0.74811180877E+01  0.10468222593E+02  0.51100000000E-03 0. -1.
        -11    1    3    3    0    0 -0.74034034182E+01  0.10044391945E+02  0.19093376042E+02  0.22809147302E+02  0.51100000000E-03 0.  1.
         12    1    3    3    0    0 -0.50470048296E+01  0.71134470140E+01  0.94569282039E+01  0.12864947618E+02  0.00000000000E+00 0. -1.
</event>
<event>
 7    1  0.1381440E-008  0.4614232E+02  0.7816164E-02  0.1320468E+00
        -11   -1    0    0    0    0  0.00000000000E+00  0.00000000000E+00  0.45593999997E+02  0.45594000000E+02  0.51100000000E-03 0. -1.
         11   -1    0    0    0    0 -0.00000000000E+00 -0.00000000000E+00 -0.45593999997E+02  0.45594000000E+02  0.51100000000E-03 0.  1.
    9900012    2    1    2    0    0  0.27310046711E+02 -0.35785401503E+02 -0.16370429242E+01  0.46142317392E+02  0.99999966300E+01 0.  0.
         12    1    1    2    0    0 -0.27310046711E+02  0.35785401503E+02  0.16370429242E+01  0.45045682608E+02  0.00000000000E+00 0. -1.
         11    1    3    3    0    0  0.10711567915E+02 -0.10424738476E+02 -0.22792416624E+01  0.15119781821E+02  0.51100000000E-03 0. -1.
        -11    1    3    3    0    0  0.39992811974E+00 -0.48970185499E+01  0.27541730191E+00  0.49210352702E+01  0.51100000000E-03 0.  1.
        -12    1    3    3    0    0  0.16198550676E+02 -0.20463644478E+02  0.36678143629E+00  0.26101500301E+02  0.00000000000E+00 0.  1.
</event>
<event>
 7    1  0.1381440E-008  0.4614232E+02  0.7816164E-02  0.1320468E+00
        -11   -1    0    0    0    0  0.00000000000E+00  0.00000000000E+00  0.45593999997E+02  0.45594000000E+02  0.51100000000E-03 0. -1.
         11   -1    0    0    0    0 -0.00000000000E+00 -0.00000000000E+00 -0.45593999997E+02  0.45594000000E+02  0.51100000000E-03 0.  1.
    9900012    2    1    2    0    0  0.29188492323E+01 -0.94267743945E+01 -0.43951446890E+02  0.46142318298E+02  0.10000004892E+02 0.  0.
         12    1    1    2    0    0 -0.29188492323E+01  0.94267743945E+01  0.43951446890E+02  0.45045681702E+02  0.00000000000E+00 0. -1.
         11    1    3    3    0    0  0.31334056778E+01 -0.34459222342E+01 -0.98647373963E+01  0.10908971324E+02  0.51100000000E-03 0. -1.
        -11    1    3    3    0    0  0.11656505992E+01  0.62840483206E-01 -0.17286265011E+02  0.17325635588E+02  0.51100000000E-03 0.  1.
        -12    1    3    3    0    0 -0.13802070447E+01 -0.60436926434E+01 -0.16800444482E+02  0.17907711385E+02  0.00000000000E+00 0.  1.
</event>
<event>
 7    1  0.1381440E-008  0.4614231E+02  0.7816164E-02  0.1320468E+00
        -11   -1    0    0    0    0  0.00000000000E+00  0.00000000000E+00  0.45593999997E+02  0.45594000000E+02  0.51100000000E-03 0.  1.
         11   -1    0    0    0    0 -0.00000000000E+00 -0.00000000000E+00 -0.45593999997E+02  0.45594000000E+02  0.51100000000E-03 0. -1.
    9900012    2    1    2    0    0 -0.11276809883E+02  0.39204460681E+02  0.19103862607E+02  0.46142314914E+02  0.99999740338E+01 0.  0.
         12    1    1    2    0    0  0.11276809883E+02 -0.39204460681E+02 -0.19103862607E+02  0.45045685086E+02  0.00000000000E+00 0. -1.
         11    1    3    3    0    0 -0.48497931248E+00  0.15229382522E+02  0.78479422123E+01  0.17139413472E+02  0.51100000000E-03 0. -1.
        -11    1    3    3    0    0 -0.25839483821E+01  0.10853162073E+02  0.35123591653E+01  0.11696349148E+02  0.51100000000E-03 0.  1.
         12    1    3    3    0    0 -0.82078821882E+01  0.13121916085E+02  0.77435612294E+01  0.17306552293E+02  0.00000000000E+00 0. -1.
</event>
<event>
 7    1  0.1381440E-008  0.4614232E+02  0.7816164E-02  0.1320468E+00
        -11   -1    0    0    0    0  0.00000000000E+00  0.00000000000E+00  0.45593999997E+02  0.45594000000E+02  0.51100000000E-03 0.  1.
         11   -1    0    0    0    0 -0.00000000000E+00 -0.00000000000E+00 -0.45593999997E+02  0.45594000000E+02  0.51100000000E-03 0. -1.
    9900012    2    1    2    0    0  0.18344366548E+02  0.18182915836E+02  0.36905004023E+02  0.46142317251E+02  0.99999953491E+01 0.  0.
         12    1    1    2    0    0 -0.18344366548E+02 -0.18182915836E+02 -0.36905004023E+02  0.45045682749E+02  0.00000000000E+00 0. -1.
         11    1    3    3    0    0 -0.98529954177E-01  0.25973822668E+01  0.27980847865E+01  0.38190812410E+01  0.51100000000E-03 0. -1.
        -11    1    3    3    0    0  0.46592157265E+01  0.12306984942E+01  0.41569583555E+01  0.63642134628E+01  0.51100000000E-03 0.  1.
         12    1    3    3    0    0  0.13783680776E+02  0.14354835075E+02  0.29949960881E+02  0.35959022547E+02  0.00000000000E+00 0. -1.
</event>
<event>
 7    1  0.1381440E-008  0.4614232E+02  0.7816164E-02  0.1320468E+00
        -11   -1    0    0    0    0  0.00000000000E+00  0.00000000000E+00  0.45593999997E+02  0.45594000000E+02  0.51100000000E-03 0.  1.
         11   -1    0    0    0    0 -0.00000000000E+00 -0.00000000000E+00 -0.45593999997E+02  0.45594000000E+02  0.51100000000E-03 0. -1.
    9900012    2    1    2    0    0  0.11772641317E+02 -0.24430769758E+02  0.35967428509E+02  0.46142317542E+02  0.99999980030E+01 0.  0.
         12    1    1    2    0    0 -0.11772641317E+02  0.24430769758E+02 -0.35967428509E+02  0.45045682458E+02  0.00000000000E+00 0. -1.
         11    1    3    3    0    0  0.25947226992E+01 -0.63564846073E+01  0.13134007031E+02  0.14820243702E+02  0.51100000000E-03 0. -1.
        -11    1    3    3    0    0  0.23672230448E+01 -0.57382257920E+01  0.12132361964E+02  0.13628102849E+02  0.51100000000E-03 0.  1.
         12    1    3    3    0    0  0.68106955733E+01 -0.12336059359E+02  0.10701059515E+02  0.17693970991E+02  0.00000000000E+00 0. -1.
</event>
<event>
 7    1  0.1381440E-008  0.4614231E+02  0.7816164E-02  0.1320468E+00
        -11   -1    0    0    0    0  0.00000000000E+00  0.00000000000E+00  0.45593999997E+02  0.45594000000E+02  0.51100000000E-03 0.  1.
         11   -1    0    0    0    0 -0.00000000000E+00 -0.00000000000E+00 -0.45593999997E+02  0.45594000000E+02  0.51100000000E-03 0. -1.
    9900012    2    1    2    0    0  0.38023163839E+01  0.23972916050E+02  0.37946756434E+02  0.46142305003E+02  0.99998836639E+01 0.  0.
         12    1    1    2    0    0 -0.38023163839E+01 -0.23972916050E+02 -0.37946756434E+02  0.45045694997E+02  0.00000000000E+00 0. -1.
         11    1    3    3    0    0  0.36437953130E+01  0.12682231071E+02  0.15951524857E+02  0.20701868871E+02  0.51100000000E-03 0. -1.
        -11    1    3    3    0    0 -0.28169968121E+01  0.43062033270E+01  0.99608712677E+01  0.11211503682E+02  0.51100000000E-03 0.  1.
        -12    1    3    3    0    0  0.29755178830E+01  0.69844816521E+01  0.12034360310E+02  0.14228932451E+02  0.00000000000E+00 0.  1.
</event>
<event>
 7    1  0.1381440E-008  0.4614232E+02  0.7816164E-02  0.1320468E+00
        -11   -1    0    0    0    0  0.00000000000E+00  0.00000000000E+00  0.45593999997E+02  0.45594000000E+02  0.51100000000E-03 0.  1.
         11   -1    0    0    0    0 -0.00000000000E+00 -0.00000000000E+00 -0.45593999997E+02  0.45594000000E+02  0.51100000000E-03 0. -1.
    9900012    2    1    2    0    0 -0.66089355926E+01 -0.93589946758E+01  0.43564261023E+02  0.46142315973E+02  0.99999836925E+01 0.  0.
         12    1    1    2    0    0  0.66089355926E+01  0.93589946758E+01 -0.43564261023E+02  0.45045684027E+02  0.00000000000E+00 0. -1.
         11    1    3    3    0    0 -0.17091790773E+01 -0.24843167792E+00  0.27161753177E+01  0.32187917041E+01  0.51100000000E-03 0. -1.
        -11    1    3    3    0    0 -0.62848265573E+00 -0.87804995313E+01  0.24908548821E+02  0.26418326349E+02  0.51100000000E-03 0.  1.
        -12    1    3    3    0    0 -0.42712738596E+01 -0.33006346659E+00  0.15939536884E+02  0.16505197920E+02  0.00000000000E+00 0.  1.
</event>
<event>
 7    1  0.1381440E-008  0.4614232E+02  0.7816164E-02  0.1320468E+00
        -11   -1    0    0    0    0  0.00000000000E+00  0.00000000000E+00  0.45593999997E+02  0.45594000000E+02  0.51100000000E-03 0. -1.
         11   -1    0    0    0    0 -0.00000000000E+00 -0.00000000000E+00 -0.45593999997E+02  0.45594000000E+02  0.51100000000E-03 0.  1.
    9900012    2    1    2    0    0 -0.30136028903E+02 -0.12535357484E+02 -0.31045097166E+02  0.46142317817E+02  0.10000000511E+02 0.  0.
         12    1    1    2    0    0  0.30136028903E+02  0.12535357484E+02  0.31045097166E+02  0.45045682183E+02  0.00000000000E+00 0. -1.
         11    1    3    3    0    0 -0.18010012264E+02 -0.73281350924E+01 -0.15938515418E+02  0.25141566771E+02  0.51100000000E-03 0. -1.
        -11    1    3    3    0    0 -0.60171188166E+01 -0.55788155820E+01 -0.66496220306E+01  0.10561551759E+02  0.51100000000E-03 0.  1.
         12    1    3    3    0    0 -0.61088978215E+01  0.37159319024E+00 -0.84569597176E+01  0.10439199287E+02  0.00000000000E+00 0. -1.
</event>
<event>
 7    1  0.1381440E-008  0.4614232E+02  0.7816164E-02  0.1320468E+00
        -11   -1    0    0    0    0  0.00000000000E+00  0.00000000000E+00  0.45593999997E+02  0.45594000000E+02  0.51100000000E-03 0.  1.
         11   -1    0    0    0    0 -0.00000000000E+00 -0.00000000000E+00 -0.45593999997E+02  0.45594000000E+02  0.51100000000E-03 0. -1.
    9900012    2    1    2    0    0 -0.20821182992E+02  0.22487042327E+02  0.33014007476E+02  0.46142318482E+02  0.10000006572E+02 0.  0.
         12    1    1    2    0    0  0.20821182992E+02 -0.22487042327E+02 -0.33014007476E+02  0.45045681518E+02  0.00000000000E+00 0. -1.
         11    1    3    3    0    0 -0.35604229400E+01  0.25176554104E+01  0.38628946762E+01  0.58255605582E+01  0.51100000000E-03 0.  1.
        -11    1    3    3    0    0  0.10455347176E+01  0.16363352025E+01  0.19562965986E+01  0.27564165838E+01  0.51100000000E-03 0. -1.
        -12    1    3    3    0    0 -0.18306294769E+02  0.18333051714E+02  0.27194816201E+02  0.37560341340E+02  0.00000000000E+00 0.  1.
</event>
<event>
 7    1  0.1381440E-008  0.4614231E+02  0.7816164E-02  0.1320468E+00
        -11   -1    0    0    0    0  0.00000000000E+00  0.00000000000E+00  0.45593999997E+02  0.45594000000E+02  0.51100000000E-03 0.  1.
         11   -1    0    0    0    0 -0.00000000000E+00 -0.00000000000E+00 -0.45593999997E+02  0.45594000000E+02  0.51100000000E-03 0. -1.
    9900012    2    1    2    0    0 -0.13346632101E+02 -0.42962986970E+02  0.22723948877E+01  0.46142305240E+02  0.99998858263E+01 0.  0.
         12    1    1    2    0    0  0.13346632101E+02  0.42962986970E+02 -0.22723948877E+01  0.45045694760E+02  0.00000000000E+00 0. -1.
         11    1    3    3    0    0 -0.68384542031E+01 -0.20486777225E+02 -0.23188452422E+01  0.21722097976E+02  0.51100000000E-03 0. -1.
        -11    1    3    3    0    0 -0.23367502707E+01 -0.53841575983E+01  0.34072957695E+01  0.67866943053E+01  0.51100000000E-03 0.  1.
         12    1    3    3    0    0 -0.41714276275E+01 -0.17092052146E+02  0.11839443604E+01  0.17633512959E+02  0.00000000000E+00 0. -1.
</event>
<event>
 7    1  0.1381440E-008  0.4614232E+02  0.7816164E-02  0.1320468E+00
        -11   -1    0    0    0    0  0.00000000000E+00  0.00000000000E+00  0.45593999997E+02  0.45594000000E+02  0.51100000000E-03 0.  1.
         11   -1    0    0    0    0 -0.00000000000E+00 -0.00000000000E+00 -0.45593999997E+02  0.45594000000E+02  0.51100000000E-03 0. -1.
    9900012    2    1    2    0    0 -0.43769819481E+02  0.85502431156E+01  0.63411218695E+01  0.46142316730E+02  0.99999905949E+01 0.  0.
         12    1    1    2    0    0  0.43769819481E+02 -0.85502431156E+01 -0.63411218695E+01  0.45045683270E+02  0.00000000000E+00 0. -1.
         11    1    3    3    0    0 -0.41103464012E+02  0.85702161007E+01  0.36652804245E+01  0.42147095258E+02  0.51100000000E-03 0. -1.
        -11    1    3    3    0    0 -0.19994069105E+01  0.86504695580E-01  0.11066925871E+01  0.22868930450E+01  0.51100000000E-03 0.  1.
         12    1    3    3    0    0 -0.66694855804E+00 -0.10647768063E+00  0.15691488579E+01  0.17083284268E+01  0.00000000000E+00 0. -1.
</event>
<event>
 7    1  0.1381440E-008  0.4614232E+02  0.7816164E-02  0.1320468E+00
        -11   -1    0    0    0    0  0.00000000000E+00  0.00000000000E+00  0.45593999997E+02  0.45594000000E+02  0.51100000000E-03 0. -1.
         11   -1    0    0    0    0 -0.00000000000E+00 -0.00000000000E+00 -0.45593999997E+02  0.45594000000E+02  0.51100000000E-03 0.  1.
    9900012    2    1    2    0    0 -0.41202585592E+00 -0.33927888773E+02 -0.29628398611E+02  0.46142318673E+02  0.10000008319E+02 0.  0.
         12    1    1    2    0    0  0.41202585592E+00  0.33927888773E+02  0.29628398611E+02  0.45045681327E+02  0.00000000000E+00 0. -1.
         11    1    3    3    0    0 -0.56082733145E+00 -0.19435326108E+02 -0.17073850412E+02  0.25875911508E+02  0.51100000000E-03 0. -1.
        -11    1    3    3    0    0 -0.93599998002E+00 -0.14199497129E+02 -0.12772612032E+02  0.19121752876E+02  0.51100000000E-03 0.  1.
         12    1    3    3    0    0  0.10848014555E+01 -0.29306553603E+00  0.21806383264E+00  0.11446542891E+01  0.00000000000E+00 0. -1.
</event>
<event>
 7    1  0.1381440E-008  0.4614232E+02  0.7816164E-02  0.1320468E+00
        -11   -1    0    0    0    0  0.00000000000E+00  0.00000000000E+00  0.45593999997E+02  0.45594000000E+02  0.51100000000E-03 0.  1.
         11   -1    0    0    0    0 -0.00000000000E+00 -0.00000000000E+00 -0.45593999997E+02  0.45594000000E+02  0.51100000000E-03 0. -1.
    9900012    2    1    2    0    0  0.34305263926E+02  0.14437287139E+02  0.25373748381E+02  0.46142317633E+02  0.99999988354E+01 0.  0.
         12    1    1    2    0    0 -0.34305263926E+02 -0.14437287139E+02 -0.25373748381E+02  0.45045682367E+02  0.00000000000E+00 0. -1.
         11    1    3    3    0    0  0.40324639537E+00  0.82025941888E+00  0.30614326109E+01  0.31949652677E+01  0.51100000000E-03 0. -1.
        -11    1    3    3    0    0  0.88308491641E+01  0.48874306838E+01  0.72207961654E+01  0.12410107702E+02  0.51100000000E-03 0.  1.
         12    1    3    3    0    0  0.25071168366E+02  0.87295970366E+01  0.15091519605E+02  0.30537244664E+02  0.00000000000E+00 0. -1.
</event>
<event>
 7    1  0.1381440E-008  0.4614232E+02  0.7816164E-02  0.1320468E+00
        -11   -1    0    0    0    0  0.00000000000E+00  0.00000000000E+00  0.45593999997E+02  0.45594000000E+02  0.51100000000E-03 0.  1.
         11   -1    0    0    0    0 -0.00000000000E+00 -0.00000000000E+00 -0.45593999997E+02  0.45594000000E+02  0.51100000000E-03 0. -1.
    9900012    2    1    2    0    0  0.36076978728E+01  0.12936939973E+02  0.42996901153E+02  0.46142318647E+02  0.10000008078E+02 0.  0.
         12    1    1    2    0    0 -0.36076978728E+01 -0.12936939973E+02 -0.42996901153E+02  0.45045681353E+02  0.00000000000E+00 0. -1.
         11    1    3    3    0    0  0.35149329281E+01  0.66603556074E+01  0.20743805949E+02  0.22068542675E+02  0.51100000000E-03 0.  1.
        -11    1    3    3    0    0  0.18201030987E+01  0.40683049449E+01  0.54591727265E+01  0.70474426237E+01  0.51100000000E-03 0. -1.
         12    1    3    3    0    0 -0.17273381540E+01  0.22082794209E+01  0.16793922477E+02  0.17026333348E+02  0.00000000000E+00 0. -1.
</event>
<event>
 7    1  0.1381440E-008  0.4614232E+02  0.7816164E-02  0.1320468E+00
        -11   -1    0    0    0    0  0.00000000000E+00  0.00000000000E+00  0.45593999997E+02  0.45594000000E+02  0.51100000000E-03 0.  1.
         11   -1    0    0    0    0 -0.00000000000E+00 -0.00000000000E+00 -0.45593999997E+02  0.45594000000E+02  0.51100000000E-03 0. -1.
    9900012    2    1    2    0    0 -0.18860656407E+02 -0.36227773264E+01  0.40746343794E+02  0.46142318650E+02  0.10000008105E+02 0.  0.
         12    1    1    2    0    0  0.18860656407E+02  0.36227773264E+01 -0.40746343794E+02  0.45045681350E+02  0.00000000000E+00 0. -1.
         11    1    3    3    0    0 -0.88927461851E+01 -0.46562404063E+01  0.28130332162E+02  0.29867659722E+02  0.51100000000E-03 0.  1.
        -11    1    3    3    0    0 -0.77427351789E+01  0.17546850308E+01  0.99043763609E+01  0.12693523505E+02  0.51100000000E-03 0. -1.
        -12    1    3    3    0    0 -0.22251750433E+01 -0.72122195081E+00  0.27116352711E+01  0.35811354232E+01  0.00000000000E+00 0.  1.
</event>
<event>
 7    1  0.1381440E-008  0.4614232E+02  0.7816164E-02  0.1320468E+00
        -11   -1    0    0    0    0  0.00000000000E+00  0.00000000000E+00  0.45593999997E+02  0.45594000000E+02  0.51100000000E-03 0.  1.
         11   -1    0    0    0    0 -0.00000000000E+00 -0.00000000000E+00 -0.45593999997E+02  0.45594000000E+02  0.51100000000E-03 0. -1.
    9900012    2    1    2    0    0  0.25551971469E+02  0.83263362100E+01  0.36150829509E+02  0.46142316579E+02  0.99999892250E+01 0.  0.
         12    1    1    2    0    0 -0.25551971469E+02 -0.83263362100E+01 -0.36150829509E+02  0.45045683421E+02  0.00000000000E+00 0. -1.
         11    1    3    3    0    0  0.81376923322E+01  0.20027281241E+01  0.53384343375E+01  0.99363895792E+01  0.51100000000E-03 0. -1.
        -11    1    3    3    0    0  0.14177610098E+01 -0.43890371226E+00  0.13529083551E+01  0.20082440161E+01  0.51100000000E-03 0.  1.
         12    1    3    3    0    0  0.15996518127E+02  0.67625117982E+01  0.29459486816E+02  0.34197682984E+02  0.00000000000E+00 0. -1.
</event>
<event>
 7    1  0.1381440E-008  0.4614232E+02  0.7816164E-02  0.1320468E+00
        -11   -1    0    0    0    0  0.00000000000E+00  0.00000000000E+00  0.45593999997E+02  0.45594000000E+02  0.51100000000E-03 0.  1.
         11   -1    0    0    0    0 -0.00000000000E+00 -0.00000000000E+00 -0.45593999997E+02  0.45594000000E+02  0.51100000000E-03 0. -1.
    9900012    2    1    2    0    0  0.26481908418E+02  0.29776004141E+02  0.21005037515E+02  0.46142317664E+02  0.99999991189E+01 0.  0.
         12    1    1    2    0    0 -0.26481908418E+02 -0.29776004141E+02 -0.21005037515E+02  0.45045682336E+02  0.00000000000E+00 0. -1.
         11    1    3    3    0    0  0.85650774670E+01  0.79721760733E+01  0.33834810644E+01  0.12180479783E+02  0.51100000000E-03 0. -1.
        -11    1    3    3    0    0  0.26079880361E+01  0.69768003586E+01  0.26046020543E+01  0.78905828024E+01  0.51100000000E-03 0.  1.
        -12    1    3    3    0    0  0.15308842915E+02  0.14827027709E+02  0.15016954396E+02  0.26071255079E+02  0.00000000000E+00 0.  1.
</event>
<event>
 7    1  0.1381440E-008  0.4614232E+02  0.7816164E-02  0.1320468E+00
        -11   -1    0    0    0    0  0.00000000000E+00  0.00000000000E+00  0.45593999997E+02  0.45594000000E+02  0.51100000000E-03 0.  1.
         11   -1    0    0    0    0 -0.00000000000E+00 -0.00000000000E+00 -0.45593999997E+02  0.45594000000E+02  0.51100000000E-03 0. -1.
    9900012    2    1    2    0    0 -0.19431627272E+02 -0.57501366360E+01  0.40230103587E+02  0.46142318250E+02  0.10000004454E+02 0.  0.
         12    1    1    2    0    0  0.19431627272E+02  0.57501366360E+01 -0.40230103587E+02  0.45045681750E+02  0.00000000000E+00 0. -1.
         11    1    3    3    0    0 -0.19369951012E+02 -0.37266536118E+01  0.38936508521E+02  0.43647848119E+02  0.51100000000E-03 0. -1.
        -11    1    3    3    0    0 -0.35102289795E+00 -0.14297884311E+01  0.87979336147E+00  0.17150943568E+01  0.51100000000E-03 0.  1.
         12    1    3    3    0    0  0.28934663762E+00 -0.59369459310E+00  0.41380170398E+00  0.77937577381E+00  0.00000000000E+00 0. -1.
</event>
<event>
 7    1  0.1381440E-008  0.4614232E+02  0.7816164E-02  0.1320468E+00
        -11   -1    0    0    0    0  0.00000000000E+00  0.00000000000E+00  0.45593999997E+02  0.45594000000E+02  0.51100000000E-03 0.  1.
         11   -1    0    0    0    0 -0.00000000000E+00 -0.00000000000E+00 -0.45593999997E+02  0.45594000000E+02  0.51100000000E-03 0. -1.
    9900012    2    1    2    0    0 -0.58351274939E+01 -0.20781004769E+02  0.39537509116E+02  0.46142317641E+02  0.99999989070E+01 0.  0.
         12    1    1    2    0    0  0.58351274939E+01  0.20781004769E+02 -0.39537509116E+02  0.45045682359E+02  0.00000000000E+00 0. -1.
         11    1    3    3    0    0 -0.99675424473E+00 -0.96965866386E+01  0.22709209842E+02  0.24712861497E+02  0.51100000000E-03 0.  1.
        -11    1    3    3    0    0 -0.34677771629E+01 -0.19246345653E+01  0.43053810760E+01  0.58537170356E+01  0.51100000000E-03 0. -1.
        -12    1    3    3    0    0 -0.13705960863E+01 -0.91597835649E+01  0.12522918198E+02  0.15575739109E+02  0.00000000000E+00 0.  1.
</event>
<event>
 7    1  0.1381440E-008  0.4614232E+02  0.7816164E-02  0.1320468E+00
        -11   -1    0    0    0    0  0.00000000000E+00  0.00000000000E+00  0.45593999997E+02  0.45594000000E+02  0.51100000000E-03 0. -1.
         11   -1    0    0    0    0 -0.00000000000E+00 -0.00000000000E+00 -0.45593999997E+02  0.45594000000E+02  0.51100000000E-03 0.  1.
    9900012    2    1    2    0    0 -0.24511817641E+01  0.35862794571E+02 -0.27147102581E+02  0.46142317576E+02  0.99999983113E+01 0.  0.
         12    1    1    2    0    0  0.24511817641E+01 -0.35862794571E+02  0.27147102581E+02  0.45045682424E+02  0.00000000000E+00 0. -1.
         11    1    3    3    0    0 -0.96648525287E+00  0.81999608223E+01 -0.93491230855E+01  0.12473153329E+02  0.51100000000E-03 0. -1.
        -11    1    3    3    0    0 -0.36793790924E+01  0.12406419714E+02 -0.10242430255E+02  0.16503468072E+02  0.51100000000E-03 0.  1.
         12    1    3    3    0    0  0.21946825811E+01  0.15256414035E+02 -0.75555492403E+01  0.17165696175E+02  0.00000000000E+00 0. -1.
</event>
<event>
 7    1  0.1381440E-008  0.4614231E+02  0.7816164E-02  0.1320468E+00
        -11   -1    0    0    0    0  0.00000000000E+00  0.00000000000E+00  0.45593999997E+02  0.45594000000E+02  0.51100000000E-03 0.  1.
         11   -1    0    0    0    0 -0.00000000000E+00 -0.00000000000E+00 -0.45593999997E+02  0.45594000000E+02  0.51100000000E-03 0. -1.
    9900012    2    1    2    0    0  0.34466755440E+00  0.29048180145E+02  0.34426709537E+02  0.46142313248E+02  0.99999588413E+01 0.  0.
         12    1    1    2    0    0 -0.34466755440E+00 -0.29048180145E+02 -0.34426709537E+02  0.45045686752E+02  0.00000000000E+00 0. -1.
         11    1    3    3    0    0 -0.34273600696E+01  0.16906188818E+02  0.22251552342E+02  0.28154885886E+02  0.51100000000E-03 0. -1.
        -11    1    3    3    0    0  0.15800712365E+01  0.74593206187E+01  0.94512280424E+01  0.12143467420E+02  0.51100000000E-03 0.  1.
         12    1    3    3    0    0  0.21919563874E+01  0.46826707083E+01  0.27239291529E+01  0.58439599414E+01  0.00000000000E+00 0. -1.
</event>
<event>
 7    1  0.1381440E-008  0.4614233E+02  0.7816164E-02  0.1320468E+00
        -11   -1    0    0    0    0  0.00000000000E+00  0.00000000000E+00  0.45593999997E+02  0.45594000000E+02  0.51100000000E-03 0.  1.
         11   -1    0    0    0    0 -0.00000000000E+00 -0.00000000000E+00 -0.45593999997E+02  0.45594000000E+02  0.51100000000E-03 0. -1.
    9900012    2    1    2    0    0  0.19230456727E+02  0.20820303892E+02  0.35011669893E+02  0.46142328190E+02  0.10000095103E+02 0.  0.
         12    1    1    2    0    0 -0.19230456727E+02 -0.20820303892E+02 -0.35011669893E+02  0.45045671810E+02  0.00000000000E+00 0. -1.
         11    1    3    3    0    0 -0.88842102376E-01  0.13435154867E+00  0.24860463973E+01  0.24912587598E+01  0.51100000000E-03 0. -1.
        -11    1    3    3    0    0  0.56231420906E+01  0.72915776197E+01  0.62314490302E+01  0.11118353675E+02  0.51100000000E-03 0.  1.
        -12    1    3    3    0    0  0.13696156739E+02  0.13394374723E+02  0.26294174465E+02  0.32532715756E+02  0.00000000000E+00 0.  1.
</event>
<event>
 7    1  0.1381440E-008  0.4614232E+02  0.7816164E-02  0.1320468E+00
        -11   -1    0    0    0    0  0.00000000000E+00  0.00000000000E+00  0.45593999997E+02  0.45594000000E+02  0.51100000000E-03 0.  1.
         11   -1    0    0    0    0 -0.00000000000E+00 -0.00000000000E+00 -0.45593999997E+02  0.45594000000E+02  0.51100000000E-03 0. -1.
    9900012    2    1    2    0    0 -0.13288163878E+02  0.45733096875E+01  0.42797466446E+02  0.46142316578E+02  0.99999892129E+01 0.  0.
         12    1    1    2    0    0  0.13288163878E+02 -0.45733096875E+01 -0.42797466446E+02  0.45045683422E+02  0.00000000000E+00 0. -1.
         11    1    3    3    0    0 -0.99715780315E+00  0.71831146729E+00  0.73287523407E-01  0.12311240273E+01  0.51100000000E-03 0. -1.
        -11    1    3    3    0    0 -0.18941579762E+01 -0.12066398694E+01  0.81970849581E+01  0.84991773887E+01  0.51100000000E-03 0.  1.
         12    1    3    3    0    0 -0.10396848099E+02  0.50616380897E+01  0.34527093964E+02  0.36412015162E+02  0.00000000000E+00 0. -1.
</event>
<event>
 7    1  0.1381440E-008  0.4614232E+02  0.7816164E-02  0.1320468E+00
        -11   -1    0    0    0    0  0.00000000000E+00  0.00000000000E+00  0.45593999997E+02  0.45594000000E+02  0.51100000000E-03 0.  1.
         11   -1    0    0    0    0 -0.00000000000E+00 -0.00000000000E+00 -0.45593999997E+02  0.45594000000E+02  0.51100000000E-03 0. -1.
    9900012    2    1    2    0    0  0.25253643576E+02  0.37110713090E+02 -0.37632209516E+01  0.46142319055E+02  0.10000011799E+02 0.  0.
         12    1    1    2    0    0 -0.25253643576E+02 -0.37110713090E+02  0.37632209516E+01  0.45045680945E+02  0.00000000000E+00 0. -1.
         11    1    3    3    0    0  0.10724984031E+02  0.21729879407E+02 -0.52821541391E+01  0.24801493788E+02  0.51100000000E-03 0. -1.
        -11    1    3    3    0    0  0.93468330513E+01  0.93944255917E+01  0.20302498861E+01  0.13406730964E+02  0.51100000000E-03 0.  1.
         12    1    3    3    0    0  0.51818264937E+01  0.59864080905E+01 -0.51131669860E+00  0.79340943026E+01  0.00000000000E+00 0. -1.
</event>
<event>
 7    1  0.1381440E-008  0.4614232E+02  0.7816164E-02  0.1320468E+00
        -11   -1    0    0    0    0  0.00000000000E+00  0.00000000000E+00  0.45593999997E+02  0.45594000000E+02  0.51100000000E-03 0. -1.
         11   -1    0    0    0    0 -0.00000000000E+00 -0.00000000000E+00 -0.45593999997E+02  0.45594000000E+02  0.51100000000E-03 0.  1.
    9900012    2    1    2    0    0 -0.45509577822E+01  0.36733253885E+02 -0.25672365847E+02  0.46142317344E+02  0.99999961973E+01 0.  0.
         12    1    1    2    0    0  0.45509577822E+01 -0.36733253885E+02  0.25672365847E+02  0.45045682656E+02  0.00000000000E+00 0. -1.
         11    1    3    3    0    0 -0.35032317279E+00  0.13646741125E+02 -0.12028785699E+02  0.18194723282E+02  0.51100000000E-03 0. -1.
        -11    1    3    3    0    0 -0.22163681967E+01  0.11944312792E+02 -0.10855461923E+02  0.16291714148E+02  0.51100000000E-03 0.  1.
        -12    1    3    3    0    0 -0.19842664127E+01  0.11142199969E+02 -0.27881182254E+01  0.11655879914E+02  0.00000000000E+00 0.  1.
</event>
<event>
 7    1  0.1381440E-008  0.4614232E+02  0.7816164E-02  0.1320468E+00
        -11   -1    0    0    0    0  0.00000000000E+00  0.00000000000E+00  0.45593999997E+02  0.45594000000E+02  0.51100000000E-03 0.  1.
         11   -1    0    0    0    0 -0.00000000000E+00 -0.00000000000E+00 -0.45593999997E+02  0.45594000000E+02  0.51100000000E-03 0. -1.
    9900012    2    1    2    0    0  0.20817859198E+02 -0.74320663962E+01  0.39249138084E+02  0.46142315270E+02  0.99999772799E+01 0.  0.
         12    1    1    2    0    0 -0.20817859198E+02  0.74320663962E+01 -0.39249138084E+02  0.45045684730E+02  0.00000000000E+00 0. -1.
         11    1    3    3    0    0  0.13922901818E+02 -0.54106749845E+01  0.19052695353E+02  0.24210076400E+02  0.51100000000E-03 0. -1.
        -11    1    3    3    0    0  0.45419320801E+01  0.90093462334E+00  0.89566025938E+01  0.10082735765E+02  0.51100000000E-03 0.  1.
        -12    1    3    3    0    0  0.23530252992E+01 -0.29223260351E+01  0.11239840137E+02  0.11849503105E+02  0.00000000000E+00 0.  1.
</event>
<event>
 7    1  0.1381440E-008  0.4614232E+02  0.7816164E-02  0.1320468E+00
        -11   -1    0    0    0    0  0.00000000000E+00  0.00000000000E+00  0.45593999997E+02  0.45594000000E+02  0.51100000000E-03 0. -1.
         11   -1    0    0    0    0 -0.00000000000E+00 -0.00000000000E+00 -0.45593999997E+02  0.45594000000E+02  0.51100000000E-03 0.  1.
    9900012    2    1    2    0    0 -0.34936609276E+02  0.27779383869E+02 -0.60706390055E+01  0.46142317701E+02  0.99999994492E+01 0.  0.
         12    1    1    2    0    0  0.34936609276E+02 -0.27779383869E+02  0.60706390055E+01  0.45045682299E+02  0.00000000000E+00 0. -1.
         11    1    3    3    0    0 -0.17043925978E+02  0.83435298336E+01 -0.42210741827E+01  0.19440354173E+02  0.51100000000E-03 0. -1.
        -11    1    3    3    0    0 -0.10182294916E+02  0.10737704877E+02 -0.27201352812E+01  0.15045815763E+02  0.51100000000E-03 0.  1.
         12    1    3    3    0    0 -0.77103883823E+01  0.86981491591E+01  0.87057045845E+00  0.11656147765E+02  0.00000000000E+00 0. -1.
</event>
<event>
 7    1  0.1381440E-008  0.4614232E+02  0.7816164E-02  0.1320468E+00
        -11   -1    0    0    0    0  0.00000000000E+00  0.00000000000E+00  0.45593999997E+02  0.45594000000E+02  0.51100000000E-03 0. -1.
         11   -1    0    0    0    0 -0.00000000000E+00 -0.00000000000E+00 -0.45593999997E+02  0.45594000000E+02  0.51100000000E-03 0.  1.
    9900012    2    1    2    0    0 -0.72488041973E+01  0.38528328363E+02 -0.22184145327E+02  0.46142317048E+02  0.99999934939E+01 0.  0.
         12    1    1    2    0    0  0.72488041973E+01 -0.38528328363E+02  0.22184145327E+02  0.45045682952E+02  0.00000000000E+00 0. -1.
         11    1    3    3    0    0  0.18638769628E+01  0.62112479595E+01 -0.39122083553E+01  0.75735733325E+01  0.51100000000E-03 0. -1.
        -11    1    3    3    0    0 -0.85220831517E+01  0.32248867052E+02 -0.18097749706E+02  0.37949227555E+02  0.51100000000E-03 0.  1.
        -12    1    3    3    0    0 -0.59059800844E+00  0.68213352456E-01 -0.17418726524E+00  0.61951615992E+00  0.00000000000E+00 0.  1.
</event>
<event>
 7    1  0.1381440E-008  0.4614232E+02  0.7816164E-02  0.1320468E+00
        -11   -1    0    0    0    0  0.00000000000E+00  0.00000000000E+00  0.45593999997E+02  0.45594000000E+02  0.51100000000E-03 0. -1.
         11   -1    0    0    0    0 -0.00000000000E+00 -0.00000000000E+00 -0.45593999997E+02  0.45594000000E+02  0.51100000000E-03 0.  1.
    9900012    2    1    2    0    0 -0.12834288754E+02 -0.38279102946E+02 -0.19977608680E+02  0.46142317202E+02  0.99999948982E+01 0.  0.
         12    1    1    2    0    0  0.12834288754E+02  0.38279102946E+02  0.19977608680E+02  0.45045682798E+02  0.00000000000E+00 0. -1.
         11    1    3    3    0    0  0.77904810415E-01 -0.40889682567E+01 -0.36207991608E+01  0.54622264131E+01  0.51100000000E-03 0. -1.
        -11    1    3    3    0    0 -0.96382542082E+01 -0.17774402882E+02 -0.64216954241E+01  0.21214700431E+02  0.51100000000E-03 0.  1.
        -12    1    3    3    0    0 -0.32739393563E+01 -0.16415731808E+02 -0.99351140955E+01  0.19465390358E+02  0.00000000000E+00 0.  1.
</event>
<event>
 7    1  0.1381440E-008  0.4614232E+02  0.7816164E-02  0.1320468E+00
        -11   -1    0    0    0    0  0.00000000000E+00  0.00000000000E+00  0.45593999997E+02  0.45594000000E+02  0.51100000000E-03 0.  1.
         11   -1    0    0    0    0 -0.00000000000E+00 -0.00000000000E+00 -0.45593999997E+02  0.45594000000E+02  0.51100000000E-03 0. -1.
    9900012    2    1    2    0    0 -0.41049599443E+02  0.16842750918E+02 -0.77695212337E+01  0.46142319484E+02  0.10000015713E+02 0.  0.
         12    1    1    2    0    0  0.41049599443E+02 -0.16842750918E+02  0.77695212337E+01  0.45045680516E+02  0.00000000000E+00 0. -1.
         11    1    3    3    0    0 -0.48032007906E+01  0.38653466579E+01 -0.27573961823E+01  0.67538786329E+01  0.51100000000E-03 0. -1.
        -11    1    3    3    0    0 -0.74402788354E+01  0.40598205549E+01  0.13141624667E+01  0.85771157936E+01  0.51100000000E-03 0.  1.
         12    1    3    3    0    0 -0.28806119817E+02  0.89175837054E+01 -0.63262875182E+01  0.30811325058E+02  0.00000000000E+00 0. -1.
</event>
<event>
 7    1  0.1381440E-008  0.4614232E+02  0.7816164E-02  0.1320468E+00
        -11   -1    0    0    0    0  0.00000000000E+00  0.00000000000E+00  0.45593999997E+02  0.45594000000E+02  0.51100000000E-03 0.  1.
         11   -1    0    0    0    0 -0.00000000000E+00 -0.00000000000E+00 -0.45593999997E+02  0.45594000000E+02  0.51100000000E-03 0. -1.
    9900012    2    1    2    0    0  0.21421445396E+02 -0.60354776830E+01  0.39163863075E+02  0.46142317802E+02  0.10000000374E+02 0.  0.
         12    1    1    2    0    0 -0.21421445396E+02  0.60354776830E+01 -0.39163863075E+02  0.45045682198E+02  0.00000000000E+00 0. -1.
         11    1    3    3    0    0  0.25840037991E+01  0.31087939937E+00  0.19595073791E+01  0.32578199865E+01  0.51100000000E-03 0. -1.
        -11    1    3    3    0    0  0.11249182995E+02 -0.15412765635E+01  0.14149495229E+02  0.18141881573E+02  0.51100000000E-03 0.  1.
        -12    1    3    3    0    0  0.75882586022E+01 -0.48050805188E+01  0.23054860467E+02  0.24742616243E+02  0.00000000000E+00 0.  1.
</event>
<event>
 7    1  0.1381440E-008  0.4614232E+02  0.7816164E-02  0.1320468E+00
        -11   -1    0    0    0    0  0.00000000000E+00  0.00000000000E+00  0.45593999997E+02  0.45594000000E+02  0.51100000000E-03 0. -1.
         11   -1    0    0    0    0 -0.00000000000E+00 -0.00000000000E+00 -0.45593999997E+02  0.45594000000E+02  0.51100000000E-03 0.  1.
    9900012    2    1    2    0    0  0.14821766305E+02 -0.32300737089E+02 -0.27678350861E+02  0.46142317863E+02  0.10000000925E+02 0.  0.
         12    1    1    2    0    0 -0.14821766305E+02  0.32300737089E+02  0.27678350861E+02  0.45045682137E+02  0.00000000000E+00 0. -1.
         11    1    3    3    0    0  0.57261237288E+01 -0.20940356757E+02 -0.16573403995E+02  0.27312355342E+02  0.51100000000E-03 0. -1.
        -11    1    3    3    0    0  0.67713295458E+01 -0.54192436530E+01 -0.77038929020E+01  0.11600391015E+02  0.51100000000E-03 0.  1.
        -12    1    3    3    0    0  0.23243130302E+01 -0.59411366785E+01 -0.34010539635E+01  0.72295715057E+01  0.00000000000E+00 0.  1.
</event>
<event>
 7    1  0.1381440E-008  0.4614232E+02  0.7816164E-02  0.1320468E+00
        -11   -1    0    0    0    0  0.00000000000E+00  0.00000000000E+00  0.45593999997E+02  0.45594000000E+02  0.51100000000E-03 0.  1.
         11   -1    0    0    0    0 -0.00000000000E+00 -0.00000000000E+00 -0.45593999997E+02  0.45594000000E+02  0.51100000000E-03 0. -1.
    9900012    2    1    2    0    0 -0.29189078282E+02  0.12593033617E+02  0.31914365119E+02  0.46142317770E+02  0.10000000083E+02 0.  0.
         12    1    1    2    0    0  0.29189078282E+02 -0.12593033617E+02 -0.31914365119E+02  0.45045682230E+02  0.00000000000E+00 0. -1.
         11    1    3    3    0    0 -0.26920438728E+00  0.74462833354E+00 -0.40401196084E+00  0.88891410320E+00  0.51100000000E-03 0. -1.
        -11    1    3    3    0    0 -0.15292198800E+02  0.90102938050E+01  0.17638859873E+02  0.25023311461E+02  0.51100000000E-03 0.  1.
         12    1    3    3    0    0 -0.13627675094E+02  0.28381114784E+01  0.14679517207E+02  0.20230092206E+02  0.00000000000E+00 0. -1.
</event>
<event>
 7    1  0.1381440E-008  0.4614232E+02  0.7816164E-02  0.1320468E+00
        -11   -1    0    0    0    0  0.00000000000E+00  0.00000000000E+00  0.45593999997E+02  0.45594000000E+02  0.51100000000E-03 0.  1.
         11   -1    0    0    0    0 -0.00000000000E+00 -0.00000000000E+00 -0.45593999997E+02  0.45594000000E+02  0.51100000000E-03 0. -1.
    9900012    2    1    2    0    0 -0.17035104944E+02 -0.41604582404E+02 -0.28244331497E+01  0.46142317631E+02  0.99999988168E+01 0.  0.
         12    1    1    2    0    0  0.17035104944E+02  0.41604582404E+02  0.28244331497E+01  0.45045682369E+02  0.00000000000E+00 0. -1.
         11    1    3    3    0    0 -0.15017411934E+01 -0.51618062703E+01  0.16518238729E+01  0.56238770392E+01  0.51100000000E-03 0. -1.
        -11    1    3    3    0    0 -0.32455134220E+00 -0.68554805352E+01  0.49830376077E+00  0.68812247341E+01  0.51100000000E-03 0.  1.
        -12    1    3    3    0    0 -0.15208812409E+02 -0.29587295598E+02 -0.49745607834E+01  0.33637215858E+02  0.00000000000E+00 0.  1.
</event>
<event>
 7    1  0.1381440E-008  0.4614232E+02  0.7816164E-02  0.1320468E+00
        -11   -1    0    0    0    0  0.00000000000E+00  0.00000000000E+00  0.45593999997E+02  0.45594000000E+02  0.51100000000E-03 0.  1.
         11   -1    0    0    0    0 -0.00000000000E+00 -0.00000000000E+00 -0.45593999997E+02  0.45594000000E+02  0.51100000000E-03 0. -1.
    9900012    2    1    2    0    0 -0.13559298926E+02  0.39568215860E+02  0.16721697803E+02  0.46142317953E+02  0.10000001748E+02 0.  0.
         12    1    1    2    0    0  0.13559298926E+02 -0.39568215860E+02 -0.16721697803E+02  0.45045682047E+02  0.00000000000E+00 0. -1.
         11    1    3    3    0    0 -0.10223629011E+01  0.54573821198E+01  0.46866664874E+01  0.72658852543E+01  0.51100000000E-03 0. -1.
        -11    1    3    3    0    0 -0.10368579864E+02  0.29687989367E+02  0.78467033378E+01  0.32410722217E+02  0.51100000000E-03 0.  1.
        -12    1    3    3    0    0 -0.21683561611E+01  0.44228443725E+01  0.41883279780E+01  0.64657104819E+01  0.00000000000E+00 0.  1.
</event>
<event>
 7    1  0.1381440E-008  0.4614232E+02  0.7816164E-02  0.1320468E+00
        -11   -1    0    0    0    0  0.00000000000E+00  0.00000000000E+00  0.45593999997E+02  0.45594000000E+02  0.51100000000E-03 0. -1.
         11   -1    0    0    0    0 -0.00000000000E+00 -0.00000000000E+00 -0.45593999997E+02  0.45594000000E+02  0.51100000000E-03 0.  1.
    9900012    2    1    2    0    0 -0.37134841384E+02  0.24901464477E+02 -0.54803409750E+01  0.46142317466E+02  0.99999973105E+01 0.  0.
         12    1    1    2    0    0  0.37134841384E+02 -0.24901464477E+02  0.54803409750E+01  0.45045682534E+02  0.00000000000E+00 0. -1.
         11    1    3    3    0    0 -0.53058849044E+01  0.14117451420E+01 -0.19155836259E+01  0.58150580266E+01  0.51100000000E-03 0. -1.
        -11    1    3    3    0    0 -0.15595681367E+02  0.72219790275E+01 -0.13840368295E+01  0.17242326310E+02  0.51100000000E-03 0.  1.
        -12    1    3    3    0    0 -0.16233275113E+02  0.16267740308E+02 -0.21807205196E+01  0.23084933129E+02  0.00000000000E+00 0.  1.
</event>
<event>
 7    1  0.1381440E-008  0.4614232E+02  0.7816164E-02  0.1320468E+00
        -11   -1    0    0    0    0  0.00000000000E+00  0.00000000000E+00  0.45593999997E+02  0.45594000000E+02  0.51100000000E-03 0.  1.
         11   -1    0    0    0    0 -0.00000000000E+00 -0.00000000000E+00 -0.45593999997E+02  0.45594000000E+02  0.51100000000E-03 0. -1.
    9900012    2    1    2    0    0  0.12861631912E+02 -0.12289557976E+02  0.41384281358E+02  0.46142317030E+02  0.99999933339E+01 0.  0.
         12    1    1    2    0    0 -0.12861631912E+02  0.12289557976E+02 -0.41384281358E+02  0.45045682970E+02  0.00000000000E+00 0. -1.
         11    1    3    3    0    0  0.66706395807E+01 -0.38264251685E+01  0.12701922170E+02  0.14848494505E+02  0.51100000000E-03 0.  1.
        -11    1    3    3    0    0 -0.73352091188E+00 -0.42446885565E+01  0.81477071000E+01  0.92163205846E+01  0.51100000000E-03 0. -1.
         12    1    3    3    0    0  0.69245132433E+01 -0.42184442513E+01  0.20534652088E+02  0.22077501941E+02  0.00000000000E+00 0. -1.
</event>
<event>
 7    1  0.1381440E-008  0.4614232E+02  0.7816164E-02  0.1320468E+00
        -11   -1    0    0    0    0  0.00000000000E+00  0.00000000000E+00  0.45593999997E+02  0.45594000000E+02  0.51100000000E-03 0.  1.
         11   -1    0    0    0    0 -0.00000000000E+00 -0.00000000000E+00 -0.45593999997E+02  0.45594000000E+02  0.51100000000E-03 0. -1.
    9900012    2    1    2    0    0  0.27604011030E+02  0.31108587457E+02  0.17302814093E+02  0.46142323026E+02  0.10000048007E+02 0.  0.
         12    1    1    2    0    0 -0.27604011030E+02 -0.31108587457E+02 -0.17302814093E+02  0.45045676974E+02  0.00000000000E+00 0. -1.
         11    1    3    3    0    0  0.13661441762E+02  0.12134424706E+02  0.12146474399E+02  0.21941196288E+02  0.51100000000E-03 0. -1.
        -11    1    3    3    0    0  0.84972730013E+01  0.10405240234E+02  0.20911374769E+01  0.13595790856E+02  0.51100000000E-03 0.  1.
        -12    1    3    3    0    0  0.54452962667E+01  0.85689225168E+01  0.30652022173E+01  0.10605335882E+02  0.00000000000E+00 0.  1.
</event>
<event>
 7    1  0.1381440E-008  0.4614232E+02  0.7816164E-02  0.1320468E+00
        -11   -1    0    0    0    0  0.00000000000E+00  0.00000000000E+00  0.45593999997E+02  0.45594000000E+02  0.51100000000E-03 0.  1.
         11   -1    0    0    0    0 -0.00000000000E+00 -0.00000000000E+00 -0.45593999997E+02  0.45594000000E+02  0.51100000000E-03 0. -1.
    9900012    2    1    2    0    0 -0.15067927912E+02 -0.41372211036E+02 -0.95084801055E+01  0.46142317726E+02  0.99999996802E+01 0.  0.
         12    1    1    2    0    0  0.15067927912E+02  0.41372211036E+02  0.95084801055E+01  0.45045682274E+02  0.00000000000E+00 0. -1.
         11    1    3    3    0    0 -0.22689210366E+01 -0.92271862668E+01 -0.50308277963E+01  0.10751660228E+02  0.51100000000E-03 0. -1.
        -11    1    3    3    0    0 -0.10243005886E+02 -0.19170350259E+02 -0.12101920506E+01  0.21768924266E+02  0.51100000000E-03 0.  1.
        -12    1    3    3    0    0 -0.25560009895E+01 -0.12974674511E+02 -0.32674602586E+01  0.13621733232E+02  0.00000000000E+00 0.  1.
</event>
<event>
 7    1  0.1381440E-008  0.4614232E+02  0.7816164E-02  0.1320468E+00
        -11   -1    0    0    0    0  0.00000000000E+00  0.00000000000E+00  0.45593999997E+02  0.45594000000E+02  0.51100000000E-03 0.  1.
         11   -1    0    0    0    0 -0.00000000000E+00 -0.00000000000E+00 -0.45593999997E+02  0.45594000000E+02  0.51100000000E-03 0. -1.
    9900012    2    1    2    0    0 -0.41069024526E+00  0.10819396057E+02  0.43725111980E+02  0.46142318573E+02  0.10000007405E+02 0.  0.
         12    1    1    2    0    0  0.41069024526E+00 -0.10819396057E+02 -0.43725111980E+02  0.45045681427E+02  0.00000000000E+00 0. -1.
         11    1    3    3    0    0 -0.14936553987E+01  0.13832761826E+01  0.20753524176E+01  0.29071545135E+01  0.51100000000E-03 0. -1.
        -11    1    3    3    0    0  0.14477416693E+01  0.10067595693E+02  0.32453378645E+02  0.34009913624E+02  0.51100000000E-03 0.  1.
        -12    1    3    3    0    0 -0.36477651585E+00 -0.63147581854E+00  0.91963809176E+01  0.92252504355E+01  0.00000000000E+00 0.  1.
</event>
<event>
 7    1  0.1381440E-008  0.4614232E+02  0.7816164E-02  0.1320468E+00
        -11   -1    0    0    0    0  0.00000000000E+00  0.00000000000E+00  0.45593999997E+02  0.45594000000E+02  0.51100000000E-03 0.  1.
         11   -1    0    0    0    0 -0.00000000000E+00 -0.00000000000E+00 -0.45593999997E+02  0.45594000000E+02  0.51100000000E-03 0. -1.
    9900012    2    1    2    0    0  0.22577346861E+02 -0.32810245158E+02  0.21044348678E+02  0.46142318854E+02  0.10000009963E+02 0.  0.
         12    1    1    2    0    0 -0.22577346861E+02  0.32810245158E+02 -0.21044348678E+02  0.45045681146E+02  0.00000000000E+00 0. -1.
         11    1    3    3    0    0  0.11523186999E+02 -0.20842594680E+02  0.13301085055E+02  0.27278498043E+02  0.51100000000E-03 0. -1.
        -11    1    3    3    0    0  0.64009094179E+00  0.55847040062E+00  0.56022319726E-01  0.85131919018E+00  0.51100000000E-03 0.  1.
        -12    1    3    3    0    0  0.10414068920E+02 -0.12526120879E+02  0.76872413040E+01  0.18012501620E+02  0.00000000000E+00 0.  1.
</event>
<event>
 7    1  0.1381440E-008  0.4614232E+02  0.7816164E-02  0.1320468E+00
        -11   -1    0    0    0    0  0.00000000000E+00  0.00000000000E+00  0.45593999997E+02  0.45594000000E+02  0.51100000000E-03 0. -1.
         11   -1    0    0    0    0 -0.00000000000E+00 -0.00000000000E+00 -0.45593999997E+02  0.45594000000E+02  0.51100000000E-03 0.  1.
    9900012    2    1    2    0    0 -0.23082231621E+02  0.35243437675E+02  0.15944411561E+02  0.46142316791E+02  0.99999911506E+01 0.  0.
         12    1    1    2    0    0  0.23082231621E+02 -0.35243437675E+02 -0.15944411561E+02  0.45045683209E+02  0.00000000000E+00 0. -1.
         11    1    3    3    0    0 -0.39319454460E+01  0.18309489568E+01  0.31922040284E+01  0.53854188224E+01  0.51100000000E-03 0. -1.
        -11    1    3    3    0    0 -0.16240091421E+02  0.25085807270E+02  0.10150935203E+02  0.31560731638E+02  0.51100000000E-03 0.  1.
         12    1    3    3    0    0 -0.29101947544E+01  0.83266814479E+01  0.26012723302E+01  0.91961663305E+01  0.00000000000E+00 0. -1.
</event>
<event>
 7    1  0.1381440E-008  0.4614232E+02  0.7816164E-02  0.1320468E+00
        -11   -1    0    0    0    0  0.00000000000E+00  0.00000000000E+00  0.45593999997E+02  0.45594000000E+02  0.51100000000E-03 0.  1.
         11   -1    0    0    0    0 -0.00000000000E+00 -0.00000000000E+00 -0.45593999997E+02  0.45594000000E+02  0.51100000000E-03 0. -1.
    9900012    2    1    2    0    0  0.29684487088E+02 -0.32286025990E+02  0.10274105748E+02  0.46142317667E+02  0.99999991435E+01 0.  0.
         12    1    1    2    0    0 -0.29684487088E+02  0.32286025990E+02 -0.10274105748E+02  0.45045682333E+02  0.00000000000E+00 0. -1.
         11    1    3    3    0    0  0.18391780965E+02 -0.19217986005E+02  0.75249428027E+01  0.27644409156E+02  0.51100000000E-03 0. -1.
        -11    1    3    3    0    0  0.11921928050E+02 -0.12059230309E+02  0.31411700018E+01  0.17245995283E+02  0.51100000000E-03 0.  1.
         12    1    3    3    0    0 -0.62922192712E+00 -0.10088096762E+01 -0.39200705691E+00  0.12519132275E+01  0.00000000000E+00 0. -1.
</event>
<event>
 7    1  0.1381440E-008  0.4614231E+02  0.7816164E-02  0.1320468E+00
        -11   -1    0    0    0    0  0.00000000000E+00  0.00000000000E+00  0.45593999997E+02  0.45594000000E+02  0.51100000000E-03 0. -1.
         11   -1    0    0    0    0 -0.00000000000E+00 -0.00000000000E+00 -0.45593999997E+02  0.45594000000E+02  0.51100000000E-03 0.  1.
    9900012    2    1    2    0    0 -0.15942810590E+02  0.17465358380E+01 -0.42093828723E+02  0.46142311932E+02  0.99999468437E+01 0.  0.
         12    1    1    2    0    0  0.15942810590E+02 -0.17465358380E+01  0.42093828723E+02  0.45045688068E+02  0.00000000000E+00 0. -1.
         11    1    3    3    0    0 -0.77408959981E+01  0.18057174036E+01 -0.93706042979E+01  0.12287811496E+02  0.51100000000E-03 0. -1.
        -11    1    3    3    0    0 -0.30278869465E+01  0.39344873410E+00 -0.17634854491E+02  0.17897234269E+02  0.51100000000E-03 0.  1.
         12    1    3    3    0    0 -0.51740276458E+01 -0.45263029971E+00 -0.15088369934E+02  0.15957266167E+02  0.00000000000E+00 0. -1.
</event>
<event>
 7    1  0.1381440E-008  0.4614232E+02  0.7816164E-02  0.1320468E+00
        -11   -1    0    0    0    0  0.00000000000E+00  0.00000000000E+00  0.45593999997E+02  0.45594000000E+02  0.51100000000E-03 0. -1.
         11   -1    0    0    0    0 -0.00000000000E+00 -0.00000000000E+00 -0.45593999997E+02  0.45594000000E+02  0.51100000000E-03 0.  1.
    9900012    2    1    2    0    0 -0.11592787499E+02  0.36251724831E+02 -0.24094256031E+02  0.46142318199E+02  0.10000003990E+02 0.  0.
         12    1    1    2    0    0  0.11592787499E+02 -0.36251724831E+02  0.24094256031E+02  0.45045681801E+02  0.00000000000E+00 0. -1.
         11    1    3    3    0    0 -0.33828646158E+01  0.21745481472E+02 -0.17283015710E+02  0.27982358188E+02  0.51100000000E-03 0.  1.
        -11    1    3    3    0    0 -0.11978561710E+01  0.42057834623E+01 -0.18312478585E+01  0.47409854375E+01  0.51100000000E-03 0. -1.
         12    1    3    3    0    0 -0.70120667126E+01  0.10300459897E+02 -0.49799924631E+01  0.13418974573E+02  0.00000000000E+00 0. -1.
</event>
<event>
 7    1  0.1381440E-008  0.4614232E+02  0.7816164E-02  0.1320468E+00
        -11   -1    0    0    0    0  0.00000000000E+00  0.00000000000E+00  0.45593999997E+02  0.45594000000E+02  0.51100000000E-03 0. -1.
         11   -1    0    0    0    0 -0.00000000000E+00 -0.00000000000E+00 -0.45593999997E+02  0.45594000000E+02  0.51100000000E-03 0.  1.
    9900012    2    1    2    0    0  0.44217980404E+02  0.13928589124E+01 -0.84819562316E+01  0.46142318426E+02  0.10000006062E+02 0.  0.
         12    1    1    2    0    0 -0.44217980404E+02 -0.13928589124E+01  0.84819562316E+01  0.45045681574E+02  0.00000000000E+00 0. -1.
         11    1    3    3    0    0  0.59484823620E+01  0.21850062006E+01 -0.12197779866E+01  0.64534140659E+01  0.51100000000E-03 0. -1.
        -11    1    3    3    0    0  0.20784070034E+02  0.13976798841E+01 -0.56957136722E+00  0.20838797663E+02  0.51100000000E-03 0.  1.
        -12    1    3    3    0    0  0.17485428008E+02 -0.21898271722E+01 -0.66926068777E+01  0.18850106697E+02  0.00000000000E+00 0.  1.
</event>
<event>
 7    1  0.1381440E-008  0.4614232E+02  0.7816164E-02  0.1320468E+00
        -11   -1    0    0    0    0  0.00000000000E+00  0.00000000000E+00  0.45593999997E+02  0.45594000000E+02  0.51100000000E-03 0.  1.
         11   -1    0    0    0    0 -0.00000000000E+00 -0.00000000000E+00 -0.45593999997E+02  0.45594000000E+02  0.51100000000E-03 0. -1.
    9900012    2    1    2    0    0 -0.23442544865E+02  0.20386060383E+02  0.32618539680E+02  0.46142317648E+02  0.99999989691E+01 0.  0.
         12    1    1    2    0    0  0.23442544865E+02 -0.20386060383E+02 -0.32618539680E+02  0.45045682352E+02  0.00000000000E+00 0. -1.
         11    1    3    3    0    0 -0.14456901237E+01  0.36783059465E+01  0.76959108353E+01  0.86514159775E+01  0.51100000000E-03 0. -1.
        -11    1    3    3    0    0 -0.11054103556E+02  0.62389051169E+01  0.93202382156E+01  0.15747507204E+02  0.51100000000E-03 0.  1.
        -12    1    3    3    0    0 -0.10942751186E+02  0.10468849320E+02  0.15602390629E+02  0.21743394467E+02  0.00000000000E+00 0.  1.
</event>
<event>
 7    1  0.1381440E-008  0.4614232E+02  0.7816164E-02  0.1320468E+00
        -11   -1    0    0    0    0  0.00000000000E+00  0.00000000000E+00  0.45593999997E+02  0.45594000000E+02  0.51100000000E-03 0.  1.
         11   -1    0    0    0    0 -0.00000000000E+00 -0.00000000000E+00 -0.45593999997E+02  0.45594000000E+02  0.51100000000E-03 0. -1.
    9900012    2    1    2    0    0 -0.15880447800E+02  0.34929049882E+02  0.23598439500E+02  0.46142317689E+02  0.99999993424E+01 0.  0.
         12    1    1    2    0    0  0.15880447800E+02 -0.34929049882E+02 -0.23598439500E+02  0.45045682311E+02  0.00000000000E+00 0. -1.
         11    1    3    3    0    0 -0.33709879339E+01  0.55332420283E+01  0.62472918571E+00  0.65092713733E+01  0.51100000000E-03 0. -1.
        -11    1    3    3    0    0 -0.26059859401E+01  0.94023600781E+01  0.48931944561E+01  0.10915076271E+02  0.51100000000E-03 0.  1.
         12    1    3    3    0    0 -0.99034739265E+01  0.19993447776E+02  0.18080515858E+02  0.28717970045E+02  0.00000000000E+00 0. -1.
</event>
<event>
 7    1  0.1381440E-008  0.4614232E+02  0.7816164E-02  0.1320468E+00
        -11   -1    0    0    0    0  0.00000000000E+00  0.00000000000E+00  0.45593999997E+02  0.45594000000E+02  0.51100000000E-03 0. -1.
         11   -1    0    0    0    0 -0.00000000000E+00 -0.00000000000E+00 -0.45593999997E+02  0.45594000000E+02  0.51100000000E-03 0.  1.
    9900012    2    1    2    0    0 -0.27422974828E+02 -0.16652743230E+02 -0.31619298442E+02  0.46142318305E+02  0.10000004956E+02 0.  0.
         12    1    1    2    0    0  0.27422974828E+02  0.16652743230E+02  0.31619298442E+02  0.45045681695E+02  0.00000000000E+00 0. -1.
         11    1    3    3    0    0 -0.18442176453E+02 -0.10402232193E+02 -0.15913579618E+02  0.26487021793E+02  0.51100000000E-03 0. -1.
        -11    1    3    3    0    0 -0.65050021922E+01 -0.18507484766E+01 -0.93054751939E+01  0.11503573023E+02  0.51100000000E-03 0.  1.
         12    1    3    3    0    0 -0.24757961819E+01 -0.43997625607E+01 -0.64002436293E+01  0.81517234889E+01  0.00000000000E+00 0. -1.
</event>
<event>
 7    1  0.1381440E-008  0.4614232E+02  0.7816164E-02  0.1320468E+00
        -11   -1    0    0    0    0  0.00000000000E+00  0.00000000000E+00  0.45593999997E+02  0.45594000000E+02  0.51100000000E-03 0.  1.
         11   -1    0    0    0    0 -0.00000000000E+00 -0.00000000000E+00 -0.45593999997E+02  0.45594000000E+02  0.51100000000E-03 0. -1.
    9900012    2    1    2    0    0  0.41976078205E+02  0.45646578067E+01  0.15693511094E+02  0.46142317268E+02  0.99999955028E+01 0.  0.
         12    1    1    2    0    0 -0.41976078205E+02 -0.45646578067E+01 -0.15693511094E+02  0.45045682732E+02  0.00000000000E+00 0. -1.
         11    1    3    3    0    0  0.24437394044E+02 -0.51399334263E+00  0.83603150810E+01  0.25833027026E+02  0.51100000000E-03 0. -1.
        -11    1    3    3    0    0  0.33869697102E+01  0.22589318069E+00 -0.48504074205E+00  0.34289730721E+01  0.51100000000E-03 0.  1.
        -12    1    3    3    0    0  0.14151714451E+02  0.48527579686E+01  0.78182367550E+01  0.16880317170E+02  0.00000000000E+00 0.  1.
</event>
<event>
 7    1  0.1381440E-008  0.4614232E+02  0.7816164E-02  0.1320468E+00
        -11   -1    0    0    0    0  0.00000000000E+00  0.00000000000E+00  0.45593999997E+02  0.45594000000E+02  0.51100000000E-03 0.  1.
         11   -1    0    0    0    0 -0.00000000000E+00 -0.00000000000E+00 -0.45593999997E+02  0.45594000000E+02  0.51100000000E-03 0. -1.
    9900012    2    1    2    0    0 -0.21141259723E+02  0.17580037745E+02  0.35680565971E+02  0.46142318988E+02  0.10000011191E+02 0.  0.
         12    1    1    2    0    0  0.21141259723E+02 -0.17580037745E+02 -0.35680565971E+02  0.45045681012E+02  0.00000000000E+00 0. -1.
         11    1    3    3    0    0 -0.93982384117E+01  0.12018150435E+02  0.16491689141E+02  0.22466389031E+02  0.51100000000E-03 0. -1.
        -11    1    3    3    0    0 -0.63073417040E+01  0.40171177062E+01  0.70098262190E+01  0.10249754042E+02  0.51100000000E-03 0.  1.
         12    1    3    3    0    0 -0.54356796075E+01  0.15447696044E+01  0.12179050611E+02  0.13426175916E+02  0.00000000000E+00 0. -1.
</event>
<event>
 7    1  0.1381440E-008  0.4614232E+02  0.7816164E-02  0.1320468E+00
        -11   -1    0    0    0    0  0.00000000000E+00  0.00000000000E+00  0.45593999997E+02  0.45594000000E+02  0.51100000000E-03 0.  1.
         11   -1    0    0    0    0 -0.00000000000E+00 -0.00000000000E+00 -0.45593999997E+02  0.45594000000E+02  0.51100000000E-03 0. -1.
    9900012    2    1    2    0    0  0.27566602875E+02 -0.21405658354E+02  0.28477951825E+02  0.46142317146E+02  0.99999943865E+01 0.  0.
         12    1    1    2    0    0 -0.27566602875E+02  0.21405658354E+02 -0.28477951825E+02  0.45045682854E+02  0.00000000000E+00 0. -1.
         11    1    3    3    0    0  0.67241781876E+01 -0.10910523890E+02  0.12077950370E+02  0.17610536314E+02  0.51100000000E-03 0. -1.
        -11    1    3    3    0    0  0.13691500358E+02 -0.68113214279E+01  0.10324151058E+02  0.18450999349E+02  0.51100000000E-03 0.  1.
         12    1    3    3    0    0  0.71509243299E+01 -0.36838130363E+01  0.60758503970E+01  0.10080781483E+02  0.00000000000E+00 0. -1.
</event>
<event>
 7    1  0.1381440E-008  0.4614232E+02  0.7816164E-02  0.1320468E+00
        -11   -1    0    0    0    0  0.00000000000E+00  0.00000000000E+00  0.45593999997E+02  0.45594000000E+02  0.51100000000E-03 0.  1.
         11   -1    0    0    0    0 -0.00000000000E+00 -0.00000000000E+00 -0.45593999997E+02  0.45594000000E+02  0.51100000000E-03 0. -1.
    9900012    2    1    2    0    0 -0.18618640454E+02  0.23445597528E+02  0.33656554197E+02  0.46142318118E+02  0.10000003254E+02 0.  0.
         12    1    1    2    0    0  0.18618640454E+02 -0.23445597528E+02 -0.33656554197E+02  0.45045681882E+02  0.00000000000E+00 0. -1.
         11    1    3    3    0    0  0.16443245523E+00  0.80966673135E+00  0.38684389057E+01  0.39556817461E+01  0.51100000000E-03 0. -1.
        -11    1    3    3    0    0 -0.15907722759E+02  0.21542074243E+02  0.27142031196E+02  0.38128814088E+02  0.51100000000E-03 0.  1.
        -12    1    3    3    0    0 -0.28753501497E+01  0.10938565533E+01  0.26460840962E+01  0.40578222838E+01  0.00000000000E+00 0.  1.
</event>
<event>
 7    1  0.1381440E-008  0.4614232E+02  0.7816164E-02  0.1320468E+00
        -11   -1    0    0    0    0  0.00000000000E+00  0.00000000000E+00  0.45593999997E+02  0.45594000000E+02  0.51100000000E-03 0.  1.
         11   -1    0    0    0    0 -0.00000000000E+00 -0.00000000000E+00 -0.45593999997E+02  0.45594000000E+02  0.51100000000E-03 0. -1.
    9900012    2    1    2    0    0 -0.12366356452E+02  0.30731352735E+02  0.30524919092E+02  0.46142317650E+02  0.99999989868E+01 0.  0.
         12    1    1    2    0    0  0.12366356452E+02 -0.30731352735E+02 -0.30524919092E+02  0.45045682350E+02  0.00000000000E+00 0. -1.
         11    1    3    3    0    0 -0.49089530660E+01  0.88621347635E+01  0.50742526096E+01  0.11330635136E+02  0.51100000000E-03 0. -1.
        -11    1    3    3    0    0 -0.82430517292E+01  0.20380037100E+02  0.24320424031E+02  0.32783789276E+02  0.51100000000E-03 0.  1.
         12    1    3    3    0    0  0.78564834305E+00  0.14891808712E+01  0.11302424519E+01  0.20278932384E+01  0.00000000000E+00 0. -1.
</event>
<event>
 7    1  0.1381440E-008  0.4614231E+02  0.7816164E-02  0.1320468E+00
        -11   -1    0    0    0    0  0.00000000000E+00  0.00000000000E+00  0.45593999997E+02  0.45594000000E+02  0.51100000000E-03 0. -1.
         11   -1    0    0    0    0 -0.00000000000E+00 -0.00000000000E+00 -0.45593999997E+02  0.45594000000E+02  0.51100000000E-03 0.  1.
    9900012    2    1    2    0    0  0.77000294009E+01 -0.42361107421E+02 -0.13242376624E+02  0.46142307494E+02  0.99999063761E+01 0.  0.
         12    1    1    2    0    0 -0.77000294009E+01  0.42361107421E+02  0.13242376624E+02  0.45045692506E+02  0.00000000000E+00 0. -1.
         11    1    3    3    0    0 -0.68170146752E+00 -0.43569640146E+00  0.37946855331E+00  0.89361338908E+00  0.51100000000E-03 0. -1.
        -11    1    3    3    0    0  0.52193048624E+01 -0.34880165795E+02 -0.12634906093E+02  0.37463421646E+02  0.51100000000E-03 0.  1.
        -12    1    3    3    0    0  0.31624260061E+01 -0.70452452240E+01 -0.98693908428E+00  0.77852724594E+01  0.00000000000E+00 0.  1.
</event>
<event>
 7    1  0.1381440E-008  0.4614232E+02  0.7816164E-02  0.1320468E+00
        -11   -1    0    0    0    0  0.00000000000E+00  0.00000000000E+00  0.45593999997E+02  0.45594000000E+02  0.51100000000E-03 0. -1.
         11   -1    0    0    0    0 -0.00000000000E+00 -0.00000000000E+00 -0.45593999997E+02  0.45594000000E+02  0.51100000000E-03 0.  1.
    9900012    2    1    2    0    0  0.93054399796E+01  0.34264132043E+01 -0.43940663968E+02  0.46142317958E+02  0.10000001794E+02 0.  0.
         12    1    1    2    0    0 -0.93054399796E+01 -0.34264132043E+01  0.43940663968E+02  0.45045682042E+02  0.00000000000E+00 0. -1.
         11    1    3    3    0    0  0.68671573839E+00  0.14929533846E+01 -0.56619199206E+00  0.17381202337E+01  0.51100000000E-03 0. -1.
        -11    1    3    3    0    0  0.75853048007E+01  0.23662343100E+01 -0.31881643616E+02  0.32856888374E+02  0.51100000000E-03 0.  1.
         12    1    3    3    0    0  0.10334194405E+01 -0.43277449030E+00 -0.11492828361E+02  0.11547309350E+02  0.00000000000E+00 0. -1.
</event>
<event>
 7    1  0.1381440E-008  0.4614232E+02  0.7816164E-02  0.1320468E+00
        -11   -1    0    0    0    0  0.00000000000E+00  0.00000000000E+00  0.45593999997E+02  0.45594000000E+02  0.51100000000E-03 0.  1.
         11   -1    0    0    0    0 -0.00000000000E+00 -0.00000000000E+00 -0.45593999997E+02  0.45594000000E+02  0.51100000000E-03 0. -1.
    9900012    2    1    2    0    0 -0.11699106265E+02  0.18756877515E+02  0.39248234749E+02  0.46142317938E+02  0.10000001614E+02 0.  0.
         12    1    1    2    0    0  0.11699106265E+02 -0.18756877515E+02 -0.39248234749E+02  0.45045682062E+02  0.00000000000E+00 0. -1.
         11    1    3    3    0    0 -0.10103973624E+02  0.13948535608E+02  0.22997978914E+02  0.28732541882E+02  0.51100000000E-03 0.  1.
        -11    1    3    3    0    0 -0.13909727032E+01  0.64152189829E+00  0.82096712954E+01  0.83513506960E+01  0.51100000000E-03 0. -1.
         12    1    3    3    0    0 -0.20415993712E+00  0.41668200089E+01  0.80405845401E+01  0.90584253606E+01  0.00000000000E+00 0. -1.
</event>
<event>
 7    1  0.1381440E-008  0.4614232E+02  0.7816164E-02  0.1320468E+00
        -11   -1    0    0    0    0  0.00000000000E+00  0.00000000000E+00  0.45593999997E+02  0.45594000000E+02  0.51100000000E-03 0.  1.
         11   -1    0    0    0    0 -0.00000000000E+00 -0.00000000000E+00 -0.45593999997E+02  0.45594000000E+02  0.51100000000E-03 0. -1.
    9900012    2    1    2    0    0  0.40716448076E+02 -0.47774706455E+01  0.18667086933E+02  0.46142317585E+02  0.99999983966E+01 0.  0.
         12    1    1    2    0    0 -0.40716448076E+02  0.47774706455E+01 -0.18667086933E+02  0.45045682415E+02  0.00000000000E+00 0. -1.
         11    1    3    3    0    0  0.53608735866E+01 -0.24418053184E+00  0.50848910862E+01  0.73928822095E+01  0.51100000000E-03 0. -1.
        -11    1    3    3    0    0  0.97889217369E+01 -0.27364507325E+00  0.69103233280E+01  0.11985426115E+02  0.51100000000E-03 0.  1.
         12    1    3    3    0    0  0.25566652752E+02 -0.42596450404E+01  0.66718725184E+01  0.26764009261E+02  0.00000000000E+00 0. -1.
</event>
<event>
 7    1  0.1381440E-008  0.4614232E+02  0.7816164E-02  0.1320468E+00
        -11   -1    0    0    0    0  0.00000000000E+00  0.00000000000E+00  0.45593999997E+02  0.45594000000E+02  0.51100000000E-03 0.  1.
         11   -1    0    0    0    0 -0.00000000000E+00 -0.00000000000E+00 -0.45593999997E+02  0.45594000000E+02  0.51100000000E-03 0. -1.
    9900012    2    1    2    0    0 -0.17711837617E+02 -0.38277679937E+02 -0.15818446606E+02  0.46142320672E+02  0.10000026544E+02 0.  0.
         12    1    1    2    0    0  0.17711837617E+02  0.38277679937E+02  0.15818446606E+02  0.45045679328E+02  0.00000000000E+00 0. -1.
         11    1    3    3    0    0 -0.15161046581E+01 -0.21859721154E+01 -0.17721497222E+01  0.31964921903E+01  0.51100000000E-03 0. -1.
        -11    1    3    3    0    0 -0.49321662588E+01 -0.40995960305E+01 -0.40547250674E+01  0.75877366356E+01  0.51100000000E-03 0.  1.
        -12    1    3    3    0    0 -0.11263566700E+02 -0.31992111791E+02 -0.99915718164E+01  0.35358091846E+02  0.00000000000E+00 0.  1.
</event>
<event>
 7    1  0.1381440E-008  0.4614232E+02  0.7816164E-02  0.1320468E+00
        -11   -1    0    0    0    0  0.00000000000E+00  0.00000000000E+00  0.45593999997E+02  0.45594000000E+02  0.51100000000E-03 0. -1.
         11   -1    0    0    0    0 -0.00000000000E+00 -0.00000000000E+00 -0.45593999997E+02  0.45594000000E+02  0.51100000000E-03 0.  1.
    9900012    2    1    2    0    0 -0.21693984964E+02 -0.38637002986E+02  0.81034728190E+01  0.46142320350E+02  0.10000023612E+02 0.  0.
         12    1    1    2    0    0  0.21693984964E+02  0.38637002986E+02 -0.81034728190E+01  0.45045679650E+02  0.00000000000E+00 0. -1.
         11    1    3    3    0    0 -0.44868644154E+01 -0.45562843170E+01  0.40314693588E+01  0.75593931312E+01  0.51100000000E-03 0. -1.
        -11    1    3    3    0    0 -0.12488019624E+02 -0.23916562358E+02  0.45734238086E+01  0.27365467194E+02  0.51100000000E-03 0.  1.
         12    1    3    3    0    0 -0.47191009253E+01 -0.10164156311E+02 -0.50142034846E+00  0.11217460025E+02  0.00000000000E+00 0. -1.
</event>
<event>
 7    1  0.1381440E-008  0.4614232E+02  0.7816164E-02  0.1320468E+00
        -11   -1    0    0    0    0  0.00000000000E+00  0.00000000000E+00  0.45593999997E+02  0.45594000000E+02  0.51100000000E-03 0.  1.
         11   -1    0    0    0    0 -0.00000000000E+00 -0.00000000000E+00 -0.45593999997E+02  0.45594000000E+02  0.51100000000E-03 0. -1.
    9900012    2    1    2    0    0 -0.27963283378E+02  0.61267856194E+01  0.34779746810E+02  0.46142317550E+02  0.99999980707E+01 0.  0.
         12    1    1    2    0    0  0.27963283378E+02 -0.61267856194E+01 -0.34779746810E+02  0.45045682450E+02  0.00000000000E+00 0. -1.
         11    1    3    3    0    0 -0.10236897642E+02  0.25216913108E+01  0.15370342943E+02  0.18638681360E+02  0.51100000000E-03 0. -1.
        -11    1    3    3    0    0 -0.14603759156E+02  0.26119257732E+00  0.16700639859E+02  0.22186693647E+02  0.51100000000E-03 0.  1.
         12    1    3    3    0    0 -0.31226265795E+01  0.33439017313E+01  0.27087640078E+01  0.53169425419E+01  0.00000000000E+00 0. -1.
</event>
<event>
 7    1  0.1381440E-008  0.4614232E+02  0.7816164E-02  0.1320468E+00
        -11   -1    0    0    0    0  0.00000000000E+00  0.00000000000E+00  0.45593999997E+02  0.45594000000E+02  0.51100000000E-03 0.  1.
         11   -1    0    0    0    0 -0.00000000000E+00 -0.00000000000E+00 -0.45593999997E+02  0.45594000000E+02  0.51100000000E-03 0. -1.
    9900012    2    1    2    0    0 -0.37016425125E+02  0.24524092738E+02  0.75806728351E+01  0.46142318139E+02  0.10000003447E+02 0.  0.
         12    1    1    2    0    0  0.37016425125E+02 -0.24524092738E+02 -0.75806728351E+01  0.45045681861E+02  0.00000000000E+00 0. -1.
         11    1    3    3    0    0 -0.10906068114E+02  0.76549709724E+01 -0.15067808164E+01  0.13409373251E+02  0.51100000000E-03 0. -1.
        -11    1    3    3    0    0 -0.10220029905E+01  0.20869443417E+01  0.79210311521E+00  0.24550467214E+01  0.51100000000E-03 0.  1.
        -12    1    3    3    0    0 -0.25088354021E+02  0.14782177424E+02  0.82953505363E+01  0.30277898167E+02  0.00000000000E+00 0.  1.
</event>
<event>
 7    1  0.1381440E-008  0.4614232E+02  0.7816164E-02  0.1320468E+00
        -11   -1    0    0    0    0  0.00000000000E+00  0.00000000000E+00  0.45593999997E+02  0.45594000000E+02  0.51100000000E-03 0. -1.
         11   -1    0    0    0    0 -0.00000000000E+00 -0.00000000000E+00 -0.45593999997E+02  0.45594000000E+02  0.51100000000E-03 0.  1.
    9900012    2    1    2    0    0 -0.12360490343E+02  0.37731176021E+02 -0.21276517320E+02  0.46142317025E+02  0.99999932835E+01 0.  0.
         12    1    1    2    0    0  0.12360490343E+02 -0.37731176021E+02  0.21276517320E+02  0.45045682975E+02  0.00000000000E+00 0. -1.
         11    1    3    3    0    0 -0.58409689221E+01  0.22590310408E+02 -0.81058661063E+01  0.24701095277E+02  0.51100000000E-03 0. -1.
        -11    1    3    3    0    0 -0.53846500626E+01  0.12288696569E+02 -0.12416046023E+02  0.18280172832E+02  0.51100000000E-03 0.  1.
        -12    1    3    3    0    0 -0.11348713579E+01  0.28521690435E+01 -0.75460519161E+00  0.31610489156E+01  0.00000000000E+00 0.  1.
</event>
<event>
 7    1  0.1381440E-008  0.4614232E+02  0.7816164E-02  0.1320468E+00
        -11   -1    0    0    0    0  0.00000000000E+00  0.00000000000E+00  0.45593999997E+02  0.45594000000E+02  0.51100000000E-03 0.  1.
         11   -1    0    0    0    0 -0.00000000000E+00 -0.00000000000E+00 -0.45593999997E+02  0.45594000000E+02  0.51100000000E-03 0. -1.
    9900012    2    1    2    0    0  0.38558885842E+02 -0.10025275011E+02  0.21019507049E+02  0.46142317710E+02  0.99999995335E+01 0.  0.
         12    1    1    2    0    0 -0.38558885842E+02  0.10025275011E+02 -0.21019507049E+02  0.45045682290E+02  0.00000000000E+00 0. -1.
         11    1    3    3    0    0  0.13546812748E+02 -0.72206365107E+01  0.45327042930E+01  0.16006221782E+02  0.51100000000E-03 0. -1.
        -11    1    3    3    0    0  0.94228224735E+01 -0.25107529768E+00  0.63938134453E+01  0.11390060264E+02  0.51100000000E-03 0.  1.
        -12    1    3    3    0    0  0.15589250620E+02 -0.25535632024E+01  0.10092989310E+02  0.18746035665E+02  0.00000000000E+00 0.  1.
</event>
<event>
 7    1  0.1381440E-008  0.4614232E+02  0.7816164E-02  0.1320468E+00
        -11   -1    0    0    0    0  0.00000000000E+00  0.00000000000E+00  0.45593999997E+02  0.45594000000E+02  0.51100000000E-03 0.  1.
         11   -1    0    0    0    0 -0.00000000000E+00 -0.00000000000E+00 -0.45593999997E+02  0.45594000000E+02  0.51100000000E-03 0. -1.
    9900012    2    1    2    0    0 -0.25553464773E+02 -0.15542600055E+02  0.33683252118E+02  0.46142318169E+02  0.10000003718E+02 0.  0.
         12    1    1    2    0    0  0.25553464773E+02  0.15542600055E+02 -0.33683252118E+02  0.45045681831E+02  0.00000000000E+00 0. -1.
         11    1    3    3    0    0 -0.33043810859E+01 -0.19080665052E+01  0.86887890419E+01  0.94897158769E+01  0.51100000000E-03 0. -1.
        -11    1    3    3    0    0 -0.55920392589E+01 -0.63985666304E+01  0.98220970407E+01  0.12987923180E+02  0.51100000000E-03 0.  1.
        -12    1    3    3    0    0 -0.16657044428E+02 -0.72359669196E+01  0.15172366036E+02  0.23664679112E+02  0.00000000000E+00 0.  1.
</event>
<event>
 7    1  0.1381440E-008  0.4614232E+02  0.7816164E-02  0.1320468E+00
        -11   -1    0    0    0    0  0.00000000000E+00  0.00000000000E+00  0.45593999997E+02  0.45594000000E+02  0.51100000000E-03 0. -1.
         11   -1    0    0    0    0 -0.00000000000E+00 -0.00000000000E+00 -0.45593999997E+02  0.45594000000E+02  0.51100000000E-03 0.  1.
    9900012    2    1    2    0    0  0.62024004028E+01  0.10855267911E+02 -0.43275937892E+02  0.46142318602E+02  0.10000007670E+02 0.  0.
         12    1    1    2    0    0 -0.62024004028E+01 -0.10855267911E+02  0.43275937892E+02  0.45045681398E+02  0.00000000000E+00 0. -1.
         11    1    3    3    0    0 -0.32816458812E-01  0.15051480028E+01 -0.89397173196E+00  0.17509235132E+01  0.51100000000E-03 0. -1.
        -11    1    3    3    0    0  0.37634719971E+01  0.56340748057E+01 -0.12876363330E+02  0.14550163341E+02  0.51100000000E-03 0.  1.
        -12    1    3    3    0    0  0.24717448645E+01  0.37160451025E+01 -0.29505602830E+02  0.29841231748E+02  0.00000000000E+00 0.  1.
</event>
<event>
 7    1  0.1381440E-008  0.4614232E+02  0.7816164E-02  0.1320468E+00
        -11   -1    0    0    0    0  0.00000000000E+00  0.00000000000E+00  0.45593999997E+02  0.45594000000E+02  0.51100000000E-03 0. -1.
         11   -1    0    0    0    0 -0.00000000000E+00 -0.00000000000E+00 -0.45593999997E+02  0.45594000000E+02  0.51100000000E-03 0.  1.
    9900012    2    1    2    0    0 -0.26681937878E+02  0.15901140568E+02 -0.32624246215E+02  0.46142317394E+02  0.99999966546E+01 0.  0.
         12    1    1    2    0    0  0.26681937878E+02 -0.15901140568E+02  0.32624246215E+02  0.45045682606E+02  0.00000000000E+00 0. -1.
         11    1    3    3    0    0 -0.56872239645E+01  0.46835166431E+01 -0.34049993428E+01  0.81162716412E+01  0.51100000000E-03 0. -1.
        -11    1    3    3    0    0 -0.13125177846E+02  0.92906990988E+01 -0.17359650049E+02  0.23663153494E+02  0.51100000000E-03 0.  1.
         12    1    3    3    0    0 -0.78695360684E+01  0.19269248263E+01 -0.11859596823E+02  0.14362892259E+02  0.00000000000E+00 0. -1.
</event>
<event>
 7    1  0.1381440E-008  0.4614232E+02  0.7816164E-02  0.1320468E+00
        -11   -1    0    0    0    0  0.00000000000E+00  0.00000000000E+00  0.45593999997E+02  0.45594000000E+02  0.51100000000E-03 0.  1.
         11   -1    0    0    0    0 -0.00000000000E+00 -0.00000000000E+00 -0.45593999997E+02  0.45594000000E+02  0.51100000000E-03 0. -1.
    9900012    2    1    2    0    0  0.24930591717E+02 -0.16164219142E+02  0.33857002508E+02  0.46142323153E+02  0.10000049163E+02 0.  0.
         12    1    1    2    0    0 -0.24930591717E+02  0.16164219142E+02 -0.33857002508E+02  0.45045676847E+02  0.00000000000E+00 0. -1.
         11    1    3    3    0    0  0.13400097105E+01 -0.36739379013E+01  0.63128161260E+01  0.74259742411E+01  0.51100000000E-03 0.  1.
        -11    1    3    3    0    0  0.11471371857E+02 -0.89238619700E+01  0.13670142110E+02  0.19952455245E+02  0.51100000000E-03 0. -1.
         12    1    3    3    0    0  0.12119210150E+02 -0.35664192706E+01  0.13874044271E+02  0.18763893666E+02  0.00000000000E+00 0. -1.
</event>
<event>
 7    1  0.1381440E-008  0.4614232E+02  0.7816164E-02  0.1320468E+00
        -11   -1    0    0    0    0  0.00000000000E+00  0.00000000000E+00  0.45593999997E+02  0.45594000000E+02  0.51100000000E-03 0.  1.
         11   -1    0    0    0    0 -0.00000000000E+00 -0.00000000000E+00 -0.45593999997E+02  0.45594000000E+02  0.51100000000E-03 0. -1.
    9900012    2    1    2    0    0  0.15661406438E+02  0.39474916233E+02  0.15018815787E+02  0.46142317734E+02  0.99999997512E+01 0.  0.
         12    1    1    2    0    0 -0.15661406438E+02 -0.39474916233E+02 -0.15018815787E+02  0.45045682266E+02  0.00000000000E+00 0. -1.
         11    1    3    3    0    0  0.83747485499E+01  0.29782966856E+02  0.10501439509E+02  0.32671727228E+02  0.51100000000E-03 0. -1.
        -11    1    3    3    0    0  0.66323806943E+01  0.97505108427E+01  0.48298435295E+01  0.12743167744E+02  0.51100000000E-03 0.  1.
         12    1    3    3    0    0  0.65427719377E+00 -0.58561465584E-01 -0.31246725240E+00  0.72742276247E+00  0.00000000000E+00 0. -1.
</event>
<event>
 7    1  0.1381440E-008  0.4614232E+02  0.7816164E-02  0.1320468E+00
        -11   -1    0    0    0    0  0.00000000000E+00  0.00000000000E+00  0.45593999997E+02  0.45594000000E+02  0.51100000000E-03 0.  1.
         11   -1    0    0    0    0 -0.00000000000E+00 -0.00000000000E+00 -0.45593999997E+02  0.45594000000E+02  0.51100000000E-03 0. -1.
    9900012    2    1    2    0    0  0.74982049761E+01 -0.31122101766E+02  0.31690774260E+02  0.46142317972E+02  0.10000001921E+02 0.  0.
         12    1    1    2    0    0 -0.74982049761E+01  0.31122101766E+02 -0.31690774260E+02  0.45045682028E+02  0.00000000000E+00 0. -1.
         11    1    3    3    0    0 -0.13967783011E+01 -0.12007783251E+02  0.12457751559E+02  0.17358957987E+02  0.51100000000E-03 0. -1.
        -11    1    3    3    0    0  0.15071994629E+01 -0.49522374366E+01  0.28802917164E+01  0.59238827201E+01  0.51100000000E-03 0.  1.
         12    1    3    3    0    0  0.73877838143E+01 -0.14162081078E+02  0.16352730985E+02  0.22859477265E+02  0.00000000000E+00 0. -1.
</event>
<event>
 7    1  0.1381440E-008  0.4614232E+02  0.7816164E-02  0.1320468E+00
        -11   -1    0    0    0    0  0.00000000000E+00  0.00000000000E+00  0.45593999997E+02  0.45594000000E+02  0.51100000000E-03 0. -1.
         11   -1    0    0    0    0 -0.00000000000E+00 -0.00000000000E+00 -0.45593999997E+02  0.45594000000E+02  0.51100000000E-03 0.  1.
    9900012    2    1    2    0    0  0.42872845231E+02 -0.13736014547E+02 -0.15344281914E+01  0.46142318478E+02  0.10000006539E+02 0.  0.
         12    1    1    2    0    0 -0.42872845231E+02  0.13736014547E+02  0.15344281914E+01  0.45045681522E+02  0.00000000000E+00 0. -1.
         11    1    3    3    0    0  0.12702863094E+02 -0.49787201364E+01  0.30262814088E+01  0.13975291210E+02  0.51100000000E-03 0. -1.
        -11    1    3    3    0    0  0.24214736720E+02 -0.82260144174E+01 -0.19657115633E+01  0.25649265288E+02  0.51100000000E-03 0.  1.
         12    1    3    3    0    0  0.59552454172E+01 -0.53127999369E+00 -0.25949980369E+01  0.65177619796E+01  0.00000000000E+00 0. -1.
</event>
<event>
 7    1  0.1381440E-008  0.4614232E+02  0.7816164E-02  0.1320468E+00
        -11   -1    0    0    0    0  0.00000000000E+00  0.00000000000E+00  0.45593999997E+02  0.45594000000E+02  0.51100000000E-03 0.  1.
         11   -1    0    0    0    0 -0.00000000000E+00 -0.00000000000E+00 -0.45593999997E+02  0.45594000000E+02  0.51100000000E-03 0. -1.
    9900012    2    1    2    0    0 -0.30688962479E+02  0.32786728175E+02  0.35116270084E+01  0.46142317779E+02  0.10000000167E+02 0.  0.
         12    1    1    2    0    0  0.30688962479E+02 -0.32786728175E+02 -0.35116270084E+01  0.45045682221E+02  0.00000000000E+00 0. -1.
         11    1    3    3    0    0 -0.14414806997E+02  0.20771815313E+02  0.43489229544E+00  0.25287232030E+02  0.51100000000E-03 0. -1.
        -11    1    3    3    0    0 -0.15197891265E+02  0.95938261763E+01  0.28294360582E+01  0.18194040461E+02  0.51100000000E-03 0.  1.
         12    1    3    3    0    0 -0.10762642159E+01  0.24210866857E+01  0.24729865476E+00  0.26610452884E+01  0.00000000000E+00 0. -1.
</event>
<event>
 7    1  0.1381440E-008  0.4614232E+02  0.7816164E-02  0.1320468E+00
        -11   -1    0    0    0    0  0.00000000000E+00  0.00000000000E+00  0.45593999997E+02  0.45594000000E+02  0.51100000000E-03 0.  1.
         11   -1    0    0    0    0 -0.00000000000E+00 -0.00000000000E+00 -0.45593999997E+02  0.45594000000E+02  0.51100000000E-03 0. -1.
    9900012    2    1    2    0    0 -0.44411892999E+02 -0.49842694769E+01 -0.56439641385E+01  0.46142317486E+02  0.99999974929E+01 0.  0.
         12    1    1    2    0    0  0.44411892999E+02  0.49842694769E+01  0.56439641385E+01  0.45045682514E+02  0.00000000000E+00 0. -1.
         11    1    3    3    0    0 -0.24356126996E+02  0.23936320831E+00 -0.42711948408E+01  0.24728957168E+02  0.51100000000E-03 0. -1.
        -11    1    3    3    0    0 -0.75012998962E+01  0.33881159552E+00  0.63524268261E+00  0.75357698317E+01  0.51100000000E-03 0.  1.
        -12    1    3    3    0    0 -0.12554466106E+02 -0.55624442808E+01 -0.20080119804E+01  0.13877590486E+02  0.00000000000E+00 0.  1.
</event>
<event>
 7    1  0.1381440E-008  0.4614232E+02  0.7816164E-02  0.1320468E+00
        -11   -1    0    0    0    0  0.00000000000E+00  0.00000000000E+00  0.45593999997E+02  0.45594000000E+02  0.51100000000E-03 0.  1.
         11   -1    0    0    0    0 -0.00000000000E+00 -0.00000000000E+00 -0.45593999997E+02  0.45594000000E+02  0.51100000000E-03 0. -1.
    9900012    2    1    2    0    0 -0.29356232978E+02 -0.23249693858E+02  0.25035512450E+02  0.46142316935E+02  0.99999924679E+01 0.  0.
         12    1    1    2    0    0  0.29356232978E+02  0.23249693858E+02 -0.25035512450E+02  0.45045683065E+02  0.00000000000E+00 0. -1.
         11    1    3    3    0    0 -0.39658477882E+00 -0.25499863410E+01 -0.13030226619E-01  0.25806743061E+01  0.51100000000E-03 0. -1.
        -11    1    3    3    0    0 -0.18737657910E+02 -0.12525374084E+02  0.15284056579E+02  0.27232098812E+02  0.51100000000E-03 0.  1.
        -12    1    3    3    0    0 -0.10221990289E+02 -0.81743334329E+01  0.97644860968E+01  0.16329543817E+02  0.00000000000E+00 0.  1.
</event>
<event>
 7    1  0.1381440E-008  0.4614232E+02  0.7816164E-02  0.1320468E+00
        -11   -1    0    0    0    0  0.00000000000E+00  0.00000000000E+00  0.45593999997E+02  0.45594000000E+02  0.51100000000E-03 0.  1.
         11   -1    0    0    0    0 -0.00000000000E+00 -0.00000000000E+00 -0.45593999997E+02  0.45594000000E+02  0.51100000000E-03 0. -1.
    9900012    2    1    2    0    0  0.82140260364E+01 -0.35766005264E+02 -0.26123471660E+02  0.46142321763E+02  0.10000036492E+02 0.  0.
         12    1    1    2    0    0 -0.82140260364E+01  0.35766005264E+02  0.26123471660E+02  0.45045678237E+02  0.00000000000E+00 0. -1.
         11    1    3    3    0    0 -0.34796700747E+00 -0.79738517386E+00 -0.19929519761E+01  0.21745716806E+01  0.51100000000E-03 0. -1.
        -11    1    3    3    0    0  0.67634360202E+00 -0.15840023177E+02 -0.81626874454E+01  0.17832365001E+02  0.51100000000E-03 0.  1.
         12    1    3    3    0    0  0.78856494418E+01 -0.19128596913E+02 -0.15967832239E+02  0.26135385082E+02  0.00000000000E+00 0. -1.
</event>
<event>
 7    1  0.1381440E-008  0.4614232E+02  0.7816164E-02  0.1320468E+00
        -11   -1    0    0    0    0  0.00000000000E+00  0.00000000000E+00  0.45593999997E+02  0.45594000000E+02  0.51100000000E-03 0. -1.
         11   -1    0    0    0    0 -0.00000000000E+00 -0.00000000000E+00 -0.45593999997E+02  0.45594000000E+02  0.51100000000E-03 0.  1.
    9900012    2    1    2    0    0  0.41325072217E+02  0.10227958314E+02 -0.14722119514E+02  0.46142317321E+02  0.99999959868E+01 0.  0.
         12    1    1    2    0    0 -0.41325072217E+02 -0.10227958314E+02  0.14722119514E+02  0.45045682679E+02  0.00000000000E+00 0. -1.
         11    1    3    3    0    0  0.12979383741E+02  0.39050014487E+01 -0.10786381523E+01  0.13596944478E+02  0.51100000000E-03 0. -1.
        -11    1    3    3    0    0  0.27784920483E+02  0.52434860037E+01 -0.12655841608E+02  0.30978480899E+02  0.51100000000E-03 0.  1.
        -12    1    3    3    0    0  0.56076799311E+00  0.10794708614E+01 -0.98763975302E+00  0.15668919441E+01  0.00000000000E+00 0.  1.
</event>
<event>
 7    1  0.1381440E-008  0.4614232E+02  0.7816164E-02  0.1320468E+00
        -11   -1    0    0    0    0  0.00000000000E+00  0.00000000000E+00  0.45593999997E+02  0.45594000000E+02  0.51100000000E-03 0. -1.
         11   -1    0    0    0    0 -0.00000000000E+00 -0.00000000000E+00 -0.45593999997E+02  0.45594000000E+02  0.51100000000E-03 0.  1.
    9900012    2    1    2    0    0 -0.20688859207E+02  0.14777624186E+02 -0.37184762607E+02  0.46142316056E+02  0.99999844524E+01 0.  0.
         12    1    1    2    0    0  0.20688859207E+02 -0.14777624186E+02  0.37184762607E+02  0.45045683944E+02  0.00000000000E+00 0. -1.
         11    1    3    3    0    0  0.52475618679E+00  0.57280850336E+00  0.23798473403E+00  0.81247500383E+00  0.51100000000E-03 0. -1.
        -11    1    3    3    0    0 -0.16436066353E+02  0.10245521991E+02 -0.28795774591E+02  0.34703193406E+02  0.51100000000E-03 0.  1.
         12    1    3    3    0    0 -0.47775490404E+01  0.39592936913E+01 -0.86269727496E+01  0.10626647646E+02  0.00000000000E+00 0. -1.
</event>
<event>
 7    1  0.1381440E-008  0.4614232E+02  0.7816164E-02  0.1320468E+00
        -11   -1    0    0    0    0  0.00000000000E+00  0.00000000000E+00  0.45593999997E+02  0.45594000000E+02  0.51100000000E-03 0.  1.
         11   -1    0    0    0    0 -0.00000000000E+00 -0.00000000000E+00 -0.45593999997E+02  0.45594000000E+02  0.51100000000E-03 0. -1.
    9900012    2    1    2    0    0  0.15597563455E+02  0.41573719717E+02  0.75799323946E+01  0.46142317278E+02  0.99999955906E+01 0.  0.
         12    1    1    2    0    0 -0.15597563455E+02 -0.41573719717E+02 -0.75799323946E+01  0.45045682722E+02  0.00000000000E+00 0. -1.
         11    1    3    3    0    0  0.39067406514E+01  0.14338122708E+02  0.64625124362E-01  0.14860974462E+02  0.51100000000E-03 0. -1.
        -11    1    3    3    0    0  0.93763127402E+01  0.13829469913E+02  0.32280298680E+01  0.17017333980E+02  0.51100000000E-03 0.  1.
         12    1    3    3    0    0  0.23145100637E+01  0.13406127096E+02  0.42872774022E+01  0.14264008836E+02  0.00000000000E+00 0. -1.
</event>
<event>
 7    1  0.1381440E-008  0.4614232E+02  0.7816164E-02  0.1320468E+00
        -11   -1    0    0    0    0  0.00000000000E+00  0.00000000000E+00  0.45593999997E+02  0.45594000000E+02  0.51100000000E-03 0.  1.
         11   -1    0    0    0    0 -0.00000000000E+00 -0.00000000000E+00 -0.45593999997E+02  0.45594000000E+02  0.51100000000E-03 0. -1.
    9900012    2    1    2    0    0  0.24041576668E+02  0.37051552493E+02  0.88486476189E+01  0.46142317460E+02  0.99999972501E+01 0.  0.
         12    1    1    2    0    0 -0.24041576668E+02 -0.37051552493E+02 -0.88486476189E+01  0.45045682540E+02  0.00000000000E+00 0. -1.
         11    1    3    3    0    0 -0.44377882623E+00  0.22987658804E+01 -0.77105099819E+00  0.24649105708E+01  0.51100000000E-03 0. -1.
        -11    1    3    3    0    0  0.11100969631E+02  0.18194152609E+02  0.48098149527E+01  0.21849325758E+02  0.51100000000E-03 0.  1.
         12    1    3    3    0    0  0.13384385863E+02  0.16558634004E+02  0.48098836644E+01  0.21828081131E+02  0.00000000000E+00 0. -1.
</event>
<event>
 7    1  0.1381440E-008  0.4614232E+02  0.7816164E-02  0.1320468E+00
        -11   -1    0    0    0    0  0.00000000000E+00  0.00000000000E+00  0.45593999997E+02  0.45594000000E+02  0.51100000000E-03 0.  1.
         11   -1    0    0    0    0 -0.00000000000E+00 -0.00000000000E+00 -0.45593999997E+02  0.45594000000E+02  0.51100000000E-03 0. -1.
    9900012    2    1    2    0    0 -0.26475758888E+02  0.12593751566E+02  0.34198612501E+02  0.46142317807E+02  0.10000000421E+02 0.  0.
         12    1    1    2    0    0  0.26475758888E+02 -0.12593751566E+02 -0.34198612501E+02  0.45045682193E+02  0.00000000000E+00 0. -1.
         11    1    3    3    0    0 -0.33488268814E+01  0.28833189224E+01  0.24528715828E+01  0.50541813138E+01  0.51100000000E-03 0. -1.
        -11    1    3    3    0    0 -0.17537017628E+02  0.10195831818E+02  0.26777723696E+02  0.33593875340E+02  0.51100000000E-03 0.  1.
        -12    1    3    3    0    0 -0.55899143789E+01 -0.48539917364E+00  0.49680172218E+01  0.74942611535E+01  0.00000000000E+00 0.  1.
</event>
<event>
 7    1  0.1381440E-008  0.4614232E+02  0.7816164E-02  0.1320468E+00
        -11   -1    0    0    0    0  0.00000000000E+00  0.00000000000E+00  0.45593999997E+02  0.45594000000E+02  0.51100000000E-03 0.  1.
         11   -1    0    0    0    0 -0.00000000000E+00 -0.00000000000E+00 -0.45593999997E+02  0.45594000000E+02  0.51100000000E-03 0. -1.
    9900012    2    1    2    0    0  0.20308024080E+02 -0.13648141548E+01  0.40185009459E+02  0.46142317133E+02  0.99999942725E+01 0.  0.
         12    1    1    2    0    0 -0.20308024080E+02  0.13648141548E+01 -0.40185009459E+02  0.45045682867E+02  0.00000000000E+00 0. -1.
         11    1    3    3    0    0  0.26332416845E+01 -0.26488956729E+01  0.13261340924E+02  0.13777291948E+02  0.51100000000E-03 0. -1.
        -11    1    3    3    0    0  0.13583661201E+02  0.14691559617E+01  0.18497292093E+02  0.22996175462E+02  0.51100000000E-03 0.  1.
        -12    1    3    3    0    0  0.40911211943E+01 -0.18507444355E+00  0.84263764425E+01  0.93688497227E+01  0.00000000000E+00 0.  1.
</event>
<event>
 7    1  0.1381440E-008  0.4614232E+02  0.7816164E-02  0.1320468E+00
        -11   -1    0    0    0    0  0.00000000000E+00  0.00000000000E+00  0.45593999997E+02  0.45594000000E+02  0.51100000000E-03 0.  1.
         11   -1    0    0    0    0 -0.00000000000E+00 -0.00000000000E+00 -0.45593999997E+02  0.45594000000E+02  0.51100000000E-03 0. -1.
    9900012    2    1    2    0    0  0.17293352838E+02  0.98251245327E+01  0.40416831162E+02  0.46142319123E+02  0.10000012422E+02 0.  0.
         12    1    1    2    0    0 -0.17293352838E+02 -0.98251245327E+01 -0.40416831162E+02  0.45045680877E+02  0.00000000000E+00 0. -1.
         11    1    3    3    0    0  0.13205602608E+01 -0.14371863237E+01  0.12265589976E+01  0.23051748670E+01  0.51100000000E-03 0. -1.
        -11    1    3    3    0    0  0.10682347366E+02  0.69227732612E+01  0.27214602746E+02  0.30044499292E+02  0.51100000000E-03 0.  1.
         12    1    3    3    0    0  0.52904452119E+01  0.43395375951E+01  0.11975669419E+02  0.13792644964E+02  0.00000000000E+00 0. -1.
</event>
<event>
 7    1  0.1381440E-008  0.4614232E+02  0.7816164E-02  0.1320468E+00
        -11   -1    0    0    0    0  0.00000000000E+00  0.00000000000E+00  0.45593999997E+02  0.45594000000E+02  0.51100000000E-03 0.  1.
         11   -1    0    0    0    0 -0.00000000000E+00 -0.00000000000E+00 -0.45593999997E+02  0.45594000000E+02  0.51100000000E-03 0. -1.
    9900012    2    1    2    0    0  0.32198425509E+02  0.31214610480E+02 -0.42453416250E+01  0.46142318318E+02  0.10000005081E+02 0.  0.
         12    1    1    2    0    0 -0.32198425509E+02 -0.31214610480E+02  0.42453416250E+01  0.45045681682E+02  0.00000000000E+00 0. -1.
         11    1    3    3    0    0  0.88528923509E+01  0.91471199275E+01  0.18401376934E+01  0.12861944368E+02  0.51100000000E-03 0. -1.
        -11    1    3    3    0    0  0.23277959001E+02  0.20401901123E+02 -0.51809095943E+01  0.31383797877E+02  0.51100000000E-03 0.  1.
         12    1    3    3    0    0  0.67574156599E-01  0.16655894295E+01 -0.90456972418E+00  0.18965760729E+01  0.00000000000E+00 0. -1.
</event>
<event>
 7    1  0.1381440E-008  0.4614232E+02  0.7816164E-02  0.1320468E+00
        -11   -1    0    0    0    0  0.00000000000E+00  0.00000000000E+00  0.45593999997E+02  0.45594000000E+02  0.51100000000E-03 0. -1.
         11   -1    0    0    0    0 -0.00000000000E+00 -0.00000000000E+00 -0.45593999997E+02  0.45594000000E+02  0.51100000000E-03 0.  1.
    9900012    2    1    2    0    0 -0.89593028411E+01 -0.99677282010E+01 -0.43005683137E+02  0.46142317688E+02  0.99999993294E+01 0.  0.
         12    1    1    2    0    0  0.89593028411E+01  0.99677282010E+01  0.43005683137E+02  0.45045682312E+02  0.00000000000E+00 0. -1.
         11    1    3    3    0    0 -0.11808270355E+01 -0.56440594345E+01 -0.10608936003E+02  0.12074737379E+02  0.51100000000E-03 0. -1.
        -11    1    3    3    0    0 -0.37617082101E+01 -0.51840787516E+01 -0.18574515614E+02  0.19647843436E+02  0.51100000000E-03 0.  1.
        -12    1    3    3    0    0 -0.40167675954E+01  0.86040998516E+00 -0.13822231521E+02  0.14419736872E+02  0.00000000000E+00 0.  1.
</event>
<event>
 7    1  0.1381440E-008  0.4614232E+02  0.7816164E-02  0.1320468E+00
        -11   -1    0    0    0    0  0.00000000000E+00  0.00000000000E+00  0.45593999997E+02  0.45594000000E+02  0.51100000000E-03 0.  1.
         11   -1    0    0    0    0 -0.00000000000E+00 -0.00000000000E+00 -0.45593999997E+02  0.45594000000E+02  0.51100000000E-03 0. -1.
    9900012    2    1    2    0    0 -0.78894139104E+01  0.13976562722E+02  0.42089505461E+02  0.46142316218E+02  0.99999859324E+01 0.  0.
         12    1    1    2    0    0  0.78894139104E+01 -0.13976562722E+02 -0.42089505461E+02  0.45045683782E+02  0.00000000000E+00 0. -1.
         11    1    3    3    0    0  0.44102917591E+00 -0.16954502511E+00  0.64227379276E+01  0.64400943314E+01  0.51100000000E-03 0. -1.
        -11    1    3    3    0    0 -0.46475533818E+01  0.68555180129E+01  0.11352464179E+02  0.14052626903E+02  0.51100000000E-03 0.  1.
        -12    1    3    3    0    0 -0.36828897045E+01  0.72905897338E+01  0.24314303355E+02  0.25649594984E+02  0.00000000000E+00 0.  1.
</event>
<event>
 7    1  0.1381440E-008  0.4614232E+02  0.7816164E-02  0.1320468E+00
        -11   -1    0    0    0    0  0.00000000000E+00  0.00000000000E+00  0.45593999997E+02  0.45594000000E+02  0.51100000000E-03 0. -1.
         11   -1    0    0    0    0 -0.00000000000E+00 -0.00000000000E+00 -0.45593999997E+02  0.45594000000E+02  0.51100000000E-03 0.  1.
    9900012    2    1    2    0    0  0.27728466851E+02 -0.92968604085E+01 -0.34260969224E+02  0.46142317637E+02  0.99999988724E+01 0.  0.
         12    1    1    2    0    0 -0.27728466851E+02  0.92968604085E+01  0.34260969224E+02  0.45045682363E+02  0.00000000000E+00 0. -1.
         11    1    3    3    0    0  0.40594085165E+01 -0.50054314604E+01 -0.61467373808E+01  0.89059262459E+01  0.51100000000E-03 0. -1.
        -11    1    3    3    0    0  0.10757511758E+02  0.77012279205E-01 -0.11525586884E+02  0.15766075713E+02  0.51100000000E-03 0.  1.
         12    1    3    3    0    0  0.12911546576E+02 -0.43684412273E+01 -0.16588644959E+02  0.21470315678E+02  0.00000000000E+00 0. -1.
</event>
<event>
 7    1  0.1381440E-008  0.4614232E+02  0.7816164E-02  0.1320468E+00
        -11   -1    0    0    0    0  0.00000000000E+00  0.00000000000E+00  0.45593999997E+02  0.45594000000E+02  0.51100000000E-03 0.  1.
         11   -1    0    0    0    0 -0.00000000000E+00 -0.00000000000E+00 -0.45593999997E+02  0.45594000000E+02  0.51100000000E-03 0. -1.
    9900012    2    1    2    0    0 -0.26248443752E+02  0.36519288569E+02  0.25444689118E+01  0.46142316977E+02  0.99999928473E+01 0.  0.
         12    1    1    2    0    0  0.26248443752E+02 -0.36519288569E+02 -0.25444689118E+01  0.45045683023E+02  0.00000000000E+00 0. -1.
         11    1    3    3    0    0 -0.89914278390E+01  0.12606408050E+02 -0.24317925838E+01  0.15674211749E+02  0.51100000000E-03 0. -1.
        -11    1    3    3    0    0 -0.99927309288E+01  0.17322958985E+02  0.14708674272E+01  0.20052506843E+02  0.51100000000E-03 0.  1.
        -12    1    3    3    0    0 -0.72642849846E+01  0.65899215332E+01  0.35053940683E+01  0.10415598385E+02  0.00000000000E+00 0.  1.
</event>
<event>
 7    1  0.1381440E-008  0.4614232E+02  0.7816164E-02  0.1320468E+00
        -11   -1    0    0    0    0  0.00000000000E+00  0.00000000000E+00  0.45593999997E+02  0.45594000000E+02  0.51100000000E-03 0.  1.
         11   -1    0    0    0    0 -0.00000000000E+00 -0.00000000000E+00 -0.45593999997E+02  0.45594000000E+02  0.51100000000E-03 0. -1.
    9900012    2    1    2    0    0  0.26729548806E+02 -0.36077398425E+02  0.36147067921E+01  0.46142316947E+02  0.99999925785E+01 0.  0.
         12    1    1    2    0    0 -0.26729548806E+02  0.36077398425E+02 -0.36147067921E+01  0.45045683053E+02  0.00000000000E+00 0. -1.
         11    1    3    3    0    0  0.11834304347E+00  0.32958138737E+00 -0.65728279807E+00  0.74474821558E+00  0.51100000000E-03 0. -1.
        -11    1    3    3    0    0  0.16488274041E+02 -0.21689142128E+02  0.11918551331E+01  0.27270910986E+02  0.51100000000E-03 0.  1.
         12    1    3    3    0    0  0.10122931721E+02 -0.14717837685E+02  0.30801344571E+01  0.18126657746E+02  0.00000000000E+00 0. -1.
</event>
<event>
 7    1  0.1381440E-008  0.4614232E+02  0.7816164E-02  0.1320468E+00
        -11   -1    0    0    0    0  0.00000000000E+00  0.00000000000E+00  0.45593999997E+02  0.45594000000E+02  0.51100000000E-03 0.  1.
         11   -1    0    0    0    0 -0.00000000000E+00 -0.00000000000E+00 -0.45593999997E+02  0.45594000000E+02  0.51100000000E-03 0. -1.
    9900012    2    1    2    0    0 -0.36300436582E+02 -0.26649881426E+02 -0.10842623144E+01  0.46142317623E+02  0.99999987385E+01 0.  0.
         12    1    1    2    0    0  0.36300436582E+02  0.26649881426E+02  0.10842623144E+01  0.45045682377E+02  0.00000000000E+00 0. -1.
         11    1    3    3    0    0 -0.12285452746E+02 -0.57459073993E+01  0.13840469374E+01  0.13633172308E+02  0.51100000000E-03 0. -1.
        -11    1    3    3    0    0 -0.60245361679E+01 -0.39730353343E+01 -0.29590876194E+01  0.77997593300E+01  0.51100000000E-03 0.  1.
        -12    1    3    3    0    0 -0.17990447669E+02 -0.16930938692E+02  0.49077836752E+00  0.24709385984E+02  0.00000000000E+00 0.  1.
</event>
<event>
 7    1  0.1381440E-008  0.4614232E+02  0.7816164E-02  0.1320468E+00
        -11   -1    0    0    0    0  0.00000000000E+00  0.00000000000E+00  0.45593999997E+02  0.45594000000E+02  0.51100000000E-03 0.  1.
         11   -1    0    0    0    0 -0.00000000000E+00 -0.00000000000E+00 -0.45593999997E+02  0.45594000000E+02  0.51100000000E-03 0. -1.
    9900012    2    1    2    0    0  0.29183825323E+02 -0.11514582418E+02  0.32323865042E+02  0.46142317410E+02  0.99999968018E+01 0.  0.
         12    1    1    2    0    0 -0.29183825323E+02  0.11514582418E+02 -0.32323865042E+02  0.45045682590E+02  0.00000000000E+00 0. -1.
         11    1    3    3    0    0  0.20588179620E+02 -0.99768858896E+01  0.23357482011E+02  0.32695310952E+02  0.51100000000E-03 0.  1.
        -11    1    3    3    0    0 -0.52645634899E+00 -0.27129889239E-01 -0.53487750065E-01  0.52986179217E+00  0.51100000000E-03 0. -1.
         12    1    3    3    0    0  0.91221020523E+01 -0.15105666390E+01  0.90198707804E+01  0.12917144666E+02  0.00000000000E+00 0. -1.
</event>
<event>
 7    1  0.1381440E-008  0.4614232E+02  0.7816164E-02  0.1320468E+00
        -11   -1    0    0    0    0  0.00000000000E+00  0.00000000000E+00  0.45593999997E+02  0.45594000000E+02  0.51100000000E-03 0.  1.
         11   -1    0    0    0    0 -0.00000000000E+00 -0.00000000000E+00 -0.45593999997E+02  0.45594000000E+02  0.51100000000E-03 0. -1.
    9900012    2    1    2    0    0  0.32279849033E+02  0.24646677889E+02  0.19485023353E+02  0.46142317414E+02  0.99999968364E+01 0.  0.
         12    1    1    2    0    0 -0.32279849033E+02 -0.24646677889E+02 -0.19485023353E+02  0.45045682586E+02  0.00000000000E+00 0. -1.
         11    1    3    3    0    0  0.15454359889E+00 -0.61507396654E+00 -0.17996275471E+00  0.65923179723E+00  0.51100000000E-03 0. -1.
        -11    1    3    3    0    0  0.23166568071E+02  0.19735725578E+02  0.15608316352E+02  0.34202460144E+02  0.51100000000E-03 0.  1.
         12    1    3    3    0    0  0.89587373630E+01  0.55260262779E+01  0.40566697558E+01  0.11280625473E+02  0.00000000000E+00 0. -1.
</event>
<event>
 7    1  0.1381440E-008  0.4614232E+02  0.7816164E-02  0.1320468E+00
        -11   -1    0    0    0    0  0.00000000000E+00  0.00000000000E+00  0.45593999997E+02  0.45594000000E+02  0.51100000000E-03 0.  1.
         11   -1    0    0    0    0 -0.00000000000E+00 -0.00000000000E+00 -0.45593999997E+02  0.45594000000E+02  0.51100000000E-03 0. -1.
    9900012    2    1    2    0    0  0.28009886290E+02 -0.23154816969E+02  0.26616051747E+02  0.46142317749E+02  0.99999998882E+01 0.  0.
         12    1    1    2    0    0 -0.28009886290E+02  0.23154816969E+02 -0.26616051747E+02  0.45045682251E+02  0.00000000000E+00 0. -1.
         11    1    3    3    0    0  0.21481917272E+02 -0.12944374321E+02  0.16899192024E+02  0.30242557556E+02  0.51100000000E-03 0.  1.
        -11    1    3    3    0    0  0.20450788975E+01 -0.37050561814E+01  0.55145234554E+01  0.69512414866E+01  0.51100000000E-03 0. -1.
        -12    1    3    3    0    0  0.44828901212E+01 -0.65053864671E+01  0.42023362678E+01  0.89485187061E+01  0.00000000000E+00 0.  1.
</event>
<event>
 7    1  0.1381440E-008  0.4614232E+02  0.7816164E-02  0.1320468E+00
        -11   -1    0    0    0    0  0.00000000000E+00  0.00000000000E+00  0.45593999997E+02  0.45594000000E+02  0.51100000000E-03 0.  1.
         11   -1    0    0    0    0 -0.00000000000E+00 -0.00000000000E+00 -0.45593999997E+02  0.45594000000E+02  0.51100000000E-03 0. -1.
    9900012    2    1    2    0    0 -0.19708587125E+02 -0.21231826668E+02  0.34494848005E+02  0.46142318642E+02  0.10000008029E+02 0.  0.
         12    1    1    2    0    0  0.19708587125E+02  0.21231826668E+02 -0.34494848005E+02  0.45045681358E+02  0.00000000000E+00 0. -1.
         11    1    3    3    0    0 -0.91112873373E+00 -0.35055692812E+01  0.57115300266E+01  0.67631905977E+01  0.51100000000E-03 0. -1.
        -11    1    3    3    0    0 -0.15164519078E+02 -0.17498156826E+02  0.25851623266E+02  0.34705252584E+02  0.51100000000E-03 0.  1.
         12    1    3    3    0    0 -0.36329393141E+01 -0.22810056051E+00  0.29316947121E+01  0.46738754595E+01  0.00000000000E+00 0. -1.
</event>
<event>
 7    1  0.1381440E-008  0.4614232E+02  0.7816164E-02  0.1320468E+00
        -11   -1    0    0    0    0  0.00000000000E+00  0.00000000000E+00  0.45593999997E+02  0.45594000000E+02  0.51100000000E-03 0.  1.
         11   -1    0    0    0    0 -0.00000000000E+00 -0.00000000000E+00 -0.45593999997E+02  0.45594000000E+02  0.51100000000E-03 0. -1.
    9900012    2    1    2    0    0 -0.18353322935E+02  0.16143277972E+02  0.37837330404E+02  0.46142318092E+02  0.10000003015E+02 0.  0.
         12    1    1    2    0    0  0.18353322935E+02 -0.16143277972E+02 -0.37837330404E+02  0.45045681908E+02  0.00000000000E+00 0. -1.
         11    1    3    3    0    0  0.67464171644E+00  0.12160190791E+01  0.12894378947E+01  0.18964425094E+01  0.51100000000E-03 0. -1.
        -11    1    3    3    0    0  0.40589060064E+00  0.32434915972E+00  0.15439523213E+01  0.16290299533E+01  0.51100000000E-03 0.  1.
        -12    1    3    3    0    0 -0.19433855253E+02  0.14602909734E+02  0.35003940188E+02  0.42616845629E+02  0.00000000000E+00 0.  1.
</event>
<event>
 7    1  0.1381440E-008  0.4614232E+02  0.7816164E-02  0.1320468E+00
        -11   -1    0    0    0    0  0.00000000000E+00  0.00000000000E+00  0.45593999997E+02  0.45594000000E+02  0.51100000000E-03 0.  1.
         11   -1    0    0    0    0 -0.00000000000E+00 -0.00000000000E+00 -0.45593999997E+02  0.45594000000E+02  0.51100000000E-03 0. -1.
    9900012    2    1    2    0    0  0.33647623366E+02 -0.20931470179E+02  0.21420188535E+02  0.46142317866E+02  0.10000000954E+02 0.  0.
         12    1    1    2    0    0 -0.33647623366E+02  0.20931470179E+02 -0.21420188535E+02  0.45045682134E+02  0.00000000000E+00 0. -1.
         11    1    3    3    0    0  0.23191392196E+02 -0.13917934727E+02  0.96932364280E+01  0.28731662183E+02  0.51100000000E-03 0. -1.
        -11    1    3    3    0    0  0.10127534012E+02 -0.71434263161E+01  0.11719679045E+02  0.17057149876E+02  0.51100000000E-03 0.  1.
        -12    1    3    3    0    0  0.32869715837E+00  0.12989086412E+00  0.72730619721E-02  0.35350580750E+00  0.00000000000E+00 0.  1.
</event>
<event>
 7    1  0.1381440E-008  0.4614232E+02  0.7816164E-02  0.1320468E+00
        -11   -1    0    0    0    0  0.00000000000E+00  0.00000000000E+00  0.45593999997E+02  0.45594000000E+02  0.51100000000E-03 0. -1.
         11   -1    0    0    0    0 -0.00000000000E+00 -0.00000000000E+00 -0.45593999997E+02  0.45594000000E+02  0.51100000000E-03 0.  1.
    9900012    2    1    2    0    0  0.10315961694E+02  0.43605493673E+02 -0.46103544586E+01  0.46142317495E+02  0.99999975696E+01 0.  0.
         12    1    1    2    0    0 -0.10315961694E+02 -0.43605493673E+02  0.46103544586E+01  0.45045682505E+02  0.00000000000E+00 0. -1.
         11    1    3    3    0    0 -0.44528336900E+00  0.38265712496E+01 -0.35367773633E+00  0.38685931563E+01  0.51100000000E-03 0. -1.
        -11    1    3    3    0    0  0.76604801801E-01  0.15816130662E+02 -0.12664899692E+01  0.15866942192E+02  0.51100000000E-03 0.  1.
        -12    1    3    3    0    0  0.10684640261E+02  0.23962791762E+02 -0.29901867530E+01  0.26406782147E+02  0.00000000000E+00 0.  1.
</event>
<event>
 7    1  0.1381440E-008  0.4614232E+02  0.7816164E-02  0.1320468E+00
        -11   -1    0    0    0    0  0.00000000000E+00  0.00000000000E+00  0.45593999997E+02  0.45594000000E+02  0.51100000000E-03 0.  1.
         11   -1    0    0    0    0 -0.00000000000E+00 -0.00000000000E+00 -0.45593999997E+02  0.45594000000E+02  0.51100000000E-03 0. -1.
    9900012    2    1    2    0    0  0.35513313388E+02 -0.26658778760E+02  0.75648934229E+01  0.46142317351E+02  0.99999962636E+01 0.  0.
         12    1    1    2    0    0 -0.35513313388E+02  0.26658778760E+02 -0.75648934229E+01  0.45045682649E+02  0.00000000000E+00 0. -1.
         11    1    3    3    0    0  0.11646691985E+02 -0.49683528706E+01  0.55186988728E+01  0.13812530613E+02  0.51100000000E-03 0. -1.
        -11    1    3    3    0    0  0.20846289823E+02 -0.18623398128E+02  0.20005350442E+01  0.28025004870E+02  0.51100000000E-03 0.  1.
         12    1    3    3    0    0  0.30203315812E+01 -0.30670277607E+01  0.45659505845E-01  0.43047818685E+01  0.00000000000E+00 0. -1.
</event>
<event>
 7    1  0.1381440E-008  0.4614232E+02  0.7816164E-02  0.1320468E+00
        -11   -1    0    0    0    0  0.00000000000E+00  0.00000000000E+00  0.45593999997E+02  0.45594000000E+02  0.51100000000E-03 0.  1.
         11   -1    0    0    0    0 -0.00000000000E+00 -0.00000000000E+00 -0.45593999997E+02  0.45594000000E+02  0.51100000000E-03 0. -1.
    9900012    2    1    2    0    0 -0.47553311513E+01  0.72282594201E+00  0.44788143952E+02  0.46142317739E+02  0.99999997993E+01 0.  0.
         12    1    1    2    0    0  0.47553311513E+01 -0.72282594201E+00 -0.44788143952E+02  0.45045682261E+02  0.00000000000E+00 0. -1.
         11    1    3    3    0    0  0.22443889221E+01 -0.64956975759E+00  0.54292470765E+01  0.59106638022E+01  0.51100000000E-03 0. -1.
        -11    1    3    3    0    0 -0.45964342877E+01  0.17488264234E+01  0.33905480368E+02  0.34260286065E+02  0.51100000000E-03 0.  1.
        -12    1    3    3    0    0 -0.24032857857E+01 -0.37643072380E+00  0.54534165077E+01  0.59713678721E+01  0.00000000000E+00 0.  1.
</event>
<event>
 7    1  0.1381440E-008  0.4614232E+02  0.7816164E-02  0.1320468E+00
        -11   -1    0    0    0    0  0.00000000000E+00  0.00000000000E+00  0.45593999997E+02  0.45594000000E+02  0.51100000000E-03 0.  1.
         11   -1    0    0    0    0 -0.00000000000E+00 -0.00000000000E+00 -0.45593999997E+02  0.45594000000E+02  0.51100000000E-03 0. -1.
    9900012    2    1    2    0    0  0.14747902103E+02  0.16496748684E+01  0.42531064583E+02  0.46142317652E+02  0.99999990065E+01 0.  0.
         12    1    1    2    0    0 -0.14747902103E+02 -0.16496748684E+01 -0.42531064583E+02  0.45045682348E+02  0.00000000000E+00 0. -1.
         11    1    3    3    0    0  0.20230037373E+01  0.21643079612E+01  0.67695950593E+01  0.73894648386E+01  0.51100000000E-03 0. -1.
        -11    1    3    3    0    0  0.12029135627E+02 -0.15539668488E+01  0.35444850231E+02  0.37462679096E+02  0.51100000000E-03 0.  1.
        -12    1    3    3    0    0  0.69576273902E+00  0.10393337560E+01  0.31661929297E+00  0.12901737177E+01  0.00000000000E+00 0.  1.
</event>
<event>
 7    1  0.1381440E-008  0.4614232E+02  0.7816164E-02  0.1320468E+00
        -11   -1    0    0    0    0  0.00000000000E+00  0.00000000000E+00  0.45593999997E+02  0.45594000000E+02  0.51100000000E-03 0. -1.
         11   -1    0    0    0    0 -0.00000000000E+00 -0.00000000000E+00 -0.45593999997E+02  0.45594000000E+02  0.51100000000E-03 0.  1.
    9900012    2    1    2    0    0 -0.34674379865E+02 -0.27686046920E+02 -0.77642505836E+01  0.46142318739E+02  0.10000008918E+02 0.  0.
         12    1    1    2    0    0  0.34674379865E+02  0.27686046920E+02  0.77642505836E+01  0.45045681261E+02  0.00000000000E+00 0. -1.
         11    1    3    3    0    0 -0.12189758181E+02 -0.64564417139E+01  0.22416601476E+00  0.13795872382E+02  0.51100000000E-03 0. -1.
        -11    1    3    3    0    0 -0.91883878056E+01 -0.10800929142E+02 -0.57449459671E+01  0.15300030890E+02  0.51100000000E-03 0.  1.
        -12    1    3    3    0    0 -0.13296233879E+02 -0.10428676064E+02 -0.22434706313E+01  0.17046415468E+02  0.00000000000E+00 0.  1.
</event>
<event>
 7    1  0.1381440E-008  0.4614232E+02  0.7816164E-02  0.1320468E+00
        -11   -1    0    0    0    0  0.00000000000E+00  0.00000000000E+00  0.45593999997E+02  0.45594000000E+02  0.51100000000E-03 0.  1.
         11   -1    0    0    0    0 -0.00000000000E+00 -0.00000000000E+00 -0.45593999997E+02  0.45594000000E+02  0.51100000000E-03 0. -1.
    9900012    2    1    2    0    0 -0.60172577761E+01  0.20493466081E+02  0.39660106849E+02  0.46142316318E+02  0.99999868387E+01 0.  0.
         12    1    1    2    0    0  0.60172577761E+01 -0.20493466081E+02 -0.39660106849E+02  0.45045683682E+02  0.00000000000E+00 0. -1.
         11    1    3    3    0    0 -0.44792988484E+01  0.15171811559E+02  0.23180078843E+02  0.28063571398E+02  0.51100000000E-03 0. -1.
        -11    1    3    3    0    0  0.13800297491E+01  0.17103447064E+00  0.45987401395E+01  0.48043882056E+01  0.51100000000E-03 0.  1.
        -12    1    3    3    0    0 -0.29179886769E+01  0.51506200512E+01  0.11881287866E+02  0.13274356714E+02  0.00000000000E+00 0.  1.
</event>
<event>
 7    1  0.1381440E-008  0.4614232E+02  0.7816164E-02  0.1320468E+00
        -11   -1    0    0    0    0  0.00000000000E+00  0.00000000000E+00  0.45593999997E+02  0.45594000000E+02  0.51100000000E-03 0. -1.
         11   -1    0    0    0    0 -0.00000000000E+00 -0.00000000000E+00 -0.45593999997E+02  0.45594000000E+02  0.51100000000E-03 0.  1.
    9900012    2    1    2    0    0 -0.93271235010E+01 -0.43683574290E+02  0.58192404613E+01  0.46142318130E+02  0.10000003365E+02 0.  0.
         12    1    1    2    0    0  0.93271235010E+01  0.43683574290E+02 -0.58192404613E+01  0.45045681870E+02  0.00000000000E+00 0. -1.
         11    1    3    3    0    0 -0.21438483880E+01 -0.33230029904E+01  0.35224781287E+00  0.39702032149E+01  0.51100000000E-03 0. -1.
        -11    1    3    3    0    0 -0.69863887914E+01 -0.40597119182E+02  0.59275774041E+01  0.41618167768E+02  0.51100000000E-03 0.  1.
        -12    1    3    3    0    0 -0.19688632164E+00  0.23654788244E+00 -0.46058475567E+00  0.55394714684E+00  0.00000000000E+00 0.  1.
</event>
<event>
 7    1  0.1381440E-008  0.4614232E+02  0.7816164E-02  0.1320468E+00
        -11   -1    0    0    0    0  0.00000000000E+00  0.00000000000E+00  0.45593999997E+02  0.45594000000E+02  0.51100000000E-03 0. -1.
         11   -1    0    0    0    0 -0.00000000000E+00 -0.00000000000E+00 -0.45593999997E+02  0.45594000000E+02  0.51100000000E-03 0.  1.
    9900012    2    1    2    0    0 -0.86930402783E+01 -0.43977805332E+02  0.44155676327E+01  0.46142317092E+02  0.99999938983E+01 0.  0.
         12    1    1    2    0    0  0.86930402783E+01  0.43977805332E+02 -0.44155676327E+01  0.45045682908E+02  0.00000000000E+00 0. -1.
         11    1    3    3    0    0 -0.29315266798E+00  0.19107493490E+00  0.48198298438E-01  0.35323003069E+00  0.51100000000E-03 0. -1.
        -11    1    3    3    0    0 -0.25439629471E+01 -0.40172915914E+01 -0.10006251995E+01  0.48591799985E+01  0.51100000000E-03 0.  1.
        -12    1    3    3    0    0 -0.58559246633E+01 -0.40151588676E+02  0.53679945337E+01  0.40929907063E+02  0.00000000000E+00 0.  1.
</event>
<event>
 7    1  0.1381440E-008  0.4614232E+02  0.7816164E-02  0.1320468E+00
        -11   -1    0    0    0    0  0.00000000000E+00  0.00000000000E+00  0.45593999997E+02  0.45594000000E+02  0.51100000000E-03 0.  1.
         11   -1    0    0    0    0 -0.00000000000E+00 -0.00000000000E+00 -0.45593999997E+02  0.45594000000E+02  0.51100000000E-03 0. -1.
    9900012    2    1    2    0    0  0.36727906225E+02 -0.21689460234E+02  0.14482461890E+02  0.46142317817E+02  0.10000000510E+02 0.  0.
         12    1    1    2    0    0 -0.36727906225E+02  0.21689460234E+02 -0.14482461890E+02  0.45045682183E+02  0.00000000000E+00 0. -1.
         11    1    3    3    0    0  0.11868607108E+02 -0.32064459015E+01  0.46441481893E+01  0.13142041039E+02  0.51100000000E-03 0. -1.
        -11    1    3    3    0    0  0.96644246963E+01 -0.99843737565E+01  0.25571873277E+01  0.14128978424E+02  0.51100000000E-03 0.  1.
        -12    1    3    3    0    0  0.15194874421E+02 -0.84986405764E+01  0.72811263733E+01  0.18871298354E+02  0.00000000000E+00 0.  1.
</event>
<event>
 7    1  0.1381440E-008  0.4614232E+02  0.7816164E-02  0.1320468E+00
        -11   -1    0    0    0    0  0.00000000000E+00  0.00000000000E+00  0.45593999997E+02  0.45594000000E+02  0.51100000000E-03 0.  1.
         11   -1    0    0    0    0 -0.00000000000E+00 -0.00000000000E+00 -0.45593999997E+02  0.45594000000E+02  0.51100000000E-03 0. -1.
    9900012    2    1    2    0    0 -0.23761812686E+02 -0.10975262814E+02  0.36661058323E+02  0.46142319482E+02  0.10000015690E+02 0.  0.
         12    1    1    2    0    0  0.23761812686E+02  0.10975262814E+02 -0.36661058323E+02  0.45045680518E+02  0.00000000000E+00 0. -1.
         11    1    3    3    0    0 -0.72401373242E+01 -0.17883910090E+01  0.70877563513E+01  0.10288548062E+02  0.51100000000E-03 0. -1.
        -11    1    3    3    0    0 -0.15302758723E+00  0.56862867285E+00  0.35575355749E+01  0.36059417130E+01  0.51100000000E-03 0.  1.
        -12    1    3    3    0    0 -0.16368647775E+02 -0.97555004777E+01  0.26015766397E+02  0.32247829706E+02  0.00000000000E+00 0.  1.
</event>
<event>
 7    1  0.1381440E-008  0.4614232E+02  0.7816164E-02  0.1320468E+00
        -11   -1    0    0    0    0  0.00000000000E+00  0.00000000000E+00  0.45593999997E+02  0.45594000000E+02  0.51100000000E-03 0. -1.
         11   -1    0    0    0    0 -0.00000000000E+00 -0.00000000000E+00 -0.45593999997E+02  0.45594000000E+02  0.51100000000E-03 0.  1.
    9900012    2    1    2    0    0 -0.36456723894E+02 -0.19715376839E+02 -0.17644395447E+02  0.46142317724E+02  0.99999996620E+01 0.  0.
         12    1    1    2    0    0  0.36456723894E+02  0.19715376839E+02  0.17644395447E+02  0.45045682276E+02  0.00000000000E+00 0. -1.
         11    1    3    3    0    0 -0.33800907093E+02 -0.15285947783E+02 -0.15503858021E+02  0.40206108164E+02  0.51100000000E-03 0. -1.
        -11    1    3    3    0    0 -0.22802448542E+00 -0.13010223328E+01 -0.13680386398E+01  0.19016267398E+01  0.51100000000E-03 0.  1.
         12    1    3    3    0    0 -0.24277923164E+01 -0.31284067234E+01 -0.77249878600E+00  0.40345828202E+01  0.00000000000E+00 0. -1.
</event>
<event>
 7    1  0.1381440E-008  0.4614232E+02  0.7816164E-02  0.1320468E+00
        -11   -1    0    0    0    0  0.00000000000E+00  0.00000000000E+00  0.45593999997E+02  0.45594000000E+02  0.51100000000E-03 0.  1.
         11   -1    0    0    0    0 -0.00000000000E+00 -0.00000000000E+00 -0.45593999997E+02  0.45594000000E+02  0.51100000000E-03 0. -1.
    9900012    2    1    2    0    0 -0.24154720106E+02  0.21407583335E+02  0.31422576684E+02  0.46142318153E+02  0.10000003570E+02 0.  0.
         12    1    1    2    0    0  0.24154720106E+02 -0.21407583335E+02 -0.31422576684E+02  0.45045681847E+02  0.00000000000E+00 0. -1.
         11    1    3    3    0    0 -0.98389268923E+01  0.64708869138E+01  0.15832265890E+02  0.19731637117E+02  0.51100000000E-03 0. -1.
        -11    1    3    3    0    0 -0.42480147223E+01  0.79879734262E+01  0.74114997464E+01  0.11695455412E+02  0.51100000000E-03 0.  1.
         12    1    3    3    0    0 -0.10067778491E+02  0.69487229946E+01  0.81788110482E+01  0.14715225624E+02  0.00000000000E+00 0. -1.
</event>
<event>
 7    1  0.1381440E-008  0.4614232E+02  0.7816164E-02  0.1320468E+00
        -11   -1    0    0    0    0  0.00000000000E+00  0.00000000000E+00  0.45593999997E+02  0.45594000000E+02  0.51100000000E-03 0.  1.
         11   -1    0    0    0    0 -0.00000000000E+00 -0.00000000000E+00 -0.45593999997E+02  0.45594000000E+02  0.51100000000E-03 0. -1.
    9900012    2    1    2    0    0 -0.21085173480E+02  0.39781661032E+02 -0.13958607868E+01  0.46142317382E+02  0.99999965437E+01 0.  0.
         12    1    1    2    0    0  0.21085173480E+02 -0.39781661032E+02  0.13958607868E+01  0.45045682618E+02  0.00000000000E+00 0. -1.
         11    1    3    3    0    0 -0.13029887259E+01  0.16447673948E+01  0.11793405360E+01  0.24070487664E+01  0.51100000000E-03 0. -1.
        -11    1    3    3    0    0 -0.16318917852E+02  0.27053432947E+02  0.92338685059E+00  0.31607719905E+02  0.51100000000E-03 0.  1.
         12    1    3    3    0    0 -0.34632669023E+01  0.11083460691E+02 -0.34985881733E+01  0.12127548711E+02  0.00000000000E+00 0. -1.
</event>
<event>
 7    1  0.1381440E-008  0.4614232E+02  0.7816164E-02  0.1320468E+00
        -11   -1    0    0    0    0  0.00000000000E+00  0.00000000000E+00  0.45593999997E+02  0.45594000000E+02  0.51100000000E-03 0.  1.
         11   -1    0    0    0    0 -0.00000000000E+00 -0.00000000000E+00 -0.45593999997E+02  0.45594000000E+02  0.51100000000E-03 0. -1.
    9900012    2    1    2    0    0  0.35822517753E+00 -0.42337326432E+02  0.15379722034E+02  0.46142318914E+02  0.10000010509E+02 0.  0.
         12    1    1    2    0    0 -0.35822517753E+00  0.42337326432E+02 -0.15379722034E+02  0.45045681086E+02  0.00000000000E+00 0. -1.
         11    1    3    3    0    0 -0.26937251397E+01 -0.41608293178E+01  0.15251345092E+01  0.51860091855E+01  0.51100000000E-03 0. -1.
        -11    1    3    3    0    0 -0.51949768628E+00 -0.20546415608E+02  0.72724946247E+01  0.21801702927E+02  0.51100000000E-03 0.  1.
        -12    1    3    3    0    0  0.35714480035E+01 -0.17630081506E+02  0.65820929004E+01  0.19154606801E+02  0.00000000000E+00 0.  1.
</event>
<event>
 7    1  0.1381440E-008  0.4614232E+02  0.7816164E-02  0.1320468E+00
        -11   -1    0    0    0    0  0.00000000000E+00  0.00000000000E+00  0.45593999997E+02  0.45594000000E+02  0.51100000000E-03 0.  1.
         11   -1    0    0    0    0 -0.00000000000E+00 -0.00000000000E+00 -0.45593999997E+02  0.45594000000E+02  0.51100000000E-03 0. -1.
    9900012    2    1    2    0    0  0.44654080732E+02 -0.46519816067E+00 -0.59084777665E+01  0.46142318244E+02  0.10000004403E+02 0.  0.
         12    1    1    2    0    0 -0.44654080732E+02  0.46519816067E+00  0.59084777665E+01  0.45045681756E+02  0.00000000000E+00 0. -1.
         11    1    3    3    0    0  0.37288774118E+01 -0.18935995358E+01 -0.13127754326E+01  0.43833349806E+01  0.51100000000E-03 0. -1.
        -11    1    3    3    0    0  0.29057939029E+02  0.11659398412E+01 -0.63314843503E+01  0.29762576008E+02  0.51100000000E-03 0.  1.
        -12    1    3    3    0    0  0.11867264292E+02  0.26246153394E+00  0.17357820165E+01  0.11996407255E+02  0.00000000000E+00 0.  1.
</event>
<event>
 7    1  0.1381440E-008  0.4614232E+02  0.7816164E-02  0.1320468E+00
        -11   -1    0    0    0    0  0.00000000000E+00  0.00000000000E+00  0.45593999997E+02  0.45594000000E+02  0.51100000000E-03 0.  1.
         11   -1    0    0    0    0 -0.00000000000E+00 -0.00000000000E+00 -0.45593999997E+02  0.45594000000E+02  0.51100000000E-03 0. -1.
    9900012    2    1    2    0    0 -0.16409742487E+02 -0.21400483505E+02  0.36081201034E+02  0.46142318622E+02  0.10000007848E+02 0.  0.
         12    1    1    2    0    0  0.16409742487E+02  0.21400483505E+02 -0.36081201034E+02  0.45045681378E+02  0.00000000000E+00 0. -1.
         11    1    3    3    0    0 -0.50772328064E+00 -0.50119679976E+01  0.36956169425E+01  0.62478148969E+01  0.51100000000E-03 0. -1.
        -11    1    3    3    0    0 -0.13346776327E+02 -0.14893367945E+02  0.25556022403E+02  0.32450872537E+02  0.51100000000E-03 0.  1.
         12    1    3    3    0    0 -0.25552428795E+01 -0.14951475630E+01  0.68295616886E+01  0.74436311882E+01  0.00000000000E+00 0. -1.
</event>
<event>
 7    1  0.1381440E-008  0.4614232E+02  0.7816164E-02  0.1320468E+00
        -11   -1    0    0    0    0  0.00000000000E+00  0.00000000000E+00  0.45593999997E+02  0.45594000000E+02  0.51100000000E-03 0.  1.
         11   -1    0    0    0    0 -0.00000000000E+00 -0.00000000000E+00 -0.45593999997E+02  0.45594000000E+02  0.51100000000E-03 0. -1.
    9900012    2    1    2    0    0 -0.37093036488E+02  0.65746130694E+00  0.25549713218E+02  0.46142318112E+02  0.10000003198E+02 0.  0.
         12    1    1    2    0    0  0.37093036488E+02 -0.65746130694E+00 -0.25549713218E+02  0.45045681888E+02  0.00000000000E+00 0. -1.
         11    1    3    3    0    0 -0.31788650734E+01 -0.15622325320E+01  0.32879904414E+01  0.48328702696E+01  0.51100000000E-03 0. -1.
        -11    1    3    3    0    0 -0.24099738023E+02  0.28723375704E+01  0.19383982369E+02  0.31061012035E+02  0.51100000000E-03 0.  1.
        -12    1    3    3    0    0 -0.98144333919E+01 -0.65264373144E+00  0.28777404068E+01  0.10248435807E+02  0.00000000000E+00 0.  1.
</event>
<event>
 7    1  0.1381440E-008  0.4614232E+02  0.7816164E-02  0.1320468E+00
        -11   -1    0    0    0    0  0.00000000000E+00  0.00000000000E+00  0.45593999997E+02  0.45594000000E+02  0.51100000000E-03 0.  1.
         11   -1    0    0    0    0 -0.00000000000E+00 -0.00000000000E+00 -0.45593999997E+02  0.45594000000E+02  0.51100000000E-03 0. -1.
    9900012    2    1    2    0    0  0.13480933002E+02 -0.22438347111E+02  0.36659218838E+02  0.46142319835E+02  0.10000018914E+02 0.  0.
         12    1    1    2    0    0 -0.13480933002E+02  0.22438347111E+02 -0.36659218838E+02  0.45045680165E+02  0.00000000000E+00 0. -1.
         11    1    3    3    0    0 -0.28000609967E+00 -0.23907253322E+01  0.54608869238E+00  0.24682350275E+01  0.51100000000E-03 0. -1.
        -11    1    3    3    0    0  0.94532744123E+01 -0.14227928405E+02  0.28005056181E+02  0.32803681436E+02  0.51100000000E-03 0.  1.
         12    1    3    3    0    0  0.43076646893E+01 -0.58196933738E+01  0.81080739648E+01  0.10870403372E+02  0.00000000000E+00 0. -1.
</event>
<event>
 7    1  0.1381440E-008  0.4614231E+02  0.7816164E-02  0.1320468E+00
        -11   -1    0    0    0    0  0.00000000000E+00  0.00000000000E+00  0.45593999997E+02  0.45594000000E+02  0.51100000000E-03 0.  1.
         11   -1    0    0    0    0 -0.00000000000E+00 -0.00000000000E+00 -0.45593999997E+02  0.45594000000E+02  0.51100000000E-03 0. -1.
    9900012    2    1    2    0    0 -0.53969636165E+01 -0.25880426299E+01  0.44646265774E+02  0.46142309546E+02  0.99999250860E+01 0.  0.
         12    1    1    2    0    0  0.53969636165E+01  0.25880426299E+01 -0.44646265774E+02  0.45045690454E+02  0.00000000000E+00 0. -1.
         11    1    3    3    0    0 -0.84995808028E+00 -0.33389256428E+01  0.15741029883E+02  0.16113685960E+02  0.51100000000E-03 0. -1.
        -11    1    3    3    0    0 -0.22719792772E+01  0.18910532722E+01  0.25995789804E+02  0.26163315159E+02  0.51100000000E-03 0.  1.
        -12    1    3    3    0    0 -0.22750262590E+01 -0.11401702593E+01  0.29094460871E+01  0.38653084266E+01  0.00000000000E+00 0.  1.
</event>
<event>
 7    1  0.1381440E-008  0.4614232E+02  0.7816164E-02  0.1320468E+00
        -11   -1    0    0    0    0  0.00000000000E+00  0.00000000000E+00  0.45593999997E+02  0.45594000000E+02  0.51100000000E-03 0.  1.
         11   -1    0    0    0    0 -0.00000000000E+00 -0.00000000000E+00 -0.45593999997E+02  0.45594000000E+02  0.51100000000E-03 0. -1.
    9900012    2    1    2    0    0 -0.15114400092E+02 -0.38391441748E+02  0.18076646069E+02  0.46142322930E+02  0.10000047131E+02 0.  0.
         12    1    1    2    0    0  0.15114400092E+02  0.38391441748E+02 -0.18076646069E+02  0.45045677070E+02  0.00000000000E+00 0. -1.
         11    1    3    3    0    0 -0.11906922556E+00 -0.23697841638E+01 -0.10887790476E+01  0.26106502138E+01  0.51100000000E-03 0. -1.
        -11    1    3    3    0    0 -0.11931815133E+02 -0.30612405100E+02  0.15690884150E+02  0.36410045373E+02  0.51100000000E-03 0.  1.
         12    1    3    3    0    0 -0.30635157338E+01 -0.54092524840E+01  0.34745409660E+01  0.71216273429E+01  0.00000000000E+00 0. -1.
</event>
<event>
 7    1  0.1381440E-008  0.4614232E+02  0.7816164E-02  0.1320468E+00
        -11   -1    0    0    0    0  0.00000000000E+00  0.00000000000E+00  0.45593999997E+02  0.45594000000E+02  0.51100000000E-03 0. -1.
         11   -1    0    0    0    0 -0.00000000000E+00 -0.00000000000E+00 -0.45593999997E+02  0.45594000000E+02  0.51100000000E-03 0.  1.
    9900012    2    1    2    0    0 -0.17280368622E+02 -0.26786654497E+02 -0.31827308496E+02  0.46142316911E+02  0.99999922492E+01 0.  0.
         12    1    1    2    0    0  0.17280368622E+02  0.26786654497E+02  0.31827308496E+02  0.45045683089E+02  0.00000000000E+00 0. -1.
         11    1    3    3    0    0  0.63006418606E-01  0.39777992126E+00 -0.61280101353E+00  0.73329667792E+00  0.51100000000E-03 0. -1.
        -11    1    3    3    0    0 -0.11195830414E+02 -0.22565389038E+02 -0.25359402328E+02  0.35744128018E+02  0.51100000000E-03 0.  1.
        -12    1    3    3    0    0 -0.61475446261E+01 -0.46190453806E+01 -0.58551051544E+01  0.96648922149E+01  0.00000000000E+00 0.  1.
</event>
<event>
 7    1  0.1381440E-008  0.4614232E+02  0.7816164E-02  0.1320468E+00
        -11   -1    0    0    0    0  0.00000000000E+00  0.00000000000E+00  0.45593999997E+02  0.45594000000E+02  0.51100000000E-03 0.  1.
         11   -1    0    0    0    0 -0.00000000000E+00 -0.00000000000E+00 -0.45593999997E+02  0.45594000000E+02  0.51100000000E-03 0. -1.
    9900012    2    1    2    0    0  0.25636728215E+02  0.28615610733E+02  0.23516344811E+02  0.46142317804E+02  0.10000000394E+02 0.  0.
         12    1    1    2    0    0 -0.25636728215E+02 -0.28615610733E+02 -0.23516344811E+02  0.45045682196E+02  0.00000000000E+00 0. -1.
         11    1    3    3    0    0  0.38189190700E+01  0.69477160166E+01  0.28576917159E+01  0.84274137738E+01  0.51100000000E-03 0. -1.
        -11    1    3    3    0    0  0.89713339760E+01  0.82446254491E+01  0.12392499921E+02  0.17379089063E+02  0.51100000000E-03 0.  1.
        -12    1    3    3    0    0  0.12846475169E+02  0.13423269267E+02  0.82661531744E+01  0.20335814967E+02  0.00000000000E+00 0.  1.
</event>
<event>
 7    1  0.1381440E-008  0.4614232E+02  0.7816164E-02  0.1320468E+00
        -11   -1    0    0    0    0  0.00000000000E+00  0.00000000000E+00  0.45593999997E+02  0.45594000000E+02  0.51100000000E-03 0.  1.
         11   -1    0    0    0    0 -0.00000000000E+00 -0.00000000000E+00 -0.45593999997E+02  0.45594000000E+02  0.51100000000E-03 0. -1.
    9900012    2    1    2    0    0 -0.82804780728E+01  0.43634429883E+02 -0.75222109438E+01  0.46142318233E+02  0.10000004303E+02 0.  0.
         12    1    1    2    0    0  0.82804780728E+01 -0.43634429883E+02  0.75222109438E+01  0.45045681767E+02  0.00000000000E+00 0. -1.
         11    1    3    3    0    0  0.14363068416E+01  0.37756807605E+01 -0.11850377914E+01  0.42098761712E+01  0.51100000000E-03 0. -1.
        -11    1    3    3    0    0 -0.21159013747E+01  0.19088343875E+02 -0.45894513467E+01  0.19746011609E+02  0.51100000000E-03 0.  1.
         12    1    3    3    0    0 -0.76008835397E+01  0.20770405248E+02 -0.17477218057E+01  0.22186430453E+02  0.00000000000E+00 0. -1.
</event>
<event>
 7    1  0.1381440E-008  0.4614232E+02  0.7816164E-02  0.1320468E+00
        -11   -1    0    0    0    0  0.00000000000E+00  0.00000000000E+00  0.45593999997E+02  0.45594000000E+02  0.51100000000E-03 0.  1.
         11   -1    0    0    0    0 -0.00000000000E+00 -0.00000000000E+00 -0.45593999997E+02  0.45594000000E+02  0.51100000000E-03 0. -1.
    9900012    2    1    2    0    0  0.33215805465E+02 -0.27806860459E+02  0.12353227965E+02  0.46142318048E+02  0.10000002620E+02 0.  0.
         12    1    1    2    0    0 -0.33215805465E+02  0.27806860459E+02 -0.12353227965E+02  0.45045681952E+02  0.00000000000E+00 0. -1.
         11    1    3    3    0    0  0.20170148848E+02 -0.20947813455E+02  0.61055881083E+01  0.29714037079E+02  0.51100000000E-03 0. -1.
        -11    1    3    3    0    0  0.98097330517E+01 -0.34088036754E+01  0.35062363382E+01  0.10961044593E+02  0.51100000000E-03 0.  1.
         12    1    3    3    0    0  0.32359235655E+01 -0.34502433286E+01  0.27414035185E+01  0.54672363768E+01  0.00000000000E+00 0. -1.
</event>
<event>
 7    1  0.1381440E-008  0.4614232E+02  0.7816164E-02  0.1320468E+00
        -11   -1    0    0    0    0  0.00000000000E+00  0.00000000000E+00  0.45593999997E+02  0.45594000000E+02  0.51100000000E-03 0. -1.
         11   -1    0    0    0    0 -0.00000000000E+00 -0.00000000000E+00 -0.45593999997E+02  0.45594000000E+02  0.51100000000E-03 0.  1.
    9900012    2    1    2    0    0  0.22277483161E+02  0.90695494087E+01 -0.38086357157E+02  0.46142316700E+02  0.99999903284E+01 0.  0.
         12    1    1    2    0    0 -0.22277483161E+02 -0.90695494087E+01  0.38086357157E+02  0.45045683300E+02  0.00000000000E+00 0. -1.
         11    1    3    3    0    0  0.18762234137E+01  0.34563128878E+01 -0.57216413566E+01  0.69428735514E+01  0.51100000000E-03 0. -1.
        -11    1    3    3    0    0  0.16349417070E+02  0.36380943121E+01 -0.29297213583E+02  0.33747087174E+02  0.51100000000E-03 0.  1.
        -12    1    3    3    0    0  0.40518426777E+01  0.19751422087E+01 -0.30675022174E+01  0.54523559754E+01  0.00000000000E+00 0.  1.
</event>
<event>
 7    1  0.1381440E-008  0.4614232E+02  0.7816164E-02  0.1320468E+00
        -11   -1    0    0    0    0  0.00000000000E+00  0.00000000000E+00  0.45593999997E+02  0.45594000000E+02  0.51100000000E-03 0.  1.
         11   -1    0    0    0    0 -0.00000000000E+00 -0.00000000000E+00 -0.45593999997E+02  0.45594000000E+02  0.51100000000E-03 0. -1.
    9900012    2    1    2    0    0 -0.13171324925E+02 -0.33634817478E+02  0.26913353468E+02  0.46142319387E+02  0.10000014825E+02 0.  0.
         12    1    1    2    0    0  0.13171324925E+02  0.33634817478E+02 -0.26913353468E+02  0.45045680613E+02  0.00000000000E+00 0. -1.
         11    1    3    3    0    0  0.70958187628E-01 -0.18751953723E+01 -0.35160803058E+00  0.19091938657E+01  0.51100000000E-03 0. -1.
        -11    1    3    3    0    0 -0.89616578655E+01 -0.18635175303E+02  0.19352816859E+02  0.28321592309E+02  0.51100000000E-03 0.  1.
        -12    1    3    3    0    0 -0.42806252466E+01 -0.13124446803E+02  0.79121446394E+01  0.15911533212E+02  0.00000000000E+00 0.  1.
</event>
<event>
 7    1  0.1381440E-008  0.4614232E+02  0.7816164E-02  0.1320468E+00
        -11   -1    0    0    0    0  0.00000000000E+00  0.00000000000E+00  0.45593999997E+02  0.45594000000E+02  0.51100000000E-03 0.  1.
         11   -1    0    0    0    0 -0.00000000000E+00 -0.00000000000E+00 -0.45593999997E+02  0.45594000000E+02  0.51100000000E-03 0. -1.
    9900012    2    1    2    0    0  0.12782950422E+00 -0.74185307721E+01  0.44430423000E+02  0.46142318441E+02  0.10000006199E+02 0.  0.
         12    1    1    2    0    0 -0.12782950422E+00  0.74185307721E+01 -0.44430423000E+02  0.45045681559E+02  0.00000000000E+00 0. -1.
         11    1    3    3    0    0 -0.54879562537E+00 -0.56554378495E+01  0.10863921787E+02  0.12260095871E+02  0.51100000000E-03 0. -1.
        -11    1    3    3    0    0  0.57396567305E+00 -0.14545539191E+01  0.33516823206E+02  0.33553280045E+02  0.51100000000E-03 0.  1.
        -12    1    3    3    0    0  0.10265945654E+00 -0.30853900349E+00  0.49678006993E-01  0.32894252548E+00  0.00000000000E+00 0.  1.
</event>
<event>
 7    1  0.1381440E-008  0.4614232E+02  0.7816164E-02  0.1320468E+00
        -11   -1    0    0    0    0  0.00000000000E+00  0.00000000000E+00  0.45593999997E+02  0.45594000000E+02  0.51100000000E-03 0.  1.
         11   -1    0    0    0    0 -0.00000000000E+00 -0.00000000000E+00 -0.45593999997E+02  0.45594000000E+02  0.51100000000E-03 0. -1.
    9900012    2    1    2    0    0 -0.37417072346E+02  0.28424150720E+01  0.24919809482E+02  0.46142317287E+02  0.99999956803E+01 0.  0.
         12    1    1    2    0    0  0.37417072346E+02 -0.28424150720E+01 -0.24919809482E+02  0.45045682713E+02  0.00000000000E+00 0. -1.
         11    1    3    3    0    0 -0.21426108621E+02  0.26375149861E+01  0.10030189851E+02  0.23804187124E+02  0.51100000000E-03 0. -1.
        -11    1    3    3    0    0 -0.95843784099E+01 -0.21549485800E+01  0.86622628752E+01  0.13097286409E+02  0.51100000000E-03 0.  1.
        -12    1    3    3    0    0 -0.64065853157E+01  0.23598486659E+01  0.62273567561E+01  0.92408437548E+01  0.00000000000E+00 0.  1.
</event>
<event>
 7    1  0.1381440E-008  0.4614232E+02  0.7816164E-02  0.1320468E+00
        -11   -1    0    0    0    0  0.00000000000E+00  0.00000000000E+00  0.45593999997E+02  0.45594000000E+02  0.51100000000E-03 0. -1.
         11   -1    0    0    0    0 -0.00000000000E+00 -0.00000000000E+00 -0.45593999997E+02  0.45594000000E+02  0.51100000000E-03 0.  1.
    9900012    2    1    2    0    0 -0.32291584542E+02  0.35745469420E+01 -0.31202398965E+02  0.46142317419E+02  0.99999968793E+01 0.  0.
         12    1    1    2    0    0  0.32291584542E+02 -0.35745469420E+01  0.31202398965E+02  0.45045682581E+02  0.00000000000E+00 0. -1.
         11    1    3    3    0    0 -0.87337427133E+01  0.11679122555E+01 -0.14000730799E+02  0.16542755030E+02  0.51100000000E-03 0.  1.
        -11    1    3    3    0    0 -0.11830127356E+02  0.32392811579E+01 -0.76933318948E+01  0.14478681280E+02  0.51100000000E-03 0. -1.
         12    1    3    3    0    0 -0.11727714472E+02 -0.83264647144E+00 -0.95083362708E+01  0.15120881109E+02  0.00000000000E+00 0. -1.
</event>
<event>
 7    1  0.1381440E-008  0.4614232E+02  0.7816164E-02  0.1320468E+00
        -11   -1    0    0    0    0  0.00000000000E+00  0.00000000000E+00  0.45593999997E+02  0.45594000000E+02  0.51100000000E-03 0. -1.
         11   -1    0    0    0    0 -0.00000000000E+00 -0.00000000000E+00 -0.45593999997E+02  0.45594000000E+02  0.51100000000E-03 0.  1.
    9900012    2    1    2    0    0  0.31846425758E+02 -0.31857700357E+02  0.75185796349E-01  0.46142316983E+02  0.99999929049E+01 0.  0.
         12    1    1    2    0    0 -0.31846425758E+02  0.31857700357E+02 -0.75185796349E-01  0.45045683017E+02  0.00000000000E+00 0. -1.
         11    1    3    3    0    0  0.12425342876E+01 -0.64051319263E+00  0.10207926049E+01  0.17309437915E+01  0.51100000000E-03 0. -1.
        -11    1    3    3    0    0  0.15953124486E+02 -0.20772910962E+02 -0.27144729306E+01  0.26332192736E+02  0.51100000000E-03 0.  1.
        -12    1    3    3    0    0  0.14650766984E+02 -0.10444276202E+02  0.17688661220E+01  0.18079180456E+02  0.00000000000E+00 0.  1.
</event>
<event>
 7    1  0.1381440E-008  0.4614232E+02  0.7816164E-02  0.1320468E+00
        -11   -1    0    0    0    0  0.00000000000E+00  0.00000000000E+00  0.45593999997E+02  0.45594000000E+02  0.51100000000E-03 0.  1.
         11   -1    0    0    0    0 -0.00000000000E+00 -0.00000000000E+00 -0.45593999997E+02  0.45594000000E+02  0.51100000000E-03 0. -1.
    9900012    2    1    2    0    0  0.40040704907E+02 -0.20530577470E+02 -0.20858477924E+01  0.46142318501E+02  0.10000006746E+02 0.  0.
         12    1    1    2    0    0 -0.40040704907E+02  0.20530577470E+02  0.20858477924E+01  0.45045681499E+02  0.00000000000E+00 0. -1.
         11    1    3    3    0    0  0.11239815958E+02 -0.68971855653E+01  0.34706808579E+01  0.13636357921E+02  0.51100000000E-03 0. -1.
        -11    1    3    3    0    0  0.18194748526E+02 -0.89397947854E+01 -0.50736960866E+01  0.20897636158E+02  0.51100000000E-03 0.  1.
         12    1    3    3    0    0  0.10606140423E+02 -0.46935971191E+01 -0.48283256364E+00  0.11608324422E+02  0.00000000000E+00 0. -1.
</event>
<event>
 7    1  0.1381440E-008  0.4614232E+02  0.7816164E-02  0.1320468E+00
        -11   -1    0    0    0    0  0.00000000000E+00  0.00000000000E+00  0.45593999997E+02  0.45594000000E+02  0.51100000000E-03 0.  1.
         11   -1    0    0    0    0 -0.00000000000E+00 -0.00000000000E+00 -0.45593999997E+02  0.45594000000E+02  0.51100000000E-03 0. -1.
    9900012    2    1    2    0    0 -0.42777179996E+02 -0.13652280790E+02  0.35835147264E+01  0.46142317888E+02  0.10000001154E+02 0.  0.
         12    1    1    2    0    0  0.42777179996E+02  0.13652280790E+02 -0.35835147264E+01  0.45045682112E+02  0.00000000000E+00 0. -1.
         11    1    3    3    0    0 -0.55509629691E+01 -0.35237974637E+01 -0.23596778204E+01  0.69855864555E+01  0.51100000000E-03 0. -1.
        -11    1    3    3    0    0 -0.19567100252E+02 -0.37366391009E+01  0.32617961594E+01  0.20185965384E+02  0.51100000000E-03 0.  1.
         12    1    3    3    0    0 -0.17659116775E+02 -0.63918442251E+01  0.26813963874E+01  0.18970766048E+02  0.00000000000E+00 0. -1.
</event>
<event>
 7    1  0.1381440E-008  0.4614232E+02  0.7816164E-02  0.1320468E+00
        -11   -1    0    0    0    0  0.00000000000E+00  0.00000000000E+00  0.45593999997E+02  0.45594000000E+02  0.51100000000E-03 0. -1.
         11   -1    0    0    0    0 -0.00000000000E+00 -0.00000000000E+00 -0.45593999997E+02  0.45594000000E+02  0.51100000000E-03 0.  1.
    9900012    2    1    2    0    0  0.15193747203E+02 -0.28874750552E+02 -0.31056598658E+02  0.46142317702E+02  0.99999994576E+01 0.  0.
         12    1    1    2    0    0 -0.15193747203E+02  0.28874750552E+02  0.31056598658E+02  0.45045682298E+02  0.00000000000E+00 0. -1.
         11    1    3    3    0    0  0.69313853155E+01 -0.54323560996E+01 -0.11121202892E+02  0.14185758676E+02  0.51100000000E-03 0. -1.
        -11    1    3    3    0    0  0.36516364633E+01 -0.13764946611E+02 -0.10819384792E+02  0.17884834123E+02  0.51100000000E-03 0.  1.
         12    1    3    3    0    0  0.46107254240E+01 -0.96774478416E+01 -0.91160109737E+01  0.14071724903E+02  0.00000000000E+00 0. -1.
</event>
<event>
 7    1  0.1381440E-008  0.4614232E+02  0.7816164E-02  0.1320468E+00
        -11   -1    0    0    0    0  0.00000000000E+00  0.00000000000E+00  0.45593999997E+02  0.45594000000E+02  0.51100000000E-03 0. -1.
         11   -1    0    0    0    0 -0.00000000000E+00 -0.00000000000E+00 -0.45593999997E+02  0.45594000000E+02  0.51100000000E-03 0.  1.
    9900012    2    1    2    0    0  0.12930136937E+02 -0.43149984588E+02 -0.62461200627E-01  0.46142317493E+02  0.99999975540E+01 0.  0.
         12    1    1    2    0    0 -0.12930136937E+02  0.43149984588E+02  0.62461200627E-01  0.45045682507E+02  0.00000000000E+00 0. -1.
         11    1    3    3    0    0 -0.10421751416E+01 -0.10930884621E+02 -0.42304756595E+00  0.10988600326E+02  0.51100000000E-03 0. -1.
        -11    1    3    3    0    0  0.73910534293E+01 -0.15210857072E+02 -0.65584611771E-01  0.16911597952E+02  0.51100000000E-03 0.  1.
         12    1    3    3    0    0  0.65812586491E+01 -0.17008242895E+02  0.42617097709E+00  0.18242119216E+02  0.00000000000E+00 0. -1.
</event>
<event>
 7    1  0.1381440E-008  0.4614232E+02  0.7816164E-02  0.1320468E+00
        -11   -1    0    0    0    0  0.00000000000E+00  0.00000000000E+00  0.45593999997E+02  0.45594000000E+02  0.51100000000E-03 0. -1.
         11   -1    0    0    0    0 -0.00000000000E+00 -0.00000000000E+00 -0.45593999997E+02  0.45594000000E+02  0.51100000000E-03 0.  1.
    9900012    2    1    2    0    0 -0.41744519706E+02  0.73236756443E+01 -0.15260153541E+02  0.46142318336E+02  0.10000005244E+02 0.  0.
         12    1    1    2    0    0  0.41744519706E+02 -0.73236756443E+01  0.15260153541E+02  0.45045681664E+02  0.00000000000E+00 0. -1.
         11    1    3    3    0    0 -0.85910166461E+01  0.21018710200E+01  0.45371939785E-01  0.88445173793E+01  0.51100000000E-03 0. -1.
        -11    1    3    3    0    0 -0.21185832146E+02  0.12915073336E+01 -0.76739579086E+01  0.22569827317E+02  0.51100000000E-03 0.  1.
         12    1    3    3    0    0 -0.11967670915E+02  0.39302972907E+01 -0.76315675722E+01  0.14727973639E+02  0.00000000000E+00 0. -1.
</event>
<event>
 7    1  0.1381440E-008  0.4614232E+02  0.7816164E-02  0.1320468E+00
        -11   -1    0    0    0    0  0.00000000000E+00  0.00000000000E+00  0.45593999997E+02  0.45594000000E+02  0.51100000000E-03 0.  1.
         11   -1    0    0    0    0 -0.00000000000E+00 -0.00000000000E+00 -0.45593999997E+02  0.45594000000E+02  0.51100000000E-03 0. -1.
    9900012    2    1    2    0    0  0.39164314961E+02  0.59695707225E+00  0.22246655114E+02  0.46142316657E+02  0.99999899276E+01 0.  0.
         12    1    1    2    0    0 -0.39164314961E+02 -0.59695707225E+00 -0.22246655114E+02  0.45045683343E+02  0.00000000000E+00 0. -1.
         11    1    3    3    0    0  0.73709899195E+01  0.13587700704E+01  0.82903817667E+01  0.11176232755E+02  0.51100000000E-03 0. -1.
        -11    1    3    3    0    0  0.53069224149E+01  0.11412669595E+01  0.33026476531E+01  0.63540064189E+01  0.51100000000E-03 0.  1.
         12    1    3    3    0    0  0.26486402627E+02 -0.19030799577E+01  0.10653625694E+02  0.28612077482E+02  0.00000000000E+00 0. -1.
</event>
<event>
 7    1  0.1381440E-008  0.4614232E+02  0.7816164E-02  0.1320468E+00
        -11   -1    0    0    0    0  0.00000000000E+00  0.00000000000E+00  0.45593999997E+02  0.45594000000E+02  0.51100000000E-03 0.  1.
         11   -1    0    0    0    0 -0.00000000000E+00 -0.00000000000E+00 -0.45593999997E+02  0.45594000000E+02  0.51100000000E-03 0. -1.
    9900012    2    1    2    0    0  0.48895514444E+01 -0.38527117350E+02  0.22822510430E+02  0.46142317999E+02  0.10000002165E+02 0.  0.
         12    1    1    2    0    0 -0.48895514444E+01  0.38527117350E+02 -0.22822510430E+02  0.45045682001E+02  0.00000000000E+00 0. -1.
         11    1    3    3    0    0  0.18711671231E+01 -0.30751296131E+02  0.14305087673E+02  0.33967322735E+02  0.51100000000E-03 0. -1.
        -11    1    3    3    0    0  0.22841119780E+01 -0.26515840545E+01  0.38774453569E+01  0.52232794567E+01  0.51100000000E-03 0.  1.
         12    1    3    3    0    0  0.73427234337E+00 -0.51242371644E+01  0.46399774001E+01  0.69517158073E+01  0.00000000000E+00 0. -1.
</event>
<event>
 7    1  0.1381440E-008  0.4614232E+02  0.7816164E-02  0.1320468E+00
        -11   -1    0    0    0    0  0.00000000000E+00  0.00000000000E+00  0.45593999997E+02  0.45594000000E+02  0.51100000000E-03 0.  1.
         11   -1    0    0    0    0 -0.00000000000E+00 -0.00000000000E+00 -0.45593999997E+02  0.45594000000E+02  0.51100000000E-03 0. -1.
    9900012    2    1    2    0    0  0.20894815545E+00  0.23505339554E+02  0.38426147953E+02  0.46142317705E+02  0.99999994879E+01 0.  0.
         12    1    1    2    0    0 -0.20894815545E+00 -0.23505339554E+02 -0.38426147953E+02  0.45045682295E+02  0.00000000000E+00 0. -1.
         11    1    3    3    0    0 -0.21485327922E+01  0.10639392264E+02  0.22735874548E+02  0.25193905069E+02  0.51100000000E-03 0. -1.
        -11    1    3    3    0    0 -0.10682777666E+01  0.55714875720E+01  0.80141223619E+01  0.98188007743E+01  0.51100000000E-03 0.  1.
         12    1    3    3    0    0  0.34257587143E+01  0.72944597180E+01  0.76761510434E+01  0.11129611861E+02  0.00000000000E+00 0. -1.
</event>
<event>
 7    1  0.1381440E-008  0.4614232E+02  0.7816164E-02  0.1320468E+00
        -11   -1    0    0    0    0  0.00000000000E+00  0.00000000000E+00  0.45593999997E+02  0.45594000000E+02  0.51100000000E-03 0.  1.
         11   -1    0    0    0    0 -0.00000000000E+00 -0.00000000000E+00 -0.45593999997E+02  0.45594000000E+02  0.51100000000E-03 0. -1.
    9900012    2    1    2    0    0  0.16489009124E+02 -0.33099070786E+02  0.25723093981E+02  0.46142317934E+02  0.10000001580E+02 0.  0.
         12    1    1    2    0    0 -0.16489009124E+02  0.33099070786E+02 -0.25723093981E+02  0.45045682066E+02  0.00000000000E+00 0. -1.
         11    1    3    3    0    0 -0.99534443570E+00 -0.13543979420E+01  0.67354566726E+00  0.18107369654E+01  0.51100000000E-03 0. -1.
        -11    1    3    3    0    0  0.19903750679E+01 -0.59947186633E+01  0.62372190198E+01  0.88770009646E+01  0.51100000000E-03 0.  1.
         12    1    3    3    0    0  0.15493978492E+02 -0.25749954181E+02  0.18812329294E+02  0.35454580004E+02  0.00000000000E+00 0. -1.
</event>
<event>
 7    1  0.1381440E-008  0.4614232E+02  0.7816164E-02  0.1320468E+00
        -11   -1    0    0    0    0  0.00000000000E+00  0.00000000000E+00  0.45593999997E+02  0.45594000000E+02  0.51100000000E-03 0.  1.
         11   -1    0    0    0    0 -0.00000000000E+00 -0.00000000000E+00 -0.45593999997E+02  0.45594000000E+02  0.51100000000E-03 0. -1.
    9900012    2    1    2    0    0  0.37307782678E+02 -0.17976132246E+02  0.17722912931E+02  0.46142316282E+02  0.99999865118E+01 0.  0.
         12    1    1    2    0    0 -0.37307782678E+02  0.17976132246E+02 -0.17722912931E+02  0.45045683718E+02  0.00000000000E+00 0. -1.
         11    1    3    3    0    0  0.15754988960E+02 -0.10859461457E+02  0.11312576339E+02  0.22228854310E+02  0.51100000000E-03 0. -1.
        -11    1    3    3    0    0  0.92412901679E+01 -0.47410028141E+01  0.17286719675E+01  0.10529333250E+02  0.51100000000E-03 0.  1.
         12    1    3    3    0    0  0.12311503550E+02 -0.23756679750E+01  0.46816646248E+01  0.13384128722E+02  0.00000000000E+00 0. -1.
</event>
<event>
 7    1  0.1381440E-008  0.4614232E+02  0.7816164E-02  0.1320468E+00
        -11   -1    0    0    0    0  0.00000000000E+00  0.00000000000E+00  0.45593999997E+02  0.45594000000E+02  0.51100000000E-03 0.  1.
         11   -1    0    0    0    0 -0.00000000000E+00 -0.00000000000E+00 -0.45593999997E+02  0.45594000000E+02  0.51100000000E-03 0. -1.
    9900012    2    1    2    0    0  0.14547921966E+02  0.15215316163E+02  0.39824183931E+02  0.46142317574E+02  0.99999982908E+01 0.  0.
         12    1    1    2    0    0 -0.14547921966E+02 -0.15215316163E+02 -0.39824183931E+02  0.45045682426E+02  0.00000000000E+00 0. -1.
         11    1    3    3    0    0 -0.12628526033E+00  0.78322060590E+00  0.31886956320E+00  0.85502078567E+00  0.51100000000E-03 0. -1.
        -11    1    3    3    0    0  0.15488588931E+02  0.13558931609E+02  0.38738922738E+02  0.43868498363E+02  0.51100000000E-03 0.  1.
        -12    1    3    3    0    0 -0.81438170466E+00  0.87316394785E+00  0.76639163029E+00  0.14187984253E+01  0.00000000000E+00 0.  1.
</event>
<event>
 7    1  0.1381440E-008  0.4614232E+02  0.7816164E-02  0.1320468E+00
        -11   -1    0    0    0    0  0.00000000000E+00  0.00000000000E+00  0.45593999997E+02  0.45594000000E+02  0.51100000000E-03 0. -1.
         11   -1    0    0    0    0 -0.00000000000E+00 -0.00000000000E+00 -0.45593999997E+02  0.45594000000E+02  0.51100000000E-03 0.  1.
    9900012    2    1    2    0    0 -0.21804734364E+02  0.27130703255E+02 -0.28593566673E+02  0.46142317023E+02  0.99999932671E+01 0.  0.
         12    1    1    2    0    0  0.21804734364E+02 -0.27130703255E+02  0.28593566673E+02  0.45045682977E+02  0.00000000000E+00 0. -1.
         11    1    3    3    0    0 -0.97410704055E+01  0.15856761220E+02 -0.18887605692E+02  0.26515410200E+02  0.51100000000E-03 0. -1.
        -11    1    3    3    0    0 -0.21040721961E+00  0.13892010499E+01 -0.18072198413E+01  0.22891471274E+01  0.51100000000E-03 0.  1.
         12    1    3    3    0    0 -0.11853256739E+02  0.98847409852E+01 -0.78987411395E+01  0.17337759695E+02  0.00000000000E+00 0. -1.
</event>
<event>
 7    1  0.1381440E-008  0.4614232E+02  0.7816164E-02  0.1320468E+00
        -11   -1    0    0    0    0  0.00000000000E+00  0.00000000000E+00  0.45593999997E+02  0.45594000000E+02  0.51100000000E-03 0.  1.
         11   -1    0    0    0    0 -0.00000000000E+00 -0.00000000000E+00 -0.45593999997E+02  0.45594000000E+02  0.51100000000E-03 0. -1.
    9900012    2    1    2    0    0 -0.37288094499E+01  0.19457077793E+02  0.40455306481E+02  0.46142315205E+02  0.99999766921E+01 0.  0.
         12    1    1    2    0    0  0.37288094499E+01 -0.19457077793E+02 -0.40455306481E+02  0.45045684795E+02  0.00000000000E+00 0. -1.
         11    1    3    3    0    0 -0.11221112239E+01  0.58571303623E+01  0.63084600808E+01  0.86811162031E+01  0.51100000000E-03 0. -1.
        -11    1    3    3    0    0 -0.65782386765E+00  0.13215719727E+02  0.27395500249E+02  0.30423698235E+02  0.51100000000E-03 0.  1.
         12    1    3    3    0    0 -0.19488743583E+01  0.38422770440E+00  0.67513461507E+01  0.70375007666E+01  0.00000000000E+00 0. -1.
</event>
<event>
 7    1  0.1381440E-008  0.4614232E+02  0.7816164E-02  0.1320468E+00
        -11   -1    0    0    0    0  0.00000000000E+00  0.00000000000E+00  0.45593999997E+02  0.45594000000E+02  0.51100000000E-03 0.  1.
         11   -1    0    0    0    0 -0.00000000000E+00 -0.00000000000E+00 -0.45593999997E+02  0.45594000000E+02  0.51100000000E-03 0. -1.
    9900012    2    1    2    0    0  0.27444744332E+02  0.30084514255E+01  0.35592820565E+02  0.46142315998E+02  0.99999839219E+01 0.  0.
         12    1    1    2    0    0 -0.27444744332E+02 -0.30084514255E+01 -0.35592820565E+02  0.45045684002E+02  0.00000000000E+00 0. -1.
         11    1    3    3    0    0  0.26417346000E+01  0.30001125603E+01  0.51517416347E+01  0.65207268922E+01  0.51100000000E-03 0. -1.
        -11    1    3    3    0    0  0.20055003831E+02  0.14892765361E+01  0.21858994152E+02  0.29702470417E+02  0.51100000000E-03 0.  1.
         12    1    3    3    0    0  0.47480059014E+01 -0.14809376709E+01  0.85820847784E+01  0.99191186891E+01  0.00000000000E+00 0. -1.
</event>
<event>
 7    1  0.1381440E-008  0.4614232E+02  0.7816164E-02  0.1320468E+00
        -11   -1    0    0    0    0  0.00000000000E+00  0.00000000000E+00  0.45593999997E+02  0.45594000000E+02  0.51100000000E-03 0. -1.
         11   -1    0    0    0    0 -0.00000000000E+00 -0.00000000000E+00 -0.45593999997E+02  0.45594000000E+02  0.51100000000E-03 0.  1.
    9900012    2    1    2    0    0  0.17758374377E+02 -0.27769689573E+02  0.30701758050E+02  0.46142318000E+02  0.10000002177E+02 0.  0.
         12    1    1    2    0    0 -0.17758374377E+02  0.27769689573E+02 -0.30701758050E+02  0.45045682000E+02  0.00000000000E+00 0. -1.
         11    1    3    3    0    0  0.23839368978E+00 -0.55422070160E+00 -0.39961056954E+00  0.72365807245E+00  0.51100000000E-03 0. -1.
        -11    1    3    3    0    0  0.12927834735E+02 -0.20968228576E+02  0.27341949543E+02  0.36801871224E+02  0.51100000000E-03 0.  1.
        -12    1    3    3    0    0  0.45921459527E+01 -0.62472402956E+01  0.37594190764E+01  0.86167887031E+01  0.00000000000E+00 0.  1.
</event>
<event>
 7    1  0.1381440E-008  0.4614232E+02  0.7816164E-02  0.1320468E+00
        -11   -1    0    0    0    0  0.00000000000E+00  0.00000000000E+00  0.45593999997E+02  0.45594000000E+02  0.51100000000E-03 0.  1.
         11   -1    0    0    0    0 -0.00000000000E+00 -0.00000000000E+00 -0.45593999997E+02  0.45594000000E+02  0.51100000000E-03 0. -1.
    9900012    2    1    2    0    0  0.41312254281E+02  0.11871249054E+02  0.13471620772E+02  0.46142317920E+02  0.10000001446E+02 0.  0.
         12    1    1    2    0    0 -0.41312254281E+02 -0.11871249054E+02 -0.13471620772E+02  0.45045682080E+02  0.00000000000E+00 0. -1.
         11    1    3    3    0    0  0.77987969011E+01  0.28216808935E+01 -0.97500700331E+00  0.83506739301E+01  0.51100000000E-03 0. -1.
        -11    1    3    3    0    0  0.17775032409E+02  0.60317053237E+01  0.61923311789E+01  0.19765581498E+02  0.51100000000E-03 0.  1.
         12    1    3    3    0    0  0.15738424971E+02  0.30178628367E+01  0.82542965966E+01  0.18026062492E+02  0.00000000000E+00 0. -1.
</event>
<event>
 7    1  0.1381440E-008  0.4614232E+02  0.7816164E-02  0.1320468E+00
        -11   -1    0    0    0    0  0.00000000000E+00  0.00000000000E+00  0.45593999997E+02  0.45594000000E+02  0.51100000000E-03 0.  1.
         11   -1    0    0    0    0 -0.00000000000E+00 -0.00000000000E+00 -0.45593999997E+02  0.45594000000E+02  0.51100000000E-03 0. -1.
    9900012    2    1    2    0    0  0.67103849642E+01  0.82020961047E+01  0.43781386731E+02  0.46142317954E+02  0.10000001761E+02 0.  0.
         12    1    1    2    0    0 -0.67103849642E+01 -0.82020961047E+01 -0.43781386731E+02  0.45045682046E+02  0.00000000000E+00 0. -1.
         11    1    3    3    0    0 -0.48049781449E+00  0.55157119203E+00  0.17529034473E+02  0.17544291344E+02  0.51100000000E-03 0. -1.
        -11    1    3    3    0    0  0.53356765828E+01  0.30357704977E+01  0.11595247693E+02  0.13120027303E+02  0.51100000000E-03 0.  1.
         12    1    3    3    0    0  0.18552061959E+01  0.46147544150E+01  0.14657104565E+02  0.15477999308E+02  0.00000000000E+00 0. -1.
</event>
<event>
 7    1  0.1381440E-008  0.4614232E+02  0.7816164E-02  0.1320468E+00
        -11   -1    0    0    0    0  0.00000000000E+00  0.00000000000E+00  0.45593999997E+02  0.45594000000E+02  0.51100000000E-03 0.  1.
         11   -1    0    0    0    0 -0.00000000000E+00 -0.00000000000E+00 -0.45593999997E+02  0.45594000000E+02  0.51100000000E-03 0. -1.
    9900012    2    1    2    0    0  0.22849415119E+01  0.33570111402E+02  0.29948957206E+02  0.46142319019E+02  0.10000011475E+02 0.  0.
         12    1    1    2    0    0 -0.22849415119E+01 -0.33570111402E+02 -0.29948957206E+02  0.45045680981E+02  0.00000000000E+00 0. -1.
         11    1    3    3    0    0  0.11558416178E+00  0.13087397888E+02  0.13986460309E+02  0.19155010191E+02  0.51100000000E-03 0. -1.
        -11    1    3    3    0    0  0.40484352767E+01  0.78342324919E+01  0.81146892203E+01  0.11983872844E+02  0.51100000000E-03 0.  1.
         12    1    3    3    0    0 -0.18790779267E+01  0.12648481022E+02  0.78478076771E+01  0.15003435985E+02  0.00000000000E+00 0. -1.
</event>
<event>
 7    1  0.1381440E-008  0.4614232E+02  0.7816164E-02  0.1320468E+00
        -11   -1    0    0    0    0  0.00000000000E+00  0.00000000000E+00  0.45593999997E+02  0.45594000000E+02  0.51100000000E-03 0.  1.
         11   -1    0    0    0    0 -0.00000000000E+00 -0.00000000000E+00 -0.45593999997E+02  0.45594000000E+02  0.51100000000E-03 0. -1.
    9900012    2    1    2    0    0 -0.24605819475E+02  0.17477133763E+02  0.33439744516E+02  0.46142322406E+02  0.10000042357E+02 0.  0.
         12    1    1    2    0    0  0.24605819475E+02 -0.17477133763E+02 -0.33439744516E+02  0.45045677594E+02  0.00000000000E+00 0. -1.
         11    1    3    3    0    0 -0.14522306947E+02  0.57889630835E+01  0.18534311159E+02  0.24247271662E+02  0.51100000000E-03 0. -1.
        -11    1    3    3    0    0 -0.76057064675E+01  0.55479652606E+01  0.85546132408E+01  0.12720381180E+02  0.51100000000E-03 0.  1.
         12    1    3    3    0    0 -0.24778060596E+01  0.61402054192E+01  0.63508201163E+01  0.91746695640E+01  0.00000000000E+00 0. -1.
</event>
<event>
 7    1  0.1381440E-008  0.4614232E+02  0.7816164E-02  0.1320468E+00
        -11   -1    0    0    0    0  0.00000000000E+00  0.00000000000E+00  0.45593999997E+02  0.45594000000E+02  0.51100000000E-03 0. -1.
         11   -1    0    0    0    0 -0.00000000000E+00 -0.00000000000E+00 -0.45593999997E+02  0.45594000000E+02  0.51100000000E-03 0.  1.
    9900012    2    1    2    0    0 -0.79655774728E+01 -0.35022275441E+02 -0.27186453533E+02  0.46142318107E+02  0.10000003153E+02 0.  0.
         12    1    1    2    0    0  0.79655774728E+01  0.35022275441E+02  0.27186453533E+02  0.45045681893E+02  0.00000000000E+00 0. -1.
         11    1    3    3    0    0 -0.32804282633E+01 -0.53018707758E+01 -0.13661550599E+01  0.63825875021E+01  0.51100000000E-03 0. -1.
        -11    1    3    3    0    0 -0.14439965522E+01 -0.18414031221E+02 -0.15522396699E+02  0.24126882754E+02  0.51100000000E-03 0.  1.
         12    1    3    3    0    0 -0.32411526572E+01 -0.11306373444E+02 -0.10297901773E+02  0.15632847851E+02  0.00000000000E+00 0. -1.
</event>
<event>
 7    1  0.1381440E-008  0.4614232E+02  0.7816164E-02  0.1320468E+00
        -11   -1    0    0    0    0  0.00000000000E+00  0.00000000000E+00  0.45593999997E+02  0.45594000000E+02  0.51100000000E-03 0.  1.
         11   -1    0    0    0    0 -0.00000000000E+00 -0.00000000000E+00 -0.45593999997E+02  0.45594000000E+02  0.51100000000E-03 0. -1.
    9900012    2    1    2    0    0  0.11328712630E+02 -0.43225622217E+02  0.56850076420E+01  0.46142318101E+02  0.10000003099E+02 0.  0.
         12    1    1    2    0    0 -0.11328712630E+02  0.43225622217E+02 -0.56850076420E+01  0.45045681899E+02  0.00000000000E+00 0. -1.
         11    1    3    3    0    0  0.32241495742E+01 -0.17865752420E+02  0.36055071660E+01  0.18508914939E+02  0.51100000000E-03 0. -1.
        -11    1    3    3    0    0  0.39168594116E+01 -0.19498560750E+02 -0.72962366654E+00  0.19901457483E+02  0.51100000000E-03 0.  1.
        -12    1    3    3    0    0  0.41877036440E+01 -0.58613090458E+01  0.28091241425E+01  0.77319456793E+01  0.00000000000E+00 0.  1.
</event>
<event>
 7    1  0.1381440E-008  0.4614232E+02  0.7816164E-02  0.1320468E+00
        -11   -1    0    0    0    0  0.00000000000E+00  0.00000000000E+00  0.45593999997E+02  0.45594000000E+02  0.51100000000E-03 0.  1.
         11   -1    0    0    0    0 -0.00000000000E+00 -0.00000000000E+00 -0.45593999997E+02  0.45594000000E+02  0.51100000000E-03 0. -1.
    9900012    2    1    2    0    0  0.21270165146E+02 -0.18417478290E+01  0.39664860918E+02  0.46142321494E+02  0.10000034043E+02 0.  0.
         12    1    1    2    0    0 -0.21270165146E+02  0.18417478290E+01 -0.39664860918E+02  0.45045678506E+02  0.00000000000E+00 0. -1.
         11    1    3    3    0    0  0.44348326926E+01 -0.14519034662E+01  0.42183012354E+01  0.62904554891E+01  0.51100000000E-03 0. -1.
        -11    1    3    3    0    0  0.27854518683E+01  0.13417745423E+01  0.12610480529E+02  0.12983963973E+02  0.51100000000E-03 0.  1.
        -12    1    3    3    0    0  0.14049880585E+02 -0.17316189051E+01  0.22836079154E+02  0.26867902032E+02  0.00000000000E+00 0.  1.
</event>
<event>
 7    1  0.1381440E-008  0.4614232E+02  0.7816164E-02  0.1320468E+00
        -11   -1    0    0    0    0  0.00000000000E+00  0.00000000000E+00  0.45593999997E+02  0.45594000000E+02  0.51100000000E-03 0.  1.
         11   -1    0    0    0    0 -0.00000000000E+00 -0.00000000000E+00 -0.45593999997E+02  0.45594000000E+02  0.51100000000E-03 0. -1.
    9900012    2    1    2    0    0 -0.57384031463E+00 -0.40050241125E+02 -0.20609763826E+02  0.46142317945E+02  0.10000001673E+02 0.  0.
         12    1    1    2    0    0  0.57384031463E+00  0.40050241125E+02  0.20609763826E+02  0.45045682055E+02  0.00000000000E+00 0. -1.
         11    1    3    3    0    0 -0.21397075999E+01 -0.69828013058E+01 -0.37395075127E+01  0.82049850328E+01  0.51100000000E-03 0.  1.
        -11    1    3    3    0    0  0.39259001779E+01 -0.18488954482E+02 -0.69122950934E+01  0.20125455368E+02  0.51100000000E-03 0. -1.
        -12    1    3    3    0    0 -0.23600328927E+01 -0.14578485337E+02 -0.99579612203E+01  0.17811877544E+02  0.00000000000E+00 0.  1.
</event>
<event>
 7    1  0.1381440E-008  0.4614232E+02  0.7816164E-02  0.1320468E+00
        -11   -1    0    0    0    0  0.00000000000E+00  0.00000000000E+00  0.45593999997E+02  0.45594000000E+02  0.51100000000E-03 0. -1.
         11   -1    0    0    0    0 -0.00000000000E+00 -0.00000000000E+00 -0.45593999997E+02  0.45594000000E+02  0.51100000000E-03 0.  1.
    9900012    2    1    2    0    0 -0.13565193502E+02 -0.37893612746E+02 -0.20228033043E+02  0.46142315607E+02  0.99999803543E+01 0.  0.
         12    1    1    2    0    0  0.13565193502E+02  0.37893612746E+02  0.20228033043E+02  0.45045684393E+02  0.00000000000E+00 0. -1.
         11    1    3    3    0    0 -0.34341741438E+01 -0.15645160133E+02 -0.67846049618E+01  0.17395270978E+02  0.51100000000E-03 0. -1.
        -11    1    3    3    0    0 -0.87679070550E+01 -0.22381679263E+02 -0.12625192030E+02  0.27151634109E+02  0.51100000000E-03 0.  1.
         12    1    3    3    0    0 -0.13631123032E+01  0.13322664993E+00 -0.81823605106E+00  0.15954105198E+01  0.00000000000E+00 0. -1.
</event>
<event>
 7    1  0.1381440E-008  0.4614232E+02  0.7816164E-02  0.1320468E+00
        -11   -1    0    0    0    0  0.00000000000E+00  0.00000000000E+00  0.45593999997E+02  0.45594000000E+02  0.51100000000E-03 0.  1.
         11   -1    0    0    0    0 -0.00000000000E+00 -0.00000000000E+00 -0.45593999997E+02  0.45594000000E+02  0.51100000000E-03 0. -1.
    9900012    2    1    2    0    0  0.33840417951E+02 -0.20916283938E+02  0.21129331161E+02  0.46142318118E+02  0.10000003258E+02 0.  0.
         12    1    1    2    0    0 -0.33840417951E+02  0.20916283938E+02 -0.21129331161E+02  0.45045681882E+02  0.00000000000E+00 0. -1.
         11    1    3    3    0    0  0.22783273893E+02 -0.95231851611E+01  0.12386341719E+02  0.27625895213E+02  0.51100000000E-03 0. -1.
        -11    1    3    3    0    0  0.18635388513E+01 -0.40071803672E+01  0.14524957056E+01  0.46518830146E+01  0.51100000000E-03 0.  1.
        -12    1    3    3    0    0  0.91936052064E+01 -0.73859184096E+01  0.72904937368E+01  0.13864539890E+02  0.00000000000E+00 0.  1.
</event>
<event>
 7    1  0.1381440E-008  0.4614232E+02  0.7816164E-02  0.1320468E+00
        -11   -1    0    0    0    0  0.00000000000E+00  0.00000000000E+00  0.45593999997E+02  0.45594000000E+02  0.51100000000E-03 0.  1.
         11   -1    0    0    0    0 -0.00000000000E+00 -0.00000000000E+00 -0.45593999997E+02  0.45594000000E+02  0.51100000000E-03 0. -1.
    9900012    2    1    2    0    0  0.19170609873E+02  0.39855952546E+02  0.85501038103E+01  0.46142317505E+02  0.99999976665E+01 0.  0.
         12    1    1    2    0    0 -0.19170609873E+02 -0.39855952546E+02 -0.85501038103E+01  0.45045682495E+02  0.00000000000E+00 0. -1.
         11    1    3    3    0    0  0.44739036167E+01  0.10614189822E+02  0.27335298905E+01  0.11838455350E+02  0.51100000000E-03 0. -1.
        -11    1    3    3    0    0  0.88759614347E+01  0.23261816384E+02  0.15872702442E+01  0.24948230798E+02  0.51100000000E-03 0.  1.
        -12    1    3    3    0    0  0.58207448219E+01  0.59799463402E+01  0.42293036756E+01  0.93556313573E+01  0.00000000000E+00 0.  1.
</event>
<event>
 7    1  0.1381440E-008  0.4614232E+02  0.7816164E-02  0.1320468E+00
        -11   -1    0    0    0    0  0.00000000000E+00  0.00000000000E+00  0.45593999997E+02  0.45594000000E+02  0.51100000000E-03 0. -1.
         11   -1    0    0    0    0 -0.00000000000E+00 -0.00000000000E+00 -0.45593999997E+02  0.45594000000E+02  0.51100000000E-03 0.  1.
    9900012    2    1    2    0    0 -0.29227139248E+02  0.33667919322E+02 -0.64310960183E+01  0.46142318119E+02  0.10000003266E+02 0.  0.
         12    1    1    2    0    0  0.29227139248E+02 -0.33667919322E+02  0.64310960183E+01  0.45045681881E+02  0.00000000000E+00 0. -1.
         11    1    3    3    0    0 -0.17781592263E+01  0.38410193507E+01  0.12142497229E+01  0.44033717237E+01  0.51100000000E-03 0. -1.
        -11    1    3    3    0    0 -0.93148809485E+01  0.14755466327E+02 -0.35245802567E+01  0.17802063360E+02  0.51100000000E-03 0.  1.
         12    1    3    3    0    0 -0.18134099073E+02  0.15071433644E+02 -0.41207654845E+01  0.23936883036E+02  0.00000000000E+00 0. -1.
</event>
<event>
 7    1  0.1381440E-008  0.4614232E+02  0.7816164E-02  0.1320468E+00
        -11   -1    0    0    0    0  0.00000000000E+00  0.00000000000E+00  0.45593999997E+02  0.45594000000E+02  0.51100000000E-03 0. -1.
         11   -1    0    0    0    0 -0.00000000000E+00 -0.00000000000E+00 -0.45593999997E+02  0.45594000000E+02  0.51100000000E-03 0.  1.
    9900012    2    1    2    0    0 -0.41137256522E+02 -0.88695746496E+01  0.16067677392E+02  0.46142317794E+02  0.10000000304E+02 0.  0.
         12    1    1    2    0    0  0.41137256522E+02  0.88695746496E+01 -0.16067677392E+02  0.45045682206E+02  0.00000000000E+00 0. -1.
         11    1    3    3    0    0 -0.21953041229E+02 -0.99072929513E+00  0.88538490579E+01  0.23691943929E+02  0.51100000000E-03 0. -1.
        -11    1    3    3    0    0 -0.16272151939E+02 -0.65949339250E+01  0.78032525687E+01  0.19213714714E+02  0.51100000000E-03 0.  1.
         12    1    3    3    0    0 -0.29120633531E+01 -0.12839114295E+01 -0.58942423427E+00  0.32366591509E+01  0.00000000000E+00 0. -1.
</event>
<event>
 7    1  0.1381440E-008  0.4614232E+02  0.7816164E-02  0.1320468E+00
        -11   -1    0    0    0    0  0.00000000000E+00  0.00000000000E+00  0.45593999997E+02  0.45594000000E+02  0.51100000000E-03 0.  1.
         11   -1    0    0    0    0 -0.00000000000E+00 -0.00000000000E+00 -0.45593999997E+02  0.45594000000E+02  0.51100000000E-03 0. -1.
    9900012    2    1    2    0    0 -0.24459053864E+02 -0.24722325494E+02  0.28629963223E+02  0.46142317767E+02  0.10000000050E+02 0.  0.
         12    1    1    2    0    0  0.24459053864E+02  0.24722325494E+02 -0.28629963223E+02  0.45045682233E+02  0.00000000000E+00 0. -1.
         11    1    3    3    0    0 -0.14011327213E+02 -0.14932173727E+02  0.10624649276E+02  0.23068816072E+02  0.51100000000E-03 0. -1.
        -11    1    3    3    0    0 -0.20504429401E+01 -0.27353774172E+01  0.35483868824E+01  0.49272361009E+01  0.51100000000E-03 0.  1.
         12    1    3    3    0    0 -0.83972837106E+01 -0.70547743504E+01  0.14456927064E+02  0.18146265594E+02  0.00000000000E+00 0. -1.
</event>
<event>
 7    1  0.1381440E-008  0.4614232E+02  0.7816164E-02  0.1320468E+00
        -11   -1    0    0    0    0  0.00000000000E+00  0.00000000000E+00  0.45593999997E+02  0.45594000000E+02  0.51100000000E-03 0.  1.
         11   -1    0    0    0    0 -0.00000000000E+00 -0.00000000000E+00 -0.45593999997E+02  0.45594000000E+02  0.51100000000E-03 0. -1.
    9900012    2    1    2    0    0 -0.51145239625E+01  0.25219915788E+02  0.36971760317E+02  0.46142316870E+02  0.99999918723E+01 0.  0.
         12    1    1    2    0    0  0.51145239625E+01 -0.25219915788E+02 -0.36971760317E+02  0.45045683130E+02  0.00000000000E+00 0. -1.
         11    1    3    3    0    0 -0.13260064672E+01  0.13132168909E+02  0.23262612441E+02  0.26746238824E+02  0.51100000000E-03 0. -1.
        -11    1    3    3    0    0 -0.43309317690E+01  0.58647082864E+01  0.57912487128E+01  0.93107644792E+01  0.51100000000E-03 0.  1.
         12    1    3    3    0    0  0.54241427371E+00  0.62230385924E+01  0.79178991634E+01  0.10085313566E+02  0.00000000000E+00 0. -1.
</event>
<event>
 7    1  0.1381440E-008  0.4614232E+02  0.7816164E-02  0.1320468E+00
        -11   -1    0    0    0    0  0.00000000000E+00  0.00000000000E+00  0.45593999997E+02  0.45594000000E+02  0.51100000000E-03 0.  1.
         11   -1    0    0    0    0 -0.00000000000E+00 -0.00000000000E+00 -0.45593999997E+02  0.45594000000E+02  0.51100000000E-03 0. -1.
    9900012    2    1    2    0    0 -0.56102227476E+01 -0.33880612121E+02  0.29150348345E+02  0.46142320012E+02  0.10000020525E+02 0.  0.
         12    1    1    2    0    0  0.56102227476E+01  0.33880612121E+02 -0.29150348345E+02  0.45045679988E+02  0.00000000000E+00 0. -1.
         11    1    3    3    0    0 -0.12387867351E+01 -0.21104706385E+00 -0.15639737158E+00  0.12663308561E+01  0.51100000000E-03 0. -1.
        -11    1    3    3    0    0 -0.31115026805E+01 -0.26208383392E+02  0.22039658184E+02  0.34384696335E+02  0.51100000000E-03 0.  1.
         12    1    3    3    0    0 -0.12599333320E+01 -0.74611816655E+01  0.72670875325E+01  0.10491292821E+02  0.00000000000E+00 0. -1.
</event>
<event>
 7    1  0.1381440E-008  0.4614232E+02  0.7816164E-02  0.1320468E+00
        -11   -1    0    0    0    0  0.00000000000E+00  0.00000000000E+00  0.45593999997E+02  0.45594000000E+02  0.51100000000E-03 0. -1.
         11   -1    0    0    0    0 -0.00000000000E+00 -0.00000000000E+00 -0.45593999997E+02  0.45594000000E+02  0.51100000000E-03 0.  1.
    9900012    2    1    2    0    0 -0.11655384804E+02 -0.39037370676E+02 -0.19218459290E+02  0.46142317835E+02  0.10000000670E+02 0.  0.
         12    1    1    2    0    0  0.11655384804E+02  0.39037370676E+02  0.19218459290E+02  0.45045682165E+02  0.00000000000E+00 0. -1.
         11    1    3    3    0    0 -0.50047276750E+01 -0.86425208170E+01 -0.62689319120E+01  0.11791521223E+02  0.51100000000E-03 0. -1.
        -11    1    3    3    0    0 -0.26032750573E+01 -0.11512042606E+02 -0.14936117706E+01  0.11896850103E+02  0.51100000000E-03 0.  1.
        -12    1    3    3    0    0 -0.40473820715E+01 -0.18882807253E+02 -0.11455915608E+02  0.22453946508E+02  0.00000000000E+00 0.  1.
</event>
<event>
 7    1  0.1381440E-008  0.4614231E+02  0.7816164E-02  0.1320468E+00
        -11   -1    0    0    0    0  0.00000000000E+00  0.00000000000E+00  0.45593999997E+02  0.45594000000E+02  0.51100000000E-03 0.  1.
         11   -1    0    0    0    0 -0.00000000000E+00 -0.00000000000E+00 -0.45593999997E+02  0.45594000000E+02  0.51100000000E-03 0. -1.
    9900012    2    1    2    0    0 -0.22950770141E+02  0.35473901643E+00  0.38758872122E+02  0.46142313658E+02  0.99999625861E+01 0.  0.
         12    1    1    2    0    0  0.22950770141E+02 -0.35473901643E+00 -0.38758872122E+02  0.45045686342E+02  0.00000000000E+00 0. -1.
         11    1    3    3    0    0 -0.98179411025E+01 -0.30558462007E+00  0.19867145538E+02  0.22162780095E+02  0.51100000000E-03 0. -1.
        -11    1    3    3    0    0 -0.10509054920E+02  0.31341665668E+01  0.15780069594E+02  0.19216498953E+02  0.51100000000E-03 0.  1.
         12    1    3    3    0    0 -0.26237741187E+01 -0.24738429302E+01  0.31116569902E+01  0.47630346098E+01  0.00000000000E+00 0. -1.
</event>
<event>
 7    1  0.1381440E-008  0.4614232E+02  0.7816164E-02  0.1320468E+00
        -11   -1    0    0    0    0  0.00000000000E+00  0.00000000000E+00  0.45593999997E+02  0.45594000000E+02  0.51100000000E-03 0.  1.
         11   -1    0    0    0    0 -0.00000000000E+00 -0.00000000000E+00 -0.45593999997E+02  0.45594000000E+02  0.51100000000E-03 0. -1.
    9900012    2    1    2    0    0  0.30418249681E+02 -0.13117114433E+02  0.30525151008E+02  0.46142318201E+02  0.10000004007E+02 0.  0.
         12    1    1    2    0    0 -0.30418249681E+02  0.13117114433E+02 -0.30525151008E+02  0.45045681799E+02  0.00000000000E+00 0. -1.
         11    1    3    3    0    0  0.79781016513E+01 -0.55772113791E+01  0.73287816146E+01  0.12184680256E+02  0.51100000000E-03 0. -1.
        -11    1    3    3    0    0  0.17539102840E+02 -0.58524426523E+01  0.13268110976E+02  0.22757723581E+02  0.51100000000E-03 0.  1.
         12    1    3    3    0    0  0.49010451898E+01 -0.16874604012E+01  0.99282584173E+01  0.11199914364E+02  0.00000000000E+00 0. -1.
</event>
<event>
 7    1  0.1381440E-008  0.4614232E+02  0.7816164E-02  0.1320468E+00
        -11   -1    0    0    0    0  0.00000000000E+00  0.00000000000E+00  0.45593999997E+02  0.45594000000E+02  0.51100000000E-03 0. -1.
         11   -1    0    0    0    0 -0.00000000000E+00 -0.00000000000E+00 -0.45593999997E+02  0.45594000000E+02  0.51100000000E-03 0.  1.
    9900012    2    1    2    0    0 -0.34049786063E+02  0.22330480573E+02 -0.19263301886E+02  0.46142322148E+02  0.10000040004E+02 0.  0.
         12    1    1    2    0    0  0.34049786063E+02 -0.22330480573E+02  0.19263301886E+02  0.45045677852E+02  0.00000000000E+00 0. -1.
         11    1    3    3    0    0 -0.13946374818E+02  0.63666630839E+01 -0.37712987500E+01  0.15787921456E+02  0.51100000000E-03 0. -1.
        -11    1    3    3    0    0 -0.17216840092E+02  0.11347895690E+02 -0.12917311933E+02  0.24332103632E+02  0.51100000000E-03 0.  1.
        -12    1    3    3    0    0 -0.28865711536E+01  0.46159217995E+01 -0.25746912033E+01  0.60222970598E+01  0.00000000000E+00 0.  1.
</event>
<event>
 7    1  0.1381440E-008  0.4614232E+02  0.7816164E-02  0.1320468E+00
        -11   -1    0    0    0    0  0.00000000000E+00  0.00000000000E+00  0.45593999997E+02  0.45594000000E+02  0.51100000000E-03 0.  1.
         11   -1    0    0    0    0 -0.00000000000E+00 -0.00000000000E+00 -0.45593999997E+02  0.45594000000E+02  0.51100000000E-03 0. -1.
    9900012    2    1    2    0    0 -0.13634763338E+02 -0.23852773688E+02  0.35696662270E+02  0.46142320061E+02  0.10000020975E+02 0.  0.
         12    1    1    2    0    0  0.13634763338E+02  0.23852773688E+02 -0.35696662270E+02  0.45045679939E+02  0.00000000000E+00 0. -1.
         11    1    3    3    0    0 -0.45537826080E+01 -0.53257194499E+01  0.71669779404E+01  0.10023262780E+02  0.51100000000E-03 0. -1.
        -11    1    3    3    0    0 -0.55850780132E+01 -0.16915839934E+02  0.20136477915E+02  0.26885246515E+02  0.51100000000E-03 0.  1.
         12    1    3    3    0    0 -0.34959027169E+01 -0.16112143041E+01  0.83932064153E+01  0.92338107664E+01  0.00000000000E+00 0. -1.
</event>
<event>
 7    1  0.1381440E-008  0.4614232E+02  0.7816164E-02  0.1320468E+00
        -11   -1    0    0    0    0  0.00000000000E+00  0.00000000000E+00  0.45593999997E+02  0.45594000000E+02  0.51100000000E-03 0. -1.
         11   -1    0    0    0    0 -0.00000000000E+00 -0.00000000000E+00 -0.45593999997E+02  0.45594000000E+02  0.51100000000E-03 0.  1.
    9900012    2    1    2    0    0  0.57509463635E+01  0.23181352245E+02 -0.38192473282E+02  0.46142317728E+02  0.99999996952E+01 0.  0.
         12    1    1    2    0    0 -0.57509463635E+01 -0.23181352245E+02  0.38192473282E+02  0.45045682272E+02  0.00000000000E+00 0. -1.
         11    1    3    3    0    0  0.24507095939E+00  0.14004738509E+02 -0.15445332781E+02  0.20850685012E+02  0.51100000000E-03 0. -1.
        -11    1    3    3    0    0  0.35922079099E+01  0.80976573623E+01 -0.18138999943E+02  0.20186612683E+02  0.51100000000E-03 0.  1.
         12    1    3    3    0    0  0.19136674942E+01  0.10789563738E+01 -0.46081405572E+01  0.51050200323E+01  0.00000000000E+00 0. -1.
</event>
<event>
 7    1  0.1381440E-008  0.4614232E+02  0.7816164E-02  0.1320468E+00
        -11   -1    0    0    0    0  0.00000000000E+00  0.00000000000E+00  0.45593999997E+02  0.45594000000E+02  0.51100000000E-03 0. -1.
         11   -1    0    0    0    0 -0.00000000000E+00 -0.00000000000E+00 -0.45593999997E+02  0.45594000000E+02  0.51100000000E-03 0.  1.
    9900012    2    1    2    0    0 -0.28125597580E+02 -0.26558919384E+02  0.23080035649E+02  0.46142317813E+02  0.10000000474E+02 0.  0.
         12    1    1    2    0    0  0.28125597580E+02  0.26558919384E+02 -0.23080035649E+02  0.45045682187E+02  0.00000000000E+00 0. -1.
         11    1    3    3    0    0 -0.51004856835E+01 -0.85752716551E+01  0.92856277187E+01  0.13629861355E+02  0.51100000000E-03 0. -1.
        -11    1    3    3    0    0 -0.20171997159E+02 -0.15041357151E+02  0.13055928252E+02  0.28348000937E+02  0.51100000000E-03 0.  1.
         12    1    3    3    0    0 -0.28531147376E+01 -0.29422905784E+01  0.73847967856E+00  0.41644555213E+01  0.00000000000E+00 0. -1.
</event>
<event>
 7    1  0.1381440E-008  0.4614231E+02  0.7816164E-02  0.1320468E+00
        -11   -1    0    0    0    0  0.00000000000E+00  0.00000000000E+00  0.45593999997E+02  0.45594000000E+02  0.51100000000E-03 0. -1.
         11   -1    0    0    0    0 -0.00000000000E+00 -0.00000000000E+00 -0.45593999997E+02  0.45594000000E+02  0.51100000000E-03 0.  1.
    9900012    2    1    2    0    0 -0.24535437707E+01 -0.37286758633E+02 -0.25155348677E+02  0.46142314152E+02  0.99999670924E+01 0.  0.
         12    1    1    2    0    0  0.24535437707E+01  0.37286758633E+02  0.25155348677E+02  0.45045685848E+02  0.00000000000E+00 0. -1.
         11    1    3    3    0    0  0.13787216496E+01 -0.28423896276E+02 -0.18771589585E+02  0.34090927367E+02  0.51100000000E-03 0.  1.
        -11    1    3    3    0    0 -0.42110232430E+01 -0.68628117114E+01 -0.58330677308E+01  0.99426143822E+01  0.51100000000E-03 0. -1.
         12    1    3    3    0    0  0.37875782263E+00 -0.20000506462E+01 -0.55069136081E+00  0.21087724036E+01  0.00000000000E+00 0. -1.
</event>
<event>
 7    1  0.1381440E-008  0.4614232E+02  0.7816164E-02  0.1320468E+00
        -11   -1    0    0    0    0  0.00000000000E+00  0.00000000000E+00  0.45593999997E+02  0.45594000000E+02  0.51100000000E-03 0.  1.
         11   -1    0    0    0    0 -0.00000000000E+00 -0.00000000000E+00 -0.45593999997E+02  0.45594000000E+02  0.51100000000E-03 0. -1.
    9900012    2    1    2    0    0  0.17343643744E+02 -0.29180248633E+02  0.29611224773E+02  0.46142317397E+02  0.99999966828E+01 0.  0.
         12    1    1    2    0    0 -0.17343643744E+02  0.29180248633E+02 -0.29611224773E+02  0.45045682603E+02  0.00000000000E+00 0. -1.
         11    1    3    3    0    0  0.64070442069E+01 -0.39613351342E+01  0.41131538966E+01  0.85825652781E+01  0.51100000000E-03 0. -1.
        -11    1    3    3    0    0  0.14157060072E+01 -0.54638236594E+01  0.49409384788E+01  0.75013642621E+01  0.51100000000E-03 0.  1.
         12    1    3    3    0    0  0.95208935297E+01 -0.19755089840E+02  0.20557132397E+02  0.30058387857E+02  0.00000000000E+00 0. -1.
</event>
<event>
 7    1  0.1381440E-008  0.4614231E+02  0.7816164E-02  0.1320468E+00
        -11   -1    0    0    0    0  0.00000000000E+00  0.00000000000E+00  0.45593999997E+02  0.45594000000E+02  0.51100000000E-03 0.  1.
         11   -1    0    0    0    0 -0.00000000000E+00 -0.00000000000E+00 -0.45593999997E+02  0.45594000000E+02  0.51100000000E-03 0. -1.
    9900012    2    1    2    0    0  0.41807513834E+02  0.13980562071E+02  0.92622731378E+01  0.46142311722E+02  0.99999449268E+01 0.  0.
         12    1    1    2    0    0 -0.41807513834E+02 -0.13980562071E+02 -0.92622731378E+01  0.45045688278E+02  0.00000000000E+00 0. -1.
         11    1    3    3    0    0  0.28479578552E+02  0.50111747731E+01  0.41599673137E+01  0.29214783850E+02  0.51100000000E-03 0. -1.
        -11    1    3    3    0    0  0.98673652627E+01  0.59053777515E+01  0.40051016622E+01  0.12176995656E+02  0.51100000000E-03 0.  1.
         12    1    3    3    0    0  0.34605700195E+01  0.30640095464E+01  0.10972041620E+01  0.47505322158E+01  0.00000000000E+00 0. -1.
</event>
<event>
 7    1  0.1381440E-008  0.4614232E+02  0.7816164E-02  0.1320468E+00
        -11   -1    0    0    0    0  0.00000000000E+00  0.00000000000E+00  0.45593999997E+02  0.45594000000E+02  0.51100000000E-03 0.  1.
         11   -1    0    0    0    0 -0.00000000000E+00 -0.00000000000E+00 -0.45593999997E+02  0.45594000000E+02  0.51100000000E-03 0. -1.
    9900012    2    1    2    0    0  0.27649830713E+02 -0.29627584406E+02  0.19667398198E+02  0.46142318208E+02  0.10000004076E+02 0.  0.
         12    1    1    2    0    0 -0.27649830713E+02  0.29627584406E+02 -0.19667398198E+02  0.45045681792E+02  0.00000000000E+00 0. -1.
         11    1    3    3    0    0  0.73456787366E+01 -0.13998892750E+02  0.49055541043E+01  0.16552717471E+02  0.51100000000E-03 0. -1.
        -11    1    3    3    0    0  0.15647644849E+02 -0.12187734986E+02  0.11913123259E+02  0.23136814376E+02  0.51100000000E-03 0.  1.
         12    1    3    3    0    0  0.46565071272E+01 -0.34409566695E+01  0.28487208350E+01  0.64527863612E+01  0.00000000000E+00 0. -1.
</event>
<event>
 7    1  0.1381440E-008  0.4614232E+02  0.7816164E-02  0.1320468E+00
        -11   -1    0    0    0    0  0.00000000000E+00  0.00000000000E+00  0.45593999997E+02  0.45594000000E+02  0.51100000000E-03 0.  1.
         11   -1    0    0    0    0 -0.00000000000E+00 -0.00000000000E+00 -0.45593999997E+02  0.45594000000E+02  0.51100000000E-03 0. -1.
    9900012    2    1    2    0    0  0.98754799864E+01  0.15823294530E+02  0.41002581927E+02  0.46142317861E+02  0.10000000908E+02 0.  0.
         12    1    1    2    0    0 -0.98754799864E+01 -0.15823294530E+02 -0.41002581927E+02  0.45045682139E+02  0.00000000000E+00 0. -1.
         11    1    3    3    0    0 -0.28918713857E-01  0.64675339838E+00  0.57061575240E+00  0.86297673684E+00  0.51100000000E-03 0. -1.
        -11    1    3    3    0    0  0.72926599708E+01  0.15576732990E+02  0.30641130017E+02  0.35138246244E+02  0.51100000000E-03 0.  1.
        -12    1    3    3    0    0  0.26117387294E+01 -0.40019185841E+00  0.97908361569E+01  0.10141094880E+02  0.00000000000E+00 0.  1.
</event>
<event>
 7    1  0.1381440E-008  0.4614232E+02  0.7816164E-02  0.1320468E+00
        -11   -1    0    0    0    0  0.00000000000E+00  0.00000000000E+00  0.45593999997E+02  0.45594000000E+02  0.51100000000E-03 0.  1.
         11   -1    0    0    0    0 -0.00000000000E+00 -0.00000000000E+00 -0.45593999997E+02  0.45594000000E+02  0.51100000000E-03 0. -1.
    9900012    2    1    2    0    0  0.18204467407E+02 -0.41152666891E+02 -0.20417656438E+01  0.46142318378E+02  0.10000005627E+02 0.  0.
         12    1    1    2    0    0 -0.18204467407E+02  0.41152666891E+02  0.20417656438E+01  0.45045681622E+02  0.00000000000E+00 0. -1.
         11    1    3    3    0    0  0.16821815659E+00 -0.41122687991E+01 -0.17986570041E+01  0.44915720303E+01  0.51100000000E-03 0. -1.
        -11    1    3    3    0    0  0.37755711355E+01 -0.51055134158E+01  0.18498121044E+01  0.66138498411E+01  0.51100000000E-03 0.  1.
        -12    1    3    3    0    0  0.14260678115E+02 -0.31934884676E+02 -0.20929207440E+01  0.35036896507E+02  0.00000000000E+00 0.  1.
</event>
<event>
 7    1  0.1381440E-008  0.4614232E+02  0.7816164E-02  0.1320468E+00
        -11   -1    0    0    0    0  0.00000000000E+00  0.00000000000E+00  0.45593999997E+02  0.45594000000E+02  0.51100000000E-03 0.  1.
         11   -1    0    0    0    0 -0.00000000000E+00 -0.00000000000E+00 -0.45593999997E+02  0.45594000000E+02  0.51100000000E-03 0. -1.
    9900012    2    1    2    0    0  0.30272164445E+02  0.16143256063E+01  0.33318215046E+02  0.46142318284E+02  0.10000004771E+02 0.  0.
         12    1    1    2    0    0 -0.30272164445E+02 -0.16143256063E+01 -0.33318215046E+02  0.45045681716E+02  0.00000000000E+00 0. -1.
         11    1    3    3    0    0  0.20201353875E+01 -0.11251187782E-01  0.44105456653E+00  0.20677531199E+01  0.51100000000E-03 0.  1.
        -11    1    3    3    0    0  0.13087808472E+02 -0.23578769924E+01  0.11614560746E+02  0.17656396464E+02  0.51100000000E-03 0. -1.
        -12    1    3    3    0    0  0.15164220586E+02  0.39834537865E+01  0.21262599734E+02  0.26418168701E+02  0.00000000000E+00 0.  1.
</event>
<event>
 7    1  0.1381440E-008  0.4614232E+02  0.7816164E-02  0.1320468E+00
        -11   -1    0    0    0    0  0.00000000000E+00  0.00000000000E+00  0.45593999997E+02  0.45594000000E+02  0.51100000000E-03 0.  1.
         11   -1    0    0    0    0 -0.00000000000E+00 -0.00000000000E+00 -0.45593999997E+02  0.45594000000E+02  0.51100000000E-03 0. -1.
    9900012    2    1    2    0    0 -0.45732445231E+01  0.35984613192E+02  0.26707789761E+02  0.46142323338E+02  0.10000050855E+02 0.  0.
         12    1    1    2    0    0  0.45732445231E+01 -0.35984613192E+02 -0.26707789761E+02  0.45045676662E+02  0.00000000000E+00 0. -1.
         11    1    3    3    0    0 -0.24612220905E+01  0.31286158697E+01  0.80448245929E+00  0.40611628541E+01  0.51100000000E-03 0. -1.
        -11    1    3    3    0    0  0.10494774615E+01  0.11096762440E+02  0.78774997234E+01  0.13648975850E+02  0.51100000000E-03 0.  1.
         12    1    3    3    0    0 -0.31614998940E+01  0.21759234882E+02  0.18025807578E+02  0.28432184634E+02  0.00000000000E+00 0. -1.
</event>
<event>
 7    1  0.1537264E-008  0.4614232E+02  0.7816164E-02  0.1320468E+00
        -11   -1    0    0    0    0  0.00000000000E+00  0.00000000000E+00  0.45593999997E+02  0.45594000000E+02  0.51100000000E-03 0. -1.
         11   -1    0    0    0    0 -0.00000000000E+00 -0.00000000000E+00 -0.45593999997E+02  0.45594000000E+02  0.51100000000E-03 0.  1.
    9900012    2    1    2    0    0 -0.36823050337E+02 -0.15210857172E+02 -0.21019185747E+02  0.46142318947E+02  0.10000010816E+02 0.  0.
         12    1    1    2    0    0  0.36823050337E+02  0.15210857172E+02  0.21019185747E+02  0.45045681053E+02  0.00000000000E+00 0. -1.
         11    1    3    3    0    0  0.32161211057E+00 -0.68096329783E+00 -0.42202977398E+00  0.86328138744E+00  0.51100000000E-03 0. -1.
        -11    1    3    3    0    0 -0.36025122495E+02 -0.13821741423E+02 -0.20952673125E+02  0.43907453787E+02  0.51100000000E-03 0.  1.
        -12    1    3    3    0    0 -0.11195399533E+01 -0.70815245141E+00  0.35551715157E+00  0.13715837731E+01  0.00000000000E+00 0.  1.
</event>
<event>
 7    1  0.1381440E-008  0.4614232E+02  0.7816164E-02  0.1320468E+00
        -11   -1    0    0    0    0  0.00000000000E+00  0.00000000000E+00  0.45593999997E+02  0.45594000000E+02  0.51100000000E-03 0.  1.
         11   -1    0    0    0    0 -0.00000000000E+00 -0.00000000000E+00 -0.45593999997E+02  0.45594000000E+02  0.51100000000E-03 0. -1.
    9900012    2    1    2    0    0  0.12909921716E+02 -0.42185220527E+02  0.91024521518E+01  0.46142317135E+02  0.99999942911E+01 0.  0.
         12    1    1    2    0    0 -0.12909921716E+02  0.42185220527E+02 -0.91024521518E+01  0.45045682865E+02  0.00000000000E+00 0. -1.
         11    1    3    3    0    0  0.83623248661E+00 -0.34333214001E+01 -0.16329585290E+01  0.38927540927E+01  0.51100000000E-03 0. -1.
        -11    1    3    3    0    0  0.78973815246E+01 -0.17656117366E+02  0.44961039951E+01  0.19857544329E+02  0.51100000000E-03 0.  1.
        -12    1    3    3    0    0  0.41763077051E+01 -0.21095781761E+02  0.62393066858E+01  0.22392018713E+02  0.00000000000E+00 0.  1.
</event>
<event>
 7    1  0.1381440E-008  0.4614232E+02  0.7816164E-02  0.1320468E+00
        -11   -1    0    0    0    0  0.00000000000E+00  0.00000000000E+00  0.45593999997E+02  0.45594000000E+02  0.51100000000E-03 0.  1.
         11   -1    0    0    0    0 -0.00000000000E+00 -0.00000000000E+00 -0.45593999997E+02  0.45594000000E+02  0.51100000000E-03 0. -1.
    9900012    2    1    2    0    0 -0.23705113340E+02  0.15135969391E+02  0.35186410993E+02  0.46142317783E+02  0.10000000198E+02 0.  0.
         12    1    1    2    0    0  0.23705113340E+02 -0.15135969391E+02 -0.35186410993E+02  0.45045682217E+02  0.00000000000E+00 0. -1.
         11    1    3    3    0    0 -0.19475270216E+01  0.28852484314E+01  0.90566070112E+01  0.97025589834E+01  0.51100000000E-03 0. -1.
        -11    1    3    3    0    0 -0.16308794285E+02  0.67331146556E+01  0.18132215850E+02  0.25299977389E+02  0.51100000000E-03 0.  1.
        -12    1    3    3    0    0 -0.54487920328E+01  0.55176063041E+01  0.79975881319E+01  0.11139781410E+02  0.00000000000E+00 0.  1.
</event>
<event>
 7    1  0.1381440E-008  0.4614232E+02  0.7816164E-02  0.1320468E+00
        -11   -1    0    0    0    0  0.00000000000E+00  0.00000000000E+00  0.45593999997E+02  0.45594000000E+02  0.51100000000E-03 0. -1.
         11   -1    0    0    0    0 -0.00000000000E+00 -0.00000000000E+00 -0.45593999997E+02  0.45594000000E+02  0.51100000000E-03 0.  1.
    9900012    2    1    2    0    0  0.58154329308E+01  0.44610337680E+02 -0.22828729205E+01  0.46142323217E+02  0.10000049751E+02 0.  0.
         12    1    1    2    0    0 -0.58154329308E+01 -0.44610337680E+02  0.22828729205E+01  0.45045676783E+02  0.00000000000E+00 0. -1.
         11    1    3    3    0    0 -0.29302539899E+00  0.12405006954E+00 -0.12068622555E+00  0.34032004109E+00  0.51100000000E-03 0. -1.
        -11    1    3    3    0    0 -0.78390340680E-01 -0.41162127830E+00 -0.11083744167E+00  0.43343087322E+00  0.51100000000E-03 0.  1.
        -12    1    3    3    0    0  0.61868486704E+01  0.44897908888E+02 -0.20513492533E+01  0.45368572303E+02  0.00000000000E+00 0.  1.
</event>
<event>
 7    1  0.1381440E-008  0.4614232E+02  0.7816164E-02  0.1320468E+00
        -11   -1    0    0    0    0  0.00000000000E+00  0.00000000000E+00  0.45593999997E+02  0.45594000000E+02  0.51100000000E-03 0.  1.
         11   -1    0    0    0    0 -0.00000000000E+00 -0.00000000000E+00 -0.45593999997E+02  0.45594000000E+02  0.51100000000E-03 0. -1.
    9900012    2    1    2    0    0 -0.40186646993E+02  0.10647320475E+02  0.17343036932E+02  0.46142323627E+02  0.10000053491E+02 0.  0.
         12    1    1    2    0    0  0.40186646993E+02 -0.10647320475E+02 -0.17343036932E+02  0.45045676373E+02  0.00000000000E+00 0. -1.
         11    1    3    3    0    0 -0.80990769722E+01  0.53012363674E+01  0.39273355114E+01  0.10446153326E+02  0.51100000000E-03 0. -1.
        -11    1    3    3    0    0 -0.50363468641E+01  0.96291231303E+00 -0.12551201049E+00  0.51291074646E+01  0.51100000000E-03 0.  1.
        -12    1    3    3    0    0 -0.27051223157E+02  0.43831717944E+01  0.13541213431E+02  0.30567062837E+02  0.00000000000E+00 0.  1.
</event>
<event>
 7    1  0.1381440E-008  0.4614232E+02  0.7816164E-02  0.1320468E+00
        -11   -1    0    0    0    0  0.00000000000E+00  0.00000000000E+00  0.45593999997E+02  0.45594000000E+02  0.51100000000E-03 0.  1.
         11   -1    0    0    0    0 -0.00000000000E+00 -0.00000000000E+00 -0.45593999997E+02  0.45594000000E+02  0.51100000000E-03 0. -1.
    9900012    2    1    2    0    0  0.13197955993E+02 -0.12607853946E+02  0.41182151078E+02  0.46142316622E+02  0.99999896160E+01 0.  0.
         12    1    1    2    0    0 -0.13197955993E+02  0.12607853946E+02 -0.41182151078E+02  0.45045683378E+02  0.00000000000E+00 0. -1.
         11    1    3    3    0    0  0.74789366798E+01 -0.74046783874E+01  0.12779492829E+02  0.16555337300E+02  0.51100000000E-03 0. -1.
        -11    1    3    3    0    0  0.34679053222E+01 -0.41923147986E+01  0.23190477761E+02  0.23820162253E+02  0.51100000000E-03 0.  1.
         12    1    3    3    0    0  0.22511139908E+01 -0.10108607604E+01  0.52121804879E+01  0.57668170697E+01  0.00000000000E+00 0. -1.
</event>
<event>
 7    1  0.1381440E-008  0.4614232E+02  0.7816164E-02  0.1320468E+00
        -11   -1    0    0    0    0  0.00000000000E+00  0.00000000000E+00  0.45593999997E+02  0.45594000000E+02  0.51100000000E-03 0. -1.
         11   -1    0    0    0    0 -0.00000000000E+00 -0.00000000000E+00 -0.45593999997E+02  0.45594000000E+02  0.51100000000E-03 0.  1.
    9900012    2    1    2    0    0 -0.34153415909E+01 -0.22243182944E+02 -0.39021657360E+02  0.46142317756E+02  0.99999999564E+01 0.  0.
         12    1    1    2    0    0  0.34153415909E+01  0.22243182944E+02  0.39021657360E+02  0.45045682244E+02  0.00000000000E+00 0. -1.
         11    1    3    3    0    0  0.47734296197E+00  0.43769331874E+00 -0.21338869076E+01  0.22300011974E+01  0.51100000000E-03 0. -1.
        -11    1    3    3    0    0 -0.45132253666E+01 -0.11387627419E+02 -0.22422058635E+02  0.25549872312E+02  0.51100000000E-03 0.  1.
        -12    1    3    3    0    0  0.62054081376E+00 -0.11293248844E+02 -0.14465711817E+02  0.18362444247E+02  0.00000000000E+00 0.  1.
</event>
<event>
 7    1  0.1381440E-008  0.4614232E+02  0.7816164E-02  0.1320468E+00
        -11   -1    0    0    0    0  0.00000000000E+00  0.00000000000E+00  0.45593999997E+02  0.45594000000E+02  0.51100000000E-03 0.  1.
         11   -1    0    0    0    0 -0.00000000000E+00 -0.00000000000E+00 -0.45593999997E+02  0.45594000000E+02  0.51100000000E-03 0. -1.
    9900012    2    1    2    0    0  0.30281730979E+01 -0.19618284664E+02  0.40435954254E+02  0.46142319608E+02  0.10000016844E+02 0.  0.
         12    1    1    2    0    0 -0.30281730979E+01  0.19618284664E+02 -0.40435954254E+02  0.45045680392E+02  0.00000000000E+00 0. -1.
         11    1    3    3    0    0  0.18417623527E+01 -0.12397039818E+02  0.23151047611E+02  0.26325836940E+02  0.51100000000E-03 0.  1.
        -11    1    3    3    0    0 -0.67181193034E+00 -0.48266065210E+01  0.43533763544E+01  0.65344737908E+01  0.51100000000E-03 0. -1.
        -12    1    3    3    0    0  0.18582226756E+01 -0.23946383253E+01  0.12931530289E+02  0.13282008878E+02  0.00000000000E+00 0.  1.
</event>
<event>
 7    1  0.1381440E-008  0.4614232E+02  0.7816164E-02  0.1320468E+00
        -11   -1    0    0    0    0  0.00000000000E+00  0.00000000000E+00  0.45593999997E+02  0.45594000000E+02  0.51100000000E-03 0. -1.
         11   -1    0    0    0    0 -0.00000000000E+00 -0.00000000000E+00 -0.45593999997E+02  0.45594000000E+02  0.51100000000E-03 0.  1.
    9900012    2    1    2    0    0  0.39216291739E+02 -0.19127298716E+02 -0.11195638010E+02  0.46142318693E+02  0.10000008500E+02 0.  0.
         12    1    1    2    0    0 -0.39216291739E+02  0.19127298716E+02  0.11195638010E+02  0.45045681307E+02  0.00000000000E+00 0. -1.
         11    1    3    3    0    0  0.29603147547E+01  0.83281762309E+00 -0.47129227374E+00  0.31111356944E+01  0.51100000000E-03 0. -1.
        -11    1    3    3    0    0  0.14121478042E+02 -0.10390171134E+02 -0.52752548010E+01  0.18308471038E+02  0.51100000000E-03 0.  1.
         12    1    3    3    0    0  0.22134498943E+02 -0.95699452049E+01 -0.54490909349E+01  0.24722711961E+02  0.00000000000E+00 0. -1.
</event>
<event>
 7    1  0.1381440E-008  0.4614232E+02  0.7816164E-02  0.1320468E+00
        -11   -1    0    0    0    0  0.00000000000E+00  0.00000000000E+00  0.45593999997E+02  0.45594000000E+02  0.51100000000E-03 0. -1.
         11   -1    0    0    0    0 -0.00000000000E+00 -0.00000000000E+00 -0.45593999997E+02  0.45594000000E+02  0.51100000000E-03 0.  1.
    9900012    2    1    2    0    0 -0.73224021265E+01  0.43578655560E+02 -0.87405174504E+01  0.46142318313E+02  0.10000005035E+02 0.  0.
         12    1    1    2    0    0  0.73224021265E+01 -0.43578655560E+02  0.87405174504E+01  0.45045681687E+02  0.00000000000E+00 0. -1.
         11    1    3    3    0    0  0.19361902507E+01  0.61459925506E+01 -0.19899581584E+01  0.67440337226E+01  0.51100000000E-03 0. -1.
        -11    1    3    3    0    0 -0.64184514375E+01  0.32463151396E+02 -0.58022688831E+01  0.33596414123E+02  0.51100000000E-03 0.  1.
         12    1    3    3    0    0 -0.28401409397E+01  0.49695116130E+01 -0.94829040895E+00  0.58018704681E+01  0.00000000000E+00 0. -1.
</event>
<event>
 7    1  0.1381440E-008  0.4614232E+02  0.7816164E-02  0.1320468E+00
        -11   -1    0    0    0    0  0.00000000000E+00  0.00000000000E+00  0.45593999997E+02  0.45594000000E+02  0.51100000000E-03 0.  1.
         11   -1    0    0    0    0 -0.00000000000E+00 -0.00000000000E+00 -0.45593999997E+02  0.45594000000E+02  0.51100000000E-03 0. -1.
    9900012    2    1    2    0    0  0.33255475562E+02  0.19987684789E+02  0.22884043746E+02  0.46142315897E+02  0.99999830056E+01 0.  0.
         12    1    1    2    0    0 -0.33255475562E+02 -0.19987684789E+02 -0.22884043746E+02  0.45045684103E+02  0.00000000000E+00 0. -1.
         11    1    3    3    0    0  0.62070577216E+01  0.37530827269E+00  0.40917886069E+01  0.74438670140E+01  0.51100000000E-03 0. -1.
        -11    1    3    3    0    0  0.10050130291E+02  0.10449318781E+02  0.73929276966E+01  0.16274174696E+02  0.51100000000E-03 0.  1.
        -12    1    3    3    0    0  0.16998287549E+02  0.91630577355E+01  0.11399327443E+02  0.22424274187E+02  0.00000000000E+00 0.  1.
</event>
<event>
 7    1  0.1381440E-008  0.4614231E+02  0.7816164E-02  0.1320468E+00
        -11   -1    0    0    0    0  0.00000000000E+00  0.00000000000E+00  0.45593999997E+02  0.45594000000E+02  0.51100000000E-03 0. -1.
         11   -1    0    0    0    0 -0.00000000000E+00 -0.00000000000E+00 -0.45593999997E+02  0.45594000000E+02  0.51100000000E-03 0.  1.
    9900012    2    1    2    0    0  0.11983044162E+02 -0.42181677289E+02  0.10306626611E+02  0.46142314320E+02  0.99999686200E+01 0.  0.
         12    1    1    2    0    0 -0.11983044162E+02  0.42181677289E+02 -0.10306626611E+02  0.45045685680E+02  0.00000000000E+00 0. -1.
         11    1    3    3    0    0  0.29952083217E+01 -0.23833937302E+02  0.71333133041E+01  0.25058172303E+02  0.51100000000E-03 0. -1.
        -11    1    3    3    0    0  0.57365602074E+01 -0.83723359243E+01  0.93315066649E-01  0.10149524117E+02  0.51100000000E-03 0.  1.
        -12    1    3    3    0    0  0.32512756331E+01 -0.99754040624E+01  0.30799982407E+01  0.10934617900E+02  0.00000000000E+00 0.  1.
</event>
<event>
 7    1  0.1381440E-008  0.4614232E+02  0.7816164E-02  0.1320468E+00
        -11   -1    0    0    0    0  0.00000000000E+00  0.00000000000E+00  0.45593999997E+02  0.45594000000E+02  0.51100000000E-03 0. -1.
         11   -1    0    0    0    0 -0.00000000000E+00 -0.00000000000E+00 -0.45593999997E+02  0.45594000000E+02  0.51100000000E-03 0.  1.
    9900012    2    1    2    0    0  0.25178269772E+02  0.31467596683E+02 -0.20123577512E+02  0.46142320057E+02  0.10000020931E+02 0.  0.
         12    1    1    2    0    0 -0.25178269772E+02 -0.31467596683E+02  0.20123577512E+02  0.45045679943E+02  0.00000000000E+00 0. -1.
         11    1    3    3    0    0 -0.19017221004E+00  0.28198755301E-01  0.31061715622E+00  0.36529976476E+00  0.51100000000E-03 0. -1.
        -11    1    3    3    0    0  0.75389472391E+01  0.53763458220E+01 -0.31664758245E+01  0.97860814057E+01  0.51100000000E-03 0.  1.
         12    1    3    3    0    0  0.17829494743E+02  0.26063052106E+02 -0.17267718843E+02  0.35990938886E+02  0.00000000000E+00 0. -1.
</event>
<event>
 7    1  0.1381440E-008  0.4614232E+02  0.7816164E-02  0.1320468E+00
        -11   -1    0    0    0    0  0.00000000000E+00  0.00000000000E+00  0.45593999997E+02  0.45594000000E+02  0.51100000000E-03 0. -1.
         11   -1    0    0    0    0 -0.00000000000E+00 -0.00000000000E+00 -0.45593999997E+02  0.45594000000E+02  0.51100000000E-03 0.  1.
    9900012    2    1    2    0    0 -0.31901811616E+02 -0.29260925221E+02 -0.12457374237E+02  0.46142317609E+02  0.99999986148E+01 0.  0.
         12    1    1    2    0    0  0.31901811616E+02  0.29260925221E+02  0.12457374237E+02  0.45045682391E+02  0.00000000000E+00 0. -1.
         11    1    3    3    0    0 -0.10838377688E+02 -0.14093003314E+02 -0.47408412051E+01  0.18399966003E+02  0.51100000000E-03 0. -1.
        -11    1    3    3    0    0 -0.20361279656E+02 -0.13901043476E+02 -0.57772902504E+01  0.25321883852E+02  0.51100000000E-03 0.  1.
         12    1    3    3    0    0 -0.70215427267E+00 -0.12668784306E+01 -0.19392427816E+01  0.24204677537E+01  0.00000000000E+00 0. -1.
</event>
<event>
 7    1  0.1381440E-008  0.4614232E+02  0.7816164E-02  0.1320468E+00
        -11   -1    0    0    0    0  0.00000000000E+00  0.00000000000E+00  0.45593999997E+02  0.45594000000E+02  0.51100000000E-03 0.  1.
         11   -1    0    0    0    0 -0.00000000000E+00 -0.00000000000E+00 -0.45593999997E+02  0.45594000000E+02  0.51100000000E-03 0. -1.
    9900012    2    1    2    0    0  0.38794978349E-01  0.17016668445E+02  0.41707853649E+02  0.46142316899E+02  0.99999921411E+01 0.  0.
         12    1    1    2    0    0 -0.38794978349E-01 -0.17016668445E+02 -0.41707853649E+02  0.45045683101E+02  0.00000000000E+00 0. -1.
         11    1    3    3    0    0  0.15967718254E+01  0.31557122576E+01  0.92157003251E+01  0.98710350449E+01  0.51100000000E-03 0. -1.
        -11    1    3    3    0    0 -0.44717949049E+01  0.89043735270E+01  0.24292961199E+02  0.26257052037E+02  0.51100000000E-03 0.  1.
        -12    1    3    3    0    0  0.29138180578E+01  0.49565826600E+01  0.81991921248E+01  0.10014229818E+02  0.00000000000E+00 0.  1.
</event>
<event>
 7    1  0.1381440E-008  0.4614232E+02  0.7816164E-02  0.1320468E+00
        -11   -1    0    0    0    0  0.00000000000E+00  0.00000000000E+00  0.45593999997E+02  0.45594000000E+02  0.51100000000E-03 0.  1.
         11   -1    0    0    0    0 -0.00000000000E+00 -0.00000000000E+00 -0.45593999997E+02  0.45594000000E+02  0.51100000000E-03 0. -1.
    9900012    2    1    2    0    0  0.30852632799E+02 -0.32693829743E+02 -0.28882441816E+01  0.46142318649E+02  0.10000008097E+02 0.  0.
         12    1    1    2    0    0 -0.30852632799E+02  0.32693829743E+02  0.28882441816E+01  0.45045681351E+02  0.00000000000E+00 0. -1.
         11    1    3    3    0    0  0.33966527533E+01 -0.30517628940E+01  0.27479998216E+01  0.53293536164E+01  0.51100000000E-03 0. -1.
        -11    1    3    3    0    0  0.26074491610E+02 -0.28077334449E+02 -0.50782750218E+01  0.38652356978E+02  0.51100000000E-03 0.  1.
        -12    1    3    3    0    0  0.13814884361E+01 -0.15647323999E+01 -0.55796898138E+00  0.21606080548E+01  0.00000000000E+00 0.  1.
</event>
<event>
 7    1  0.1381440E-008  0.4614232E+02  0.7816164E-02  0.1320468E+00
        -11   -1    0    0    0    0  0.00000000000E+00  0.00000000000E+00  0.45593999997E+02  0.45594000000E+02  0.51100000000E-03 0.  1.
         11   -1    0    0    0    0 -0.00000000000E+00 -0.00000000000E+00 -0.45593999997E+02  0.45594000000E+02  0.51100000000E-03 0. -1.
    9900012    2    1    2    0    0  0.38332742070E+02  0.13739193425E+02  0.19260032089E+02  0.46142318890E+02  0.10000010296E+02 0.  0.
         12    1    1    2    0    0 -0.38332742070E+02 -0.13739193425E+02 -0.19260032089E+02  0.45045681110E+02  0.00000000000E+00 0. -1.
         11    1    3    3    0    0  0.15194398640E+02  0.12131088737E+01  0.67483704846E+01  0.16669789670E+02  0.51100000000E-03 0. -1.
        -11    1    3    3    0    0  0.21237759272E+02  0.98961881319E+01  0.11249371580E+02  0.25990869928E+02  0.51100000000E-03 0.  1.
         12    1    3    3    0    0  0.19005841578E+01  0.26298964198E+01  0.12622900240E+01  0.34816592918E+01  0.00000000000E+00 0. -1.
</event>
<event>
 7    1  0.1381440E-008  0.4614232E+02  0.7816164E-02  0.1320468E+00
        -11   -1    0    0    0    0  0.00000000000E+00  0.00000000000E+00  0.45593999997E+02  0.45594000000E+02  0.51100000000E-03 0.  1.
         11   -1    0    0    0    0 -0.00000000000E+00 -0.00000000000E+00 -0.45593999997E+02  0.45594000000E+02  0.51100000000E-03 0. -1.
    9900012    2    1    2    0    0  0.44149149908E+02 -0.70360621263E+01 -0.55190436540E+01  0.46142318180E+02  0.10000003816E+02 0.  0.
         12    1    1    2    0    0 -0.44149149908E+02  0.70360621263E+01  0.55190436540E+01  0.45045681820E+02  0.00000000000E+00 0. -1.
         11    1    3    3    0    0  0.17822007838E+02  0.15784630515E+01 -0.35879020490E+00  0.17895369223E+02  0.51100000000E-03 0. -1.
        -11    1    3    3    0    0  0.10339601640E+02 -0.37036405386E+01 -0.11109578163E+01  0.11038955695E+02  0.51100000000E-03 0.  1.
         12    1    3    3    0    0  0.15987540430E+02 -0.49108846392E+01 -0.40492956328E+01  0.17207993261E+02  0.00000000000E+00 0. -1.
</event>
<event>
 7    1  0.1381440E-008  0.4614232E+02  0.7816164E-02  0.1320468E+00
        -11   -1    0    0    0    0  0.00000000000E+00  0.00000000000E+00  0.45593999997E+02  0.45594000000E+02  0.51100000000E-03 0. -1.
         11   -1    0    0    0    0 -0.00000000000E+00 -0.00000000000E+00 -0.45593999997E+02  0.45594000000E+02  0.51100000000E-03 0.  1.
    9900012    2    1    2    0    0 -0.32948854298E+02  0.30669279480E+02  0.16976316323E+01  0.46142315894E+02  0.99999829731E+01 0.  0.
         12    1    1    2    0    0  0.32948854298E+02 -0.30669279480E+02 -0.16976316323E+01  0.45045684106E+02  0.00000000000E+00 0. -1.
         11    1    3    3    0    0 -0.12893994619E+02  0.12862205019E+02 -0.41647320872E+01  0.18682516127E+02  0.51100000000E-03 0. -1.
        -11    1    3    3    0    0 -0.17910601428E+02  0.15705072716E+02  0.50751935712E+01  0.24355626508E+02  0.51100000000E-03 0.  1.
         12    1    3    3    0    0 -0.21442582508E+01  0.21020017450E+01  0.78717014838E+00  0.31041732595E+01  0.00000000000E+00 0. -1.
</event>
<event>
 7    1  0.1381440E-008  0.4614232E+02  0.7816164E-02  0.1320468E+00
        -11   -1    0    0    0    0  0.00000000000E+00  0.00000000000E+00  0.45593999997E+02  0.45594000000E+02  0.51100000000E-03 0. -1.
         11   -1    0    0    0    0 -0.00000000000E+00 -0.00000000000E+00 -0.45593999997E+02  0.45594000000E+02  0.51100000000E-03 0.  1.
    9900012    2    1    2    0    0 -0.28878437914E+02 -0.29698641067E+02 -0.17695759257E+02  0.46142319261E+02  0.10000013678E+02 0.  0.
         12    1    1    2    0    0  0.28878437914E+02  0.29698641067E+02  0.17695759257E+02  0.45045680739E+02  0.00000000000E+00 0. -1.
         11    1    3    3    0    0 -0.45001305564E+01 -0.75105422502E+01 -0.65016234952E+01  0.10905527417E+02  0.51100000000E-03 0. -1.
        -11    1    3    3    0    0 -0.19276140020E+02 -0.19376201745E+02 -0.75119170050E+01  0.28344940739E+02  0.51100000000E-03 0.  1.
        -12    1    3    3    0    0 -0.51021673371E+01 -0.28118970713E+01 -0.36822187570E+01  0.68918511047E+01  0.00000000000E+00 0.  1.
</event>
<event>
 7    1  0.1381440E-008  0.4614232E+02  0.7816164E-02  0.1320468E+00
        -11   -1    0    0    0    0  0.00000000000E+00  0.00000000000E+00  0.45593999997E+02  0.45594000000E+02  0.51100000000E-03 0.  1.
         11   -1    0    0    0    0 -0.00000000000E+00 -0.00000000000E+00 -0.45593999997E+02  0.45594000000E+02  0.51100000000E-03 0. -1.
    9900012    2    1    2    0    0  0.59237464552E+01  0.15215158656E+02  0.41982395950E+02  0.46142318801E+02  0.10000009486E+02 0.  0.
         12    1    1    2    0    0 -0.59237464552E+01 -0.15215158656E+02 -0.41982395950E+02  0.45045681199E+02  0.00000000000E+00 0. -1.
         11    1    3    3    0    0  0.71181968185E+01  0.75386768761E+01  0.21507496505E+02  0.23876196958E+02  0.51100000000E-03 0.  1.
        -11    1    3    3    0    0  0.95756211278E+00  0.33302455595E+01  0.52758023079E+01  0.63120163925E+01  0.51100000000E-03 0. -1.
         12    1    3    3    0    0 -0.21520124761E+01  0.43462362200E+01  0.15199097137E+02  0.15954105451E+02  0.00000000000E+00 0. -1.
</event>
<event>
 7    1  0.1381440E-008  0.4614232E+02  0.7816164E-02  0.1320468E+00
        -11   -1    0    0    0    0  0.00000000000E+00  0.00000000000E+00  0.45593999997E+02  0.45594000000E+02  0.51100000000E-03 0. -1.
         11   -1    0    0    0    0 -0.00000000000E+00 -0.00000000000E+00 -0.45593999997E+02  0.45594000000E+02  0.51100000000E-03 0.  1.
    9900012    2    1    2    0    0  0.42433218899E+02 -0.13584611590E+01 -0.15056220873E+02  0.46142320187E+02  0.10000022120E+02 0.  0.
         12    1    1    2    0    0 -0.42433218899E+02  0.13584611590E+01  0.15056220873E+02  0.45045679813E+02  0.00000000000E+00 0. -1.
         11    1    3    3    0    0  0.89066816598E+01 -0.13502453828E+01 -0.24136227483E+01  0.93261844189E+01  0.51100000000E-03 0. -1.
        -11    1    3    3    0    0  0.10184994574E+02  0.39023684908E+01 -0.37459631024E+01  0.11532338624E+02  0.51100000000E-03 0.  1.
        -12    1    3    3    0    0  0.23341542666E+02 -0.39105842670E+01 -0.88966350222E+01  0.25283797144E+02  0.00000000000E+00 0.  1.
</event>
<event>
 7    1  0.1381440E-008  0.4614231E+02  0.7816164E-02  0.1320468E+00
        -11   -1    0    0    0    0  0.00000000000E+00  0.00000000000E+00  0.45593999997E+02  0.45594000000E+02  0.51100000000E-03 0.  1.
         11   -1    0    0    0    0 -0.00000000000E+00 -0.00000000000E+00 -0.45593999997E+02  0.45594000000E+02  0.51100000000E-03 0. -1.
    9900012    2    1    2    0    0  0.30675018732E+02  0.31283250995E+02  0.10464962056E+02  0.46142312106E+02  0.99999484321E+01 0.  0.
         12    1    1    2    0    0 -0.30675018732E+02 -0.31283250995E+02 -0.10464962056E+02  0.45045687894E+02  0.00000000000E+00 0. -1.
         11    1    3    3    0    0  0.12429874447E+02  0.92292654144E+01  0.30599726643E+00  0.15484661877E+02  0.51100000000E-03 0. -1.
        -11    1    3    3    0    0  0.13748081448E+02  0.15998702686E+02  0.55268379059E+01  0.21806287365E+02  0.51100000000E-03 0.  1.
        -12    1    3    3    0    0  0.44970628372E+01  0.60552828944E+01  0.46321268832E+01  0.88513628643E+01  0.00000000000E+00 0.  1.
</event>
<event>
 7    1  0.1381440E-008  0.4614232E+02  0.7816164E-02  0.1320468E+00
        -11   -1    0    0    0    0  0.00000000000E+00  0.00000000000E+00  0.45593999997E+02  0.45594000000E+02  0.51100000000E-03 0.  1.
         11   -1    0    0    0    0 -0.00000000000E+00 -0.00000000000E+00 -0.45593999997E+02  0.45594000000E+02  0.51100000000E-03 0. -1.
    9900012    2    1    2    0    0 -0.98965075992E+01 -0.20985010153E+02  0.38610901804E+02  0.46142320386E+02  0.10000023939E+02 0.  0.
         12    1    1    2    0    0  0.98965075992E+01  0.20985010153E+02 -0.38610901804E+02  0.45045679614E+02  0.00000000000E+00 0. -1.
         11    1    3    3    0    0 -0.26688248245E+01 -0.68011270387E+01  0.59526629493E+01  0.94240199167E+01  0.51100000000E-03 0.  1.
        -11    1    3    3    0    0 -0.25479376653E+01 -0.80055144847E+01  0.21922470112E+02  0.23477115338E+02  0.51100000000E-03 0. -1.
         12    1    3    3    0    0 -0.46797451094E+01 -0.61783686295E+01  0.10735768742E+02  0.13241185132E+02  0.00000000000E+00 0. -1.
</event>
<event>
 7    1  0.1381440E-008  0.4614233E+02  0.7816164E-02  0.1320468E+00
        -11   -1    0    0    0    0  0.00000000000E+00  0.00000000000E+00  0.45593999997E+02  0.45594000000E+02  0.51100000000E-03 0. -1.
         11   -1    0    0    0    0 -0.00000000000E+00 -0.00000000000E+00 -0.45593999997E+02  0.45594000000E+02  0.51100000000E-03 0.  1.
    9900012    2    1    2    0    0  0.26458193015E+02 -0.29782617199E+02 -0.21025514353E+02  0.46142328525E+02  0.10000098153E+02 0.  0.
         12    1    1    2    0    0 -0.26458193015E+02  0.29782617199E+02  0.21025514353E+02  0.45045671475E+02  0.00000000000E+00 0. -1.
         11    1    3    3    0    0  0.10376651348E+02 -0.11081222170E+02 -0.44580661638E+01  0.15822222731E+02  0.51100000000E-03 0. -1.
        -11    1    3    3    0    0  0.26400997740E+01 -0.36183438125E+01 -0.60953180659E+01  0.75640889304E+01  0.51100000000E-03 0.  1.
        -12    1    3    3    0    0  0.13441441892E+02 -0.15083051217E+02 -0.10472130124E+02  0.22756016863E+02  0.00000000000E+00 0.  1.
</event>
<event>
 7    1  0.1381440E-008  0.4614232E+02  0.7816164E-02  0.1320468E+00
        -11   -1    0    0    0    0  0.00000000000E+00  0.00000000000E+00  0.45593999997E+02  0.45594000000E+02  0.51100000000E-03 0.  1.
         11   -1    0    0    0    0 -0.00000000000E+00 -0.00000000000E+00 -0.45593999997E+02  0.45594000000E+02  0.51100000000E-03 0. -1.
    9900012    2    1    2    0    0 -0.45233485718E+01 -0.27801219357E+02  0.35153164718E+02  0.46142317968E+02  0.10000001890E+02 0.  0.
         12    1    1    2    0    0  0.45233485718E+01  0.27801219357E+02 -0.35153164718E+02  0.45045682032E+02  0.00000000000E+00 0. -1.
         11    1    3    3    0    0 -0.26013046725E+01 -0.33429089351E+01  0.81771156717E+01  0.92090741727E+01  0.51100000000E-03 0. -1.
        -11    1    3    3    0    0 -0.25450782987E+00 -0.19671817411E+02  0.18211814025E+02  0.26808866907E+02  0.51100000000E-03 0.  1.
        -12    1    3    3    0    0 -0.16675360694E+01 -0.47864930104E+01  0.87642350211E+01  0.10124376889E+02  0.00000000000E+00 0.  1.
</event>
<event>
 7    1  0.1381440E-008  0.4614232E+02  0.7816164E-02  0.1320468E+00
        -11   -1    0    0    0    0  0.00000000000E+00  0.00000000000E+00  0.45593999997E+02  0.45594000000E+02  0.51100000000E-03 0. -1.
         11   -1    0    0    0    0 -0.00000000000E+00 -0.00000000000E+00 -0.45593999997E+02  0.45594000000E+02  0.51100000000E-03 0.  1.
    9900012    2    1    2    0    0 -0.16869151028E+02  0.24568471918E+02 -0.33777736585E+02  0.46142316993E+02  0.99999929918E+01 0.  0.
         12    1    1    2    0    0  0.16869151028E+02 -0.24568471918E+02  0.33777736585E+02  0.45045683007E+02  0.00000000000E+00 0. -1.
         11    1    3    3    0    0 -0.74899622454E+01  0.12243734355E+02 -0.10518706823E+02  0.17794711543E+02  0.51100000000E-03 0. -1.
        -11    1    3    3    0    0 -0.92954901109E+01  0.12567055340E+02 -0.21565104737E+02  0.26634390530E+02  0.51100000000E-03 0.  1.
         12    1    3    3    0    0 -0.83698672122E-01 -0.24231777678E+00 -0.16939250248E+01  0.17132149201E+01  0.00000000000E+00 0. -1.
</event>
<event>
 7    1  0.1381440E-008  0.4614232E+02  0.7816164E-02  0.1320468E+00
        -11   -1    0    0    0    0  0.00000000000E+00  0.00000000000E+00  0.45593999997E+02  0.45594000000E+02  0.51100000000E-03 0.  1.
         11   -1    0    0    0    0 -0.00000000000E+00 -0.00000000000E+00 -0.45593999997E+02  0.45594000000E+02  0.51100000000E-03 0. -1.
    9900012    2    1    2    0    0 -0.20939284046E+02  0.18591424909E+02  0.35284823872E+02  0.46142317719E+02  0.99999996143E+01 0.  0.
         12    1    1    2    0    0  0.20939284046E+02 -0.18591424909E+02 -0.35284823872E+02  0.45045682281E+02  0.00000000000E+00 0. -1.
         11    1    3    3    0    0 -0.25776438114E+00  0.16965354666E+01  0.62040914102E+01  0.64370354630E+01  0.51100000000E-03 0. -1.
        -11    1    3    3    0    0 -0.41026736041E+01  0.57043319450E+01  0.72259519681E+01  0.10078973943E+02  0.51100000000E-03 0.  1.
         12    1    3    3    0    0 -0.16578846061E+02  0.11190557498E+02  0.21854780493E+02  0.29626308313E+02  0.00000000000E+00 0. -1.
</event>
<event>
 7    1  0.1381440E-008  0.4614232E+02  0.7816164E-02  0.1320468E+00
        -11   -1    0    0    0    0  0.00000000000E+00  0.00000000000E+00  0.45593999997E+02  0.45594000000E+02  0.51100000000E-03 0.  1.
         11   -1    0    0    0    0 -0.00000000000E+00 -0.00000000000E+00 -0.45593999997E+02  0.45594000000E+02  0.51100000000E-03 0. -1.
    9900012    2    1    2    0    0  0.30315373383E+02  0.14514095187E+02  0.29990541333E+02  0.46142318832E+02  0.10000009766E+02 0.  0.
         12    1    1    2    0    0 -0.30315373383E+02 -0.14514095187E+02 -0.29990541333E+02  0.45045681168E+02  0.00000000000E+00 0. -1.
         11    1    3    3    0    0  0.32290044678E+01  0.52854700070E+01  0.50667749319E+01  0.80021791732E+01  0.51100000000E-03 0. -1.
        -11    1    3    3    0    0  0.44926318034E+01  0.30335706590E+01  0.52688355638E+01  0.75595581831E+01  0.51100000000E-03 0.  1.
         12    1    3    3    0    0  0.22593737112E+02  0.61950545211E+01  0.19654930837E+02  0.30580581476E+02  0.00000000000E+00 0. -1.
</event>
<event>
 7    1  0.1381440E-008  0.4614232E+02  0.7816164E-02  0.1320468E+00
        -11   -1    0    0    0    0  0.00000000000E+00  0.00000000000E+00  0.45593999997E+02  0.45594000000E+02  0.51100000000E-03 0.  1.
         11   -1    0    0    0    0 -0.00000000000E+00 -0.00000000000E+00 -0.45593999997E+02  0.45594000000E+02  0.51100000000E-03 0. -1.
    9900012    2    1    2    0    0  0.32388275492E+02 -0.29969993976E+02  0.90505419586E+01  0.46142320540E+02  0.10000025337E+02 0.  0.
         12    1    1    2    0    0 -0.32388275492E+02  0.29969993976E+02 -0.90505419586E+01  0.45045679460E+02  0.00000000000E+00 0. -1.
         11    1    3    3    0    0  0.90719046388E+01 -0.58623462374E+01 -0.13287516601E+01  0.10882653096E+02  0.51100000000E-03 0. -1.
        -11    1    3    3    0    0  0.10398862301E+02 -0.97038760728E+01  0.59117979686E+01  0.15402951129E+02  0.51100000000E-03 0.  1.
        -12    1    3    3    0    0  0.12917508552E+02 -0.14403771666E+02  0.44674956502E+01  0.19856716314E+02  0.00000000000E+00 0.  1.
</event>
<event>
 7    1  0.1381440E-008  0.4614232E+02  0.7816164E-02  0.1320468E+00
        -11   -1    0    0    0    0  0.00000000000E+00  0.00000000000E+00  0.45593999997E+02  0.45594000000E+02  0.51100000000E-03 0.  1.
         11   -1    0    0    0    0 -0.00000000000E+00 -0.00000000000E+00 -0.45593999997E+02  0.45594000000E+02  0.51100000000E-03 0. -1.
    9900012    2    1    2    0    0 -0.25798150645E+02 -0.12434561843E+02  0.34769967270E+02  0.46142317312E+02  0.99999959036E+01 0.  0.
         12    1    1    2    0    0  0.25798150645E+02  0.12434561843E+02 -0.34769967270E+02  0.45045682688E+02  0.00000000000E+00 0. -1.
         11    1    3    3    0    0 -0.61153032318E+01 -0.14077819590E+01  0.76643370769E+01  0.99055967387E+01  0.51100000000E-03 0. -1.
        -11    1    3    3    0    0 -0.15237183640E+02 -0.10849466261E+02  0.25231826329E+02  0.31409039202E+02  0.51100000000E-03 0.  1.
        -12    1    3    3    0    0 -0.44456637729E+01 -0.17731362270E+00  0.18738038637E+01  0.48276813713E+01  0.00000000000E+00 0.  1.
</event>
<event>
 7    1  0.1381440E-008  0.4614232E+02  0.7816164E-02  0.1320468E+00
        -11   -1    0    0    0    0  0.00000000000E+00  0.00000000000E+00  0.45593999997E+02  0.45594000000E+02  0.51100000000E-03 0.  1.
         11   -1    0    0    0    0 -0.00000000000E+00 -0.00000000000E+00 -0.45593999997E+02  0.45594000000E+02  0.51100000000E-03 0. -1.
    9900012    2    1    2    0    0  0.78806874428E+00 -0.19070050811E+02  0.40802274485E+02  0.46142317705E+02  0.99999994894E+01 0.  0.
         12    1    1    2    0    0 -0.78806874428E+00  0.19070050811E+02 -0.40802274485E+02  0.45045682295E+02  0.00000000000E+00 0. -1.
         11    1    3    3    0    0 -0.36391184085E+01 -0.41348662347E+01  0.11267307254E+02  0.12541631257E+02  0.51100000000E-03 0. -1.
        -11    1    3    3    0    0  0.28182662715E+01 -0.13449791942E+02  0.26587454167E+02  0.29928786267E+02  0.51100000000E-03 0.  1.
         12    1    3    3    0    0  0.16089208813E+01 -0.14853926341E+01  0.29475130640E+01  0.36719001813E+01  0.00000000000E+00 0. -1.
</event>
<event>
 7    1  0.1381440E-008  0.4614232E+02  0.7816164E-02  0.1320468E+00
        -11   -1    0    0    0    0  0.00000000000E+00  0.00000000000E+00  0.45593999997E+02  0.45594000000E+02  0.51100000000E-03 0. -1.
         11   -1    0    0    0    0 -0.00000000000E+00 -0.00000000000E+00 -0.45593999997E+02  0.45594000000E+02  0.51100000000E-03 0.  1.
    9900012    2    1    2    0    0  0.16926801851E+02 -0.14909149437E+02 -0.38991207902E+02  0.46142315951E+02  0.99999834900E+01 0.  0.
         12    1    1    2    0    0 -0.16926801851E+02  0.14909149437E+02  0.38991207902E+02  0.45045684049E+02  0.00000000000E+00 0. -1.
         11    1    3    3    0    0  0.82552126758E+01 -0.40892859819E+01 -0.15183168651E+02  0.17759487794E+02  0.51100000000E-03 0. -1.
        -11    1    3    3    0    0  0.20346617797E+01 -0.99194087184E+00 -0.63402583923E+00  0.23506986785E+01  0.51100000000E-03 0.  1.
        -12    1    3    3    0    0  0.66369273956E+01 -0.98279225829E+01 -0.23174013412E+02  0.26032129478E+02  0.00000000000E+00 0.  1.
</event>
<event>
 7    1  0.1381440E-008  0.4614232E+02  0.7816164E-02  0.1320468E+00
        -11   -1    0    0    0    0  0.00000000000E+00  0.00000000000E+00  0.45593999997E+02  0.45594000000E+02  0.51100000000E-03 0.  1.
         11   -1    0    0    0    0 -0.00000000000E+00 -0.00000000000E+00 -0.45593999997E+02  0.45594000000E+02  0.51100000000E-03 0. -1.
    9900012    2    1    2    0    0 -0.21735466225E+02  0.24098522088E+02  0.31240105644E+02  0.46142318082E+02  0.10000002923E+02 0.  0.
         12    1    1    2    0    0  0.21735466225E+02 -0.24098522088E+02 -0.31240105644E+02  0.45045681918E+02  0.00000000000E+00 0. -1.
         11    1    3    3    0    0 -0.47210824707E+01  0.97541834671E+01  0.11159087009E+02  0.15554997202E+02  0.51100000000E-03 0. -1.
        -11    1    3    3    0    0 -0.84407351435E+01  0.62728451318E+01  0.55721752819E+01  0.11901417287E+02  0.51100000000E-03 0.  1.
        -12    1    3    3    0    0 -0.85736486104E+01  0.80714934896E+01  0.14508843353E+02  0.18685903593E+02  0.00000000000E+00 0.  1.
</event>
<event>
 7    1  0.1381440E-008  0.4614232E+02  0.7816164E-02  0.1320468E+00
        -11   -1    0    0    0    0  0.00000000000E+00  0.00000000000E+00  0.45593999997E+02  0.45594000000E+02  0.51100000000E-03 0.  1.
         11   -1    0    0    0    0 -0.00000000000E+00 -0.00000000000E+00 -0.45593999997E+02  0.45594000000E+02  0.51100000000E-03 0. -1.
    9900012    2    1    2    0    0 -0.15380142478E+02  0.94198359548E+01  0.41277492560E+02  0.46142317809E+02  0.10000000436E+02 0.  0.
         12    1    1    2    0    0  0.15380142478E+02 -0.94198359548E+01 -0.41277492560E+02  0.45045682191E+02  0.00000000000E+00 0. -1.
         11    1    3    3    0    0 -0.10998632284E+02  0.36819969817E+01  0.21735907055E+02  0.24636896510E+02  0.51100000000E-03 0. -1.
        -11    1    3    3    0    0 -0.52961468771E+01  0.44912525236E+01  0.12531597538E+02  0.14326948666E+02  0.51100000000E-03 0.  1.
         12    1    3    3    0    0  0.91463668370E+00  0.12465864494E+01  0.70099879667E+01  0.71784726322E+01  0.00000000000E+00 0. -1.
</event>
<event>
 7    1  0.1381440E-008  0.4614232E+02  0.7816164E-02  0.1320468E+00
        -11   -1    0    0    0    0  0.00000000000E+00  0.00000000000E+00  0.45593999997E+02  0.45594000000E+02  0.51100000000E-03 0.  1.
         11   -1    0    0    0    0 -0.00000000000E+00 -0.00000000000E+00 -0.45593999997E+02  0.45594000000E+02  0.51100000000E-03 0. -1.
    9900012    2    1    2    0    0 -0.13584781243E+02 -0.18992983376E+01  0.42906409239E+02  0.46142316862E+02  0.99999917992E+01 0.  0.
         12    1    1    2    0    0  0.13584781243E+02  0.18992983376E+01 -0.42906409239E+02  0.45045683138E+02  0.00000000000E+00 0. -1.
         11    1    3    3    0    0 -0.27721317868E+01 -0.39648962441E+01  0.12483343215E+02  0.13388016095E+02  0.51100000000E-03 0. -1.
        -11    1    3    3    0    0 -0.37486664563E+01  0.32501751808E+01  0.13167319722E+02  0.14071049990E+02  0.51100000000E-03 0.  1.
        -12    1    3    3    0    0 -0.70639830004E+01 -0.11845772743E+01  0.17255746302E+02  0.18683250777E+02  0.00000000000E+00 0.  1.
</event>
<event>
 7    1  0.1381440E-008  0.4614232E+02  0.7816164E-02  0.1320468E+00
        -11   -1    0    0    0    0  0.00000000000E+00  0.00000000000E+00  0.45593999997E+02  0.45594000000E+02  0.51100000000E-03 0.  1.
         11   -1    0    0    0    0 -0.00000000000E+00 -0.00000000000E+00 -0.45593999997E+02  0.45594000000E+02  0.51100000000E-03 0. -1.
    9900012    2    1    2    0    0  0.27978218423E+02 -0.21917017225E+02 -0.27676292810E+02  0.46142317256E+02  0.99999953968E+01 0.  0.
         12    1    1    2    0    0 -0.27978218423E+02  0.21917017225E+02  0.27676292810E+02  0.45045682744E+02  0.00000000000E+00 0. -1.
         11    1    3    3    0    0  0.93964272033E+01 -0.54137320320E+01 -0.12968811136E+02  0.16905366049E+02  0.51100000000E-03 0. -1.
        -11    1    3    3    0    0  0.11479434060E+02 -0.11830381165E+02 -0.11718097918E+02  0.20224963385E+02  0.51100000000E-03 0.  1.
        -12    1    3    3    0    0  0.71023571589E+01 -0.46729040285E+01 -0.29893837558E+01  0.90119878224E+01  0.00000000000E+00 0.  1.
</event>
<event>
 7    1  0.1381440E-008  0.4614232E+02  0.7816164E-02  0.1320468E+00
        -11   -1    0    0    0    0  0.00000000000E+00  0.00000000000E+00  0.45593999997E+02  0.45594000000E+02  0.51100000000E-03 0.  1.
         11   -1    0    0    0    0 -0.00000000000E+00 -0.00000000000E+00 -0.45593999997E+02  0.45594000000E+02  0.51100000000E-03 0. -1.
    9900012    2    1    2    0    0  0.29410542554E+02  0.88359502171E+01  0.32955418717E+02  0.46142315941E+02  0.99999833988E+01 0.  0.
         12    1    1    2    0    0 -0.29410542554E+02 -0.88359502171E+01 -0.32955418717E+02  0.45045684059E+02  0.00000000000E+00 0. -1.
         11    1    3    3    0    0  0.12805732153E+02  0.89382335547E+01  0.15468557091E+02  0.21980788289E+02  0.51100000000E-03 0. -1.
        -11    1    3    3    0    0  0.10955768008E+02 -0.13983942367E+00  0.10488490278E+02  0.15167624609E+02  0.51100000000E-03 0.  1.
         12    1    3    3    0    0  0.56490423940E+01  0.37556086097E-01  0.69983713480E+01  0.89939030434E+01  0.00000000000E+00 0. -1.
</event>
<event>
 7    1  0.1381440E-008  0.4614232E+02  0.7816164E-02  0.1320468E+00
        -11   -1    0    0    0    0  0.00000000000E+00  0.00000000000E+00  0.45593999997E+02  0.45594000000E+02  0.51100000000E-03 0.  1.
         11   -1    0    0    0    0 -0.00000000000E+00 -0.00000000000E+00 -0.45593999997E+02  0.45594000000E+02  0.51100000000E-03 0. -1.
    9900012    2    1    2    0    0 -0.37168707385E+02 -0.53222357953E+01  0.24885226950E+02  0.46142317378E+02  0.99999965057E+01 0.  0.
         12    1    1    2    0    0  0.37168707385E+02  0.53222357953E+01 -0.24885226950E+02  0.45045682622E+02  0.00000000000E+00 0. -1.
         11    1    3    3    0    0 -0.61519985658E+01  0.52008543609E+00  0.64221936001E+01  0.89085434338E+01  0.51100000000E-03 0.  1.
        -11    1    3    3    0    0 -0.62006257796E+01 -0.11317326930E+01  0.67365362660E+00  0.63389579914E+01  0.51100000000E-03 0. -1.
         12    1    3    3    0    0 -0.24816083040E+02 -0.47105885384E+01  0.17789379723E+02  0.30894815953E+02  0.00000000000E+00 0. -1.
</event>
<event>
 7    1  0.1381440E-008  0.4614232E+02  0.7816164E-02  0.1320468E+00
        -11   -1    0    0    0    0  0.00000000000E+00  0.00000000000E+00  0.45593999997E+02  0.45594000000E+02  0.51100000000E-03 0.  1.
         11   -1    0    0    0    0 -0.00000000000E+00 -0.00000000000E+00 -0.45593999997E+02  0.45594000000E+02  0.51100000000E-03 0. -1.
    9900012    2    1    2    0    0  0.21150651828E+02  0.32570230325E+02  0.22824186092E+02  0.46142318221E+02  0.10000004194E+02 0.  0.
         12    1    1    2    0    0 -0.21150651828E+02 -0.32570230325E+02 -0.22824186092E+02  0.45045681779E+02  0.00000000000E+00 0. -1.
         11    1    3    3    0    0  0.41557779606E+00  0.50607338519E+01  0.73604503436E+00  0.51308376098E+01  0.51100000000E-03 0. -1.
        -11    1    3    3    0    0  0.53727505048E+01  0.68269190692E+01  0.42217997786E+01  0.96590302617E+01  0.51100000000E-03 0.  1.
         12    1    3    3    0    0  0.15362323528E+02  0.20682577403E+02  0.17866341279E+02  0.31352450350E+02  0.00000000000E+00 0. -1.
</event>
<event>
 7    1  0.1381440E-008  0.4614232E+02  0.7816164E-02  0.1320468E+00
        -11   -1    0    0    0    0  0.00000000000E+00  0.00000000000E+00  0.45593999997E+02  0.45594000000E+02  0.51100000000E-03 0.  1.
         11   -1    0    0    0    0 -0.00000000000E+00 -0.00000000000E+00 -0.45593999997E+02  0.45594000000E+02  0.51100000000E-03 0. -1.
    9900012    2    1    2    0    0  0.46364039539E+01  0.44515265018E+02 -0.50998432707E+01  0.46142318047E+02  0.10000002607E+02 0.  0.
         12    1    1    2    0    0 -0.46364039539E+01 -0.44515265018E+02  0.50998432707E+01  0.45045681953E+02  0.00000000000E+00 0. -1.
         11    1    3    3    0    0  0.37381612503E+01  0.24705499576E+02 -0.10864849946E+01  0.25010318046E+02  0.51100000000E-03 0. -1.
        -11    1    3    3    0    0  0.20599128911E+01  0.22155567278E+01  0.96852697471E-01  0.30267661686E+01  0.51100000000E-03 0.  1.
         12    1    3    3    0    0 -0.11616701874E+01  0.17594208714E+02 -0.41102109735E+01  0.18105233833E+02  0.00000000000E+00 0. -1.
</event>
<event>
 7    1  0.1381440E-008  0.4614232E+02  0.7816164E-02  0.1320468E+00
        -11   -1    0    0    0    0  0.00000000000E+00  0.00000000000E+00  0.45593999997E+02  0.45594000000E+02  0.51100000000E-03 0.  1.
         11   -1    0    0    0    0 -0.00000000000E+00 -0.00000000000E+00 -0.45593999997E+02  0.45594000000E+02  0.51100000000E-03 0. -1.
    9900012    2    1    2    0    0  0.23254616364E+02  0.24158909567E+02  0.30077955492E+02  0.46142317629E+02  0.99999987937E+01 0.  0.
         12    1    1    2    0    0 -0.23254616364E+02 -0.24158909567E+02 -0.30077955492E+02  0.45045682371E+02  0.00000000000E+00 0. -1.
         11    1    3    3    0    0  0.32773580005E+01  0.61976496656E+01  0.10291148604E+02  0.12452296041E+02  0.51100000000E-03 0. -1.
        -11    1    3    3    0    0  0.16770846803E+02  0.16552932261E+02  0.15735626894E+02  0.28334975259E+02  0.51100000000E-03 0.  1.
        -12    1    3    3    0    0  0.32064115604E+01  0.14083276402E+01  0.40511799940E+01  0.53550463285E+01  0.00000000000E+00 0.  1.
</event>
<event>
 7    1  0.1381440E-008  0.4614231E+02  0.7816164E-02  0.1320468E+00
        -11   -1    0    0    0    0  0.00000000000E+00  0.00000000000E+00  0.45593999997E+02  0.45594000000E+02  0.51100000000E-03 0. -1.
         11   -1    0    0    0    0 -0.00000000000E+00 -0.00000000000E+00 -0.45593999997E+02  0.45594000000E+02  0.51100000000E-03 0.  1.
    9900012    2    1    2    0    0  0.39332875429E+02 -0.17991269548E+02 -0.12583834949E+02  0.46142314619E+02  0.99999713443E+01 0.  0.
         12    1    1    2    0    0 -0.39332875429E+02  0.17991269548E+02  0.12583834949E+02  0.45045685381E+02  0.00000000000E+00 0. -1.
         11    1    3    3    0    0  0.24279340754E+02 -0.15407346408E+02 -0.10902022907E+02  0.30752671665E+02  0.51100000000E-03 0. -1.
        -11    1    3    3    0    0  0.82819762367E+01 -0.18156210679E+01 -0.76162786984E+00  0.85127955174E+01  0.51100000000E-03 0.  1.
         12    1    3    3    0    0  0.67715584377E+01 -0.76830207193E+00 -0.92018417218E+00  0.68768474361E+01  0.00000000000E+00 0. -1.
</event>
<event>
 7    1  0.1381440E-008  0.4614232E+02  0.7816164E-02  0.1320468E+00
        -11   -1    0    0    0    0  0.00000000000E+00  0.00000000000E+00  0.45593999997E+02  0.45594000000E+02  0.51100000000E-03 0. -1.
         11   -1    0    0    0    0 -0.00000000000E+00 -0.00000000000E+00 -0.45593999997E+02  0.45594000000E+02  0.51100000000E-03 0.  1.
    9900012    2    1    2    0    0 -0.70888343833E+01 -0.28843342635E+02 -0.33866257502E+02  0.46142318915E+02  0.10000010518E+02 0.  0.
         12    1    1    2    0    0  0.70888343833E+01  0.28843342635E+02  0.33866257502E+02  0.45045681085E+02  0.00000000000E+00 0. -1.
         11    1    3    3    0    0 -0.26925683671E+00 -0.86340543417E+01 -0.55291610642E+01  0.10256267155E+02  0.51100000000E-03 0. -1.
        -11    1    3    3    0    0 -0.10088110656E+01 -0.11126298175E+02 -0.13051684203E+02  0.17180182526E+02  0.51100000000E-03 0.  1.
         12    1    3    3    0    0 -0.58107664810E+01 -0.90829901183E+01 -0.15285412235E+02  0.18705869234E+02  0.00000000000E+00 0. -1.
</event>
<event>
 7    1  0.1381440E-008  0.4614232E+02  0.7816164E-02  0.1320468E+00
        -11   -1    0    0    0    0  0.00000000000E+00  0.00000000000E+00  0.45593999997E+02  0.45594000000E+02  0.51100000000E-03 0.  1.
         11   -1    0    0    0    0 -0.00000000000E+00 -0.00000000000E+00 -0.45593999997E+02  0.45594000000E+02  0.51100000000E-03 0. -1.
    9900012    2    1    2    0    0 -0.16033352480E+02 -0.72919494969E+00  0.42089350891E+02  0.46142316794E+02  0.99999911842E+01 0.  0.
         12    1    1    2    0    0  0.16033352480E+02  0.72919494969E+00 -0.42089350891E+02  0.45045683206E+02  0.00000000000E+00 0. -1.
         11    1    3    3    0    0 -0.82596424381E+00 -0.22329907264E+01  0.34762418646E+01  0.42133979492E+01  0.51100000000E-03 0. -1.
        -11    1    3    3    0    0 -0.13458074437E+02  0.26455236331E+01  0.28843428356E+02  0.31938408264E+02  0.51100000000E-03 0.  1.
         12    1    3    3    0    0 -0.17493137991E+01 -0.11417278564E+01  0.97696806708E+01  0.99905105813E+01  0.00000000000E+00 0. -1.
</event>
<event>
 7    1  0.1381440E-008  0.4614232E+02  0.7816164E-02  0.1320468E+00
        -11   -1    0    0    0    0  0.00000000000E+00  0.00000000000E+00  0.45593999997E+02  0.45594000000E+02  0.51100000000E-03 0. -1.
         11   -1    0    0    0    0 -0.00000000000E+00 -0.00000000000E+00 -0.45593999997E+02  0.45594000000E+02  0.51100000000E-03 0.  1.
    9900012    2    1    2    0    0  0.10240853797E+02  0.43861202271E+02  0.65825407477E+00  0.46142318191E+02  0.10000003921E+02 0.  0.
         12    1    1    2    0    0 -0.10240853797E+02 -0.43861202271E+02 -0.65825407477E+00  0.45045681809E+02  0.00000000000E+00 0. -1.
         11    1    3    3    0    0 -0.13885417545E+01  0.12377351421E+02 -0.76926539224E+00  0.12478727736E+02  0.51100000000E-03 0. -1.
        -11    1    3    3    0    0  0.43412180529E+01  0.12365392774E+02 -0.48190130142E+00  0.13114165690E+02  0.51100000000E-03 0.  1.
        -12    1    3    3    0    0  0.72881774991E+01  0.19118458077E+02  0.19094207684E+01  0.20549424765E+02  0.00000000000E+00 0.  1.
</event>
<event>
 7    1  0.1381440E-008  0.4614232E+02  0.7816164E-02  0.1320468E+00
        -11   -1    0    0    0    0  0.00000000000E+00  0.00000000000E+00  0.45593999997E+02  0.45594000000E+02  0.51100000000E-03 0. -1.
         11   -1    0    0    0    0 -0.00000000000E+00 -0.00000000000E+00 -0.45593999997E+02  0.45594000000E+02  0.51100000000E-03 0.  1.
    9900012    2    1    2    0    0 -0.16072997297E+02  0.42071795549E+02  0.85809324284E+00  0.46142317112E+02  0.99999940784E+01 0.  0.
         12    1    1    2    0    0  0.16072997297E+02 -0.42071795549E+02 -0.85809324284E+00  0.45045682888E+02  0.00000000000E+00 0. -1.
         11    1    3    3    0    0 -0.90784473322E+01  0.27172314041E+02  0.28475996151E+01  0.28789957974E+02  0.51100000000E-03 0. -1.
        -11    1    3    3    0    0 -0.72765355680E+01  0.13904520916E+02 -0.71313587421E+00  0.15709622364E+02  0.51100000000E-03 0.  1.
         12    1    3    3    0    0  0.28198560320E+00  0.99496059245E+00 -0.12763704981E+01  0.16427367742E+01  0.00000000000E+00 0. -1.
</event>
<event>
 7    1  0.1381440E-008  0.4614232E+02  0.7816164E-02  0.1320468E+00
        -11   -1    0    0    0    0  0.00000000000E+00  0.00000000000E+00  0.45593999997E+02  0.45594000000E+02  0.51100000000E-03 0. -1.
         11   -1    0    0    0    0 -0.00000000000E+00 -0.00000000000E+00 -0.45593999997E+02  0.45594000000E+02  0.51100000000E-03 0.  1.
    9900012    2    1    2    0    0 -0.34982933418E+02 -0.89299059345E+00 -0.28363892643E+02  0.46142317981E+02  0.10000002001E+02 0.  0.
         12    1    1    2    0    0  0.34982933418E+02  0.89299059345E+00  0.28363892643E+02  0.45045682019E+02  0.00000000000E+00 0. -1.
         11    1    3    3    0    0 -0.12223830748E+02  0.49959004846E+00 -0.57594104730E+01  0.13521924331E+02  0.51100000000E-03 0. -1.
        -11    1    3    3    0    0 -0.86103959540E+00 -0.10236645796E+01 -0.27551508805E+01  0.30627006043E+01  0.51100000000E-03 0.  1.
        -12    1    3    3    0    0 -0.21898063075E+02 -0.36891606229E+00 -0.19849331290E+02  0.29557693045E+02  0.00000000000E+00 0.  1.
</event>
<event>
 7    1  0.1381440E-008  0.4614232E+02  0.7816164E-02  0.1320468E+00
        -11   -1    0    0    0    0  0.00000000000E+00  0.00000000000E+00  0.45593999997E+02  0.45594000000E+02  0.51100000000E-03 0.  1.
         11   -1    0    0    0    0 -0.00000000000E+00 -0.00000000000E+00 -0.45593999997E+02  0.45594000000E+02  0.51100000000E-03 0. -1.
    9900012    2    1    2    0    0 -0.72755261384E+01  0.42169861713E+01  0.44253782640E+02  0.46142317289E+02  0.99999956975E+01 0.  0.
         12    1    1    2    0    0  0.72755261384E+01 -0.42169861713E+01 -0.44253782640E+02  0.45045682711E+02  0.00000000000E+00 0. -1.
         11    1    3    3    0    0 -0.26564452891E+01 -0.20483115152E+01  0.17539540486E+02  0.17857428773E+02  0.51100000000E-03 0. -1.
        -11    1    3    3    0    0 -0.33560713322E+01  0.40268954191E+01  0.23923014060E+02  0.24490604392E+02  0.51100000000E-03 0.  1.
         12    1    3    3    0    0 -0.12630095171E+01  0.22384022674E+01  0.27912280934E+01  0.37942841249E+01  0.00000000000E+00 0. -1.
</event>
<event>
 7    1  0.1381440E-008  0.4614231E+02  0.7816164E-02  0.1320468E+00
        -11   -1    0    0    0    0  0.00000000000E+00  0.00000000000E+00  0.45593999997E+02  0.45594000000E+02  0.51100000000E-03 0.  1.
         11   -1    0    0    0    0 -0.00000000000E+00 -0.00000000000E+00 -0.45593999997E+02  0.45594000000E+02  0.51100000000E-03 0. -1.
    9900012    2    1    2    0    0 -0.15042587915E+02 -0.36680883653E+02  0.21385674499E+02  0.46142314851E+02  0.99999734632E+01 0.  0.
         12    1    1    2    0    0  0.15042587915E+02  0.36680883653E+02 -0.21385674499E+02  0.45045685149E+02  0.00000000000E+00 0. -1.
         11    1    3    3    0    0 -0.75948785345E+00 -0.11322727320E+02  0.51440900449E+01  0.12459640380E+02  0.51100000000E-03 0. -1.
        -11    1    3    3    0    0 -0.13428926546E+02 -0.22190387701E+02  0.12786033287E+02  0.28917676635E+02  0.51100000000E-03 0.  1.
        -12    1    3    3    0    0 -0.85417351584E+00 -0.31677686326E+01  0.34555511670E+01  0.47649978355E+01  0.00000000000E+00 0.  1.
</event>
<event>
 7    1  0.1381440E-008  0.4614232E+02  0.7816164E-02  0.1320468E+00
        -11   -1    0    0    0    0  0.00000000000E+00  0.00000000000E+00  0.45593999997E+02  0.45594000000E+02  0.51100000000E-03 0. -1.
         11   -1    0    0    0    0 -0.00000000000E+00 -0.00000000000E+00 -0.45593999997E+02  0.45594000000E+02  0.51100000000E-03 0.  1.
    9900012    2    1    2    0    0  0.46957309549E+00 -0.82679682593E+01 -0.44277914544E+02  0.46142317472E+02  0.99999973668E+01 0.  0.
         12    1    1    2    0    0 -0.46957309549E+00  0.82679682593E+01  0.44277914544E+02  0.45045682528E+02  0.00000000000E+00 0. -1.
         11    1    3    3    0    0  0.18954298863E+01 -0.73764874111E+01 -0.28946721091E+02  0.29931887397E+02  0.51100000000E-03 0. -1.
        -11    1    3    3    0    0  0.99530798622E+00 -0.13901291888E+00 -0.11909179218E+02  0.11951506703E+02  0.51100000000E-03 0.  1.
         12    1    3    3    0    0 -0.24211647770E+01 -0.75246792927E+00 -0.34220142358E+01  0.42589233724E+01  0.00000000000E+00 0. -1.
</event>
<event>
 7    1  0.1381440E-008  0.4614232E+02  0.7816164E-02  0.1320468E+00
        -11   -1    0    0    0    0  0.00000000000E+00  0.00000000000E+00  0.45593999997E+02  0.45594000000E+02  0.51100000000E-03 0.  1.
         11   -1    0    0    0    0 -0.00000000000E+00 -0.00000000000E+00 -0.45593999997E+02  0.45594000000E+02  0.51100000000E-03 0. -1.
    9900012    2    1    2    0    0  0.33984982422E+02  0.28349895441E+02  0.83915434590E+01  0.46142316484E+02  0.99999883568E+01 0.  0.
         12    1    1    2    0    0 -0.33984982422E+02 -0.28349895441E+02 -0.83915434590E+01  0.45045683516E+02  0.00000000000E+00 0. -1.
         11    1    3    3    0    0 -0.23673174588E+00 -0.22908142741E+00  0.50006380825E+00  0.59881908231E+00  0.51100000000E-03 0. -1.
        -11    1    3    3    0    0  0.23967034544E+02  0.18276875463E+02  0.34129325901E+01  0.30333332007E+02  0.51100000000E-03 0.  1.
         12    1    3    3    0    0  0.10254679624E+02  0.10302101406E+02  0.44785470606E+01  0.15210165395E+02  0.00000000000E+00 0. -1.
</event>
<event>
 7    1  0.1381440E-008  0.4614232E+02  0.7816164E-02  0.1320468E+00
        -11   -1    0    0    0    0  0.00000000000E+00  0.00000000000E+00  0.45593999997E+02  0.45594000000E+02  0.51100000000E-03 0. -1.
         11   -1    0    0    0    0 -0.00000000000E+00 -0.00000000000E+00 -0.45593999997E+02  0.45594000000E+02  0.51100000000E-03 0.  1.
    9900012    2    1    2    0    0 -0.29746670647E+02  0.12175919003E+02 -0.31559404015E+02  0.46142318742E+02  0.10000008947E+02 0.  0.
         12    1    1    2    0    0  0.29746670647E+02 -0.12175919003E+02  0.31559404015E+02  0.45045681258E+02  0.00000000000E+00 0. -1.
         11    1    3    3    0    0 -0.14869968424E+00 -0.39203477278E-01  0.43804586790E+00  0.46425526624E+00  0.51100000000E-03 0. -1.
        -11    1    3    3    0    0 -0.11856980663E+02  0.28837100285E+01 -0.15432023359E+02  0.19673614797E+02  0.51100000000E-03 0.  1.
        -12    1    3    3    0    0 -0.17740990300E+02  0.93314124518E+01 -0.16565426525E+02  0.26004448679E+02  0.00000000000E+00 0.  1.
</event>
<event>
 7    1  0.1381440E-008  0.4614231E+02  0.7816164E-02  0.1320468E+00
        -11   -1    0    0    0    0  0.00000000000E+00  0.00000000000E+00  0.45593999997E+02  0.45594000000E+02  0.51100000000E-03 0.  1.
         11   -1    0    0    0    0 -0.00000000000E+00 -0.00000000000E+00 -0.45593999997E+02  0.45594000000E+02  0.51100000000E-03 0. -1.
    9900012    2    1    2    0    0  0.14463711057E+02  0.10905317223E+02  0.41243046574E+02  0.46142314613E+02  0.99999712902E+01 0.  0.
         12    1    1    2    0    0 -0.14463711057E+02 -0.10905317223E+02 -0.41243046574E+02  0.45045685387E+02  0.00000000000E+00 0. -1.
         11    1    3    3    0    0  0.12980536692E+01 -0.13487618155E+01  0.28250048875E+01  0.33889164402E+01  0.51100000000E-03 0. -1.
        -11    1    3    3    0    0  0.58573837639E+01  0.68633489812E+01  0.13552600523E+02  0.16281507455E+02  0.51100000000E-03 0.  1.
         12    1    3    3    0    0  0.73082736240E+01  0.53907300577E+01  0.24865441163E+02  0.26471890718E+02  0.00000000000E+00 0. -1.
</event>
<event>
 7    1  0.1381440E-008  0.4614232E+02  0.7816164E-02  0.1320468E+00
        -11   -1    0    0    0    0  0.00000000000E+00  0.00000000000E+00  0.45593999997E+02  0.45594000000E+02  0.51100000000E-03 0. -1.
         11   -1    0    0    0    0 -0.00000000000E+00 -0.00000000000E+00 -0.45593999997E+02  0.45594000000E+02  0.51100000000E-03 0.  1.
    9900012    2    1    2    0    0  0.18453793440E+02  0.24842283934E+02 -0.32732735807E+02  0.46142317002E+02  0.99999930757E+01 0.  0.
         12    1    1    2    0    0 -0.18453793440E+02 -0.24842283934E+02  0.32732735807E+02  0.45045682998E+02  0.00000000000E+00 0. -1.
         11    1    3    3    0    0  0.14275189082E+02  0.17745933147E+02 -0.19715604001E+02  0.30123150698E+02  0.51100000000E-03 0. -1.
        -11    1    3    3    0    0  0.21758398393E+01  0.28120424430E+01 -0.21189277432E+01  0.41390478071E+01  0.51100000000E-03 0.  1.
         12    1    3    3    0    0  0.20027645182E+01  0.42843083439E+01 -0.10898204063E+02  0.11880118496E+02  0.00000000000E+00 0. -1.
</event>
<event>
 7    1  0.1381440E-008  0.4614232E+02  0.7816164E-02  0.1320468E+00
        -11   -1    0    0    0    0  0.00000000000E+00  0.00000000000E+00  0.45593999997E+02  0.45594000000E+02  0.51100000000E-03 0.  1.
         11   -1    0    0    0    0 -0.00000000000E+00 -0.00000000000E+00 -0.45593999997E+02  0.45594000000E+02  0.51100000000E-03 0. -1.
    9900012    2    1    2    0    0  0.15986799116E+02  0.33657437543E+02  0.25312306059E+02  0.46142315569E+02  0.99999800062E+01 0.  0.
         12    1    1    2    0    0 -0.15986799116E+02 -0.33657437543E+02 -0.25312306059E+02  0.45045684431E+02  0.00000000000E+00 0. -1.
         11    1    3    3    0    0  0.77128361073E+01  0.12010108254E+02  0.10937820766E+02  0.17982393179E+02  0.51100000000E-03 0. -1.
        -11    1    3    3    0    0  0.64454672034E+01  0.20356670999E+02  0.10764931138E+02  0.23912796664E+02  0.51100000000E-03 0.  1.
        -12    1    3    3    0    0  0.18284958052E+01  0.12906582897E+01  0.36095541548E+01  0.42471257253E+01  0.00000000000E+00 0.  1.
</event>
<event>
 7    1  0.1381440E-008  0.4614232E+02  0.7816164E-02  0.1320468E+00
        -11   -1    0    0    0    0  0.00000000000E+00  0.00000000000E+00  0.45593999997E+02  0.45594000000E+02  0.51100000000E-03 0.  1.
         11   -1    0    0    0    0 -0.00000000000E+00 -0.00000000000E+00 -0.45593999997E+02  0.45594000000E+02  0.51100000000E-03 0. -1.
    9900012    2    1    2    0    0 -0.91308743198E+01 -0.38431784161E+02  0.21650368069E+02  0.46142319439E+02  0.10000015303E+02 0.  0.
         12    1    1    2    0    0  0.91308743198E+01  0.38431784161E+02 -0.21650368069E+02  0.45045680561E+02  0.00000000000E+00 0. -1.
         11    1    3    3    0    0  0.12441701035E+01 -0.89836439359E+01  0.60368581845E+01  0.10894837062E+02  0.51100000000E-03 0. -1.
        -11    1    3    3    0    0 -0.78772425043E+01 -0.21560513799E+02  0.13780183744E+02  0.26773124006E+02  0.51100000000E-03 0.  1.
        -12    1    3    3    0    0 -0.24978019190E+01 -0.78876264265E+01  0.18333261405E+01  0.84743583714E+01  0.00000000000E+00 0.  1.
</event>
<event>
 7    1  0.1381440E-008  0.4614232E+02  0.7816164E-02  0.1320468E+00
        -11   -1    0    0    0    0  0.00000000000E+00  0.00000000000E+00  0.45593999997E+02  0.45594000000E+02  0.51100000000E-03 0. -1.
         11   -1    0    0    0    0 -0.00000000000E+00 -0.00000000000E+00 -0.45593999997E+02  0.45594000000E+02  0.51100000000E-03 0.  1.
    9900012    2    1    2    0    0  0.29664825083E+02  0.20421482995E+02 -0.27056873643E+02  0.46142320670E+02  0.10000026529E+02 0.  0.
         12    1    1    2    0    0 -0.29664825083E+02 -0.20421482995E+02  0.27056873643E+02  0.45045679330E+02  0.00000000000E+00 0. -1.
         11    1    3    3    0    0  0.24017653726E+02  0.12968459218E+02 -0.22771979545E+02  0.35547034724E+02  0.51100000000E-03 0.  1.
        -11    1    3    3    0    0  0.23567455052E+01  0.40985167365E+01 -0.92166981842E+00  0.48168002171E+01  0.51100000000E-03 0. -1.
        -12    1    3    3    0    0  0.32904258514E+01  0.33545070404E+01 -0.33632242801E+01  0.57784857295E+01  0.00000000000E+00 0.  1.
</event>
<event>
 7    1  0.1381440E-008  0.4614232E+02  0.7816164E-02  0.1320468E+00
        -11   -1    0    0    0    0  0.00000000000E+00  0.00000000000E+00  0.45593999997E+02  0.45594000000E+02  0.51100000000E-03 0. -1.
         11   -1    0    0    0    0 -0.00000000000E+00 -0.00000000000E+00 -0.45593999997E+02  0.45594000000E+02  0.51100000000E-03 0.  1.
    9900012    2    1    2    0    0  0.31845438941E+02  0.29630925178E+02  0.11704263460E+02  0.46142317727E+02  0.99999996922E+01 0.  0.
         12    1    1    2    0    0 -0.31845438941E+02 -0.29630925178E+02 -0.11704263460E+02  0.45045682273E+02  0.00000000000E+00 0. -1.
         11    1    3    3    0    0  0.95283402015E+01  0.50449922679E+01  0.46507543553E+01  0.11741836752E+02  0.51100000000E-03 0. -1.
        -11    1    3    3    0    0  0.15129933456E+02  0.12594178137E+02  0.43593906886E+01  0.20162651035E+02  0.51100000000E-03 0.  1.
         12    1    3    3    0    0  0.71871652830E+01  0.11991754774E+02  0.26941184163E+01  0.14237829940E+02  0.00000000000E+00 0. -1.
</event>
<event>
 7    1  0.1381440E-008  0.4614232E+02  0.7816164E-02  0.1320468E+00
        -11   -1    0    0    0    0  0.00000000000E+00  0.00000000000E+00  0.45593999997E+02  0.45594000000E+02  0.51100000000E-03 0.  1.
         11   -1    0    0    0    0 -0.00000000000E+00 -0.00000000000E+00 -0.45593999997E+02  0.45594000000E+02  0.51100000000E-03 0. -1.
    9900012    2    1    2    0    0 -0.36957734471E+02  0.55843989939E+01  0.25140680900E+02  0.46142317794E+02  0.10000000297E+02 0.  0.
         12    1    1    2    0    0  0.36957734471E+02 -0.55843989939E+01 -0.25140680900E+02  0.45045682206E+02  0.00000000000E+00 0. -1.
         11    1    3    3    0    0 -0.41245684975E+00 -0.93217847631E+00 -0.34974166389E+00  0.10776812410E+01  0.51100000000E-03 0. -1.
        -11    1    3    3    0    0 -0.51466694252E+01  0.82527506823E+00  0.43254546015E+01  0.67733922728E+01  0.51100000000E-03 0.  1.
         12    1    3    3    0    0 -0.31398608196E+02  0.56913024020E+01  0.21164967962E+02  0.38291244280E+02  0.00000000000E+00 0. -1.
</event>
<event>
 7    1  0.1381440E-008  0.4614232E+02  0.7816164E-02  0.1320468E+00
        -11   -1    0    0    0    0  0.00000000000E+00  0.00000000000E+00  0.45593999997E+02  0.45594000000E+02  0.51100000000E-03 0.  1.
         11   -1    0    0    0    0 -0.00000000000E+00 -0.00000000000E+00 -0.45593999997E+02  0.45594000000E+02  0.51100000000E-03 0. -1.
    9900012    2    1    2    0    0  0.54456397080E+01  0.44004863446E+02  0.79391754427E+01  0.46142317572E+02  0.99999982718E+01 0.  0.
         12    1    1    2    0    0 -0.54456397080E+01 -0.44004863446E+02 -0.79391754427E+01  0.45045682428E+02  0.00000000000E+00 0. -1.
         11    1    3    3    0    0  0.68883353367E+01  0.26063099968E+02  0.45521005982E+01  0.27339640886E+02  0.51100000000E-03 0. -1.
        -11    1    3    3    0    0 -0.29422983671E+01  0.13102344551E+02  0.24520320498E+01  0.13650678146E+02  0.51100000000E-03 0.  1.
        -12    1    3    3    0    0  0.14996027384E+01  0.48394189270E+01  0.93504279475E+00  0.51519985396E+01  0.00000000000E+00 0.  1.
</event>
<event>
 7    1  0.1381440E-008  0.4614231E+02  0.7816164E-02  0.1320468E+00
        -11   -1    0    0    0    0  0.00000000000E+00  0.00000000000E+00  0.45593999997E+02  0.45594000000E+02  0.51100000000E-03 0.  1.
         11   -1    0    0    0    0 -0.00000000000E+00 -0.00000000000E+00 -0.45593999997E+02  0.45594000000E+02  0.51100000000E-03 0. -1.
    9900012    2    1    2    0    0 -0.14704384688E+02 -0.16331387015E+02  0.39321510505E+02  0.46142308538E+02  0.99999158981E+01 0.  0.
         12    1    1    2    0    0  0.14704384688E+02  0.16331387015E+02 -0.39321510505E+02  0.45045691462E+02  0.00000000000E+00 0. -1.
         11    1    3    3    0    0 -0.32758746958E+01 -0.22107801866E+01  0.13404622844E+02  0.13975078458E+02  0.51100000000E-03 0. -1.
        -11    1    3    3    0    0 -0.90553360746E+01 -0.85153484063E+01  0.13577083583E+02  0.18407809994E+02  0.51100000000E-03 0.  1.
        -12    1    3    3    0    0 -0.23731739177E+01 -0.56052584217E+01  0.12339804078E+02  0.13759420086E+02  0.00000000000E+00 0.  1.
</event>
<event>
 7    1  0.1381440E-008  0.4614232E+02  0.7816164E-02  0.1320468E+00
        -11   -1    0    0    0    0  0.00000000000E+00  0.00000000000E+00  0.45593999997E+02  0.45594000000E+02  0.51100000000E-03 0.  1.
         11   -1    0    0    0    0 -0.00000000000E+00 -0.00000000000E+00 -0.45593999997E+02  0.45594000000E+02  0.51100000000E-03 0. -1.
    9900012    2    1    2    0    0 -0.44042327963E+02  0.87283986971E+01 -0.36334497083E+01  0.46142317044E+02  0.99999934606E+01 0.  0.
         12    1    1    2    0    0  0.44042327963E+02 -0.87283986971E+01  0.36334497083E+01  0.45045682956E+02  0.00000000000E+00 0. -1.
         11    1    3    3    0    0 -0.13743569589E+02  0.44517823607E+01 -0.40669808967E+01  0.15008144626E+02  0.51100000000E-03 0. -1.
        -11    1    3    3    0    0 -0.80938469162E+00  0.12468894892E+01  0.21351591350E-01  0.14867054614E+01  0.51100000000E-03 0.  1.
         12    1    3    3    0    0 -0.29489373682E+02  0.30297268471E+01  0.41217959706E+00  0.29647466957E+02  0.00000000000E+00 0. -1.
</event>
<event>
 7    1  0.1381440E-008  0.4614232E+02  0.7816164E-02  0.1320468E+00
        -11   -1    0    0    0    0  0.00000000000E+00  0.00000000000E+00  0.45593999997E+02  0.45594000000E+02  0.51100000000E-03 0. -1.
         11   -1    0    0    0    0 -0.00000000000E+00 -0.00000000000E+00 -0.45593999997E+02  0.45594000000E+02  0.51100000000E-03 0.  1.
    9900012    2    1    2    0    0  0.34902082909E+01  0.25024344755E+02 -0.37292279450E+02  0.46142317733E+02  0.99999997415E+01 0.  0.
         12    1    1    2    0    0 -0.34902082909E+01 -0.25024344755E+02  0.37292279450E+02  0.45045682267E+02  0.00000000000E+00 0. -1.
         11    1    3    3    0    0  0.22447354511E+01  0.48302256678E+01 -0.13829943230E+02  0.14820163537E+02  0.51100000000E-03 0. -1.
        -11    1    3    3    0    0 -0.10719192223E+01  0.17683280168E+01 -0.34368859673E+01  0.40110073806E+01  0.51100000000E-03 0.  1.
         12    1    3    3    0    0  0.23173920621E+01  0.18425791071E+02 -0.20025450252E+02  0.27311146815E+02  0.00000000000E+00 0. -1.
</event>
<event>
 7    1  0.1381440E-008  0.4614232E+02  0.7816164E-02  0.1320468E+00
        -11   -1    0    0    0    0  0.00000000000E+00  0.00000000000E+00  0.45593999997E+02  0.45594000000E+02  0.51100000000E-03 0.  1.
         11   -1    0    0    0    0 -0.00000000000E+00 -0.00000000000E+00 -0.45593999997E+02  0.45594000000E+02  0.51100000000E-03 0. -1.
    9900012    2    1    2    0    0  0.23065673393E+02 -0.48422800641E+01  0.38388026133E+02  0.46142317458E+02  0.99999972346E+01 0.  0.
         12    1    1    2    0    0 -0.23065673393E+02  0.48422800641E+01 -0.38388026133E+02  0.45045682542E+02  0.00000000000E+00 0. -1.
         11    1    3    3    0    0  0.60402981560E+01  0.74493204908E+00  0.41176959885E+01  0.73481661717E+01  0.51100000000E-03 0. -1.
        -11    1    3    3    0    0  0.10911649398E+02 -0.27312903305E+01  0.18664433077E+02  0.21791858613E+02  0.51100000000E-03 0.  1.
         12    1    3    3    0    0  0.61137258387E+01 -0.28559217827E+01  0.15605897068E+02  0.17002292674E+02  0.00000000000E+00 0. -1.
</event>
<event>
 7    1  0.1381440E-008  0.4614232E+02  0.7816164E-02  0.1320468E+00
        -11   -1    0    0    0    0  0.00000000000E+00  0.00000000000E+00  0.45593999997E+02  0.45594000000E+02  0.51100000000E-03 0.  1.
         11   -1    0    0    0    0 -0.00000000000E+00 -0.00000000000E+00 -0.45593999997E+02  0.45594000000E+02  0.51100000000E-03 0. -1.
    9900012    2    1    2    0    0  0.39566835125E+02  0.11351124521E+02  0.18295657146E+02  0.46142317187E+02  0.99999947622E+01 0.  0.
         12    1    1    2    0    0 -0.39566835125E+02 -0.11351124521E+02 -0.18295657146E+02  0.45045682813E+02  0.00000000000E+00 0. -1.
         11    1    3    3    0    0 -0.48595769761E+00  0.84799348520E-01 -0.14327010256E+00  0.51368511443E+00  0.51100000000E-03 0. -1.
        -11    1    3    3    0    0  0.35647515511E+02  0.96170033717E+01  0.15259635733E+02  0.39951077569E+02  0.51100000000E-03 0.  1.
         12    1    3    3    0    0  0.44052773120E+01  0.16493218004E+01  0.31792915163E+01  0.56775545037E+01  0.00000000000E+00 0. -1.
</event>
<event>
 7    1  0.1381440E-008  0.4614232E+02  0.7816164E-02  0.1320468E+00
        -11   -1    0    0    0    0  0.00000000000E+00  0.00000000000E+00  0.45593999997E+02  0.45594000000E+02  0.51100000000E-03 0.  1.
         11   -1    0    0    0    0 -0.00000000000E+00 -0.00000000000E+00 -0.45593999997E+02  0.45594000000E+02  0.51100000000E-03 0. -1.
    9900012    2    1    2    0    0  0.22347705215E+02 -0.30379920816E+02  0.24632373978E+02  0.46142319131E+02  0.10000012495E+02 0.  0.
         12    1    1    2    0    0 -0.22347705215E+02  0.30379920816E+02 -0.24632373978E+02  0.45045680869E+02  0.00000000000E+00 0. -1.
         11    1    3    3    0    0  0.82948334519E+01 -0.11898372913E+02  0.14022668150E+02  0.20174507733E+02  0.51100000000E-03 0. -1.
        -11    1    3    3    0    0  0.12852478995E+02 -0.14244925490E+02  0.76120697945E+01  0.20640923558E+02  0.51100000000E-03 0.  1.
        -12    1    3    3    0    0  0.12003927675E+01 -0.42366224132E+01  0.29976360330E+01  0.53268878395E+01  0.00000000000E+00 0.  1.
</event>
<event>
 7    1  0.1381440E-008  0.4614231E+02  0.7816164E-02  0.1320468E+00
        -11   -1    0    0    0    0  0.00000000000E+00  0.00000000000E+00  0.45593999997E+02  0.45594000000E+02  0.51100000000E-03 0.  1.
         11   -1    0    0    0    0 -0.00000000000E+00 -0.00000000000E+00 -0.45593999997E+02  0.45594000000E+02  0.51100000000E-03 0. -1.
    9900012    2    1    2    0    0 -0.43976956714E+02  0.78827437018E+01  0.57448644025E+01  0.46142313891E+02  0.99999647065E+01 0.  0.
         12    1    1    2    0    0  0.43976956714E+02 -0.78827437018E+01 -0.57448644025E+01  0.45045686109E+02  0.00000000000E+00 0. -1.
         11    1    3    3    0    0 -0.11206324695E+02 -0.29467159497E+00 -0.75493864943E+00  0.11235589755E+02  0.51100000000E-03 0. -1.
        -11    1    3    3    0    0 -0.22135055871E+02  0.34673443265E+01  0.22289515190E+01  0.22515581277E+02  0.51100000000E-03 0.  1.
         12    1    3    3    0    0 -0.10635576148E+02  0.47100709703E+01  0.42708515329E+01  0.12391142859E+02  0.00000000000E+00 0. -1.
</event>
<event>
 7    1  0.1381440E-008  0.4614231E+02  0.7816164E-02  0.1320468E+00
        -11   -1    0    0    0    0  0.00000000000E+00  0.00000000000E+00  0.45593999997E+02  0.45594000000E+02  0.51100000000E-03 0.  1.
         11   -1    0    0    0    0 -0.00000000000E+00 -0.00000000000E+00 -0.45593999997E+02  0.45594000000E+02  0.51100000000E-03 0. -1.
    9900012    2    1    2    0    0 -0.33897421343E+02 -0.10452755789E+02  0.27763618296E+02  0.46142314545E+02  0.99999706697E+01 0.  0.
         12    1    1    2    0    0  0.33897421343E+02  0.10452755789E+02 -0.27763618296E+02  0.45045685455E+02  0.00000000000E+00 0. -1.
         11    1    3    3    0    0 -0.58237898950E+01 -0.22676701890E+01  0.13213036721E+01  0.63878557030E+01  0.51100000000E-03 0. -1.
        -11    1    3    3    0    0 -0.17934534047E+02 -0.37049886407E+01  0.19085304450E+02  0.26450393164E+02  0.51100000000E-03 0.  1.
         12    1    3    3    0    0 -0.10139097400E+02 -0.44800969594E+01  0.73570101738E+01  0.13304065678E+02  0.00000000000E+00 0. -1.
</event>
<event>
 7    1  0.1381440E-008  0.4614232E+02  0.7816164E-02  0.1320468E+00
        -11   -1    0    0    0    0  0.00000000000E+00  0.00000000000E+00  0.45593999997E+02  0.45594000000E+02  0.51100000000E-03 0.  1.
         11   -1    0    0    0    0 -0.00000000000E+00 -0.00000000000E+00 -0.45593999997E+02  0.45594000000E+02  0.51100000000E-03 0. -1.
    9900012    2    1    2    0    0 -0.16761449610E+02  0.36555927439E+02  0.20293633329E+02  0.46142316770E+02  0.99999909641E+01 0.  0.
         12    1    1    2    0    0  0.16761449610E+02 -0.36555927439E+02 -0.20293633329E+02  0.45045683230E+02  0.00000000000E+00 0. -1.
         11    1    3    3    0    0 -0.61829724794E+01  0.13078068469E+02  0.98155317574E+01  0.17481695784E+02  0.51100000000E-03 0. -1.
        -11    1    3    3    0    0 -0.10264503780E+02  0.15377367721E+02  0.83031189422E+01  0.20267344678E+02  0.51100000000E-03 0.  1.
         12    1    3    3    0    0 -0.31397335134E+00  0.81004912492E+01  0.21749826292E+01  0.83932763079E+01  0.00000000000E+00 0. -1.
</event>
<event>
 7    1  0.1381440E-008  0.4614232E+02  0.7816164E-02  0.1320468E+00
        -11   -1    0    0    0    0  0.00000000000E+00  0.00000000000E+00  0.45593999997E+02  0.45594000000E+02  0.51100000000E-03 0.  1.
         11   -1    0    0    0    0 -0.00000000000E+00 -0.00000000000E+00 -0.45593999997E+02  0.45594000000E+02  0.51100000000E-03 0. -1.
    9900012    2    1    2    0    0 -0.14993722323E+02 -0.23628424487E+02  0.35298716245E+02  0.46142317395E+02  0.99999966590E+01 0.  0.
         12    1    1    2    0    0  0.14993722323E+02  0.23628424487E+02 -0.35298716245E+02  0.45045682605E+02  0.00000000000E+00 0. -1.
         11    1    3    3    0    0 -0.18932228685E-01 -0.52026543553E+01  0.37035103327E+01  0.63862320515E+01  0.51100000000E-03 0. -1.
        -11    1    3    3    0    0 -0.14220208823E+02 -0.16780711353E+02  0.27052335067E+02  0.34865963996E+02  0.51100000000E-03 0.  1.
         12    1    3    3    0    0 -0.75458127080E+00 -0.16450587786E+01  0.45428708450E+01  0.48901213476E+01  0.00000000000E+00 0. -1.
</event>
<event>
 7    1  0.1381440E-008  0.4614232E+02  0.7816164E-02  0.1320468E+00
        -11   -1    0    0    0    0  0.00000000000E+00  0.00000000000E+00  0.45593999997E+02  0.45594000000E+02  0.51100000000E-03 0.  1.
         11   -1    0    0    0    0 -0.00000000000E+00 -0.00000000000E+00 -0.45593999997E+02  0.45594000000E+02  0.51100000000E-03 0. -1.
    9900012    2    1    2    0    0  0.95903185194E+01 -0.30905343430E+02  0.31336864211E+02  0.46142317406E+02  0.99999967580E+01 0.  0.
         12    1    1    2    0    0 -0.95903185194E+01  0.30905343430E+02 -0.31336864211E+02  0.45045682594E+02  0.00000000000E+00 0. -1.
         11    1    3    3    0    0 -0.24456027732E+00 -0.35058159865E+01  0.23751071131E+01  0.42416611746E+01  0.51100000000E-03 0. -1.
        -11    1    3    3    0    0  0.91901038541E+01 -0.13519234100E+02  0.14610403060E+02  0.21924679641E+02  0.51100000000E-03 0.  1.
        -12    1    3    3    0    0  0.64477494255E+00 -0.13880293343E+02  0.14351354038E+02  0.19975976590E+02  0.00000000000E+00 0.  1.
</event>
<event>
 7    1  0.1381440E-008  0.4614232E+02  0.7816164E-02  0.1320468E+00
        -11   -1    0    0    0    0  0.00000000000E+00  0.00000000000E+00  0.45593999997E+02  0.45594000000E+02  0.51100000000E-03 0. -1.
         11   -1    0    0    0    0 -0.00000000000E+00 -0.00000000000E+00 -0.45593999997E+02  0.45594000000E+02  0.51100000000E-03 0.  1.
    9900012    2    1    2    0    0 -0.10188619366E+02 -0.41334914304E+02 -0.14721765491E+02  0.46142317807E+02  0.10000000415E+02 0.  0.
         12    1    1    2    0    0  0.10188619366E+02  0.41334914304E+02  0.14721765491E+02  0.45045682193E+02  0.00000000000E+00 0. -1.
         11    1    3    3    0    0 -0.72089594206E+01 -0.17784263831E+02 -0.29716822443E+01  0.19418548647E+02  0.51100000000E-03 0. -1.
        -11    1    3    3    0    0 -0.37047674072E+01 -0.21222899062E+02 -0.10216952258E+02  0.23843717408E+02  0.51100000000E-03 0.  1.
         12    1    3    3    0    0  0.72510746185E+00 -0.23277514116E+01 -0.15331309885E+01  0.28800517518E+01  0.00000000000E+00 0. -1.
</event>
<event>
 7    1  0.1381440E-008  0.4614232E+02  0.7816164E-02  0.1320468E+00
        -11   -1    0    0    0    0  0.00000000000E+00  0.00000000000E+00  0.45593999997E+02  0.45594000000E+02  0.51100000000E-03 0.  1.
         11   -1    0    0    0    0 -0.00000000000E+00 -0.00000000000E+00 -0.45593999997E+02  0.45594000000E+02  0.51100000000E-03 0. -1.
    9900012    2    1    2    0    0 -0.46249289904E+01  0.38850249499E+02  0.22324461950E+02  0.46142318124E+02  0.10000003312E+02 0.  0.
         12    1    1    2    0    0  0.46249289904E+01 -0.38850249499E+02 -0.22324461950E+02  0.45045681876E+02  0.00000000000E+00 0. -1.
         11    1    3    3    0    0 -0.25812885208E+00  0.26075955519E+02  0.14824850120E+02  0.29996637613E+02  0.51100000000E-03 0. -1.
        -11    1    3    3    0    0 -0.28328665251E+01  0.89155413357E+01  0.75050145169E+01  0.11993216967E+02  0.51100000000E-03 0.  1.
         12    1    3    3    0    0 -0.15339336132E+01  0.38587526444E+01 -0.54026869266E-02  0.41524635446E+01  0.00000000000E+00 0. -1.
</event>
<event>
 7    1  0.1381440E-008  0.4614232E+02  0.7816164E-02  0.1320468E+00
        -11   -1    0    0    0    0  0.00000000000E+00  0.00000000000E+00  0.45593999997E+02  0.45594000000E+02  0.51100000000E-03 0.  1.
         11   -1    0    0    0    0 -0.00000000000E+00 -0.00000000000E+00 -0.45593999997E+02  0.45594000000E+02  0.51100000000E-03 0. -1.
    9900012    2    1    2    0    0 -0.38301482978E+02 -0.60793240173E+01  0.22916190081E+02  0.46142317114E+02  0.99999941025E+01 0.  0.
         12    1    1    2    0    0  0.38301482978E+02  0.60793240173E+01 -0.22916190081E+02  0.45045682886E+02  0.00000000000E+00 0. -1.
         11    1    3    3    0    0 -0.15380894067E+02 -0.71101396485E+01  0.80726654346E+01  0.18769494282E+02  0.51100000000E-03 0. -1.
        -11    1    3    3    0    0 -0.18703033037E+02  0.22433040130E+00  0.12011349758E+02  0.22228951666E+02  0.51100000000E-03 0.  1.
         12    1    3    3    0    0 -0.42175558734E+01  0.80648522996E+00  0.28321748887E+01  0.51438711659E+01  0.00000000000E+00 0. -1.
</event>
<event>
 7    1  0.1381440E-008  0.4614232E+02  0.7816164E-02  0.1320468E+00
        -11   -1    0    0    0    0  0.00000000000E+00  0.00000000000E+00  0.45593999997E+02  0.45594000000E+02  0.51100000000E-03 0.  1.
         11   -1    0    0    0    0 -0.00000000000E+00 -0.00000000000E+00 -0.45593999997E+02  0.45594000000E+02  0.51100000000E-03 0. -1.
    9900012    2    1    2    0    0  0.36909451878E+02  0.40238286750E+01  0.25507148679E+02  0.46142317978E+02  0.10000001977E+02 0.  0.
         12    1    1    2    0    0 -0.36909451878E+02 -0.40238286750E+01 -0.25507148679E+02  0.45045682022E+02  0.00000000000E+00 0. -1.
         11    1    3    3    0    0  0.28115139722E+01  0.11707036600E+01  0.25441823579E+01  0.39683777550E+01  0.51100000000E-03 0. -1.
        -11    1    3    3    0    0  0.19673181909E+02 -0.26867748011E+01  0.11625439602E+02  0.23008774227E+02  0.51100000000E-03 0.  1.
        -12    1    3    3    0    0  0.14424755997E+02  0.55398998161E+01  0.11337526719E+02  0.19165165995E+02  0.00000000000E+00 0.  1.
</event>
<event>
 7    1  0.1381440E-008  0.4614232E+02  0.7816164E-02  0.1320468E+00
        -11   -1    0    0    0    0  0.00000000000E+00  0.00000000000E+00  0.45593999997E+02  0.45594000000E+02  0.51100000000E-03 0.  1.
         11   -1    0    0    0    0 -0.00000000000E+00 -0.00000000000E+00 -0.45593999997E+02  0.45594000000E+02  0.51100000000E-03 0. -1.
    9900012    2    1    2    0    0 -0.24742302506E+02  0.12790041155E+02  0.35402638852E+02  0.46142317368E+02  0.99999964174E+01 0.  0.
         12    1    1    2    0    0  0.24742302506E+02 -0.12790041155E+02 -0.35402638852E+02  0.45045682632E+02  0.00000000000E+00 0. -1.
         11    1    3    3    0    0 -0.40847203066E+01  0.23495051955E+00  0.79396250956E+01  0.89318412799E+01  0.51100000000E-03 0. -1.
        -11    1    3    3    0    0 -0.20977545039E+02  0.11754783563E+02  0.27208823574E+02  0.36311877025E+02  0.51100000000E-03 0.  1.
         12    1    3    3    0    0  0.31996283966E+00  0.80030707218E+00  0.25419018252E+00  0.89859906378E+00  0.00000000000E+00 0. -1.
</event>
<event>
 7    1  0.1381440E-008  0.4614232E+02  0.7816164E-02  0.1320468E+00
        -11   -1    0    0    0    0  0.00000000000E+00  0.00000000000E+00  0.45593999997E+02  0.45594000000E+02  0.51100000000E-03 0.  1.
         11   -1    0    0    0    0 -0.00000000000E+00 -0.00000000000E+00 -0.45593999997E+02  0.45594000000E+02  0.51100000000E-03 0. -1.
    9900012    2    1    2    0    0 -0.25733901252E+02 -0.10545764025E+02  0.35435386861E+02  0.46142318136E+02  0.10000003423E+02 0.  0.
         12    1    1    2    0    0  0.25733901252E+02  0.10545764025E+02 -0.35435386861E+02  0.45045681864E+02  0.00000000000E+00 0. -1.
         11    1    3    3    0    0 -0.10098167406E+02 -0.14769895883E+01  0.18239604181E+02  0.20900661333E+02  0.51100000000E-03 0. -1.
        -11    1    3    3    0    0 -0.67822737645E+01 -0.60527756062E+01  0.92499523862E+01  0.12969076658E+02  0.51100000000E-03 0.  1.
         12    1    3    3    0    0 -0.88534600822E+01 -0.30159988305E+01  0.79458302942E+01  0.12272580146E+02  0.00000000000E+00 0. -1.
</event>
<event>
 7    1  0.1381440E-008  0.4614232E+02  0.7816164E-02  0.1320468E+00
        -11   -1    0    0    0    0  0.00000000000E+00  0.00000000000E+00  0.45593999997E+02  0.45594000000E+02  0.51100000000E-03 0.  1.
         11   -1    0    0    0    0 -0.00000000000E+00 -0.00000000000E+00 -0.45593999997E+02  0.45594000000E+02  0.51100000000E-03 0. -1.
    9900012    2    1    2    0    0  0.55068856535E+00  0.39741119623E+02  0.21200323879E+02  0.46142316751E+02  0.99999907865E+01 0.  0.
         12    1    1    2    0    0 -0.55068856535E+00 -0.39741119623E+02 -0.21200323879E+02  0.45045683249E+02  0.00000000000E+00 0. -1.
         11    1    3    3    0    0  0.79073891020E+00  0.21796253929E+02  0.13928846324E+02  0.25878846836E+02  0.51100000000E-03 0. -1.
        -11    1    3    3    0    0 -0.28664098465E+01  0.92798151646E+01  0.50216324822E+01  0.10933803910E+02  0.51100000000E-03 0.  1.
         12    1    3    3    0    0  0.26263595017E+01  0.86650505296E+01  0.22498450734E+01  0.93296660051E+01  0.00000000000E+00 0. -1.
</event>
<event>
 7    1  0.1381440E-008  0.4614232E+02  0.7816164E-02  0.1320468E+00
        -11   -1    0    0    0    0  0.00000000000E+00  0.00000000000E+00  0.45593999997E+02  0.45594000000E+02  0.51100000000E-03 0. -1.
         11   -1    0    0    0    0 -0.00000000000E+00 -0.00000000000E+00 -0.45593999997E+02  0.45594000000E+02  0.51100000000E-03 0.  1.
    9900012    2    1    2    0    0 -0.81959257411E+00 -0.45038073982E+02  0.11696190204E+00  0.46142317409E+02  0.99999967921E+01 0.  0.
         12    1    1    2    0    0  0.81959257411E+00  0.45038073982E+02 -0.11696190204E+00  0.45045682591E+02  0.00000000000E+00 0. -1.
         11    1    3    3    0    0  0.10520510603E+01 -0.30773317305E+02 -0.23333789053E+01  0.30879581065E+02  0.51100000000E-03 0. -1.
        -11    1    3    3    0    0  0.92374427231E+00 -0.78260799643E+01  0.16976470084E+00  0.78822364468E+01  0.51100000000E-03 0.  1.
         12    1    3    3    0    0 -0.27953879067E+01 -0.64386767124E+01  0.22805761065E+01  0.73804998972E+01  0.00000000000E+00 0. -1.
</event>
<event>
 7    1  0.1381440E-008  0.4614232E+02  0.7816164E-02  0.1320468E+00
        -11   -1    0    0    0    0  0.00000000000E+00  0.00000000000E+00  0.45593999997E+02  0.45594000000E+02  0.51100000000E-03 0.  1.
         11   -1    0    0    0    0 -0.00000000000E+00 -0.00000000000E+00 -0.45593999997E+02  0.45594000000E+02  0.51100000000E-03 0. -1.
    9900012    2    1    2    0    0 -0.16637914039E+02  0.39097585868E+02  0.14955669573E+02  0.46142318113E+02  0.10000003210E+02 0.  0.
         12    1    1    2    0    0  0.16637914039E+02 -0.39097585868E+02 -0.14955669573E+02  0.45045681887E+02  0.00000000000E+00 0. -1.
         11    1    3    3    0    0 -0.81057149436E+01  0.15078583649E+02  0.88473966970E+01  0.19270255011E+02  0.51100000000E-03 0. -1.
        -11    1    3    3    0    0  0.89265054824E+00  0.13812131700E+01  0.29076763436E+00  0.16700661366E+01  0.51100000000E-03 0.  1.
        -12    1    3    3    0    0 -0.94248496435E+01  0.22637789049E+02  0.58175052422E+01  0.25201996966E+02  0.00000000000E+00 0.  1.
</event>
<event>
 7    1  0.1381440E-008  0.4614231E+02  0.7816164E-02  0.1320468E+00
        -11   -1    0    0    0    0  0.00000000000E+00  0.00000000000E+00  0.45593999997E+02  0.45594000000E+02  0.51100000000E-03 0.  1.
         11   -1    0    0    0    0 -0.00000000000E+00 -0.00000000000E+00 -0.45593999997E+02  0.45594000000E+02  0.51100000000E-03 0. -1.
    9900012    2    1    2    0    0 -0.23539593748E+02  0.30035039184E+02  0.23935286694E+02  0.46142312064E+02  0.99999480447E+01 0.  0.
         12    1    1    2    0    0  0.23539593748E+02 -0.30035039184E+02 -0.23935286694E+02  0.45045687936E+02  0.00000000000E+00 0. -1.
         11    1    3    3    0    0 -0.28518051287E+01  0.26294266999E+01  0.16907018992E+01  0.42314477942E+01  0.51100000000E-03 0. -1.
        -11    1    3    3    0    0 -0.41505012666E+00  0.40035814275E+01  0.45588256458E+00  0.40507727692E+01  0.51100000000E-03 0.  1.
        -12    1    3    3    0    0 -0.20272738492E+02  0.23402031056E+02  0.21788702230E+02  0.37860091500E+02  0.00000000000E+00 0.  1.
</event>
<event>
 7    1  0.1381440E-008  0.4614232E+02  0.7816164E-02  0.1320468E+00
        -11   -1    0    0    0    0  0.00000000000E+00  0.00000000000E+00  0.45593999997E+02  0.45594000000E+02  0.51100000000E-03 0.  1.
         11   -1    0    0    0    0 -0.00000000000E+00 -0.00000000000E+00 -0.45593999997E+02  0.45594000000E+02  0.51100000000E-03 0. -1.
    9900012    2    1    2    0    0  0.10269258362E+02  0.27198554101E+02  0.34407767935E+02  0.46142317557E+02  0.99999981399E+01 0.  0.
         12    1    1    2    0    0 -0.10269258362E+02 -0.27198554101E+02 -0.34407767935E+02  0.45045682443E+02  0.00000000000E+00 0. -1.
         11    1    3    3    0    0  0.14438082639E+00  0.11731349137E+01  0.38022886322E+01  0.39817697639E+01  0.51100000000E-03 0. -1.
        -11    1    3    3    0    0 -0.11822974336E+01  0.11511591190E+01  0.21552708038E+01  0.27144404649E+01  0.51100000000E-03 0.  1.
        -12    1    3    3    0    0  0.11307174970E+02  0.24874260068E+02  0.28450208499E+02  0.39446107328E+02  0.00000000000E+00 0.  1.
</event>
<event>
 7    1  0.1381440E-008  0.4614232E+02  0.7816164E-02  0.1320468E+00
        -11   -1    0    0    0    0  0.00000000000E+00  0.00000000000E+00  0.45593999997E+02  0.45594000000E+02  0.51100000000E-03 0.  1.
         11   -1    0    0    0    0 -0.00000000000E+00 -0.00000000000E+00 -0.45593999997E+02  0.45594000000E+02  0.51100000000E-03 0. -1.
    9900012    2    1    2    0    0 -0.26738769194E+02 -0.24553293721E+02  0.26669974141E+02  0.46142317285E+02  0.99999956565E+01 0.  0.
         12    1    1    2    0    0  0.26738769194E+02  0.24553293721E+02 -0.26669974141E+02  0.45045682715E+02  0.00000000000E+00 0. -1.
         11    1    3    3    0    0 -0.53836250604E+01 -0.49266427878E+01  0.10162931026E+02  0.12511610418E+02  0.51100000000E-03 0. -1.
        -11    1    3    3    0    0 -0.21283037905E+02 -0.19784936346E+02  0.16178375536E+02  0.33258852114E+02  0.51100000000E-03 0.  1.
        -12    1    3    3    0    0 -0.72106228455E-01  0.15828541201E+00  0.32866757959E+00  0.37185475352E+00  0.00000000000E+00 0.  1.
</event>
<event>
 7    1  0.1381440E-008  0.4614232E+02  0.7816164E-02  0.1320468E+00
        -11   -1    0    0    0    0  0.00000000000E+00  0.00000000000E+00  0.45593999997E+02  0.45594000000E+02  0.51100000000E-03 0.  1.
         11   -1    0    0    0    0 -0.00000000000E+00 -0.00000000000E+00 -0.45593999997E+02  0.45594000000E+02  0.51100000000E-03 0. -1.
    9900012    2    1    2    0    0 -0.17562031433E+02  0.43141563176E+01  0.41256233826E+02  0.46142315165E+02  0.99999763241E+01 0.  0.
         12    1    1    2    0    0  0.17562031433E+02 -0.43141563176E+01 -0.41256233826E+02  0.45045684835E+02  0.00000000000E+00 0. -1.
         11    1    3    3    0    0 -0.76269215707E+01 -0.68662992196E+00  0.13022673768E+02  0.15107330195E+02  0.51100000000E-03 0. -1.
        -11    1    3    3    0    0 -0.34010294025E+01 -0.14222345720E+01  0.70753753053E+01  0.79781381379E+01  0.51100000000E-03 0.  1.
        -12    1    3    3    0    0 -0.65340804602E+01  0.64230208116E+01  0.21158184753E+02  0.23056846832E+02  0.00000000000E+00 0.  1.
</event>
<event>
 7    1  0.1381440E-008  0.4614232E+02  0.7816164E-02  0.1320468E+00
        -11   -1    0    0    0    0  0.00000000000E+00  0.00000000000E+00  0.45593999997E+02  0.45594000000E+02  0.51100000000E-03 0. -1.
         11   -1    0    0    0    0 -0.00000000000E+00 -0.00000000000E+00 -0.45593999997E+02  0.45594000000E+02  0.51100000000E-03 0.  1.
    9900012    2    1    2    0    0  0.34665193715E+02  0.62598817991E+00 -0.28758400515E+02  0.46142321886E+02  0.10000037616E+02 0.  0.
         12    1    1    2    0    0 -0.34665193715E+02 -0.62598817991E+00  0.28758400515E+02  0.45045678114E+02  0.00000000000E+00 0. -1.
         11    1    3    3    0    0  0.13546993271E+02  0.29803857695E+01 -0.11760465535E+02  0.18185496306E+02  0.51100000000E-03 0. -1.
        -11    1    3    3    0    0  0.11719142376E+02  0.13854670261E+01 -0.69319072624E+01  0.13686093506E+02  0.51100000000E-03 0.  1.
        -12    1    3    3    0    0  0.93990580684E+01 -0.37398646156E+01 -0.10066027718E+02  0.14270732074E+02  0.00000000000E+00 0.  1.
</event>
<event>
 7    1  0.1381440E-008  0.4614232E+02  0.7816164E-02  0.1320468E+00
        -11   -1    0    0    0    0  0.00000000000E+00  0.00000000000E+00  0.45593999997E+02  0.45594000000E+02  0.51100000000E-03 0. -1.
         11   -1    0    0    0    0 -0.00000000000E+00 -0.00000000000E+00 -0.45593999997E+02  0.45594000000E+02  0.51100000000E-03 0.  1.
    9900012    2    1    2    0    0  0.11270735344E+02  0.43582851634E+02  0.16183496090E+01  0.46142317774E+02  0.10000000115E+02 0.  0.
         12    1    1    2    0    0 -0.11270735344E+02 -0.43582851634E+02 -0.16183496090E+01  0.45045682226E+02  0.00000000000E+00 0. -1.
         11    1    3    3    0    0  0.38001846452E+01  0.78462815747E+01  0.19380707407E+01  0.89309381559E+01  0.51100000000E-03 0. -1.
        -11    1    3    3    0    0  0.77613704025E+01  0.33795397582E+02 -0.18470308474E+01  0.34724332844E+02  0.51100000000E-03 0.  1.
        -12    1    3    3    0    0 -0.29081970334E+00  0.19411724779E+01  0.15273097157E+01  0.24870467741E+01  0.00000000000E+00 0.  1.
</event>
<event>
 7    1  0.1381440E-008  0.4614232E+02  0.7816164E-02  0.1320468E+00
        -11   -1    0    0    0    0  0.00000000000E+00  0.00000000000E+00  0.45593999997E+02  0.45594000000E+02  0.51100000000E-03 0. -1.
         11   -1    0    0    0    0 -0.00000000000E+00 -0.00000000000E+00 -0.45593999997E+02  0.45594000000E+02  0.51100000000E-03 0.  1.
    9900012    2    1    2    0    0  0.48006565321E+01 -0.42612781224E+02  0.13791934386E+02  0.46142324504E+02  0.10000061490E+02 0.  0.
         12    1    1    2    0    0 -0.48006565321E+01  0.42612781224E+02 -0.13791934386E+02  0.45045675496E+02  0.00000000000E+00 0. -1.
         11    1    3    3    0    0  0.27042820015E+01 -0.52101575800E+01 -0.78414874012E+00  0.59223114288E+01  0.51100000000E-03 0. -1.
        -11    1    3    3    0    0  0.97386489115E+00 -0.10221032665E+02  0.44820370899E+01  0.11202971851E+02  0.51100000000E-03 0.  1.
         12    1    3    3    0    0  0.11225096395E+01 -0.27181590979E+02  0.10094046036E+02  0.29017041225E+02  0.00000000000E+00 0. -1.
</event>
<event>
 7    1  0.1381440E-008  0.4614232E+02  0.7816164E-02  0.1320468E+00
        -11   -1    0    0    0    0  0.00000000000E+00  0.00000000000E+00  0.45593999997E+02  0.45594000000E+02  0.51100000000E-03 0. -1.
         11   -1    0    0    0    0 -0.00000000000E+00 -0.00000000000E+00 -0.45593999997E+02  0.45594000000E+02  0.51100000000E-03 0.  1.
    9900012    2    1    2    0    0 -0.26550772117E+02 -0.23021762177E+01 -0.36316250276E+02  0.46142317083E+02  0.99999938168E+01 0.  0.
         12    1    1    2    0    0  0.26550772117E+02  0.23021762177E+01  0.36316250276E+02  0.45045682917E+02  0.00000000000E+00 0. -1.
         11    1    3    3    0    0 -0.38728878923E+00 -0.21768583559E+01 -0.31247966867E+01  0.38279314913E+01  0.51100000000E-03 0. -1.
        -11    1    3    3    0    0 -0.16694226103E+02 -0.57607759481E+00 -0.19761229786E+02  0.25875379292E+02  0.51100000000E-03 0.  1.
         12    1    3    3    0    0 -0.94692572254E+01  0.45075973306E+00 -0.13430223803E+02  0.16439006300E+02  0.00000000000E+00 0. -1.
</event>
<event>
 7    1  0.1381440E-008  0.4614232E+02  0.7816164E-02  0.1320468E+00
        -11   -1    0    0    0    0  0.00000000000E+00  0.00000000000E+00  0.45593999997E+02  0.45594000000E+02  0.51100000000E-03 0.  1.
         11   -1    0    0    0    0 -0.00000000000E+00 -0.00000000000E+00 -0.45593999997E+02  0.45594000000E+02  0.51100000000E-03 0. -1.
    9900012    2    1    2    0    0 -0.73504413438E+01 -0.24289643175E+02  0.37216900312E+02  0.46142318494E+02  0.10000006684E+02 0.  0.
         12    1    1    2    0    0  0.73504413438E+01  0.24289643175E+02 -0.37216900312E+02  0.45045681506E+02  0.00000000000E+00 0. -1.
         11    1    3    3    0    0  0.90075218931E-02 -0.77638655032E-01 -0.15552628619E+00  0.17406200913E+00  0.51100000000E-03 0. -1.
        -11    1    3    3    0    0 -0.77284037347E+01 -0.15944510568E+02  0.30213086805E+02  0.35025508648E+02  0.51100000000E-03 0.  1.
        -12    1    3    3    0    0  0.36895486900E+00 -0.82674939521E+01  0.71593397937E+01  0.10942747837E+02  0.00000000000E+00 0.  1.
</event>
<event>
 7    1  0.1381440E-008  0.4614232E+02  0.7816164E-02  0.1320468E+00
        -11   -1    0    0    0    0  0.00000000000E+00  0.00000000000E+00  0.45593999997E+02  0.45594000000E+02  0.51100000000E-03 0.  1.
         11   -1    0    0    0    0 -0.00000000000E+00 -0.00000000000E+00 -0.45593999997E+02  0.45594000000E+02  0.51100000000E-03 0. -1.
    9900012    2    1    2    0    0 -0.17186248024E+02  0.29023605317E+02  0.29855932834E+02  0.46142317497E+02  0.99999975951E+01 0.  0.
         12    1    1    2    0    0  0.17186248024E+02 -0.29023605317E+02 -0.29855932834E+02  0.45045682503E+02  0.00000000000E+00 0. -1.
         11    1    3    3    0    0 -0.83759092525E+01  0.14295102504E+02  0.16328614480E+02  0.23262189547E+02  0.51100000000E-03 0.  1.
        -11    1    3    3    0    0 -0.73516461240E+01  0.70345662497E+01  0.51197922257E+01  0.11390526579E+02  0.51100000000E-03 0. -1.
         12    1    3    3    0    0 -0.14586926472E+01  0.76939365639E+01  0.84075261276E+01  0.11489601371E+02  0.00000000000E+00 0. -1.
</event>
<event>
 7    1  0.1381440E-008  0.4614232E+02  0.7816164E-02  0.1320468E+00
        -11   -1    0    0    0    0  0.00000000000E+00  0.00000000000E+00  0.45593999997E+02  0.45594000000E+02  0.51100000000E-03 0. -1.
         11   -1    0    0    0    0 -0.00000000000E+00 -0.00000000000E+00 -0.45593999997E+02  0.45594000000E+02  0.51100000000E-03 0.  1.
    9900012    2    1    2    0    0  0.17754957744E+02 -0.37007567135E+02 -0.18555725382E+02  0.46142317697E+02  0.99999994112E+01 0.  0.
         12    1    1    2    0    0 -0.17754957744E+02  0.37007567135E+02  0.18555725382E+02  0.45045682303E+02  0.00000000000E+00 0. -1.
         11    1    3    3    0    0  0.22886302041E+01 -0.25110328076E+01  0.74926902736E+00  0.34791548267E+01  0.51100000000E-03 0. -1.
        -11    1    3    3    0    0  0.70422851253E+01 -0.14967601857E+02 -0.61087136371E+01  0.17633470098E+02  0.51100000000E-03 0.  1.
         12    1    3    3    0    0  0.84240424145E+01 -0.19528932471E+02 -0.13196280772E+02  0.25029692772E+02  0.00000000000E+00 0. -1.
</event>
<event>
 7    1  0.1381440E-008  0.4614232E+02  0.7816164E-02  0.1320468E+00
        -11   -1    0    0    0    0  0.00000000000E+00  0.00000000000E+00  0.45593999997E+02  0.45594000000E+02  0.51100000000E-03 0.  1.
         11   -1    0    0    0    0 -0.00000000000E+00 -0.00000000000E+00 -0.45593999997E+02  0.45594000000E+02  0.51100000000E-03 0. -1.
    9900012    2    1    2    0    0 -0.42737372848E+02 -0.13983620220E+02  0.26624859540E+01  0.46142317589E+02  0.99999984325E+01 0.  0.
         12    1    1    2    0    0  0.42737372848E+02  0.13983620220E+02 -0.26624859540E+01  0.45045682411E+02  0.00000000000E+00 0. -1.
         11    1    3    3    0    0 -0.14177984564E+02 -0.83287634630E+01  0.35534558751E+00  0.16447182673E+02  0.51100000000E-03 0. -1.
        -11    1    3    3    0    0 -0.18762686148E+02 -0.11833918892E+01  0.21755046775E+01  0.18925422815E+02  0.51100000000E-03 0.  1.
        -12    1    3    3    0    0 -0.97967021363E+01 -0.44714648675E+01  0.13163568892E+00  0.10769712102E+02  0.00000000000E+00 0.  1.
</event>
<event>
 7    1  0.1381440E-008  0.4614232E+02  0.7816164E-02  0.1320468E+00
        -11   -1    0    0    0    0  0.00000000000E+00  0.00000000000E+00  0.45593999997E+02  0.45594000000E+02  0.51100000000E-03 0.  1.
         11   -1    0    0    0    0 -0.00000000000E+00 -0.00000000000E+00 -0.45593999997E+02  0.45594000000E+02  0.51100000000E-03 0. -1.
    9900012    2    1    2    0    0  0.39303198074E+02  0.10177088892E+02  0.19514073091E+02  0.46142316902E+02  0.99999921640E+01 0.  0.
         12    1    1    2    0    0 -0.39303198074E+02 -0.10177088892E+02 -0.19514073091E+02  0.45045683098E+02  0.00000000000E+00 0. -1.
         11    1    3    3    0    0  0.63606509059E+01  0.24686161358E+01  0.39961510713E+01  0.79070328960E+01  0.51100000000E-03 0. -1.
        -11    1    3    3    0    0  0.26784626695E+02  0.46802886884E+01  0.86663290314E+01  0.28538160217E+02  0.51100000000E-03 0.  1.
        -12    1    3    3    0    0  0.61579204730E+01  0.30281840682E+01  0.68515929883E+01  0.96971237891E+01  0.00000000000E+00 0.  1.
</event>
<event>
 7    1  0.1381440E-008  0.4614232E+02  0.7816164E-02  0.1320468E+00
        -11   -1    0    0    0    0  0.00000000000E+00  0.00000000000E+00  0.45593999997E+02  0.45594000000E+02  0.51100000000E-03 0.  1.
         11   -1    0    0    0    0 -0.00000000000E+00 -0.00000000000E+00 -0.45593999997E+02  0.45594000000E+02  0.51100000000E-03 0. -1.
    9900012    2    1    2    0    0 -0.32017152817E+02 -0.21370106352E+02  0.23395168427E+02  0.46142318457E+02  0.10000006344E+02 0.  0.
         12    1    1    2    0    0  0.32017152817E+02  0.21370106352E+02 -0.23395168427E+02  0.45045681543E+02  0.00000000000E+00 0. -1.
         11    1    3    3    0    0 -0.15729943245E+02 -0.14656391446E+02  0.15825539519E+02  0.26696228686E+02  0.51100000000E-03 0. -1.
        -11    1    3    3    0    0 -0.14414983440E+02 -0.63410825197E+01  0.56287387710E+01  0.16723748847E+02  0.51100000000E-03 0.  1.
         12    1    3    3    0    0 -0.18722261313E+01 -0.37263238664E+00  0.19408901363E+01  0.27223409234E+01  0.00000000000E+00 0. -1.
</event>
<event>
 7    1  0.1381440E-008  0.4614232E+02  0.7816164E-02  0.1320468E+00
        -11   -1    0    0    0    0  0.00000000000E+00  0.00000000000E+00  0.45593999997E+02  0.45594000000E+02  0.51100000000E-03 0.  1.
         11   -1    0    0    0    0 -0.00000000000E+00 -0.00000000000E+00 -0.45593999997E+02  0.45594000000E+02  0.51100000000E-03 0. -1.
    9900012    2    1    2    0    0  0.29860114012E+02 -0.33400416386E+02  0.46796564419E+01  0.46142318653E+02  0.10000008131E+02 0.  0.
         12    1    1    2    0    0 -0.29860114012E+02  0.33400416386E+02 -0.46796564419E+01  0.45045681347E+02  0.00000000000E+00 0. -1.
         11    1    3    3    0    0 -0.41045152211E+00 -0.17330701070E+01  0.18249136196E+00  0.17903367856E+01  0.51100000000E-03 0. -1.
        -11    1    3    3    0    0  0.20446011689E+02 -0.18047361678E+02  0.16772353172E+01  0.27323246075E+02  0.51100000000E-03 0.  1.
         12    1    3    3    0    0  0.98245538458E+01 -0.13619984601E+02  0.28199297628E+01  0.17028735792E+02  0.00000000000E+00 0. -1.
</event>
<event>
 7    1  0.1381440E-008  0.4614232E+02  0.7816164E-02  0.1320468E+00
        -11   -1    0    0    0    0  0.00000000000E+00  0.00000000000E+00  0.45593999997E+02  0.45594000000E+02  0.51100000000E-03 0.  1.
         11   -1    0    0    0    0 -0.00000000000E+00 -0.00000000000E+00 -0.45593999997E+02  0.45594000000E+02  0.51100000000E-03 0. -1.
    9900012    2    1    2    0    0  0.27304533400E+02 -0.63627205865E+01  0.35257501600E+02  0.46142321223E+02  0.10000031565E+02 0.  0.
         12    1    1    2    0    0 -0.27304533400E+02  0.63627205865E+01 -0.35257501600E+02  0.45045678777E+02  0.00000000000E+00 0. -1.
         11    1    3    3    0    0  0.11021798599E+02 -0.68068017515E+01  0.14137865540E+02  0.19175292350E+02  0.51100000000E-03 0. -1.
        -11    1    3    3    0    0  0.53622942393E+01 -0.14989444004E+01  0.85505826357E+01  0.10203602182E+02  0.51100000000E-03 0.  1.
         12    1    3    3    0    0  0.10920440561E+02  0.19430255654E+01  0.12569053425E+02  0.16763426690E+02  0.00000000000E+00 0. -1.
</event>
<event>
 7    1  0.1381440E-008  0.4614232E+02  0.7816164E-02  0.1320468E+00
        -11   -1    0    0    0    0  0.00000000000E+00  0.00000000000E+00  0.45593999997E+02  0.45594000000E+02  0.51100000000E-03 0.  1.
         11   -1    0    0    0    0 -0.00000000000E+00 -0.00000000000E+00 -0.45593999997E+02  0.45594000000E+02  0.51100000000E-03 0. -1.
    9900012    2    1    2    0    0  0.14942026939E+02  0.14079077297E+01  0.42471956308E+02  0.46142318233E+02  0.10000004305E+02 0.  0.
         12    1    1    2    0    0 -0.14942026939E+02 -0.14079077297E+01 -0.42471956308E+02  0.45045681767E+02  0.00000000000E+00 0. -1.
         11    1    3    3    0    0  0.94341801250E-01 -0.86318617775E+00  0.50122498553E+00  0.10026053561E+01  0.51100000000E-03 0. -1.
        -11    1    3    3    0    0  0.53213112618E+01  0.28048283033E+01  0.90699505564E+01  0.10883355122E+02  0.51100000000E-03 0.  1.
        -12    1    3    3    0    0  0.95263738758E+01 -0.53373439587E+00  0.32900780766E+02  0.34256357755E+02  0.00000000000E+00 0.  1.
</event>
<event>
 7    1  0.1381440E-008  0.4614232E+02  0.7816164E-02  0.1320468E+00
        -11   -1    0    0    0    0  0.00000000000E+00  0.00000000000E+00  0.45593999997E+02  0.45594000000E+02  0.51100000000E-03 0. -1.
         11   -1    0    0    0    0 -0.00000000000E+00 -0.00000000000E+00 -0.45593999997E+02  0.45594000000E+02  0.51100000000E-03 0.  1.
    9900012    2    1    2    0    0  0.13741182530E+02 -0.18245129551E+01 -0.42859824855E+02  0.46142317283E+02  0.99999956397E+01 0.  0.
         12    1    1    2    0    0 -0.13741182530E+02  0.18245129551E+01  0.42859824855E+02  0.45045682717E+02  0.00000000000E+00 0. -1.
         11    1    3    3    0    0  0.93649673158E+00  0.24165702409E+01 -0.83001813702E+01  0.86953923946E+01  0.51100000000E-03 0. -1.
        -11    1    3    3    0    0  0.23055832290E+01  0.98957273565E+00 -0.86342698814E+01  0.89914172894E+01  0.51100000000E-03 0.  1.
         12    1    3    3    0    0  0.10499102570E+02 -0.52306559317E+01 -0.25925373603E+02  0.28455507599E+02  0.00000000000E+00 0. -1.
</event>
<event>
 7    1  0.1381440E-008  0.4614232E+02  0.7816164E-02  0.1320468E+00
        -11   -1    0    0    0    0  0.00000000000E+00  0.00000000000E+00  0.45593999997E+02  0.45594000000E+02  0.51100000000E-03 0.  1.
         11   -1    0    0    0    0 -0.00000000000E+00 -0.00000000000E+00 -0.45593999997E+02  0.45594000000E+02  0.51100000000E-03 0. -1.
    9900012    2    1    2    0    0 -0.12690238347E+02 -0.28639283066E+02  0.32370708652E+02  0.46142318049E+02  0.10000002621E+02 0.  0.
         12    1    1    2    0    0  0.12690238347E+02  0.28639283066E+02 -0.32370708652E+02  0.45045681951E+02  0.00000000000E+00 0. -1.
         11    1    3    3    0    0 -0.85955833126E+01 -0.13629454666E+02  0.22085372489E+02  0.27338795973E+02  0.51100000000E-03 0. -1.
        -11    1    3    3    0    0 -0.37712502093E+01 -0.95075336028E+01  0.65725567841E+01  0.12157879186E+02  0.51100000000E-03 0.  1.
         12    1    3    3    0    0 -0.32340482508E+00 -0.55022947966E+01  0.37127793788E+01  0.66456428903E+01  0.00000000000E+00 0. -1.
</event>
<event>
 7    1  0.1381440E-008  0.4614231E+02  0.7816164E-02  0.1320468E+00
        -11   -1    0    0    0    0  0.00000000000E+00  0.00000000000E+00  0.45593999997E+02  0.45594000000E+02  0.51100000000E-03 0.  1.
         11   -1    0    0    0    0 -0.00000000000E+00 -0.00000000000E+00 -0.45593999997E+02  0.45594000000E+02  0.51100000000E-03 0. -1.
    9900012    2    1    2    0    0 -0.39038095270E+02  0.12062157338E+01  0.22442949153E+02  0.46142314242E+02  0.99999679078E+01 0.  0.
         12    1    1    2    0    0  0.39038095270E+02 -0.12062157338E+01 -0.22442949153E+02  0.45045685758E+02  0.00000000000E+00 0. -1.
         11    1    3    3    0    0 -0.29070589403E+02  0.40856634033E-01  0.12716524324E+02  0.31730282518E+02  0.51100000000E-03 0. -1.
        -11    1    3    3    0    0 -0.83834151981E+01  0.84730831225E-01  0.63057387677E+01  0.10490527697E+02  0.51100000000E-03 0.  1.
         12    1    3    3    0    0 -0.15840906692E+01  0.10806282685E+01  0.34206860612E+01  0.39215040268E+01  0.00000000000E+00 0. -1.
</event>
<event>
 7    1  0.1381440E-008  0.4614232E+02  0.7816164E-02  0.1320468E+00
        -11   -1    0    0    0    0  0.00000000000E+00  0.00000000000E+00  0.45593999997E+02  0.45594000000E+02  0.51100000000E-03 0.  1.
         11   -1    0    0    0    0 -0.00000000000E+00 -0.00000000000E+00 -0.45593999997E+02  0.45594000000E+02  0.51100000000E-03 0. -1.
    9900012    2    1    2    0    0  0.35351660416E+02  0.27582741687E+02 -0.43088163415E+01  0.46142318394E+02  0.10000005769E+02 0.  0.
         12    1    1    2    0    0 -0.35351660416E+02 -0.27582741687E+02  0.43088163415E+01  0.45045681606E+02  0.00000000000E+00 0. -1.
         11    1    3    3    0    0  0.20369650391E+02  0.19622511534E+02 -0.56484220078E+01  0.28842161628E+02  0.51100000000E-03 0. -1.
        -11    1    3    3    0    0  0.69935868292E+01  0.23729269370E+01  0.15644868987E+01  0.75490832889E+01  0.51100000000E-03 0.  1.
        -12    1    3    3    0    0  0.79884231952E+01  0.55873032161E+01 -0.22488123245E+00  0.97510734764E+01  0.00000000000E+00 0.  1.
</event>
<event>
 7    1  0.1381440E-008  0.4614232E+02  0.7816164E-02  0.1320468E+00
        -11   -1    0    0    0    0  0.00000000000E+00  0.00000000000E+00  0.45593999997E+02  0.45594000000E+02  0.51100000000E-03 0. -1.
         11   -1    0    0    0    0 -0.00000000000E+00 -0.00000000000E+00 -0.45593999997E+02  0.45594000000E+02  0.51100000000E-03 0.  1.
    9900012    2    1    2    0    0 -0.29497649764E+02  0.33415221108E+02 -0.65134574876E+01  0.46142317946E+02  0.10000001683E+02 0.  0.
         12    1    1    2    0    0  0.29497649764E+02 -0.33415221108E+02  0.65134574876E+01  0.45045682054E+02  0.00000000000E+00 0. -1.
         11    1    3    3    0    0 -0.18936598648E+02  0.14723285704E+02 -0.43353234959E+01  0.24375498771E+02  0.51100000000E-03 0. -1.
        -11    1    3    3    0    0 -0.92647774761E+01  0.13999720857E+02 -0.15697643647E+01  0.16860974058E+02  0.51100000000E-03 0.  1.
         12    1    3    3    0    0 -0.12962736400E+01  0.46922145467E+01 -0.60836962697E+00  0.49058451163E+01  0.00000000000E+00 0. -1.
</event>
<event>
 7    1  0.1381440E-008  0.4614232E+02  0.7816164E-02  0.1320468E+00
        -11   -1    0    0    0    0  0.00000000000E+00  0.00000000000E+00  0.45593999997E+02  0.45594000000E+02  0.51100000000E-03 0. -1.
         11   -1    0    0    0    0 -0.00000000000E+00 -0.00000000000E+00 -0.45593999997E+02  0.45594000000E+02  0.51100000000E-03 0.  1.
    9900012    2    1    2    0    0 -0.39895836259E+02 -0.20637881823E+02 -0.33931680512E+01  0.46142317561E+02  0.99999981776E+01 0.  0.
         12    1    1    2    0    0  0.39895836259E+02  0.20637881823E+02  0.33931680512E+01  0.45045682439E+02  0.00000000000E+00 0. -1.
         11    1    3    3    0    0 -0.23289021470E+02 -0.14882867786E+02  0.13024739333E+01  0.27669020821E+02  0.51100000000E-03 0. -1.
        -11    1    3    3    0    0 -0.90808378984E+01 -0.31042277650E+01 -0.90452187144E+00  0.96392949447E+01  0.51100000000E-03 0.  1.
         12    1    3    3    0    0 -0.75259768909E+01 -0.26507862718E+01 -0.37911201131E+01  0.88340017961E+01  0.00000000000E+00 0. -1.
</event>
<event>
 7    1  0.1381440E-008  0.4614232E+02  0.7816164E-02  0.1320468E+00
        -11   -1    0    0    0    0  0.00000000000E+00  0.00000000000E+00  0.45593999997E+02  0.45594000000E+02  0.51100000000E-03 0.  1.
         11   -1    0    0    0    0 -0.00000000000E+00 -0.00000000000E+00 -0.45593999997E+02  0.45594000000E+02  0.51100000000E-03 0. -1.
    9900012    2    1    2    0    0  0.13170039763E+02 -0.28048718631E+02  0.32694540500E+02  0.46142317158E+02  0.99999944987E+01 0.  0.
         12    1    1    2    0    0 -0.13170039763E+02  0.28048718631E+02 -0.32694540500E+02  0.45045682842E+02  0.00000000000E+00 0. -1.
         11    1    3    3    0    0  0.39211171681E+01 -0.26901278914E+01  0.79422747180E+01  0.92569798464E+01  0.51100000000E-03 0. -1.
        -11    1    3    3    0    0  0.18147278672E+01 -0.10028255494E+02  0.10947776475E+02  0.14957036989E+02  0.51100000000E-03 0.  1.
         12    1    3    3    0    0  0.74341947277E+01 -0.15330335246E+02  0.13804489306E+02  0.21928300322E+02  0.00000000000E+00 0. -1.
</event>
<event>
 7    1  0.1381440E-008  0.4614232E+02  0.7816164E-02  0.1320468E+00
        -11   -1    0    0    0    0  0.00000000000E+00  0.00000000000E+00  0.45593999997E+02  0.45594000000E+02  0.51100000000E-03 0. -1.
         11   -1    0    0    0    0 -0.00000000000E+00 -0.00000000000E+00 -0.45593999997E+02  0.45594000000E+02  0.51100000000E-03 0.  1.
    9900012    2    1    2    0    0  0.21994062662E+02 -0.39308110124E+02  0.49699562388E+00  0.46142319646E+02  0.10000017184E+02 0.  0.
         12    1    1    2    0    0 -0.21994062662E+02  0.39308110124E+02 -0.49699562388E+00  0.45045680354E+02  0.00000000000E+00 0. -1.
         11    1    3    3    0    0  0.73020914238E+01 -0.14276404419E+02 -0.45214720267E+01  0.16660731432E+02  0.51100000000E-03 0. -1.
        -11    1    3    3    0    0  0.58144202033E+01 -0.10193737717E+02  0.26297078711E+01  0.12026434829E+02  0.51100000000E-03 0.  1.
         12    1    3    3    0    0  0.88775510350E+01 -0.14837967988E+02  0.23887597795E+01  0.17455153384E+02  0.00000000000E+00 0. -1.
</event>
<event>
 7    1  0.1381440E-008  0.4614232E+02  0.7816164E-02  0.1320468E+00
        -11   -1    0    0    0    0  0.00000000000E+00  0.00000000000E+00  0.45593999997E+02  0.45594000000E+02  0.51100000000E-03 0.  1.
         11   -1    0    0    0    0 -0.00000000000E+00 -0.00000000000E+00 -0.45593999997E+02  0.45594000000E+02  0.51100000000E-03 0. -1.
    9900012    2    1    2    0    0 -0.31405974815E+01  0.21006360987E+01  0.44886940685E+02  0.46142317980E+02  0.10000001996E+02 0.  0.
         12    1    1    2    0    0  0.31405974815E+01 -0.21006360987E+01 -0.44886940685E+02  0.45045682020E+02  0.00000000000E+00 0. -1.
         11    1    3    3    0    0 -0.62333550056E+00  0.10073642181E+00 -0.16650978161E+00  0.65300899031E+00  0.51100000000E-03 0. -1.
        -11    1    3    3    0    0 -0.27316004818E+01  0.11064528152E+01  0.43970285659E+02  0.44068944850E+02  0.51100000000E-03 0.  1.
        -12    1    3    3    0    0  0.21433850086E+00  0.89344686166E+00  0.10831648080E+01  0.14203641395E+01  0.00000000000E+00 0.  1.
</event>
<event>
 7    1  0.1381440E-008  0.4614232E+02  0.7816164E-02  0.1320468E+00
        -11   -1    0    0    0    0  0.00000000000E+00  0.00000000000E+00  0.45593999997E+02  0.45594000000E+02  0.51100000000E-03 0.  1.
         11   -1    0    0    0    0 -0.00000000000E+00 -0.00000000000E+00 -0.45593999997E+02  0.45594000000E+02  0.51100000000E-03 0. -1.
    9900012    2    1    2    0    0 -0.48913140236E-01 -0.77264201459E+01  0.44378072772E+02  0.46142319811E+02  0.10000018691E+02 0.  0.
         12    1    1    2    0    0  0.48913140236E-01  0.77264201459E+01 -0.44378072772E+02  0.45045680189E+02  0.00000000000E+00 0. -1.
         11    1    3    3    0    0  0.24523326879E+01 -0.39650526434E+01  0.66834472216E+01  0.81488677190E+01  0.51100000000E-03 0.  1.
        -11    1    3    3    0    0 -0.24565973391E+01 -0.34115496700E+01  0.30279706797E+02  0.30570151874E+02  0.51100000000E-03 0. -1.
        -12    1    3    3    0    0 -0.44648488992E-01 -0.34981783250E+00  0.74149187530E+01  0.74233002173E+01  0.00000000000E+00 0.  1.
</event>
<event>
 7    1  0.1381440E-008  0.4614232E+02  0.7816164E-02  0.1320468E+00
        -11   -1    0    0    0    0  0.00000000000E+00  0.00000000000E+00  0.45593999997E+02  0.45594000000E+02  0.51100000000E-03 0.  1.
         11   -1    0    0    0    0 -0.00000000000E+00 -0.00000000000E+00 -0.45593999997E+02  0.45594000000E+02  0.51100000000E-03 0. -1.
    9900012    2    1    2    0    0  0.58021366386E+01 -0.35924145749E+02  0.26550039430E+02  0.46142316176E+02  0.99999855490E+01 0.  0.
         12    1    1    2    0    0 -0.58021366386E+01  0.35924145749E+02 -0.26550039430E+02  0.45045683824E+02  0.00000000000E+00 0. -1.
         11    1    3    3    0    0  0.39995919482E+01 -0.99551917082E+01  0.10466915517E+02  0.14988625634E+02  0.51100000000E-03 0. -1.
        -11    1    3    3    0    0 -0.67969089379E+00 -0.21452820619E+02  0.13800560977E+02  0.25517464132E+02  0.51100000000E-03 0.  1.
        -12    1    3    3    0    0  0.24822355843E+01 -0.45161334221E+01  0.22825629366E+01  0.56362264097E+01  0.00000000000E+00 0.  1.
</event>
<event>
 7    1  0.1381440E-008  0.4614232E+02  0.7816164E-02  0.1320468E+00
        -11   -1    0    0    0    0  0.00000000000E+00  0.00000000000E+00  0.45593999997E+02  0.45594000000E+02  0.51100000000E-03 0. -1.
         11   -1    0    0    0    0 -0.00000000000E+00 -0.00000000000E+00 -0.45593999997E+02  0.45594000000E+02  0.51100000000E-03 0.  1.
    9900012    2    1    2    0    0  0.45042787801E+02 -0.41166088839E+00 -0.30211564957E+00  0.46142317949E+02  0.10000001710E+02 0.  0.
         12    1    1    2    0    0 -0.45042787801E+02  0.41166088839E+00  0.30211564957E+00  0.45045682051E+02  0.00000000000E+00 0. -1.
         11    1    3    3    0    0  0.94515604124E+01 -0.34502782882E+01 -0.47159417993E+00  0.10072676696E+02  0.51100000000E-03 0. -1.
        -11    1    3    3    0    0  0.16886283766E+02  0.32913687064E+01  0.17687932965E+01  0.17294748260E+02  0.51100000000E-03 0.  1.
        -12    1    3    3    0    0  0.18704943623E+02 -0.25275130668E+00 -0.15993147662E+01  0.18774892992E+02  0.00000000000E+00 0.  1.
</event>
<event>
 7    1  0.1381440E-008  0.4614232E+02  0.7816164E-02  0.1320468E+00
        -11   -1    0    0    0    0  0.00000000000E+00  0.00000000000E+00  0.45593999997E+02  0.45594000000E+02  0.51100000000E-03 0. -1.
         11   -1    0    0    0    0 -0.00000000000E+00 -0.00000000000E+00 -0.45593999997E+02  0.45594000000E+02  0.51100000000E-03 0.  1.
    9900012    2    1    2    0    0 -0.37645932833E+01 -0.37284700715E+02 -0.24995847298E+02  0.46142318164E+02  0.10000003670E+02 0.  0.
         12    1    1    2    0    0  0.37645932833E+01  0.37284700715E+02  0.24995847298E+02  0.45045681836E+02  0.00000000000E+00 0. -1.
         11    1    3    3    0    0  0.71274466910E+00 -0.20124980528E+02 -0.13148882301E+02  0.24050279670E+02  0.51100000000E-03 0.  1.
        -11    1    3    3    0    0 -0.38320933392E+01 -0.42859328587E+01 -0.33629198924E+01  0.66605848312E+01  0.51100000000E-03 0. -1.
         12    1    3    3    0    0 -0.64524461319E+00 -0.12873787328E+02 -0.84840451047E+01  0.15431453662E+02  0.00000000000E+00 0. -1.
</event>
<event>
 7    1  0.1381440E-008  0.4614232E+02  0.7816164E-02  0.1320468E+00
        -11   -1    0    0    0    0  0.00000000000E+00  0.00000000000E+00  0.45593999997E+02  0.45594000000E+02  0.51100000000E-03 0.  1.
         11   -1    0    0    0    0 -0.00000000000E+00 -0.00000000000E+00 -0.45593999997E+02  0.45594000000E+02  0.51100000000E-03 0. -1.
    9900012    2    1    2    0    0 -0.28139791622E+02 -0.12252078378E+02  0.32971991798E+02  0.46142317185E+02  0.99999947484E+01 0.  0.
         12    1    1    2    0    0  0.28139791622E+02  0.12252078378E+02 -0.32971991798E+02  0.45045682815E+02  0.00000000000E+00 0. -1.
         11    1    3    3    0    0 -0.25112059135E+01 -0.32915725818E+01  0.30245267082E+01  0.51272182780E+01  0.51100000000E-03 0. -1.
        -11    1    3    3    0    0 -0.23635072500E+02 -0.74840844636E+01  0.23718294279E+02  0.34310139261E+02  0.51100000000E-03 0.  1.
        -12    1    3    3    0    0 -0.19935132087E+01 -0.14764213322E+01  0.62291708112E+01  0.67049596463E+01  0.00000000000E+00 0.  1.
</event>
<event>
 7    1  0.1381440E-008  0.4614232E+02  0.7816164E-02  0.1320468E+00
        -11   -1    0    0    0    0  0.00000000000E+00  0.00000000000E+00  0.45593999997E+02  0.45594000000E+02  0.51100000000E-03 0.  1.
         11   -1    0    0    0    0 -0.00000000000E+00 -0.00000000000E+00 -0.45593999997E+02  0.45594000000E+02  0.51100000000E-03 0. -1.
    9900012    2    1    2    0    0 -0.38590428140E+02  0.23227626033E+02 -0.60802001606E+00  0.46142318259E+02  0.10000004542E+02 0.  0.
         12    1    1    2    0    0  0.38590428140E+02 -0.23227626033E+02  0.60802001606E+00  0.45045681741E+02  0.00000000000E+00 0. -1.
         11    1    3    3    0    0 -0.81943115940E+01  0.66203141515E+01 -0.30069120105E+01  0.10955218942E+02  0.51100000000E-03 0. -1.
        -11    1    3    3    0    0 -0.75479364054E+01  0.20236521981E+01  0.20506874566E+01  0.80790984339E+01  0.51100000000E-03 0.  1.
        -12    1    3    3    0    0 -0.22848180141E+02  0.14583659683E+02  0.34820453780E+00  0.27108000883E+02  0.00000000000E+00 0.  1.
</event>
<event>
 7    1  0.1381440E-008  0.4614232E+02  0.7816164E-02  0.1320468E+00
        -11   -1    0    0    0    0  0.00000000000E+00  0.00000000000E+00  0.45593999997E+02  0.45594000000E+02  0.51100000000E-03 0.  1.
         11   -1    0    0    0    0 -0.00000000000E+00 -0.00000000000E+00 -0.45593999997E+02  0.45594000000E+02  0.51100000000E-03 0. -1.
    9900012    2    1    2    0    0 -0.85221778197E+01  0.13930189536E+02  0.41981374337E+02  0.46142317781E+02  0.10000000186E+02 0.  0.
         12    1    1    2    0    0  0.85221778197E+01 -0.13930189536E+02 -0.41981374337E+02  0.45045682219E+02  0.00000000000E+00 0. -1.
         11    1    3    3    0    0 -0.14772148397E+01 -0.12783031114E+01  0.27189565660E+01  0.33479766421E+01  0.51100000000E-03 0. -1.
        -11    1    3    3    0    0 -0.37079731347E+01  0.58894895481E+01  0.19211845295E+02  0.20433554556E+02  0.51100000000E-03 0.  1.
         12    1    3    3    0    0 -0.33369898453E+01  0.93190030996E+01  0.20050572476E+02  0.22360786583E+02  0.00000000000E+00 0. -1.
</event>
<event>
 7    1  0.1381440E-008  0.4614232E+02  0.7816164E-02  0.1320468E+00
        -11   -1    0    0    0    0  0.00000000000E+00  0.00000000000E+00  0.45593999997E+02  0.45594000000E+02  0.51100000000E-03 0. -1.
         11   -1    0    0    0    0 -0.00000000000E+00 -0.00000000000E+00 -0.45593999997E+02  0.45594000000E+02  0.51100000000E-03 0.  1.
    9900012    2    1    2    0    0 -0.78779937055E+00 -0.21723409991E+02 -0.39453596975E+02  0.46142317812E+02  0.10000000466E+02 0.  0.
         12    1    1    2    0    0  0.78779937055E+00  0.21723409991E+02  0.39453596975E+02  0.45045682188E+02  0.00000000000E+00 0. -1.
         11    1    3    3    0    0 -0.13911458284E+01  0.62150543322E+00 -0.24437387015E+01  0.28798289570E+01  0.51100000000E-03 0. -1.
        -11    1    3    3    0    0 -0.26644419609E+00 -0.91612110269E+01 -0.16189952195E+02  0.18604121380E+02  0.51100000000E-03 0.  1.
         12    1    3    3    0    0  0.86979065389E+00 -0.13183704397E+02 -0.20819906079E+02  0.24658367476E+02  0.00000000000E+00 0. -1.
</event>
<event>
 7    1  0.1381440E-008  0.4614232E+02  0.7816164E-02  0.1320468E+00
        -11   -1    0    0    0    0  0.00000000000E+00  0.00000000000E+00  0.45593999997E+02  0.45594000000E+02  0.51100000000E-03 0. -1.
         11   -1    0    0    0    0 -0.00000000000E+00 -0.00000000000E+00 -0.45593999997E+02  0.45594000000E+02  0.51100000000E-03 0.  1.
    9900012    2    1    2    0    0  0.43945460673E+02 -0.11946403956E+01 -0.98225656245E+01  0.46142317911E+02  0.10000001364E+02 0.  0.
         12    1    1    2    0    0 -0.43945460673E+02  0.11946403956E+01  0.98225656245E+01  0.45045682089E+02  0.00000000000E+00 0. -1.
         11    1    3    3    0    0  0.13778153300E+02 -0.43066173217E+01 -0.21549742200E+01  0.14595491608E+02  0.51100000000E-03 0. -1.
        -11    1    3    3    0    0  0.10382005251E+02  0.44160719677E+00 -0.45349766405E+01  0.11337859734E+02  0.51100000000E-03 0.  1.
         12    1    3    3    0    0  0.19785302122E+02  0.26703697293E+01 -0.31326147640E+01  0.20208966569E+02  0.00000000000E+00 0. -1.
</event>
<event>
 7    1  0.1381440E-008  0.4614232E+02  0.7816164E-02  0.1320468E+00
        -11   -1    0    0    0    0  0.00000000000E+00  0.00000000000E+00  0.45593999997E+02  0.45594000000E+02  0.51100000000E-03 0. -1.
         11   -1    0    0    0    0 -0.00000000000E+00 -0.00000000000E+00 -0.45593999997E+02  0.45594000000E+02  0.51100000000E-03 0.  1.
    9900012    2    1    2    0    0  0.24013806578E+02 -0.36716973348E+02  0.10213426268E+02  0.46142321913E+02  0.10000037862E+02 0.  0.
         12    1    1    2    0    0 -0.24013806578E+02  0.36716973348E+02 -0.10213426268E+02  0.45045678087E+02  0.00000000000E+00 0. -1.
         11    1    3    3    0    0  0.75644830739E+01 -0.11767681714E+02  0.76485943219E+01  0.15943673744E+02  0.51100000000E-03 0. -1.
        -11    1    3    3    0    0  0.85045187496E+01 -0.15374526756E+02  0.43060856664E+00  0.17575219377E+02  0.51100000000E-03 0.  1.
         12    1    3    3    0    0  0.79448047545E+01 -0.95747648774E+01  0.21342233794E+01  0.12623428792E+02  0.00000000000E+00 0. -1.
</event>
<event>
 7    1  0.1381440E-008  0.4614232E+02  0.7816164E-02  0.1320468E+00
        -11   -1    0    0    0    0  0.00000000000E+00  0.00000000000E+00  0.45593999997E+02  0.45594000000E+02  0.51100000000E-03 0.  1.
         11   -1    0    0    0    0 -0.00000000000E+00 -0.00000000000E+00 -0.45593999997E+02  0.45594000000E+02  0.51100000000E-03 0. -1.
    9900012    2    1    2    0    0  0.11951910110E+01 -0.17958671829E+02  0.41293718222E+02  0.46142317187E+02  0.99999947674E+01 0.  0.
         12    1    1    2    0    0 -0.11951910110E+01  0.17958671829E+02 -0.41293718222E+02  0.45045682813E+02  0.00000000000E+00 0. -1.
         11    1    3    3    0    0 -0.18529312565E+01 -0.51940803259E+01  0.20449327724E+02  0.21179868491E+02  0.51100000000E-03 0. -1.
        -11    1    3    3    0    0  0.19023794123E+01 -0.12319624459E+02  0.19469531654E+02  0.23118279723E+02  0.51100000000E-03 0.  1.
        -12    1    3    3    0    0  0.11457428553E+01 -0.44496704396E+00  0.13748588445E+01  0.18441689735E+01  0.00000000000E+00 0.  1.
</event>
<event>
 7    1  0.1381440E-008  0.4614232E+02  0.7816164E-02  0.1320468E+00
        -11   -1    0    0    0    0  0.00000000000E+00  0.00000000000E+00  0.45593999997E+02  0.45594000000E+02  0.51100000000E-03 0.  1.
         11   -1    0    0    0    0 -0.00000000000E+00 -0.00000000000E+00 -0.45593999997E+02  0.45594000000E+02  0.51100000000E-03 0. -1.
    9900012    2    1    2    0    0 -0.89372518118E+01 -0.20207489588E+02  0.39254253835E+02  0.46142317082E+02  0.99999938110E+01 0.  0.
         12    1    1    2    0    0  0.89372518118E+01  0.20207489588E+02 -0.39254253835E+02  0.45045682918E+02  0.00000000000E+00 0. -1.
         11    1    3    3    0    0 -0.28321712035E+00 -0.10030930061E+02  0.22180559171E+02  0.24344957902E+02  0.51100000000E-03 0. -1.
        -11    1    3    3    0    0 -0.70475623591E+01 -0.91079661197E+01  0.15485922768E+02  0.19298626538E+02  0.51100000000E-03 0.  1.
         12    1    3    3    0    0 -0.16064723323E+01 -0.10685934072E+01  0.15877718959E+01  0.24987326423E+01  0.00000000000E+00 0. -1.
</event>
<event>
 7    1  0.1381440E-008  0.4614232E+02  0.7816164E-02  0.1320468E+00
        -11   -1    0    0    0    0  0.00000000000E+00  0.00000000000E+00  0.45593999997E+02  0.45594000000E+02  0.51100000000E-03 0.  1.
         11   -1    0    0    0    0 -0.00000000000E+00 -0.00000000000E+00 -0.45593999997E+02  0.45594000000E+02  0.51100000000E-03 0. -1.
    9900012    2    1    2    0    0 -0.30955489454E+02  0.22528073626E+02  0.23735144349E+02  0.46142317566E+02  0.99999982225E+01 0.  0.
         12    1    1    2    0    0  0.30955489454E+02 -0.22528073626E+02 -0.23735144349E+02  0.45045682434E+02  0.00000000000E+00 0. -1.
         11    1    3    3    0    0 -0.19337285585E+02  0.17566027714E+02  0.13724793801E+02  0.29510437283E+02  0.51100000000E-03 0. -1.
        -11    1    3    3    0    0 -0.90210988247E+01  0.55698498919E+01  0.82840159913E+01  0.13454678481E+02  0.51100000000E-03 0.  1.
         12    1    3    3    0    0 -0.25971050445E+01 -0.60780398071E+00  0.17263345571E+01  0.31772018026E+01  0.00000000000E+00 0. -1.
</event>
<event>
 7    1  0.1381440E-008  0.4614232E+02  0.7816164E-02  0.1320468E+00
        -11   -1    0    0    0    0  0.00000000000E+00  0.00000000000E+00  0.45593999997E+02  0.45594000000E+02  0.51100000000E-03 0.  1.
         11   -1    0    0    0    0 -0.00000000000E+00 -0.00000000000E+00 -0.45593999997E+02  0.45594000000E+02  0.51100000000E-03 0. -1.
    9900012    2    1    2    0    0  0.40240923731E+02  0.19269150754E+02 -0.62033356809E+01  0.46142317775E+02  0.10000000130E+02 0.  0.
         12    1    1    2    0    0 -0.40240923731E+02 -0.19269150754E+02  0.62033356809E+01  0.45045682225E+02  0.00000000000E+00 0. -1.
         11    1    3    3    0    0  0.75865438796E+01  0.82771967216E+01 -0.21932000569E+01  0.11440181832E+02  0.51100000000E-03 0. -1.
        -11    1    3    3    0    0  0.29881979326E+02  0.10063512628E+02 -0.33840764162E+01  0.31712126203E+02  0.51100000000E-03 0.  1.
         12    1    3    3    0    0  0.27724005253E+01  0.92844140443E+00 -0.62605920789E+00  0.29900097401E+01  0.00000000000E+00 0. -1.
</event>
<event>
 7    1  0.1381440E-008  0.4614232E+02  0.7816164E-02  0.1320468E+00
        -11   -1    0    0    0    0  0.00000000000E+00  0.00000000000E+00  0.45593999997E+02  0.45594000000E+02  0.51100000000E-03 0.  1.
         11   -1    0    0    0    0 -0.00000000000E+00 -0.00000000000E+00 -0.45593999997E+02  0.45594000000E+02  0.51100000000E-03 0. -1.
    9900012    2    1    2    0    0  0.16105272001E+02 -0.12428226529E+02  0.40190456288E+02  0.46142318992E+02  0.10000011220E+02 0.  0.
         12    1    1    2    0    0 -0.16105272001E+02  0.12428226529E+02 -0.40190456288E+02  0.45045681008E+02  0.00000000000E+00 0. -1.
         11    1    3    3    0    0  0.15571754831E+01 -0.30566569994E+00  0.26837817859E+01  0.31178377027E+01  0.51100000000E-03 0. -1.
        -11    1    3    3    0    0  0.88937255871E+00 -0.45013924304E+01  0.41670120481E+01  0.61981857854E+01  0.51100000000E-03 0.  1.
        -12    1    3    3    0    0  0.13658723959E+02 -0.76211683987E+01  0.33339662454E+02  0.36826295503E+02  0.00000000000E+00 0.  1.
</event>
<event>
 7    1  0.1381440E-008  0.4614232E+02  0.7816164E-02  0.1320468E+00
        -11   -1    0    0    0    0  0.00000000000E+00  0.00000000000E+00  0.45593999997E+02  0.45594000000E+02  0.51100000000E-03 0. -1.
         11   -1    0    0    0    0 -0.00000000000E+00 -0.00000000000E+00 -0.45593999997E+02  0.45594000000E+02  0.51100000000E-03 0.  1.
    9900012    2    1    2    0    0 -0.29943327091E+02 -0.25720839379E+02 -0.21701361640E+02  0.46142317492E+02  0.99999975446E+01 0.  0.
         12    1    1    2    0    0  0.29943327091E+02  0.25720839379E+02  0.21701361640E+02  0.45045682508E+02  0.00000000000E+00 0. -1.
         11    1    3    3    0    0 -0.35756012232E+01 -0.60844410765E+01 -0.16376309230E+01  0.72448038360E+01  0.51100000000E-03 0. -1.
        -11    1    3    3    0    0 -0.16739532651E+02 -0.15133626292E+02 -0.15203105163E+02  0.27209796121E+02  0.51100000000E-03 0.  1.
         12    1    3    3    0    0 -0.96281932162E+01 -0.45027720105E+01 -0.48606255540E+01  0.11687717534E+02  0.00000000000E+00 0. -1.
</event>
<event>
 7    1  0.1381440E-008  0.4614232E+02  0.7816164E-02  0.1320468E+00
        -11   -1    0    0    0    0  0.00000000000E+00  0.00000000000E+00  0.45593999997E+02  0.45594000000E+02  0.51100000000E-03 0.  1.
         11   -1    0    0    0    0 -0.00000000000E+00 -0.00000000000E+00 -0.45593999997E+02  0.45594000000E+02  0.51100000000E-03 0. -1.
    9900012    2    1    2    0    0  0.11890132680E+01 -0.29065237398E+02  0.34393483214E+02  0.46142318019E+02  0.10000002347E+02 0.  0.
         12    1    1    2    0    0 -0.11890132680E+01  0.29065237398E+02 -0.34393483214E+02  0.45045681981E+02  0.00000000000E+00 0. -1.
         11    1    3    3    0    0  0.41300362999E+01 -0.93059365808E+01  0.12291515481E+02  0.15960545372E+02  0.51100000000E-03 0. -1.
        -11    1    3    3    0    0 -0.26496965104E+01 -0.19999773052E+02  0.21736857969E+02  0.29656412601E+02  0.51100000000E-03 0.  1.
         12    1    3    3    0    0 -0.29132652154E+00  0.24047223459E+00  0.36510976436E+00  0.52536004586E+00  0.00000000000E+00 0. -1.
</event>
<event>
 7    1  0.1381440E-008  0.4614232E+02  0.7816164E-02  0.1320468E+00
        -11   -1    0    0    0    0  0.00000000000E+00  0.00000000000E+00  0.45593999997E+02  0.45594000000E+02  0.51100000000E-03 0. -1.
         11   -1    0    0    0    0 -0.00000000000E+00 -0.00000000000E+00 -0.45593999997E+02  0.45594000000E+02  0.51100000000E-03 0.  1.
    9900012    2    1    2    0    0 -0.27631700634E+02  0.27389449941E+02 -0.22702877733E+02  0.46142317572E+02  0.99999982779E+01 0.  0.
         12    1    1    2    0    0  0.27631700634E+02 -0.27389449941E+02  0.22702877733E+02  0.45045682428E+02  0.00000000000E+00 0. -1.
         11    1    3    3    0    0 -0.14815235220E+02  0.14472744902E+02 -0.14583277653E+02  0.25330288727E+02  0.51100000000E-03 0.  1.
        -11    1    3    3    0    0 -0.52157351363E+01  0.14651036585E+01 -0.23773715834E+01  0.59162756569E+01  0.51100000000E-03 0. -1.
         12    1    3    3    0    0 -0.76007302782E+01  0.11451601381E+02 -0.57422284963E+01  0.14895753188E+02  0.00000000000E+00 0. -1.
</event>
<event>
 7    1  0.1381440E-008  0.4614232E+02  0.7816164E-02  0.1320468E+00
        -11   -1    0    0    0    0  0.00000000000E+00  0.00000000000E+00  0.45593999997E+02  0.45594000000E+02  0.51100000000E-03 0. -1.
         11   -1    0    0    0    0 -0.00000000000E+00 -0.00000000000E+00 -0.45593999997E+02  0.45594000000E+02  0.51100000000E-03 0.  1.
    9900012    2    1    2    0    0  0.37663236712E+02 -0.26732932368E+01 -0.24565169899E+02  0.46142317981E+02  0.10000002005E+02 0.  0.
         12    1    1    2    0    0 -0.37663236712E+02  0.26732932368E+01  0.24565169899E+02  0.45045682019E+02  0.00000000000E+00 0. -1.
         11    1    3    3    0    0  0.13976153083E+02 -0.11683148671E+00 -0.51889207302E+01  0.14908769339E+02  0.51100000000E-03 0. -1.
        -11    1    3    3    0    0  0.23380275498E+02 -0.30420617105E+01 -0.19555496492E+02  0.30631827649E+02  0.51100000000E-03 0.  1.
         12    1    3    3    0    0  0.30680813187E+00  0.48559996043E+00  0.17924732283E+00  0.60172099356E+00  0.00000000000E+00 0. -1.
</event>
<event>
 7    1  0.1381440E-008  0.4614232E+02  0.7816164E-02  0.1320468E+00
        -11   -1    0    0    0    0  0.00000000000E+00  0.00000000000E+00  0.45593999997E+02  0.45594000000E+02  0.51100000000E-03 0. -1.
         11   -1    0    0    0    0 -0.00000000000E+00 -0.00000000000E+00 -0.45593999997E+02  0.45594000000E+02  0.51100000000E-03 0.  1.
    9900012    2    1    2    0    0  0.10991765833E+02 -0.43663995879E+02 -0.13228138355E+01  0.46142319977E+02  0.10000020208E+02 0.  0.
         12    1    1    2    0    0 -0.10991765833E+02  0.43663995879E+02  0.13228138355E+01  0.45045680023E+02  0.00000000000E+00 0. -1.
         11    1    3    3    0    0  0.37399323419E+00 -0.49844419039E+01 -0.15161375408E+01  0.52233327805E+01  0.51100000000E-03 0. -1.
        -11    1    3    3    0    0  0.97875136840E+01 -0.27177629081E+02  0.30258517173E+01  0.29044357894E+02  0.51100000000E-03 0.  1.
        -12    1    3    3    0    0  0.83025891433E+00 -0.11501924894E+02 -0.28325280120E+01  0.11874629303E+02  0.00000000000E+00 0.  1.
</event>
<event>
 7    1  0.1381440E-008  0.4614232E+02  0.7816164E-02  0.1320468E+00
        -11   -1    0    0    0    0  0.00000000000E+00  0.00000000000E+00  0.45593999997E+02  0.45594000000E+02  0.51100000000E-03 0. -1.
         11   -1    0    0    0    0 -0.00000000000E+00 -0.00000000000E+00 -0.45593999997E+02  0.45594000000E+02  0.51100000000E-03 0.  1.
    9900012    2    1    2    0    0  0.38845281651E+02  0.21353430431E+02  0.80117901160E+01  0.46142315650E+02  0.99999807477E+01 0.  0.
         12    1    1    2    0    0 -0.38845281651E+02 -0.21353430431E+02 -0.80117901160E+01  0.45045684350E+02  0.00000000000E+00 0. -1.
         11    1    3    3    0    0  0.19595436229E+02  0.11010198482E+02  0.39825368170E+01  0.22826874324E+02  0.51100000000E-03 0. -1.
        -11    1    3    3    0    0  0.16312293323E+02  0.78426160700E+01  0.53052544390E+00  0.18107429353E+02  0.51100000000E-03 0.  1.
         12    1    3    3    0    0  0.29375520990E+01  0.25006158788E+01  0.34987278551E+01  0.52080119731E+01  0.00000000000E+00 0. -1.
</event>
<event>
 7    1  0.1381440E-008  0.4614232E+02  0.7816164E-02  0.1320468E+00
        -11   -1    0    0    0    0  0.00000000000E+00  0.00000000000E+00  0.45593999997E+02  0.45594000000E+02  0.51100000000E-03 0.  1.
         11   -1    0    0    0    0 -0.00000000000E+00 -0.00000000000E+00 -0.45593999997E+02  0.45594000000E+02  0.51100000000E-03 0. -1.
    9900012    2    1    2    0    0  0.25656208933E+02  0.61400592603E+01  0.36512632109E+02  0.46142315544E+02  0.99999797853E+01 0.  0.
         12    1    1    2    0    0 -0.25656208933E+02 -0.61400592603E+01 -0.36512632109E+02  0.45045684456E+02  0.00000000000E+00 0. -1.
         11    1    3    3    0    0  0.42215876099E+01 -0.18822658099E+01  0.47630856095E+01  0.66371463229E+01  0.51100000000E-03 0. -1.
        -11    1    3    3    0    0  0.82312893540E+01  0.23860335448E+01  0.78313412482E+01  0.11609357713E+02  0.51100000000E-03 0.  1.
         12    1    3    3    0    0  0.13203331969E+02  0.56362915254E+01  0.23918205251E+02  0.27895811508E+02  0.00000000000E+00 0. -1.
</event>
<event>
 7    1  0.1381440E-008  0.4614232E+02  0.7816164E-02  0.1320468E+00
        -11   -1    0    0    0    0  0.00000000000E+00  0.00000000000E+00  0.45593999997E+02  0.45594000000E+02  0.51100000000E-03 0. -1.
         11   -1    0    0    0    0 -0.00000000000E+00 -0.00000000000E+00 -0.45593999997E+02  0.45594000000E+02  0.51100000000E-03 0.  1.
    9900012    2    1    2    0    0 -0.37742229792E+02  0.16599128564E+02 -0.18141292024E+02  0.46142318131E+02  0.10000003369E+02 0.  0.
         12    1    1    2    0    0  0.37742229792E+02 -0.16599128564E+02  0.18141292024E+02  0.45045681869E+02  0.00000000000E+00 0. -1.
         11    1    3    3    0    0 -0.26058286997E+02  0.12624229685E+02 -0.14386528922E+02  0.32332301357E+02  0.51100000000E-03 0.  1.
        -11    1    3    3    0    0 -0.20142203300E+01  0.20900136346E+01 -0.25891331504E+01  0.38895824020E+01  0.51100000000E-03 0. -1.
         12    1    3    3    0    0 -0.96697224647E+01  0.18848852448E+01 -0.11656299517E+01  0.99204343713E+01  0.00000000000E+00 0. -1.
</event>
<event>
 7    1  0.1381440E-008  0.4614232E+02  0.7816164E-02  0.1320468E+00
        -11   -1    0    0    0    0  0.00000000000E+00  0.00000000000E+00  0.45593999997E+02  0.45594000000E+02  0.51100000000E-03 0. -1.
         11   -1    0    0    0    0 -0.00000000000E+00 -0.00000000000E+00 -0.45593999997E+02  0.45594000000E+02  0.51100000000E-03 0.  1.
    9900012    2    1    2    0    0  0.98393330196E+01  0.27637318971E+02 -0.34183029682E+02  0.46142318826E+02  0.10000009712E+02 0.  0.
         12    1    1    2    0    0 -0.98393330196E+01 -0.27637318971E+02  0.34183029682E+02  0.45045681174E+02  0.00000000000E+00 0. -1.
         11    1    3    3    0    0  0.22587332217E+01  0.82689606250E+01 -0.15635115401E+02  0.17830715618E+02  0.51100000000E-03 0. -1.
        -11    1    3    3    0    0  0.79981673357E+01  0.18226556039E+02 -0.18364724093E+02  0.27082118031E+02  0.51100000000E-03 0.  1.
         12    1    3    3    0    0 -0.41756753780E+00  0.11418023070E+01 -0.18319018851E+00  0.12294851777E+01  0.00000000000E+00 0. -1.
</event>
<event>
 7    1  0.1381440E-008  0.4614232E+02  0.7816164E-02  0.1320468E+00
        -11   -1    0    0    0    0  0.00000000000E+00  0.00000000000E+00  0.45593999997E+02  0.45594000000E+02  0.51100000000E-03 0.  1.
         11   -1    0    0    0    0 -0.00000000000E+00 -0.00000000000E+00 -0.45593999997E+02  0.45594000000E+02  0.51100000000E-03 0. -1.
    9900012    2    1    2    0    0  0.29409204574E+02 -0.33487724456E+02  0.65409834736E+01  0.46142317990E+02  0.10000002090E+02 0.  0.
         12    1    1    2    0    0 -0.29409204574E+02  0.33487724456E+02 -0.65409834736E+01  0.45045682010E+02  0.00000000000E+00 0. -1.
         11    1    3    3    0    0  0.37305528498E+01 -0.21308389041E+01  0.15644859993E+00  0.42990668087E+01  0.51100000000E-03 0. -1.
        -11    1    3    3    0    0  0.17571746094E+02 -0.20281402357E+02  0.80523945640E+01  0.28016827102E+02  0.51100000000E-03 0.  1.
        -12    1    3    3    0    0  0.81069056300E+01 -0.11075483195E+02 -0.16678596904E+01  0.13826424080E+02  0.00000000000E+00 0.  1.
</event>
<event>
 7    1  0.1381440E-008  0.4614232E+02  0.7816164E-02  0.1320468E+00
        -11   -1    0    0    0    0  0.00000000000E+00  0.00000000000E+00  0.45593999997E+02  0.45594000000E+02  0.51100000000E-03 0. -1.
         11   -1    0    0    0    0 -0.00000000000E+00 -0.00000000000E+00 -0.45593999997E+02  0.45594000000E+02  0.51100000000E-03 0.  1.
    9900012    2    1    2    0    0 -0.35926213458E+02 -0.11400760287E+02 -0.24666642260E+02  0.46142318865E+02  0.10000010068E+02 0.  0.
         12    1    1    2    0    0  0.35926213458E+02  0.11400760287E+02  0.24666642260E+02  0.45045681135E+02  0.00000000000E+00 0. -1.
         11    1    3    3    0    0  0.37574564270E+00 -0.71575245151E+00 -0.29554694380E+00  0.86071750125E+00  0.51100000000E-03 0. -1.
        -11    1    3    3    0    0 -0.25619705680E+02 -0.61506659615E+01 -0.19061417644E+02  0.32519804024E+02  0.51100000000E-03 0.  1.
         12    1    3    3    0    0 -0.10682253420E+02 -0.45343418741E+01 -0.53096776716E+01  0.12761797340E+02  0.00000000000E+00 0. -1.
</event>
<event>
 7    1  0.1381440E-008  0.4614232E+02  0.7816164E-02  0.1320468E+00
        -11   -1    0    0    0    0  0.00000000000E+00  0.00000000000E+00  0.45593999997E+02  0.45594000000E+02  0.51100000000E-03 0. -1.
         11   -1    0    0    0    0 -0.00000000000E+00 -0.00000000000E+00 -0.45593999997E+02  0.45594000000E+02  0.51100000000E-03 0.  1.
    9900012    2    1    2    0    0 -0.42501870694E+02  0.14147337444E+02 -0.47494624836E+01  0.46142316931E+02  0.99999924290E+01 0.  0.
         12    1    1    2    0    0  0.42501870694E+02 -0.14147337444E+02  0.47494624836E+01  0.45045683069E+02  0.00000000000E+00 0. -1.
         11    1    3    3    0    0 -0.30163936343E+01  0.19022817617E+01  0.17304190357E+01  0.39637932285E+01  0.51100000000E-03 0. -1.
        -11    1    3    3    0    0 -0.33718031599E+02  0.89071751088E+01 -0.41569781427E+01  0.35121558776E+02  0.51100000000E-03 0.  1.
        -12    1    3    3    0    0 -0.57674454610E+01  0.33378805740E+01 -0.23229033766E+01  0.70569649261E+01  0.00000000000E+00 0.  1.
</event>
<event>
 7    1  0.1381440E-008  0.4614231E+02  0.7816164E-02  0.1320468E+00
        -11   -1    0    0    0    0  0.00000000000E+00  0.00000000000E+00  0.45593999997E+02  0.45594000000E+02  0.51100000000E-03 0. -1.
         11   -1    0    0    0    0 -0.00000000000E+00 -0.00000000000E+00 -0.45593999997E+02  0.45594000000E+02  0.51100000000E-03 0.  1.
    9900012    2    1    2    0    0 -0.14495398936E+02  0.26864385418E+02 -0.33125552989E+02  0.46142311471E+02  0.99999426410E+01 0.  0.
         12    1    1    2    0    0  0.14495398936E+02 -0.26864385418E+02  0.33125552989E+02  0.45045688529E+02  0.00000000000E+00 0. -1.
         11    1    3    3    0    0  0.30336524743E+00  0.11653677717E+01 -0.22056998944E+01  0.25130111027E+01  0.51100000000E-03 0. -1.
        -11    1    3    3    0    0 -0.62468939698E+01  0.69493947367E+01 -0.14634834562E+02  0.17363644618E+02  0.51100000000E-03 0.  1.
        -12    1    3    3    0    0 -0.85518702135E+01  0.18749622910E+02 -0.16285018532E+02  0.26265655751E+02  0.00000000000E+00 0.  1.
</event>
<event>
 7    1  0.1381440E-008  0.4614232E+02  0.7816164E-02  0.1320468E+00
        -11   -1    0    0    0    0  0.00000000000E+00  0.00000000000E+00  0.45593999997E+02  0.45594000000E+02  0.51100000000E-03 0.  1.
         11   -1    0    0    0    0 -0.00000000000E+00 -0.00000000000E+00 -0.45593999997E+02  0.45594000000E+02  0.51100000000E-03 0. -1.
    9900012    2    1    2    0    0  0.41884061567E+02 -0.15326575754E+02  0.63194000316E+01  0.46142319248E+02  0.10000013558E+02 0.  0.
         12    1    1    2    0    0 -0.41884061567E+02  0.15326575754E+02 -0.63194000316E+01  0.45045680752E+02  0.00000000000E+00 0. -1.
         11    1    3    3    0    0  0.48748521576E+01 -0.39615253142E+01 -0.14355821736E+01  0.64435054754E+01  0.51100000000E-03 0. -1.
        -11    1    3    3    0    0  0.30258574140E+02 -0.94578160539E+01  0.79402561879E+01  0.32681481945E+02  0.51100000000E-03 0.  1.
        -12    1    3    3    0    0  0.67506352687E+01 -0.19072343859E+01 -0.18527398268E+00  0.70173318278E+01  0.00000000000E+00 0.  1.
</event>
<event>
 7    1  0.1381440E-008  0.4614232E+02  0.7816164E-02  0.1320468E+00
        -11   -1    0    0    0    0  0.00000000000E+00  0.00000000000E+00  0.45593999997E+02  0.45594000000E+02  0.51100000000E-03 0.  1.
         11   -1    0    0    0    0 -0.00000000000E+00 -0.00000000000E+00 -0.45593999997E+02  0.45594000000E+02  0.51100000000E-03 0. -1.
    9900012    2    1    2    0    0  0.10933524919E+02  0.55196400504E+01  0.43348646031E+02  0.46142317563E+02  0.99999981960E+01 0.  0.
         12    1    1    2    0    0 -0.10933524919E+02 -0.55196400504E+01 -0.43348646031E+02  0.45045682437E+02  0.00000000000E+00 0. -1.
         11    1    3    3    0    0  0.22168011298E+01 -0.64032679409E+00  0.12253837911E+01  0.26126215472E+01  0.51100000000E-03 0. -1.
        -11    1    3    3    0    0  0.41462573999E+01  0.44849456994E+01  0.23505904048E+02  0.24286492413E+02  0.51100000000E-03 0.  1.
        -12    1    3    3    0    0  0.45704663888E+01  0.16750211452E+01  0.18617358192E+02  0.19243203603E+02  0.00000000000E+00 0.  1.
</event>
<event>
 7    1  0.1381440E-008  0.4614232E+02  0.7816164E-02  0.1320468E+00
        -11   -1    0    0    0    0  0.00000000000E+00  0.00000000000E+00  0.45593999997E+02  0.45594000000E+02  0.51100000000E-03 0.  1.
         11   -1    0    0    0    0 -0.00000000000E+00 -0.00000000000E+00 -0.45593999997E+02  0.45594000000E+02  0.51100000000E-03 0. -1.
    9900012    2    1    2    0    0  0.99065407881E+01  0.34958181652E+02  0.26625170199E+02  0.46142315379E+02  0.99999782826E+01 0.  0.
         12    1    1    2    0    0 -0.99065407881E+01 -0.34958181652E+02 -0.26625170199E+02  0.45045684621E+02  0.00000000000E+00 0. -1.
         11    1    3    3    0    0  0.35452622962E+01  0.28173233930E+01  0.21576934894E+01  0.50161576236E+01  0.51100000000E-03 0. -1.
        -11    1    3    3    0    0  0.37701897959E+01  0.23653342475E+02  0.19929612681E+02  0.31159018008E+02  0.51100000000E-03 0.  1.
         12    1    3    3    0    0  0.25910886961E+01  0.84875157843E+01  0.45378640287E+01  0.99671397483E+01  0.00000000000E+00 0. -1.
</event>
<event>
 7    1  0.1381440E-008  0.4614232E+02  0.7816164E-02  0.1320468E+00
        -11   -1    0    0    0    0  0.00000000000E+00  0.00000000000E+00  0.45593999997E+02  0.45594000000E+02  0.51100000000E-03 0.  1.
         11   -1    0    0    0    0 -0.00000000000E+00 -0.00000000000E+00 -0.45593999997E+02  0.45594000000E+02  0.51100000000E-03 0. -1.
    9900012    2    1    2    0    0 -0.14295771319E+02  0.31215158330E+02  0.29160901241E+02  0.46142319315E+02  0.10000014171E+02 0.  0.
         12    1    1    2    0    0  0.14295771319E+02 -0.31215158330E+02 -0.29160901241E+02  0.45045680685E+02  0.00000000000E+00 0. -1.
         11    1    3    3    0    0 -0.14151072616E+01  0.20414802213E+01  0.51734824538E+01  0.57389102639E+01  0.51100000000E-03 0. -1.
        -11    1    3    3    0    0 -0.11752107583E+02  0.19767652443E+02  0.16049079731E+02  0.28043628086E+02  0.51100000000E-03 0.  1.
        -12    1    3    3    0    0 -0.11285564747E+01  0.94060256654E+01  0.79383390570E+01  0.12359780966E+02  0.00000000000E+00 0.  1.
</event>
<event>
 7    1  0.1381440E-008  0.4614232E+02  0.7816164E-02  0.1320468E+00
        -11   -1    0    0    0    0  0.00000000000E+00  0.00000000000E+00  0.45593999997E+02  0.45594000000E+02  0.51100000000E-03 0.  1.
         11   -1    0    0    0    0 -0.00000000000E+00 -0.00000000000E+00 -0.45593999997E+02  0.45594000000E+02  0.51100000000E-03 0. -1.
    9900012    2    1    2    0    0  0.38050382679E+02 -0.21222772410E+02  0.11440095619E+02  0.46142317870E+02  0.10000000996E+02 0.  0.
         12    1    1    2    0    0 -0.38050382679E+02  0.21222772410E+02 -0.11440095619E+02  0.45045682130E+02  0.00000000000E+00 0. -1.
         11    1    3    3    0    0  0.16729928553E+02 -0.13256285374E+02  0.80492285299E+01  0.22812489813E+02  0.51100000000E-03 0. -1.
        -11    1    3    3    0    0  0.99540009176E+01 -0.23950019038E+01  0.51264325239E-01  0.10238202805E+02  0.51100000000E-03 0.  1.
         12    1    3    3    0    0  0.11366453208E+02 -0.55714851319E+01  0.33396027635E+01  0.13091625252E+02  0.00000000000E+00 0. -1.
</event>
<event>
 7    1  0.1381440E-008  0.4614232E+02  0.7816164E-02  0.1320468E+00
        -11   -1    0    0    0    0  0.00000000000E+00  0.00000000000E+00  0.45593999997E+02  0.45594000000E+02  0.51100000000E-03 0. -1.
         11   -1    0    0    0    0 -0.00000000000E+00 -0.00000000000E+00 -0.45593999997E+02  0.45594000000E+02  0.51100000000E-03 0.  1.
    9900012    2    1    2    0    0  0.41615594690E+02 -0.12480354935E+02  0.11895233183E+02  0.46142317041E+02  0.99999934361E+01 0.  0.
         12    1    1    2    0    0 -0.41615594690E+02  0.12480354935E+02 -0.11895233183E+02  0.45045682959E+02  0.00000000000E+00 0. -1.
         11    1    3    3    0    0  0.22775516016E+02 -0.56962260242E+01  0.98752615808E+01  0.25469430937E+02  0.51100000000E-03 0. -1.
        -11    1    3    3    0    0  0.16252328566E+01 -0.34159485853E-01 -0.10410119253E+01  0.19303509521E+01  0.51100000000E-03 0.  1.
         12    1    3    3    0    0  0.17214845818E+02 -0.67499694248E+01  0.30609835273E+01  0.18742535152E+02  0.00000000000E+00 0. -1.
</event>
<event>
 7    1  0.1381440E-008  0.4614232E+02  0.7816164E-02  0.1320468E+00
        -11   -1    0    0    0    0  0.00000000000E+00  0.00000000000E+00  0.45593999997E+02  0.45594000000E+02  0.51100000000E-03 0.  1.
         11   -1    0    0    0    0 -0.00000000000E+00 -0.00000000000E+00 -0.45593999997E+02  0.45594000000E+02  0.51100000000E-03 0. -1.
    9900012    2    1    2    0    0  0.14051182468E+02 -0.30127104780E+02  0.30397948647E+02  0.46142318153E+02  0.10000003573E+02 0.  0.
         12    1    1    2    0    0 -0.14051182468E+02  0.30127104780E+02 -0.30397948647E+02  0.45045681847E+02  0.00000000000E+00 0. -1.
         11    1    3    3    0    0 -0.36408751859E+00 -0.13221400819E+01  0.12730843430E+01  0.18711916318E+01  0.51100000000E-03 0. -1.
        -11    1    3    3    0    0 -0.93541595567E+00 -0.11422264532E+01  0.25838425608E+01  0.29758909457E+01  0.51100000000E-03 0.  1.
        -12    1    3    3    0    0  0.15350685942E+02 -0.27662738245E+02  0.26541021743E+02  0.41295235575E+02  0.00000000000E+00 0.  1.
</event>
<event>
 7    1  0.1381440E-008  0.4614232E+02  0.7816164E-02  0.1320468E+00
        -11   -1    0    0    0    0  0.00000000000E+00  0.00000000000E+00  0.45593999997E+02  0.45594000000E+02  0.51100000000E-03 0.  1.
         11   -1    0    0    0    0 -0.00000000000E+00 -0.00000000000E+00 -0.45593999997E+02  0.45594000000E+02  0.51100000000E-03 0. -1.
    9900012    2    1    2    0    0  0.32537090442E+02 -0.26427891519E+02  0.16492962302E+02  0.46142317520E+02  0.99999978032E+01 0.  0.
         12    1    1    2    0    0 -0.32537090442E+02  0.26427891519E+02 -0.16492962302E+02  0.45045682480E+02  0.00000000000E+00 0. -1.
         11    1    3    3    0    0  0.16132453263E+02 -0.14610690731E+02  0.38297255985E+01  0.22099663579E+02  0.51100000000E-03 0. -1.
        -11    1    3    3    0    0  0.12270730983E+02 -0.95953581345E+01  0.10975403925E+02  0.19055215248E+02  0.51100000000E-03 0.  1.
        -12    1    3    3    0    0  0.41339061973E+01 -0.22218426531E+01  0.16878327783E+01  0.49874386925E+01  0.00000000000E+00 0.  1.
</event>
<event>
 7    1  0.1381440E-008  0.4614232E+02  0.7816164E-02  0.1320468E+00
        -11   -1    0    0    0    0  0.00000000000E+00  0.00000000000E+00  0.45593999997E+02  0.45594000000E+02  0.51100000000E-03 0.  1.
         11   -1    0    0    0    0 -0.00000000000E+00 -0.00000000000E+00 -0.45593999997E+02  0.45594000000E+02  0.51100000000E-03 0. -1.
    9900012    2    1    2    0    0  0.84666853326E+01  0.16964711019E+02  0.40861074034E+02  0.46142317058E+02  0.99999935890E+01 0.  0.
         12    1    1    2    0    0 -0.84666853326E+01 -0.16964711019E+02 -0.40861074034E+02  0.45045682942E+02  0.00000000000E+00 0. -1.
         11    1    3    3    0    0 -0.52423992031E+00  0.38299532551E+01  0.26797707779E+01  0.47036731512E+01  0.51100000000E-03 0. -1.
        -11    1    3    3    0    0  0.68874982184E+01  0.80375145732E+01  0.25602911599E+02  0.27704663052E+02  0.51100000000E-03 0.  1.
         12    1    3    3    0    0  0.21034270344E+01  0.50972431908E+01  0.12578391657E+02  0.13733980855E+02  0.00000000000E+00 0. -1.
</event>
<event>
 7    1  0.1381440E-008  0.4614232E+02  0.7816164E-02  0.1320468E+00
        -11   -1    0    0    0    0  0.00000000000E+00  0.00000000000E+00  0.45593999997E+02  0.45594000000E+02  0.51100000000E-03 0.  1.
         11   -1    0    0    0    0 -0.00000000000E+00 -0.00000000000E+00 -0.45593999997E+02  0.45594000000E+02  0.51100000000E-03 0. -1.
    9900012    2    1    2    0    0  0.11762718688E+02 -0.18193554648E+02  0.39493625764E+02  0.46142318102E+02  0.10000003109E+02 0.  0.
         12    1    1    2    0    0 -0.11762718688E+02  0.18193554648E+02 -0.39493625764E+02  0.45045681898E+02  0.00000000000E+00 0. -1.
         11    1    3    3    0    0  0.22144656339E+01 -0.28895423786E+01  0.15497009529E+01  0.39566256464E+01  0.51100000000E-03 0. -1.
        -11    1    3    3    0    0  0.78581332162E+01 -0.14393785708E+02  0.35248379490E+02  0.38876465652E+02  0.51100000000E-03 0.  1.
        -12    1    3    3    0    0  0.16901198381E+01 -0.91022656102E+00  0.26955453212E+01  0.33092268037E+01  0.00000000000E+00 0.  1.
</event>
<event>
 7    1  0.1381440E-008  0.4614232E+02  0.7816164E-02  0.1320468E+00
        -11   -1    0    0    0    0  0.00000000000E+00  0.00000000000E+00  0.45593999997E+02  0.45594000000E+02  0.51100000000E-03 0.  1.
         11   -1    0    0    0    0 -0.00000000000E+00 -0.00000000000E+00 -0.45593999997E+02  0.45594000000E+02  0.51100000000E-03 0. -1.
    9900012    2    1    2    0    0 -0.21693779077E+02  0.32496488583E+02  0.22415881377E+02  0.46142316980E+02  0.99999928734E+01 0.  0.
         12    1    1    2    0    0  0.21693779077E+02 -0.32496488583E+02 -0.22415881377E+02  0.45045683020E+02  0.00000000000E+00 0. -1.
         11    1    3    3    0    0 -0.14466172490E+02  0.15267114657E+02  0.12414683604E+02  0.24422925822E+02  0.51100000000E-03 0. -1.
        -11    1    3    3    0    0 -0.31656945525E+01  0.91573660290E+01  0.77486566998E+01  0.12406476353E+02  0.51100000000E-03 0.  1.
         12    1    3    3    0    0 -0.40619120348E+01  0.80720078976E+01  0.22525410731E+01  0.93129148049E+01  0.00000000000E+00 0. -1.
</event>
<event>
 7    1  0.1381440E-008  0.4614232E+02  0.7816164E-02  0.1320468E+00
        -11   -1    0    0    0    0  0.00000000000E+00  0.00000000000E+00  0.45593999997E+02  0.45594000000E+02  0.51100000000E-03 0. -1.
         11   -1    0    0    0    0 -0.00000000000E+00 -0.00000000000E+00 -0.45593999997E+02  0.45594000000E+02  0.51100000000E-03 0.  1.
    9900012    2    1    2    0    0  0.30656665974E+02 -0.80559753593E+01 -0.32005989860E+02  0.46142319912E+02  0.10000019615E+02 0.  0.
         12    1    1    2    0    0 -0.30656665974E+02  0.80559753593E+01  0.32005989860E+02  0.45045680088E+02  0.00000000000E+00 0. -1.
         11    1    3    3    0    0  0.38050773661E+01  0.54534988218E-01 -0.85622901200E+01  0.93698666045E+01  0.51100000000E-03 0. -1.
        -11    1    3    3    0    0  0.12712602336E+02 -0.39538772505E+01 -0.85644433003E+01  0.15830132431E+02  0.51100000000E-03 0.  1.
        -12    1    3    3    0    0  0.14138986272E+02 -0.41566330971E+01 -0.14879256440E+02  0.20942320877E+02  0.00000000000E+00 0.  1.
</event>
<event>
 7    1  0.1381440E-008  0.4614232E+02  0.7816164E-02  0.1320468E+00
        -11   -1    0    0    0    0  0.00000000000E+00  0.00000000000E+00  0.45593999997E+02  0.45594000000E+02  0.51100000000E-03 0.  1.
         11   -1    0    0    0    0 -0.00000000000E+00 -0.00000000000E+00 -0.45593999997E+02  0.45594000000E+02  0.51100000000E-03 0. -1.
    9900012    2    1    2    0    0  0.23433250968E+02 -0.38469804874E+02 -0.26507817774E+00  0.46142318692E+02  0.10000008493E+02 0.  0.
         12    1    1    2    0    0 -0.23433250968E+02  0.38469804874E+02  0.26507817774E+00  0.45045681308E+02  0.00000000000E+00 0. -1.
         11    1    3    3    0    0  0.11500178851E+02 -0.23154101075E+02  0.24126043798E+01  0.25965114487E+02  0.51100000000E-03 0. -1.
        -11    1    3    3    0    0  0.91432580111E+01 -0.79489229145E+01 -0.18625693300E+01  0.12257801896E+02  0.51100000000E-03 0.  1.
         12    1    3    3    0    0  0.27898141064E+01 -0.73667808849E+01 -0.81511322756E+00  0.79194023088E+01  0.00000000000E+00 0. -1.
</event>
<event>
 7    1  0.1381440E-008  0.4614232E+02  0.7816164E-02  0.1320468E+00
        -11   -1    0    0    0    0  0.00000000000E+00  0.00000000000E+00  0.45593999997E+02  0.45594000000E+02  0.51100000000E-03 0.  1.
         11   -1    0    0    0    0 -0.00000000000E+00 -0.00000000000E+00 -0.45593999997E+02  0.45594000000E+02  0.51100000000E-03 0. -1.
    9900012    2    1    2    0    0 -0.15087588689E+01  0.11521354211E+02  0.43521208451E+02  0.46142317174E+02  0.99999946476E+01 0.  0.
         12    1    1    2    0    0  0.15087588689E+01 -0.11521354211E+02 -0.43521208451E+02  0.45045682826E+02  0.00000000000E+00 0. -1.
         11    1    3    3    0    0  0.28582927837E+01  0.16496556030E+01  0.92546560180E+01  0.98254699388E+01  0.51100000000E-03 0. -1.
        -11    1    3    3    0    0 -0.32085413433E+01  0.82876293228E+01  0.19613679223E+02  0.21533136099E+02  0.51100000000E-03 0.  1.
         12    1    3    3    0    0 -0.11585103093E+01  0.15840692852E+01  0.14652873210E+02  0.14783711136E+02  0.00000000000E+00 0. -1.
</event>
<event>
 7    1  0.1381440E-008  0.4614232E+02  0.7816164E-02  0.1320468E+00
        -11   -1    0    0    0    0  0.00000000000E+00  0.00000000000E+00  0.45593999997E+02  0.45594000000E+02  0.51100000000E-03 0.  1.
         11   -1    0    0    0    0 -0.00000000000E+00 -0.00000000000E+00 -0.45593999997E+02  0.45594000000E+02  0.51100000000E-03 0. -1.
    9900012    2    1    2    0    0  0.30872824052E+02 -0.16321485738E+02  0.28453316494E+02  0.46142318951E+02  0.10000010853E+02 0.  0.
         12    1    1    2    0    0 -0.30872824052E+02  0.16321485738E+02 -0.28453316494E+02  0.45045681049E+02  0.00000000000E+00 0. -1.
         11    1    3    3    0    0  0.34427823207E+01 -0.50973303833E+01  0.65929616994E+01  0.90167993975E+01  0.51100000000E-03 0. -1.
        -11    1    3    3    0    0  0.13848122659E+02 -0.32372949358E+01  0.11192793729E+02  0.18097768134E+02  0.51100000000E-03 0.  1.
        -12    1    3    3    0    0  0.13581919072E+02 -0.79868604187E+01  0.10667561065E+02  0.19027751420E+02  0.00000000000E+00 0.  1.
</event>
<event>
 7    1  0.1381440E-008  0.4614232E+02  0.7816164E-02  0.1320468E+00
        -11   -1    0    0    0    0  0.00000000000E+00  0.00000000000E+00  0.45593999997E+02  0.45594000000E+02  0.51100000000E-03 0.  1.
         11   -1    0    0    0    0 -0.00000000000E+00 -0.00000000000E+00 -0.45593999997E+02  0.45594000000E+02  0.51100000000E-03 0. -1.
    9900012    2    1    2    0    0  0.13459017134E+02  0.25769643651E+02  0.34407758662E+02  0.46142317274E+02  0.99999955582E+01 0.  0.
         12    1    1    2    0    0 -0.13459017134E+02 -0.25769643651E+02 -0.34407758662E+02  0.45045682726E+02  0.00000000000E+00 0. -1.
         11    1    3    3    0    0 -0.99006143538E+00  0.32188277580E+01  0.15687544976E+01  0.37151130153E+01  0.51100000000E-03 0. -1.
        -11    1    3    3    0    0  0.13097307538E+02  0.20686529885E+02  0.29032950086E+02  0.37978733185E+02  0.51100000000E-03 0.  1.
         12    1    3    3    0    0  0.13517710320E+01  0.18642860081E+01  0.38060540783E+01  0.44484710733E+01  0.00000000000E+00 0. -1.
</event>
<event>
 7    1  0.1381440E-008  0.4614232E+02  0.7816164E-02  0.1320468E+00
        -11   -1    0    0    0    0  0.00000000000E+00  0.00000000000E+00  0.45593999997E+02  0.45594000000E+02  0.51100000000E-03 0.  1.
         11   -1    0    0    0    0 -0.00000000000E+00 -0.00000000000E+00 -0.45593999997E+02  0.45594000000E+02  0.51100000000E-03 0. -1.
    9900012    2    1    2    0    0  0.13684360325E+02  0.40145117489E+02  0.15173045945E+02  0.46142317643E+02  0.99999989269E+01 0.  0.
         12    1    1    2    0    0 -0.13684360325E+02 -0.40145117489E+02 -0.15173045945E+02  0.45045682357E+02  0.00000000000E+00 0. -1.
         11    1    3    3    0    0 -0.70063811115E-01 -0.18245986627E+00 -0.91848732367E-01  0.21595599363E+00  0.51100000000E-03 0. -1.
        -11    1    3    3    0    0  0.37917346009E+01  0.22190739160E+02  0.95857464008E+01  0.24468197524E+02  0.51100000000E-03 0.  1.
         12    1    3    3    0    0  0.99626895355E+01  0.18136838195E+02  0.56791482764E+01  0.21458164126E+02  0.00000000000E+00 0. -1.
</event>
<event>
 7    1  0.1381440E-008  0.4614232E+02  0.7816164E-02  0.1320468E+00
        -11   -1    0    0    0    0  0.00000000000E+00  0.00000000000E+00  0.45593999997E+02  0.45594000000E+02  0.51100000000E-03 0.  1.
         11   -1    0    0    0    0 -0.00000000000E+00 -0.00000000000E+00 -0.45593999997E+02  0.45594000000E+02  0.51100000000E-03 0. -1.
    9900012    2    1    2    0    0 -0.24559732177E+02  0.33772946114E+02  0.16891453591E+02  0.46142317208E+02  0.99999949543E+01 0.  0.
         12    1    1    2    0    0  0.24559732177E+02 -0.33772946114E+02 -0.16891453591E+02  0.45045682792E+02  0.00000000000E+00 0. -1.
         11    1    3    3    0    0 -0.11485003052E+02  0.10081486294E+02  0.27572197843E+01  0.15528809426E+02  0.51100000000E-03 0. -1.
        -11    1    3    3    0    0 -0.11990078237E+02  0.20642028522E+02  0.13013641781E+02  0.27188420151E+02  0.51100000000E-03 0.  1.
         12    1    3    3    0    0 -0.10846508874E+01  0.30494312982E+01  0.11205920260E+01  0.34250876308E+01  0.00000000000E+00 0. -1.
</event>
<event>
 7    1  0.1381440E-008  0.4614232E+02  0.7816164E-02  0.1320468E+00
        -11   -1    0    0    0    0  0.00000000000E+00  0.00000000000E+00  0.45593999997E+02  0.45594000000E+02  0.51100000000E-03 0.  1.
         11   -1    0    0    0    0 -0.00000000000E+00 -0.00000000000E+00 -0.45593999997E+02  0.45594000000E+02  0.51100000000E-03 0. -1.
    9900012    2    1    2    0    0 -0.18746386353E+02 -0.14742848365E+02  0.38214330907E+02  0.46142315791E+02  0.99999820363E+01 0.  0.
         12    1    1    2    0    0  0.18746386353E+02  0.14742848365E+02 -0.38214330907E+02  0.45045684209E+02  0.00000000000E+00 0. -1.
         11    1    3    3    0    0 -0.11170409450E+02 -0.70969481712E+01  0.15099412336E+02  0.20078271186E+02  0.51100000000E-03 0. -1.
        -11    1    3    3    0    0  0.49046004364E+00  0.14019962602E+00  0.18955017167E+00  0.54418426865E+00  0.51100000000E-03 0.  1.
        -12    1    3    3    0    0 -0.80664369461E+01 -0.77860998195E+01  0.22925368399E+02  0.25519860337E+02  0.00000000000E+00 0.  1.
</event>
<event>
 7    1  0.1381440E-008  0.4614232E+02  0.7816164E-02  0.1320468E+00
        -11   -1    0    0    0    0  0.00000000000E+00  0.00000000000E+00  0.45593999997E+02  0.45594000000E+02  0.51100000000E-03 0. -1.
         11   -1    0    0    0    0 -0.00000000000E+00 -0.00000000000E+00 -0.45593999997E+02  0.45594000000E+02  0.51100000000E-03 0.  1.
    9900012    2    1    2    0    0  0.35842584790E+02 -0.21344749943E+02 -0.16994831374E+02  0.46142317321E+02  0.99999959865E+01 0.  0.
         12    1    1    2    0    0 -0.35842584790E+02  0.21344749943E+02  0.16994831374E+02  0.45045682679E+02  0.00000000000E+00 0. -1.
         11    1    3    3    0    0  0.19197834452E+02 -0.85884489225E+01 -0.13175157760E+02  0.24817394803E+02  0.51100000000E-03 0.  1.
        -11    1    3    3    0    0  0.14865976355E+02 -0.11604353752E+02 -0.35209561469E+01  0.19184770299E+02  0.51100000000E-03 0. -1.
        -12    1    3    3    0    0  0.17787739842E+01 -0.11519472686E+01 -0.29871746686E+00  0.21401522192E+01  0.00000000000E+00 0.  1.
</event>
<event>
 7    1  0.1381440E-008  0.4614232E+02  0.7816164E-02  0.1320468E+00
        -11   -1    0    0    0    0  0.00000000000E+00  0.00000000000E+00  0.45593999997E+02  0.45594000000E+02  0.51100000000E-03 0.  1.
         11   -1    0    0    0    0 -0.00000000000E+00 -0.00000000000E+00 -0.45593999997E+02  0.45594000000E+02  0.51100000000E-03 0. -1.
    9900012    2    1    2    0    0  0.46926135018E+01 -0.40719542799E+02  0.18681853278E+02  0.46142318419E+02  0.10000006000E+02 0.  0.
         12    1    1    2    0    0 -0.46926135018E+01  0.40719542799E+02 -0.18681853278E+02  0.45045681581E+02  0.00000000000E+00 0. -1.
         11    1    3    3    0    0  0.20890541442E+01 -0.30413069279E+02  0.12904668749E+02  0.33103616207E+02  0.51100000000E-03 0.  1.
        -11    1    3    3    0    0  0.33316035999E+01 -0.71496675503E+01  0.58137447858E+01  0.97988242827E+01  0.51100000000E-03 0. -1.
        -12    1    3    3    0    0 -0.72804424235E+00 -0.31568059689E+01 -0.36560257053E-01  0.32398779293E+01  0.00000000000E+00 0.  1.
</event>
<event>
 7    1  0.1381440E-008  0.4614232E+02  0.7816164E-02  0.1320468E+00
        -11   -1    0    0    0    0  0.00000000000E+00  0.00000000000E+00  0.45593999997E+02  0.45594000000E+02  0.51100000000E-03 0.  1.
         11   -1    0    0    0    0 -0.00000000000E+00 -0.00000000000E+00 -0.45593999997E+02  0.45594000000E+02  0.51100000000E-03 0. -1.
    9900012    2    1    2    0    0  0.34908802586E+02  0.22253483572E+02  0.17755885637E+02  0.46142317589E+02  0.99999984349E+01 0.  0.
         12    1    1    2    0    0 -0.34908802586E+02 -0.22253483572E+02 -0.17755885637E+02  0.45045682411E+02  0.00000000000E+00 0. -1.
         11    1    3    3    0    0  0.14919859429E+02  0.49522367802E+01  0.49834137127E+01  0.16491248194E+02  0.51100000000E-03 0. -1.
        -11    1    3    3    0    0  0.13657898152E+02  0.12160017477E+02  0.10880524749E+02  0.21278863363E+02  0.51100000000E-03 0.  1.
         12    1    3    3    0    0  0.63310450049E+01  0.51412293152E+01  0.18919471756E+01  0.83722060319E+01  0.00000000000E+00 0. -1.
</event>
<event>
 7    1  0.1381440E-008  0.4614232E+02  0.7816164E-02  0.1320468E+00
        -11   -1    0    0    0    0  0.00000000000E+00  0.00000000000E+00  0.45593999997E+02  0.45594000000E+02  0.51100000000E-03 0. -1.
         11   -1    0    0    0    0 -0.00000000000E+00 -0.00000000000E+00 -0.45593999997E+02  0.45594000000E+02  0.51100000000E-03 0.  1.
    9900012    2    1    2    0    0 -0.17229442490E+02 -0.41265961267E+02 -0.54203536530E+01  0.46142317837E+02  0.10000000694E+02 0.  0.
         12    1    1    2    0    0  0.17229442490E+02  0.41265961267E+02  0.54203536530E+01  0.45045682163E+02  0.00000000000E+00 0. -1.
         11    1    3    3    0    0 -0.91093518164E+01 -0.17973726231E+02 -0.84276735569E+00  0.20167929547E+02  0.51100000000E-03 0. -1.
        -11    1    3    3    0    0 -0.22119969862E+01 -0.14793630033E+02 -0.88234660669E+00  0.14984090097E+02  0.51100000000E-03 0.  1.
         12    1    3    3    0    0 -0.59080936875E+01 -0.84986050023E+01 -0.36952396907E+01  0.10990298193E+02  0.00000000000E+00 0. -1.
</event>
<event>
 7    1  0.1381440E-008  0.4614232E+02  0.7816164E-02  0.1320468E+00
        -11   -1    0    0    0    0  0.00000000000E+00  0.00000000000E+00  0.45593999997E+02  0.45594000000E+02  0.51100000000E-03 0.  1.
         11   -1    0    0    0    0 -0.00000000000E+00 -0.00000000000E+00 -0.45593999997E+02  0.45594000000E+02  0.51100000000E-03 0. -1.
    9900012    2    1    2    0    0 -0.18004088571E+02 -0.19619592034E+02  0.36332327014E+02  0.46142316710E+02  0.99999904133E+01 0.  0.
         12    1    1    2    0    0  0.18004088571E+02  0.19619592034E+02 -0.36332327014E+02  0.45045683290E+02  0.00000000000E+00 0. -1.
         11    1    3    3    0    0  0.97678788216E+00 -0.16687486709E+01  0.39379419716E+01  0.43870518490E+01  0.51100000000E-03 0. -1.
        -11    1    3    3    0    0 -0.14570999224E+02 -0.11731096780E+02  0.22368411920E+02  0.29159535355E+02  0.51100000000E-03 0.  1.
        -12    1    3    3    0    0 -0.44098772292E+01 -0.62197465827E+01  0.10025973123E+02  0.12595729506E+02  0.00000000000E+00 0.  1.
</event>
<event>
 7    1  0.1381440E-008  0.4614232E+02  0.7816164E-02  0.1320468E+00
        -11   -1    0    0    0    0  0.00000000000E+00  0.00000000000E+00  0.45593999997E+02  0.45594000000E+02  0.51100000000E-03 0.  1.
         11   -1    0    0    0    0 -0.00000000000E+00 -0.00000000000E+00 -0.45593999997E+02  0.45594000000E+02  0.51100000000E-03 0. -1.
    9900012    2    1    2    0    0  0.39469205502E+02  0.14129759765E+01  0.21663304538E+02  0.46142318214E+02  0.10000004128E+02 0.  0.
         12    1    1    2    0    0 -0.39469205502E+02 -0.14129759765E+01 -0.21663304538E+02  0.45045681786E+02  0.00000000000E+00 0. -1.
         11    1    3    3    0    0  0.13349954618E+02 -0.22370188375E+01  0.92114113748E+01  0.16373015646E+02  0.51100000000E-03 0. -1.
        -11    1    3    3    0    0  0.20833932346E+02  0.65983554149E+00  0.84234375310E+01  0.22482046615E+02  0.51100000000E-03 0.  1.
         12    1    3    3    0    0  0.52853185387E+01  0.29901592726E+01  0.40284556322E+01  0.72872559521E+01  0.00000000000E+00 0. -1.
</event>
<event>
 7    1  0.1381440E-008  0.4614232E+02  0.7816164E-02  0.1320468E+00
        -11   -1    0    0    0    0  0.00000000000E+00  0.00000000000E+00  0.45593999997E+02  0.45594000000E+02  0.51100000000E-03 0. -1.
         11   -1    0    0    0    0 -0.00000000000E+00 -0.00000000000E+00 -0.45593999997E+02  0.45594000000E+02  0.51100000000E-03 0.  1.
    9900012    2    1    2    0    0  0.44738393921E+02 -0.47529727367E+01 -0.22358056340E+01  0.46142317995E+02  0.10000002130E+02 0.  0.
         12    1    1    2    0    0 -0.44738393921E+02  0.47529727367E+01  0.22358056340E+01  0.45045682005E+02  0.00000000000E+00 0. -1.
         11    1    3    3    0    0  0.25328389867E+02 -0.40744987959E+01 -0.59351867986E+01  0.26331640972E+02  0.51100000000E-03 0. -1.
        -11    1    3    3    0    0  0.85969155532E+01 -0.29097926649E+00  0.22725780597E+01  0.88969791087E+01  0.51100000000E-03 0.  1.
        -12    1    3    3    0    0  0.10813088501E+02 -0.38749467432E+00  0.14268031049E+01  0.10913697914E+02  0.00000000000E+00 0.  1.
</event>
<event>
 7    1  0.1381440E-008  0.4614232E+02  0.7816164E-02  0.1320468E+00
        -11   -1    0    0    0    0  0.00000000000E+00  0.00000000000E+00  0.45593999997E+02  0.45594000000E+02  0.51100000000E-03 0. -1.
         11   -1    0    0    0    0 -0.00000000000E+00 -0.00000000000E+00 -0.45593999997E+02  0.45594000000E+02  0.51100000000E-03 0.  1.
    9900012    2    1    2    0    0  0.21977043636E+02 -0.33780570406E+01 -0.39175399571E+02  0.46142315991E+02  0.99999838585E+01 0.  0.
         12    1    1    2    0    0 -0.21977043636E+02  0.33780570406E+01  0.39175399571E+02  0.45045684009E+02  0.00000000000E+00 0. -1.
         11    1    3    3    0    0  0.29102218145E+01 -0.26555964258E+01 -0.12866569768E+02  0.13456232803E+02  0.51100000000E-03 0. -1.
        -11    1    3    3    0    0  0.16826155001E+02 -0.14458487602E+01 -0.24293084747E+02  0.29586549943E+02  0.51100000000E-03 0.  1.
         12    1    3    3    0    0  0.22406668201E+01  0.72338814543E+00 -0.20157450553E+01  0.30995332448E+01  0.00000000000E+00 0. -1.
</event>
<event>
 7    1  0.1381440E-008  0.4614232E+02  0.7816164E-02  0.1320468E+00
        -11   -1    0    0    0    0  0.00000000000E+00  0.00000000000E+00  0.45593999997E+02  0.45594000000E+02  0.51100000000E-03 0.  1.
         11   -1    0    0    0    0 -0.00000000000E+00 -0.00000000000E+00 -0.45593999997E+02  0.45594000000E+02  0.51100000000E-03 0. -1.
    9900012    2    1    2    0    0  0.20475074701E+02 -0.26170590835E+02  0.30413564895E+02  0.46142318317E+02  0.10000005072E+02 0.  0.
         12    1    1    2    0    0 -0.20475074701E+02  0.26170590835E+02 -0.30413564895E+02  0.45045681683E+02  0.00000000000E+00 0. -1.
         11    1    3    3    0    0  0.46311880524E+01 -0.16455130413E+01  0.57061789841E+01  0.75310088837E+01  0.51100000000E-03 0. -1.
        -11    1    3    3    0    0  0.66519461490E+01 -0.14004706593E+02  0.10772082558E+02  0.18879034860E+02  0.51100000000E-03 0.  1.
        -12    1    3    3    0    0  0.91919404993E+01 -0.10520371200E+02  0.13935303352E+02  0.19732274574E+02  0.00000000000E+00 0.  1.
</event>
<event>
 7    1  0.1381440E-008  0.4614232E+02  0.7816164E-02  0.1320468E+00
        -11   -1    0    0    0    0  0.00000000000E+00  0.00000000000E+00  0.45593999997E+02  0.45594000000E+02  0.51100000000E-03 0.  1.
         11   -1    0    0    0    0 -0.00000000000E+00 -0.00000000000E+00 -0.45593999997E+02  0.45594000000E+02  0.51100000000E-03 0. -1.
    9900012    2    1    2    0    0 -0.50256966690E+01 -0.29898094632E+02  0.33316058502E+02  0.46142318256E+02  0.10000004516E+02 0.  0.
         12    1    1    2    0    0  0.50256966690E+01  0.29898094632E+02 -0.33316058502E+02  0.45045681744E+02  0.00000000000E+00 0. -1.
         11    1    3    3    0    0  0.10084513162E+00 -0.19295064978E+02  0.18000357660E+02  0.26387924860E+02  0.51100000000E-03 0.  1.
        -11    1    3    3    0    0 -0.26780829400E+01 -0.41952347283E+01  0.96482428574E+01  0.10856367402E+02  0.51100000000E-03 0. -1.
        -12    1    3    3    0    0 -0.24484588607E+01 -0.64077949258E+01  0.56674579841E+01  0.88980259949E+01  0.00000000000E+00 0.  1.
</event>
<event>
 7    1  0.1381440E-008  0.4614232E+02  0.7816164E-02  0.1320468E+00
        -11   -1    0    0    0    0  0.00000000000E+00  0.00000000000E+00  0.45593999997E+02  0.45594000000E+02  0.51100000000E-03 0.  1.
         11   -1    0    0    0    0 -0.00000000000E+00 -0.00000000000E+00 -0.45593999997E+02  0.45594000000E+02  0.51100000000E-03 0. -1.
    9900012    2    1    2    0    0 -0.36941160343E+01 -0.30882639396E+02  0.32584193239E+02  0.46142316984E+02  0.99999929159E+01 0.  0.
         12    1    1    2    0    0  0.36941160343E+01  0.30882639396E+02 -0.32584193239E+02  0.45045683016E+02  0.00000000000E+00 0. -1.
         11    1    3    3    0    0 -0.12454019789E+01 -0.15582439165E+02  0.18387417281E+02  0.24134219502E+02  0.51100000000E-03 0. -1.
        -11    1    3    3    0    0  0.12082299787E+00 -0.97197663176E+01  0.12090440768E+02  0.15513452669E+02  0.51100000000E-03 0.  1.
        -12    1    3    3    0    0 -0.25695370532E+01 -0.55804339131E+01  0.21063351887E+01  0.64946448135E+01  0.00000000000E+00 0.  1.
</event>
<event>
 7    1  0.1381440E-008  0.4614232E+02  0.7816164E-02  0.1320468E+00
        -11   -1    0    0    0    0  0.00000000000E+00  0.00000000000E+00  0.45593999997E+02  0.45594000000E+02  0.51100000000E-03 0. -1.
         11   -1    0    0    0    0 -0.00000000000E+00 -0.00000000000E+00 -0.45593999997E+02  0.45594000000E+02  0.51100000000E-03 0.  1.
    9900012    2    1    2    0    0 -0.79362459721E+01  0.42285414610E+02 -0.13344410499E+02  0.46142316739E+02  0.99999906777E+01 0.  0.
         12    1    1    2    0    0  0.79362459721E+01 -0.42285414610E+02  0.13344410499E+02  0.45045683261E+02  0.00000000000E+00 0. -1.
         11    1    3    3    0    0  0.38268348713E+00  0.12756347394E+01 -0.24102556141E+01  0.27537289311E+01  0.51100000000E-03 0. -1.
        -11    1    3    3    0    0 -0.51983152360E+01  0.23293064916E+02 -0.79365230147E+01  0.25151098432E+02  0.51100000000E-03 0.  1.
        -12    1    3    3    0    0 -0.31206142232E+01  0.17716714955E+02 -0.29976318702E+01  0.18237489376E+02  0.00000000000E+00 0.  1.
</event>
<event>
 7    1  0.1381440E-008  0.4614232E+02  0.7816164E-02  0.1320468E+00
        -11   -1    0    0    0    0  0.00000000000E+00  0.00000000000E+00  0.45593999997E+02  0.45594000000E+02  0.51100000000E-03 0.  1.
         11   -1    0    0    0    0 -0.00000000000E+00 -0.00000000000E+00 -0.45593999997E+02  0.45594000000E+02  0.51100000000E-03 0. -1.
    9900012    2    1    2    0    0  0.39694589257E+02  0.51886464802E+01 -0.20652627411E+02  0.46142317770E+02  0.10000000084E+02 0.  0.
         12    1    1    2    0    0 -0.39694589257E+02 -0.51886464802E+01  0.20652627411E+02  0.45045682230E+02  0.00000000000E+00 0. -1.
         11    1    3    3    0    0  0.18891481082E+02  0.27810563218E+01 -0.12246703035E+02  0.22684886317E+02  0.51100000000E-03 0. -1.
        -11    1    3    3    0    0  0.21123499262E+02  0.18836989669E+01 -0.78042784709E+01  0.22597727885E+02  0.51100000000E-03 0.  1.
        -12    1    3    3    0    0 -0.32039108726E+00  0.52389119151E+00 -0.60164590538E+00  0.85970356798E+00  0.00000000000E+00 0.  1.
</event>
<event>
 7    1  0.1381440E-008  0.4614232E+02  0.7816164E-02  0.1320468E+00
        -11   -1    0    0    0    0  0.00000000000E+00  0.00000000000E+00  0.45593999997E+02  0.45594000000E+02  0.51100000000E-03 0.  1.
         11   -1    0    0    0    0 -0.00000000000E+00 -0.00000000000E+00 -0.45593999997E+02  0.45594000000E+02  0.51100000000E-03 0. -1.
    9900012    2    1    2    0    0 -0.10435137666E+02 -0.27695150478E+02  0.33958798813E+02  0.46142317910E+02  0.10000001359E+02 0.  0.
         12    1    1    2    0    0  0.10435137666E+02  0.27695150478E+02 -0.33958798813E+02  0.45045682090E+02  0.00000000000E+00 0. -1.
         11    1    3    3    0    0  0.35356946861E+00 -0.11000899022E+02  0.11898396886E+02  0.16208536003E+02  0.51100000000E-03 0. -1.
        -11    1    3    3    0    0 -0.41586583069E+01 -0.58264587562E+01  0.54022025126E+01  0.89680462086E+01  0.51100000000E-03 0.  1.
        -12    1    3    3    0    0 -0.66300488275E+01 -0.10867792700E+02  0.16658199415E+02  0.20965735698E+02  0.00000000000E+00 0.  1.
</event>
<event>
 7    1  0.1381440E-008  0.4614232E+02  0.7816164E-02  0.1320468E+00
        -11   -1    0    0    0    0  0.00000000000E+00  0.00000000000E+00  0.45593999997E+02  0.45594000000E+02  0.51100000000E-03 0.  1.
         11   -1    0    0    0    0 -0.00000000000E+00 -0.00000000000E+00 -0.45593999997E+02  0.45594000000E+02  0.51100000000E-03 0. -1.
    9900012    2    1    2    0    0 -0.52223296426E+01  0.23868316024E+01  0.44678224347E+02  0.46142318489E+02  0.10000006638E+02 0.  0.
         12    1    1    2    0    0  0.52223296426E+01 -0.23868316024E+01 -0.44678224347E+02  0.45045681511E+02  0.00000000000E+00 0. -1.
         11    1    3    3    0    0  0.24088486609E+01  0.26172898700E+00  0.43933089107E+01  0.50171921809E+01  0.51100000000E-03 0. -1.
        -11    1    3    3    0    0 -0.40083595496E+01  0.22787179164E+01  0.24370759503E+02  0.24803092965E+02  0.51100000000E-03 0.  1.
         12    1    3    3    0    0 -0.36228187539E+01 -0.15361530097E+00  0.15914155933E+02  0.16322033343E+02  0.00000000000E+00 0. -1.
</event>
<event>
 7    1  0.1381440E-008  0.4614232E+02  0.7816164E-02  0.1320468E+00
        -11   -1    0    0    0    0  0.00000000000E+00  0.00000000000E+00  0.45593999997E+02  0.45594000000E+02  0.51100000000E-03 0.  1.
         11   -1    0    0    0    0 -0.00000000000E+00 -0.00000000000E+00 -0.45593999997E+02  0.45594000000E+02  0.51100000000E-03 0. -1.
    9900012    2    1    2    0    0  0.37565894149E+02 -0.24849439278E+02 -0.64999013839E+00  0.46142317379E+02  0.99999965178E+01 0.  0.
         12    1    1    2    0    0 -0.37565894149E+02  0.24849439278E+02  0.64999013839E+00  0.45045682621E+02  0.00000000000E+00 0. -1.
         11    1    3    3    0    0  0.15358882954E+01 -0.99863328857E+00 -0.15689344397E+01  0.24120068072E+01  0.51100000000E-03 0. -1.
        -11    1    3    3    0    0  0.18488864123E+02 -0.11330292370E+02  0.37087215580E+01  0.21999278116E+02  0.51100000000E-03 0.  1.
         12    1    3    3    0    0  0.17541141730E+02 -0.12520513619E+02 -0.27897772567E+01  0.21731032456E+02  0.00000000000E+00 0. -1.
</event>
<event>
 7    1  0.1381440E-008  0.4614232E+02  0.7816164E-02  0.1320468E+00
        -11   -1    0    0    0    0  0.00000000000E+00  0.00000000000E+00  0.45593999997E+02  0.45594000000E+02  0.51100000000E-03 0. -1.
         11   -1    0    0    0    0 -0.00000000000E+00 -0.00000000000E+00 -0.45593999997E+02  0.45594000000E+02  0.51100000000E-03 0.  1.
    9900012    2    1    2    0    0  0.36318216700E+02 -0.12641660295E+02 -0.23458242621E+02  0.46142316676E+02  0.99999901021E+01 0.  0.
         12    1    1    2    0    0 -0.36318216700E+02  0.12641660295E+02  0.23458242621E+02  0.45045683324E+02  0.00000000000E+00 0. -1.
         11    1    3    3    0    0  0.12750061887E+02 -0.29666806265E+01 -0.37167789572E+01  0.13608075475E+02  0.51100000000E-03 0. -1.
        -11    1    3    3    0    0  0.20491043587E+02 -0.99046323469E+01 -0.17738563453E+02  0.28855523610E+02  0.51100000000E-03 0.  1.
         12    1    3    3    0    0  0.30771112260E+01  0.22965267842E+00 -0.20029002113E+01  0.36787175899E+01  0.00000000000E+00 0. -1.
</event>
<event>
 7    1  0.1381440E-008  0.4614232E+02  0.7816164E-02  0.1320468E+00
        -11   -1    0    0    0    0  0.00000000000E+00  0.00000000000E+00  0.45593999997E+02  0.45594000000E+02  0.51100000000E-03 0.  1.
         11   -1    0    0    0    0 -0.00000000000E+00 -0.00000000000E+00 -0.45593999997E+02  0.45594000000E+02  0.51100000000E-03 0. -1.
    9900012    2    1    2    0    0  0.14640139078E+02 -0.54726855055E+01  0.42247243212E+02  0.46142317433E+02  0.99999970086E+01 0.  0.
         12    1    1    2    0    0 -0.14640139078E+02  0.54726855055E+01 -0.42247243212E+02  0.45045682567E+02  0.00000000000E+00 0. -1.
         11    1    3    3    0    0  0.26701447757E+01 -0.50585343848E+01  0.91739766278E+01  0.10811118845E+02  0.51100000000E-03 0. -1.
        -11    1    3    3    0    0  0.10463088875E+02  0.11415405866E+00  0.24998904811E+02  0.27100452062E+02  0.51100000000E-03 0.  1.
         12    1    3    3    0    0  0.15069054274E+01 -0.52830517942E+00  0.80743617734E+01  0.82307465262E+01  0.00000000000E+00 0. -1.
</event>
<event>
 7    1  0.1381440E-008  0.4614232E+02  0.7816164E-02  0.1320468E+00
        -11   -1    0    0    0    0  0.00000000000E+00  0.00000000000E+00  0.45593999997E+02  0.45594000000E+02  0.51100000000E-03 0.  1.
         11   -1    0    0    0    0 -0.00000000000E+00 -0.00000000000E+00 -0.45593999997E+02  0.45594000000E+02  0.51100000000E-03 0. -1.
    9900012    2    1    2    0    0  0.12857632326E+02  0.25536032279E+01  0.43096100120E+02  0.46142318254E+02  0.10000004491E+02 0.  0.
         12    1    1    2    0    0 -0.12857632326E+02 -0.25536032279E+01 -0.43096100120E+02  0.45045681746E+02  0.00000000000E+00 0. -1.
         11    1    3    3    0    0  0.17446019088E+01 -0.64803006163E+00  0.12669487969E+02  0.12805448232E+02  0.51100000000E-03 0. -1.
        -11    1    3    3    0    0  0.76277569998E+01  0.53948986900E+00  0.26017618699E+02  0.27118079010E+02  0.51100000000E-03 0.  1.
         12    1    3    3    0    0  0.34852734170E+01  0.26621434205E+01  0.44089934525E+01  0.62187910116E+01  0.00000000000E+00 0. -1.
</event>
<event>
 7    1  0.1381440E-008  0.4614232E+02  0.7816164E-02  0.1320468E+00
        -11   -1    0    0    0    0  0.00000000000E+00  0.00000000000E+00  0.45593999997E+02  0.45594000000E+02  0.51100000000E-03 0. -1.
         11   -1    0    0    0    0 -0.00000000000E+00 -0.00000000000E+00 -0.45593999997E+02  0.45594000000E+02  0.51100000000E-03 0.  1.
    9900012    2    1    2    0    0  0.20048693352E+02  0.68191081009E+01 -0.39757554359E+02  0.46142317976E+02  0.10000001956E+02 0.  0.
         12    1    1    2    0    0 -0.20048693352E+02 -0.68191081009E+01  0.39757554359E+02  0.45045682024E+02  0.00000000000E+00 0. -1.
         11    1    3    3    0    0  0.71219699020E+01  0.46227456111E+01 -0.76714370944E+01  0.11443040663E+02  0.51100000000E-03 0. -1.
        -11    1    3    3    0    0  0.99919766149E+01  0.15874312701E+01 -0.22867301033E+02  0.25005459234E+02  0.51100000000E-03 0.  1.
         12    1    3    3    0    0  0.29347468349E+01  0.60893121968E+00 -0.92188162318E+01  0.96938180781E+01  0.00000000000E+00 0. -1.
</event>
<event>
 7    1  0.1381440E-008  0.4614232E+02  0.7816164E-02  0.1320468E+00
        -11   -1    0    0    0    0  0.00000000000E+00  0.00000000000E+00  0.45593999997E+02  0.45594000000E+02  0.51100000000E-03 0.  1.
         11   -1    0    0    0    0 -0.00000000000E+00 -0.00000000000E+00 -0.45593999997E+02  0.45594000000E+02  0.51100000000E-03 0. -1.
    9900012    2    1    2    0    0  0.17080240593E+02 -0.66641099256E+01  0.41145698920E+02  0.46142317416E+02  0.99999968559E+01 0.  0.
         12    1    1    2    0    0 -0.17080240593E+02  0.66641099256E+01 -0.41145698920E+02  0.45045682584E+02  0.00000000000E+00 0. -1.
         11    1    3    3    0    0 -0.29606194563E+00  0.32213168731E-01  0.15920935350E+01  0.16197075196E+01  0.51100000000E-03 0. -1.
        -11    1    3    3    0    0  0.94954432072E+01 -0.74729343698E+01  0.28203223184E+02  0.30682731105E+02  0.51100000000E-03 0.  1.
        -12    1    3    3    0    0  0.78808593315E+01  0.77661127548E+00  0.11350382201E+02  0.13839878792E+02  0.00000000000E+00 0.  1.
</event>
<event>
 7    1  0.1381440E-008  0.4614232E+02  0.7816164E-02  0.1320468E+00
        -11   -1    0    0    0    0  0.00000000000E+00  0.00000000000E+00  0.45593999997E+02  0.45594000000E+02  0.51100000000E-03 0. -1.
         11   -1    0    0    0    0 -0.00000000000E+00 -0.00000000000E+00 -0.45593999997E+02  0.45594000000E+02  0.51100000000E-03 0.  1.
    9900012    2    1    2    0    0  0.43391429305E+02  0.66558809098E+01 -0.10099344281E+02  0.46142316048E+02  0.99999843797E+01 0.  0.
         12    1    1    2    0    0 -0.43391429305E+02 -0.66558809098E+01  0.10099344281E+02  0.45045683952E+02  0.00000000000E+00 0. -1.
         11    1    3    3    0    0  0.20333052708E+02  0.40401907345E+01 -0.73972972105E+01  0.22010819610E+02  0.51100000000E-03 0.  1.
        -11    1    3    3    0    0  0.11188965868E+02 -0.17447012933E+01 -0.16343346944E+01  0.11441502959E+02  0.51100000000E-03 0. -1.
         12    1    3    3    0    0  0.11869410728E+02  0.43603914686E+01 -0.10677123760E+01  0.12689993479E+02  0.00000000000E+00 0. -1.
</event>
<event>
 7    1  0.1381440E-008  0.4614232E+02  0.7816164E-02  0.1320468E+00
        -11   -1    0    0    0    0  0.00000000000E+00  0.00000000000E+00  0.45593999997E+02  0.45594000000E+02  0.51100000000E-03 0.  1.
         11   -1    0    0    0    0 -0.00000000000E+00 -0.00000000000E+00 -0.45593999997E+02  0.45594000000E+02  0.51100000000E-03 0. -1.
    9900012    2    1    2    0    0  0.96953625469E+01 -0.10510069772E+02  0.42715942700E+02  0.46142318939E+02  0.10000010739E+02 0.  0.
         12    1    1    2    0    0 -0.96953625469E+01  0.10510069772E+02 -0.42715942700E+02  0.45045681061E+02  0.00000000000E+00 0. -1.
         11    1    3    3    0    0  0.14766167829E+01  0.13640182777E+01  0.10639284353E+02  0.10827525792E+02  0.51100000000E-03 0. -1.
        -11    1    3    3    0    0  0.70195567265E+01 -0.11142476397E+02  0.26895305821E+02  0.29946392643E+02  0.51100000000E-03 0.  1.
        -12    1    3    3    0    0  0.11991890375E+01 -0.73161165282E+00  0.51813525264E+01  0.53684005030E+01  0.00000000000E+00 0.  1.
</event>
<event>
 7    1  0.1381440E-008  0.4614232E+02  0.7816164E-02  0.1320468E+00
        -11   -1    0    0    0    0  0.00000000000E+00  0.00000000000E+00  0.45593999997E+02  0.45594000000E+02  0.51100000000E-03 0.  1.
         11   -1    0    0    0    0 -0.00000000000E+00 -0.00000000000E+00 -0.45593999997E+02  0.45594000000E+02  0.51100000000E-03 0. -1.
    9900012    2    1    2    0    0  0.99391724220E+00 -0.16105913765E+02  0.42056214369E+02  0.46142317668E+02  0.99999991541E+01 0.  0.
         12    1    1    2    0    0 -0.99391724220E+00  0.16105913765E+02 -0.42056214369E+02  0.45045682332E+02  0.00000000000E+00 0. -1.
         11    1    3    3    0    0 -0.34589273290E+01 -0.86867150955E+01  0.14910747918E+02  0.17599818213E+02  0.51100000000E-03 0. -1.
        -11    1    3    3    0    0  0.22702561643E+01 -0.53180536667E+01  0.18394257241E+02  0.19281713035E+02  0.51100000000E-03 0.  1.
         12    1    3    3    0    0  0.21825884070E+01 -0.21011450025E+01  0.87512092104E+01  0.92607864202E+01  0.00000000000E+00 0. -1.
</event>
<event>
 7    1  0.1381440E-008  0.4614232E+02  0.7816164E-02  0.1320468E+00
        -11   -1    0    0    0    0  0.00000000000E+00  0.00000000000E+00  0.45593999997E+02  0.45594000000E+02  0.51100000000E-03 0. -1.
         11   -1    0    0    0    0 -0.00000000000E+00 -0.00000000000E+00 -0.45593999997E+02  0.45594000000E+02  0.51100000000E-03 0.  1.
    9900012    2    1    2    0    0 -0.51429905113E+01 -0.29919940337E+02 -0.33278524780E+02  0.46142318823E+02  0.10000009679E+02 0.  0.
         12    1    1    2    0    0  0.51429905113E+01  0.29919940337E+02  0.33278524780E+02  0.45045681177E+02  0.00000000000E+00 0. -1.
         11    1    3    3    0    0 -0.16439252970E+01 -0.51105693472E+01 -0.11577755451E+02  0.12761850610E+02  0.51100000000E-03 0. -1.
        -11    1    3    3    0    0 -0.19836526279E+01 -0.56719782266E+01 -0.36555795095E+01  0.70334540990E+01  0.51100000000E-03 0.  1.
        -12    1    3    3    0    0 -0.15154125864E+01 -0.19137392764E+02 -0.18045189820E+02  0.26347014114E+02  0.00000000000E+00 0.  1.
</event>
<event>
 7    1  0.1381440E-008  0.4614232E+02  0.7816164E-02  0.1320468E+00
        -11   -1    0    0    0    0  0.00000000000E+00  0.00000000000E+00  0.45593999997E+02  0.45594000000E+02  0.51100000000E-03 0.  1.
         11   -1    0    0    0    0 -0.00000000000E+00 -0.00000000000E+00 -0.45593999997E+02  0.45594000000E+02  0.51100000000E-03 0. -1.
    9900012    2    1    2    0    0 -0.73815009299E+01 -0.38633963549E+02  0.21955497173E+02  0.46142317060E+02  0.99999936032E+01 0.  0.
         12    1    1    2    0    0  0.73815009299E+01  0.38633963549E+02 -0.21955497173E+02  0.45045682940E+02  0.00000000000E+00 0. -1.
         11    1    3    3    0    0 -0.76087132946E+00 -0.16930665188E+01 -0.85990953671E+00  0.20456891479E+01  0.51100000000E-03 0. -1.
        -11    1    3    3    0    0 -0.70799256853E+01 -0.35982860521E+02  0.22202752110E+02  0.42870197113E+02  0.51100000000E-03 0.  1.
        -12    1    3    3    0    0  0.45929608486E+00 -0.95803650834E+00  0.61265459978E+00  0.12264307985E+01  0.00000000000E+00 0.  1.
</event>
<event>
 7    1  0.1381440E-008  0.4614232E+02  0.7816164E-02  0.1320468E+00
        -11   -1    0    0    0    0  0.00000000000E+00  0.00000000000E+00  0.45593999997E+02  0.45594000000E+02  0.51100000000E-03 0.  1.
         11   -1    0    0    0    0 -0.00000000000E+00 -0.00000000000E+00 -0.45593999997E+02  0.45594000000E+02  0.51100000000E-03 0. -1.
    9900012    2    1    2    0    0 -0.10605127328E+01  0.55354810978E+01  0.44691690294E+02  0.46142318525E+02  0.10000006966E+02 0.  0.
         12    1    1    2    0    0  0.10605127328E+01 -0.55354810978E+01 -0.44691690294E+02  0.45045681475E+02  0.00000000000E+00 0. -1.
         11    1    3    3    0    0  0.25766907055E+01  0.29124848734E+01  0.11352385630E+02  0.11999940120E+02  0.51100000000E-03 0. -1.
        -11    1    3    3    0    0 -0.46588145273E+01  0.13647112179E+00  0.20169002177E+02  0.20700527197E+02  0.51100000000E-03 0.  1.
        -12    1    3    3    0    0  0.10216110891E+01  0.24865251026E+01  0.13170302486E+02  0.13441851207E+02  0.00000000000E+00 0.  1.
</event>
<event>
 7    1  0.1381440E-008  0.4614232E+02  0.7816164E-02  0.1320468E+00
        -11   -1    0    0    0    0  0.00000000000E+00  0.00000000000E+00  0.45593999997E+02  0.45594000000E+02  0.51100000000E-03 0.  1.
         11   -1    0    0    0    0 -0.00000000000E+00 -0.00000000000E+00 -0.45593999997E+02  0.45594000000E+02  0.51100000000E-03 0. -1.
    9900012    2    1    2    0    0  0.35478973113E+01 -0.13412150365E+02  0.42856038487E+02  0.46142318880E+02  0.10000010207E+02 0.  0.
         12    1    1    2    0    0 -0.35478973113E+01  0.13412150365E+02 -0.42856038487E+02  0.45045681120E+02  0.00000000000E+00 0. -1.
         11    1    3    3    0    0  0.19733903960E+01 -0.33005302099E+01  0.30554015695E+01  0.49115423580E+01  0.51100000000E-03 0. -1.
        -11    1    3    3    0    0  0.19373992225E+01 -0.71481358078E+01  0.32696236029E+02  0.33524516582E+02  0.51100000000E-03 0.  1.
         12    1    3    3    0    0 -0.36289230719E+00 -0.29634843472E+01  0.71044008878E+01  0.77062599410E+01  0.00000000000E+00 0. -1.
</event>
<event>
 7    1  0.1381440E-008  0.4614231E+02  0.7816164E-02  0.1320468E+00
        -11   -1    0    0    0    0  0.00000000000E+00  0.00000000000E+00  0.45593999997E+02  0.45594000000E+02  0.51100000000E-03 0.  1.
         11   -1    0    0    0    0 -0.00000000000E+00 -0.00000000000E+00 -0.45593999997E+02  0.45594000000E+02  0.51100000000E-03 0. -1.
    9900012    2    1    2    0    0 -0.16042274175E+02  0.30909620378E+02  0.28571927711E+02  0.46142309354E+02  0.99999233396E+01 0.  0.
         12    1    1    2    0    0  0.16042274175E+02 -0.30909620378E+02 -0.28571927711E+02  0.45045690646E+02  0.00000000000E+00 0. -1.
         11    1    3    3    0    0 -0.25566551147E+01  0.58650002262E+01  0.75460702276E+01  0.98933254859E+01  0.51100000000E-03 0. -1.
        -11    1    3    3    0    0 -0.12801121686E+02  0.16665722942E+02  0.13594543625E+02  0.25028516821E+02  0.51100000000E-03 0.  1.
        -12    1    3    3    0    0 -0.68449737409E+00  0.83788972099E+01  0.74313138585E+01  0.11220467048E+02  0.00000000000E+00 0.  1.
</event>
<event>
 7    1  0.1381440E-008  0.4614232E+02  0.7816164E-02  0.1320468E+00
        -11   -1    0    0    0    0  0.00000000000E+00  0.00000000000E+00  0.45593999997E+02  0.45594000000E+02  0.51100000000E-03 0.  1.
         11   -1    0    0    0    0 -0.00000000000E+00 -0.00000000000E+00 -0.45593999997E+02  0.45594000000E+02  0.51100000000E-03 0. -1.
    9900012    2    1    2    0    0  0.17551133676E+02 -0.19975386844E+02  0.36360075469E+02  0.46142318064E+02  0.10000002766E+02 0.  0.
         12    1    1    2    0    0 -0.17551133676E+02  0.19975386844E+02 -0.36360075469E+02  0.45045681936E+02  0.00000000000E+00 0. -1.
         11    1    3    3    0    0  0.39257943296E+00 -0.79666678484E+00 -0.19428615497E+00  0.90914462457E+00  0.51100000000E-03 0. -1.
        -11    1    3    3    0    0  0.10284021986E+02 -0.13868431518E+02  0.28852513597E+02  0.33623831461E+02  0.51100000000E-03 0.  1.
         12    1    3    3    0    0  0.68745322568E+01 -0.53102885421E+01  0.77018480272E+01  0.11609341979E+02  0.00000000000E+00 0. -1.
</event>
<event>
 7    1  0.1381440E-008  0.4614232E+02  0.7816164E-02  0.1320468E+00
        -11   -1    0    0    0    0  0.00000000000E+00  0.00000000000E+00  0.45593999997E+02  0.45594000000E+02  0.51100000000E-03 0.  1.
         11   -1    0    0    0    0 -0.00000000000E+00 -0.00000000000E+00 -0.45593999997E+02  0.45594000000E+02  0.51100000000E-03 0. -1.
    9900012    2    1    2    0    0  0.37364346908E+02 -0.21134219969E+02  0.13651510837E+02  0.46142318501E+02  0.10000006749E+02 0.  0.
         12    1    1    2    0    0 -0.37364346908E+02  0.21134219969E+02 -0.13651510837E+02  0.45045681499E+02  0.00000000000E+00 0. -1.
         11    1    3    3    0    0  0.49690056950E+01 -0.42459372189E+01  0.10982248408E+01  0.66276012648E+01  0.51100000000E-03 0. -1.
        -11    1    3    3    0    0  0.26731465401E+02 -0.16432504350E+02  0.84204028532E+01  0.32488484516E+02  0.51100000000E-03 0.  1.
        -12    1    3    3    0    0  0.56638758124E+01 -0.45577840021E+00  0.41328831427E+01  0.70262327203E+01  0.00000000000E+00 0.  1.
</event>
<event>
 7    1  0.1381440E-008  0.4614232E+02  0.7816164E-02  0.1320468E+00
        -11   -1    0    0    0    0  0.00000000000E+00  0.00000000000E+00  0.45593999997E+02  0.45594000000E+02  0.51100000000E-03 0. -1.
         11   -1    0    0    0    0 -0.00000000000E+00 -0.00000000000E+00 -0.45593999997E+02  0.45594000000E+02  0.51100000000E-03 0.  1.
    9900012    2    1    2    0    0 -0.40875899759E+02 -0.13739448224E+02  0.13019286091E+02  0.46142318421E+02  0.10000006016E+02 0.  0.
         12    1    1    2    0    0  0.40875899759E+02  0.13739448224E+02 -0.13019286091E+02  0.45045681579E+02  0.00000000000E+00 0. -1.
         11    1    3    3    0    0 -0.12161330455E+02 -0.69831290876E+01  0.44785763477E+01  0.14721402673E+02  0.51100000000E-03 0. -1.
        -11    1    3    3    0    0 -0.15457923183E+02 -0.48867194291E+00  0.30532638048E+01  0.15764155846E+02  0.51100000000E-03 0.  1.
        -12    1    3    3    0    0 -0.13256646121E+02 -0.62676471936E+01  0.54874459385E+01  0.15656759902E+02  0.00000000000E+00 0.  1.
</event>
<event>
 7    1  0.1381440E-008  0.4614232E+02  0.7816164E-02  0.1320468E+00
        -11   -1    0    0    0    0  0.00000000000E+00  0.00000000000E+00  0.45593999997E+02  0.45594000000E+02  0.51100000000E-03 0.  1.
         11   -1    0    0    0    0 -0.00000000000E+00 -0.00000000000E+00 -0.45593999997E+02  0.45594000000E+02  0.51100000000E-03 0. -1.
    9900012    2    1    2    0    0 -0.22655600129E+02 -0.11857803977E+02  0.37084091068E+02  0.46142317158E+02  0.99999944981E+01 0.  0.
         12    1    1    2    0    0  0.22655600129E+02  0.11857803977E+02 -0.37084091068E+02  0.45045682842E+02  0.00000000000E+00 0. -1.
         11    1    3    3    0    0 -0.44999663597E+01 -0.18695070591E+01  0.55081234055E+01  0.73541945578E+01  0.51100000000E-03 0. -1.
        -11    1    3    3    0    0 -0.57941184647E+01 -0.29382643343E+01  0.17935706651E+02  0.19076026300E+02  0.51100000000E-03 0.  1.
        -12    1    3    3    0    0 -0.12361515305E+02 -0.70500325841E+01  0.13640261012E+02  0.19712096300E+02  0.00000000000E+00 0.  1.
</event>
<event>
 7    1  0.1381440E-008  0.4614232E+02  0.7816164E-02  0.1320468E+00
        -11   -1    0    0    0    0  0.00000000000E+00  0.00000000000E+00  0.45593999997E+02  0.45594000000E+02  0.51100000000E-03 0.  1.
         11   -1    0    0    0    0 -0.00000000000E+00 -0.00000000000E+00 -0.45593999997E+02  0.45594000000E+02  0.51100000000E-03 0. -1.
    9900012    2    1    2    0    0  0.31349819748E+02 -0.17775459528E+02  0.27024714671E+02  0.46142319156E+02  0.10000012719E+02 0.  0.
         12    1    1    2    0    0 -0.31349819748E+02  0.17775459528E+02 -0.27024714671E+02  0.45045680844E+02  0.00000000000E+00 0. -1.
         11    1    3    3    0    0  0.10616531393E+01 -0.34590033966E+01  0.37776313968E+01  0.52308996470E+01  0.51100000000E-03 0. -1.
        -11    1    3    3    0    0  0.21319059701E+02 -0.10303379377E+02  0.14565163472E+02  0.27799387050E+02  0.51100000000E-03 0.  1.
         12    1    3    3    0    0  0.89691069081E+01 -0.40130767550E+01  0.86819198015E+01  0.13112032459E+02  0.00000000000E+00 0. -1.
</event>
<event>
 7    1  0.1381440E-008  0.4614232E+02  0.7816164E-02  0.1320468E+00
        -11   -1    0    0    0    0  0.00000000000E+00  0.00000000000E+00  0.45593999997E+02  0.45594000000E+02  0.51100000000E-03 0.  1.
         11   -1    0    0    0    0 -0.00000000000E+00 -0.00000000000E+00 -0.45593999997E+02  0.45594000000E+02  0.51100000000E-03 0. -1.
    9900012    2    1    2    0    0 -0.21742043543E+02  0.26941346799E+02  0.28819451593E+02  0.46142318576E+02  0.10000007434E+02 0.  0.
         12    1    1    2    0    0  0.21742043543E+02 -0.26941346799E+02 -0.28819451593E+02  0.45045681424E+02  0.00000000000E+00 0. -1.
         11    1    3    3    0    0 -0.59263057057E-01 -0.42957195377E-01 -0.27304740397E+00  0.28268812586E+00  0.51100000000E-03 0. -1.
        -11    1    3    3    0    0 -0.16080102301E+02  0.15937906702E+02  0.22088383613E+02  0.31630416547E+02  0.51100000000E-03 0.  1.
        -12    1    3    3    0    0 -0.56026781853E+01  0.11046397293E+02  0.70041153840E+01  0.14229213903E+02  0.00000000000E+00 0.  1.
</event>
<event>
 7    1  0.1381440E-008  0.4614232E+02  0.7816164E-02  0.1320468E+00
        -11   -1    0    0    0    0  0.00000000000E+00  0.00000000000E+00  0.45593999997E+02  0.45594000000E+02  0.51100000000E-03 0.  1.
         11   -1    0    0    0    0 -0.00000000000E+00 -0.00000000000E+00 -0.45593999997E+02  0.45594000000E+02  0.51100000000E-03 0. -1.
    9900012    2    1    2    0    0 -0.22803349887E+02 -0.36203864274E+02  0.14085486347E+02  0.46142317853E+02  0.10000000836E+02 0.  0.
         12    1    1    2    0    0  0.22803349887E+02  0.36203864274E+02 -0.14085486347E+02  0.45045682147E+02  0.00000000000E+00 0. -1.
         11    1    3    3    0    0 -0.10763115151E+01 -0.74776181023E+01  0.15826526150E+01  0.77186791954E+01  0.51100000000E-03 0. -1.
        -11    1    3    3    0    0 -0.18078398975E+02 -0.21063314220E+02  0.84288252365E+01  0.29009253878E+02  0.51100000000E-03 0.  1.
        -12    1    3    3    0    0 -0.36486393973E+01 -0.76629319518E+01  0.40740084951E+01  0.94143847790E+01  0.00000000000E+00 0.  1.
</event>
<event>
 7    1  0.1381440E-008  0.4614231E+02  0.7816164E-02  0.1320468E+00
        -11   -1    0    0    0    0  0.00000000000E+00  0.00000000000E+00  0.45593999997E+02  0.45594000000E+02  0.51100000000E-03 0. -1.
         11   -1    0    0    0    0 -0.00000000000E+00 -0.00000000000E+00 -0.45593999997E+02  0.45594000000E+02  0.51100000000E-03 0.  1.
    9900012    2    1    2    0    0 -0.95869526896E+01  0.44011491050E+02  0.43904306024E+00  0.46142314690E+02  0.99999719907E+01 0.  0.
         12    1    1    2    0    0  0.95869526896E+01 -0.44011491050E+02 -0.43904306024E+00  0.45045685310E+02  0.00000000000E+00 0. -1.
         11    1    3    3    0    0  0.19529282090E+00 -0.25895330968E+00  0.17885639415E+00  0.37038624885E+00  0.51100000000E-03 0. -1.
        -11    1    3    3    0    0 -0.48481110776E+01  0.31052601168E+02 -0.19586892801E+01  0.31489755227E+02  0.51100000000E-03 0.  1.
         12    1    3    3    0    0 -0.49341344329E+01  0.13217843191E+02  0.22188759462E+01  0.14282173214E+02  0.00000000000E+00 0. -1.
</event>
<event>
 7    1  0.1381440E-008  0.4614232E+02  0.7816164E-02  0.1320468E+00
        -11   -1    0    0    0    0  0.00000000000E+00  0.00000000000E+00  0.45593999997E+02  0.45594000000E+02  0.51100000000E-03 0.  1.
         11   -1    0    0    0    0 -0.00000000000E+00 -0.00000000000E+00 -0.45593999997E+02  0.45594000000E+02  0.51100000000E-03 0. -1.
    9900012    2    1    2    0    0  0.40768301583E+02  0.19155389977E+02  0.36087387566E+00  0.46142316421E+02  0.99999877768E+01 0.  0.
         12    1    1    2    0    0 -0.40768301583E+02 -0.19155389977E+02 -0.36087387566E+00  0.45045683579E+02  0.00000000000E+00 0. -1.
         11    1    3    3    0    0  0.19609200999E+01  0.28718007074E+01  0.39979128773E+00  0.35003257386E+01  0.51100000000E-03 0. -1.
        -11    1    3    3    0    0  0.10053670545E+02  0.34396841309E+01  0.28965995909E+01  0.11013537479E+02  0.51100000000E-03 0.  1.
        -12    1    3    3    0    0  0.28753710938E+02  0.12843905139E+02 -0.29355170030E+01  0.31628453203E+02  0.00000000000E+00 0.  1.
</event>
<event>
 7    1  0.1381440E-008  0.4614232E+02  0.7816164E-02  0.1320468E+00
        -11   -1    0    0    0    0  0.00000000000E+00  0.00000000000E+00  0.45593999997E+02  0.45594000000E+02  0.51100000000E-03 0.  1.
         11   -1    0    0    0    0 -0.00000000000E+00 -0.00000000000E+00 -0.45593999997E+02  0.45594000000E+02  0.51100000000E-03 0. -1.
    9900012    2    1    2    0    0 -0.17440900026E+02  0.23883691638E+02  0.33977901732E+02  0.46142317342E+02  0.99999961816E+01 0.  0.
         12    1    1    2    0    0  0.17440900026E+02 -0.23883691638E+02 -0.33977901732E+02  0.45045682658E+02  0.00000000000E+00 0. -1.
         11    1    3    3    0    0  0.92448360738E-01  0.74322183367E+00 -0.30636223137E+00  0.80918691992E+00  0.51100000000E-03 0. -1.
        -11    1    3    3    0    0 -0.17410589862E+02  0.23104581125E+02  0.34535237286E+02  0.45051447513E+02  0.51100000000E-03 0.  1.
        -12    1    3    3    0    0 -0.12275852490E+00  0.35888678370E-01 -0.25097332281E+00  0.28168290937E+00  0.00000000000E+00 0.  1.
</event>
<event>
 7    1  0.1381440E-008  0.4614232E+02  0.7816164E-02  0.1320468E+00
        -11   -1    0    0    0    0  0.00000000000E+00  0.00000000000E+00  0.45593999997E+02  0.45594000000E+02  0.51100000000E-03 0.  1.
         11   -1    0    0    0    0 -0.00000000000E+00 -0.00000000000E+00 -0.45593999997E+02  0.45594000000E+02  0.51100000000E-03 0. -1.
    9900012    2    1    2    0    0 -0.39877351255E+02  0.15360172399E+02  0.14246945043E+02  0.46142317828E+02  0.10000000614E+02 0.  0.
         12    1    1    2    0    0  0.39877351255E+02 -0.15360172399E+02 -0.14246945043E+02  0.45045682172E+02  0.00000000000E+00 0. -1.
         11    1    3    3    0    0 -0.23971227822E+02  0.81135277712E+01  0.97047959573E+01  0.27104098602E+02  0.51100000000E-03 0. -1.
        -11    1    3    3    0    0 -0.12218736084E+02  0.63625619555E+01  0.59329419200E+01  0.14999316859E+02  0.51100000000E-03 0.  1.
         12    1    3    3    0    0 -0.36873873487E+01  0.88408267236E+00 -0.13907928341E+01  0.40389023680E+01  0.00000000000E+00 0. -1.
</event>
<event>
 7    1  0.1381440E-008  0.4614232E+02  0.7816164E-02  0.1320468E+00
        -11   -1    0    0    0    0  0.00000000000E+00  0.00000000000E+00  0.45593999997E+02  0.45594000000E+02  0.51100000000E-03 0.  1.
         11   -1    0    0    0    0 -0.00000000000E+00 -0.00000000000E+00 -0.45593999997E+02  0.45594000000E+02  0.51100000000E-03 0. -1.
    9900012    2    1    2    0    0 -0.15190300578E+02 -0.34870294572E+02  0.24133603371E+02  0.46142317778E+02  0.10000000156E+02 0.  0.
         12    1    1    2    0    0  0.15190300578E+02  0.34870294572E+02 -0.24133603371E+02  0.45045682222E+02  0.00000000000E+00 0. -1.
         11    1    3    3    0    0 -0.82400773184E+01 -0.19024918380E+02  0.17058408798E+02  0.26848383649E+02  0.51100000000E-03 0. -1.
        -11    1    3    3    0    0 -0.30195114015E+01 -0.36616166013E+01  0.17184141475E+00  0.47491488681E+01  0.51100000000E-03 0.  1.
        -12    1    3    3    0    0 -0.39307118583E+01 -0.12183759590E+02  0.69033531578E+01  0.14544785261E+02  0.00000000000E+00 0.  1.
</event>
<event>
 7    1  0.1381440E-008  0.4614232E+02  0.7816164E-02  0.1320468E+00
        -11   -1    0    0    0    0  0.00000000000E+00  0.00000000000E+00  0.45593999997E+02  0.45594000000E+02  0.51100000000E-03 0.  1.
         11   -1    0    0    0    0 -0.00000000000E+00 -0.00000000000E+00 -0.45593999997E+02  0.45594000000E+02  0.51100000000E-03 0. -1.
    9900012    2    1    2    0    0  0.10682687701E+02  0.24967213535E+02  0.35939280325E+02  0.46142318314E+02  0.10000005046E+02 0.  0.
         12    1    1    2    0    0 -0.10682687701E+02 -0.24967213535E+02 -0.35939280325E+02  0.45045681686E+02  0.00000000000E+00 0. -1.
         11    1    3    3    0    0  0.45232204916E+00  0.52766805181E+01  0.12004240120E+02  0.13120584348E+02  0.51100000000E-03 0. -1.
        -11    1    3    3    0    0  0.69200337922E+01  0.93101497227E+01  0.98749289587E+01  0.15234171384E+02  0.51100000000E-03 0.  1.
         12    1    3    3    0    0  0.33103318596E+01  0.10380383294E+02  0.14060111247E+02  0.17787562582E+02  0.00000000000E+00 0. -1.
</event>
<event>
 7    1  0.1381440E-008  0.4614232E+02  0.7816164E-02  0.1320468E+00
        -11   -1    0    0    0    0  0.00000000000E+00  0.00000000000E+00  0.45593999997E+02  0.45594000000E+02  0.51100000000E-03 0.  1.
         11   -1    0    0    0    0 -0.00000000000E+00 -0.00000000000E+00 -0.45593999997E+02  0.45594000000E+02  0.51100000000E-03 0. -1.
    9900012    2    1    2    0    0  0.36348879969E+02 -0.92240650001E+01  0.24955741648E+02  0.46142317728E+02  0.99999996999E+01 0.  0.
         12    1    1    2    0    0 -0.36348879969E+02  0.92240650001E+01 -0.24955741648E+02  0.45045682272E+02  0.00000000000E+00 0. -1.
         11    1    3    3    0    0  0.65943789113E+01  0.11245759374E+00  0.17381532444E+01  0.68205320099E+01  0.51100000000E-03 0. -1.
        -11    1    3    3    0    0  0.15692886971E+02 -0.73936638476E+01  0.14908901986E+02  0.22873747513E+02  0.51100000000E-03 0.  1.
        -12    1    3    3    0    0  0.14061614086E+02 -0.19428587463E+01  0.83086864168E+01  0.16448038205E+02  0.00000000000E+00 0.  1.
</event>
<event>
 7    1  0.1381440E-008  0.4614232E+02  0.7816164E-02  0.1320468E+00
        -11   -1    0    0    0    0  0.00000000000E+00  0.00000000000E+00  0.45593999997E+02  0.45594000000E+02  0.51100000000E-03 0.  1.
         11   -1    0    0    0    0 -0.00000000000E+00 -0.00000000000E+00 -0.45593999997E+02  0.45594000000E+02  0.51100000000E-03 0. -1.
    9900012    2    1    2    0    0 -0.20359796350E+02 -0.33074003014E+02  0.22818905163E+02  0.46142318568E+02  0.10000007361E+02 0.  0.
         12    1    1    2    0    0  0.20359796350E+02  0.33074003014E+02 -0.22818905163E+02  0.45045681432E+02  0.00000000000E+00 0. -1.
         11    1    3    3    0    0 -0.64867399001E+00  0.81977309058E-01 -0.55303698602E+00  0.85635763180E+00  0.51100000000E-03 0. -1.
        -11    1    3    3    0    0 -0.64516852313E+01 -0.12734000377E+02  0.66506956184E+01  0.15748357387E+02  0.51100000000E-03 0.  1.
         12    1    3    3    0    0 -0.13259437129E+02 -0.20421979946E+02  0.16721246531E+02  0.29537603550E+02  0.00000000000E+00 0. -1.
</event>
